 Entering Gaussian System, Link 0=g16
 AtFile(1): /home/561/yj5695/Basis/6-31pGd.gbs
 Initial command:
 /apps/gaussian/g16c01/g16/l1.exe "/jobfs/40735762.gadi-pbs/Gau-966734.inp" -scrdir="/jobfs/40735762.gadi-pbs/"
 Entering Link 1 = /apps/gaussian/g16c01/g16/l1.exe PID=    966735.
  
 Copyright (c) 1988-2019, Gaussian, Inc.  All Rights Reserved.
  
 This is part of the Gaussian(R) 16 program.  It is based on
 the Gaussian(R) 09 system (copyright 2009, Gaussian, Inc.),
 the Gaussian(R) 03 system (copyright 2003, Gaussian, Inc.),
 the Gaussian(R) 98 system (copyright 1998, Gaussian, Inc.),
 the Gaussian(R) 94 system (copyright 1995, Gaussian, Inc.),
 the Gaussian 92(TM) system (copyright 1992, Gaussian, Inc.),
 the Gaussian 90(TM) system (copyright 1990, Gaussian, Inc.),
 the Gaussian 88(TM) system (copyright 1988, Gaussian, Inc.),
 the Gaussian 86(TM) system (copyright 1986, Carnegie Mellon
 University), and the Gaussian 82(TM) system (copyright 1983,
 Carnegie Mellon University). Gaussian is a federally registered
 trademark of Gaussian, Inc.
  
 This software contains proprietary and confidential information,
 including trade secrets, belonging to Gaussian, Inc.
  
 This software is provided under written license and may be
 used, copied, transmitted, or stored only in accord with that
 written license.
  
 The following legend is applicable only to US Government
 contracts under FAR:
  
                    RESTRICTED RIGHTS LEGEND
  
 Use, reproduction and disclosure by the US Government is
 subject to restrictions as set forth in subparagraphs (a)
 and (c) of the Commercial Computer Software - Restricted
 Rights clause in FAR 52.227-19.
  
 Gaussian, Inc.
 340 Quinnipiac St., Bldg. 40, Wallingford CT 06492
  
  
 ---------------------------------------------------------------
 Warning -- This program may not be used in any manner that
 competes with the business of Gaussian, Inc. or will provide
 assistance to any competitor of Gaussian, Inc.  The licensee
 of this program is prohibited from giving any competitor of
 Gaussian, Inc. access to this program.  By using this program,
 the user acknowledges that Gaussian, Inc. is engaged in the
 business of creating and licensing software in the field of
 computational chemistry and represents and warrants to the
 licensee that it is not a competitor of Gaussian, Inc. and that
 it will not use this program in any manner prohibited above.
 ---------------------------------------------------------------
  

 Cite this work as:
 Gaussian 16, Revision C.01,
 M. J. Frisch, G. W. Trucks, H. B. Schlegel, G. E. Scuseria, 
 M. A. Robb, J. R. Cheeseman, G. Scalmani, V. Barone, 
 G. A. Petersson, H. Nakatsuji, X. Li, M. Caricato, A. V. Marenich, 
 J. Bloino, B. G. Janesko, R. Gomperts, B. Mennucci, H. P. Hratchian, 
 J. V. Ortiz, A. F. Izmaylov, J. L. Sonnenberg, D. Williams-Young, 
 F. Ding, F. Lipparini, F. Egidi, J. Goings, B. Peng, A. Petrone, 
 T. Henderson, D. Ranasinghe, V. G. Zakrzewski, J. Gao, N. Rega, 
 G. Zheng, W. Liang, M. Hada, M. Ehara, K. Toyota, R. Fukuda, 
 J. Hasegawa, M. Ishida, T. Nakajima, Y. Honda, O. Kitao, H. Nakai, 
 T. Vreven, K. Throssell, J. A. Montgomery, Jr., J. E. Peralta, 
 F. Ogliaro, M. J. Bearpark, J. J. Heyd, E. N. Brothers, K. N. Kudin, 
 V. N. Staroverov, T. A. Keith, R. Kobayashi, J. Normand, 
 K. Raghavachari, A. P. Rendell, J. C. Burant, S. S. Iyengar, 
 J. Tomasi, M. Cossi, J. M. Millam, M. Klene, C. Adamo, R. Cammi, 
 J. W. Ochterski, R. L. Martin, K. Morokuma, O. Farkas, 
 J. B. Foresman, and D. J. Fox, Gaussian, Inc., Wallingford CT, 2019.
 
 ******************************************
 Gaussian 16:  ES64L-G16RevC.01  3-Jul-2019
                20-May-2022 
 ******************************************
 %nproc=16
 Will use up to   16 processors via shared memory.
 %mem=20gb
 --------------------------------------------------
 #M062X/gen 6D INT(grid=ultrafine) OPT Freq=noraman
 --------------------------------------------------
 1/18=20,19=15,26=4,38=1/1,3;
 2/9=110,12=2,17=6,18=5,40=1/2;
 3/5=7,8=2,11=2,25=1,30=1,71=1,74=-55,75=-5/1,2,3;
 4//1;
 5/5=2,38=5/2;
 6/7=2,8=2,9=2,10=2,28=1/1;
 7//1,2,3,16;
 1/18=20,19=15,26=4/3(2);
 2/9=110/2;
 99//99;
 2/9=110/2;
 3/5=7,6=1,8=2,11=2,25=1,30=1,71=1,74=-55,75=-5,82=7/1,2,3;
 4/5=5,16=3,69=1/1;
 5/5=2,38=5/2;
 7//1,2,3,16;
 1/18=20,19=15,26=4/3(-5);
 2/9=110/2;
 6/7=2,8=2,9=2,10=2,19=2,28=1/1;
 99/9=1/99;
 -----------
 A.1.a1.freq
 -----------
 Symbolic Z-matrix:
 Charge = -1 Multiplicity = 1
 C                    -1.3024    0.73735  -0.93153 
 C                    -2.50946   0.76074  -1.63134 
 H                    -3.45424   0.70443  -1.09708 
 C                    -2.49248   0.86444  -3.02086 
 H                    -3.42885   0.88795  -3.57039 
 C                    -1.27635   0.94097  -3.70318 
 H                    -1.26624   1.02329  -4.78605 
 C                    -0.07543   0.91417  -2.99452 
 H                     0.87127   0.97693  -3.52298 
 C                    -0.08393   0.80923  -1.6028 
 H                     0.84687   0.79007  -1.0445 
 S                    -1.33654   0.50888   0.85496 
 O                     0.01144   0.92474   1.32874 
 O                    -2.43832   1.41547   1.30607 
 N                    -1.55202  -1.00328   1.19404 
 H                    -2.5192   -1.24173   0.957 
 

 GradGradGradGradGradGradGradGradGradGradGradGradGradGradGradGradGradGrad
 Berny optimization.
 Initialization pass.
                           ----------------------------
                           !    Initial Parameters    !
                           ! (Angstroms and Degrees)  !
 --------------------------                            --------------------------
 ! Name  Definition              Value          Derivative Info.                !
 --------------------------------------------------------------------------------
 ! R1    R(1,2)                  1.3954         estimate D2E/DX2                !
 ! R2    R(1,10)                 1.393          estimate D2E/DX2                !
 ! R3    R(1,12)                 1.8014         estimate D2E/DX2                !
 ! R4    R(2,3)                  1.0868         estimate D2E/DX2                !
 ! R5    R(2,4)                  1.3935         estimate D2E/DX2                !
 ! R6    R(4,5)                  1.086          estimate D2E/DX2                !
 ! R7    R(4,6)                  1.3966         estimate D2E/DX2                !
 ! R8    R(6,7)                  1.086          estimate D2E/DX2                !
 ! R9    R(6,8)                  1.3947         estimate D2E/DX2                !
 ! R10   R(8,9)                  1.086          estimate D2E/DX2                !
 ! R11   R(8,10)                 1.3957         estimate D2E/DX2                !
 ! R12   R(10,11)                1.0856         estimate D2E/DX2                !
 ! R13   R(12,13)                1.4881         estimate D2E/DX2                !
 ! R14   R(12,14)                1.4964         estimate D2E/DX2                !
 ! R15   R(12,15)                1.5646         estimate D2E/DX2                !
 ! R16   R(15,16)                1.024          estimate D2E/DX2                !
 ! A1    A(2,1,10)             120.9374         estimate D2E/DX2                !
 ! A2    A(2,1,12)             118.8871         estimate D2E/DX2                !
 ! A3    A(10,1,12)            120.0679         estimate D2E/DX2                !
 ! A4    A(1,2,3)              120.301          estimate D2E/DX2                !
 ! A5    A(1,2,4)              119.391          estimate D2E/DX2                !
 ! A6    A(3,2,4)              120.307          estimate D2E/DX2                !
 ! A7    A(2,4,5)              119.7152         estimate D2E/DX2                !
 ! A8    A(2,4,6)              120.1242         estimate D2E/DX2                !
 ! A9    A(5,4,6)              120.1604         estimate D2E/DX2                !
 ! A10   A(4,6,7)              119.9606         estimate D2E/DX2                !
 ! A11   A(4,6,8)              120.0344         estimate D2E/DX2                !
 ! A12   A(7,6,8)              120.005          estimate D2E/DX2                !
 ! A13   A(6,8,9)              120.1488         estimate D2E/DX2                !
 ! A14   A(6,8,10)             120.19           estimate D2E/DX2                !
 ! A15   A(9,8,10)             119.6611         estimate D2E/DX2                !
 ! A16   A(1,10,8)             119.3219         estimate D2E/DX2                !
 ! A17   A(1,10,11)            120.0841         estimate D2E/DX2                !
 ! A18   A(8,10,11)            120.5927         estimate D2E/DX2                !
 ! A19   A(1,12,13)            105.2564         estimate D2E/DX2                !
 ! A20   A(1,12,14)            103.6554         estimate D2E/DX2                !
 ! A21   A(1,12,15)            109.8838         estimate D2E/DX2                !
 ! A22   A(13,12,14)           113.682          estimate D2E/DX2                !
 ! A23   A(13,12,15)           109.0163         estimate D2E/DX2                !
 ! A24   A(14,12,15)           114.7585         estimate D2E/DX2                !
 ! A25   A(12,15,16)           107.7569         estimate D2E/DX2                !
 ! D1    D(10,1,2,3)          -179.9769         estimate D2E/DX2                !
 ! D2    D(10,1,2,4)            -0.3311         estimate D2E/DX2                !
 ! D3    D(12,1,2,3)             3.7916         estimate D2E/DX2                !
 ! D4    D(12,1,2,4)          -176.5627         estimate D2E/DX2                !
 ! D5    D(2,1,10,8)             0.3898         estimate D2E/DX2                !
 ! D6    D(2,1,10,11)          179.9902         estimate D2E/DX2                !
 ! D7    D(12,1,10,8)          176.5772         estimate D2E/DX2                !
 ! D8    D(12,1,10,11)          -3.8225         estimate D2E/DX2                !
 ! D9    D(2,1,12,13)         -163.8572         estimate D2E/DX2                !
 ! D10   D(2,1,12,14)          -44.2067         estimate D2E/DX2                !
 ! D11   D(2,1,12,15)           78.8976         estimate D2E/DX2                !
 ! D12   D(10,1,12,13)          19.8776         estimate D2E/DX2                !
 ! D13   D(10,1,12,14)         139.5281         estimate D2E/DX2                !
 ! D14   D(10,1,12,15)         -97.3675         estimate D2E/DX2                !
 ! D15   D(1,2,4,5)           -179.7048         estimate D2E/DX2                !
 ! D16   D(1,2,4,6)              0.1437         estimate D2E/DX2                !
 ! D17   D(3,2,4,5)             -0.0591         estimate D2E/DX2                !
 ! D18   D(3,2,4,6)            179.7895         estimate D2E/DX2                !
 ! D19   D(2,4,6,7)           -179.9044         estimate D2E/DX2                !
 ! D20   D(2,4,6,8)             -0.0207         estimate D2E/DX2                !
 ! D21   D(5,4,6,7)             -0.0566         estimate D2E/DX2                !
 ! D22   D(5,4,6,8)            179.8271         estimate D2E/DX2                !
 ! D23   D(4,6,8,9)           -179.7945         estimate D2E/DX2                !
 ! D24   D(4,6,8,10)             0.0804         estimate D2E/DX2                !
 ! D25   D(7,6,8,9)              0.0891         estimate D2E/DX2                !
 ! D26   D(7,6,8,10)           179.9641         estimate D2E/DX2                !
 ! D27   D(6,8,10,1)            -0.2621         estimate D2E/DX2                !
 ! D28   D(6,8,10,11)         -179.8604         estimate D2E/DX2                !
 ! D29   D(9,8,10,1)           179.6134         estimate D2E/DX2                !
 ! D30   D(9,8,10,11)            0.0151         estimate D2E/DX2                !
 ! D31   D(1,12,15,16)         -71.3852         estimate D2E/DX2                !
 ! D32   D(13,12,15,16)        173.7409         estimate D2E/DX2                !
 ! D33   D(14,12,15,16)         44.9267         estimate D2E/DX2                !
 --------------------------------------------------------------------------------
 Trust Radius=3.00D-01 FncErr=1.00D-07 GrdErr=1.00D-06 EigMax=2.50D+02 EigMin=1.00D-04
 Number of steps in this run=     84 maximum allowed number of steps=    100.
 GradGradGradGradGradGradGradGradGradGradGradGradGradGradGradGradGradGrad

                          Input orientation:                          
 ---------------------------------------------------------------------
 Center     Atomic      Atomic             Coordinates (Angstroms)
 Number     Number       Type             X           Y           Z
 ---------------------------------------------------------------------
      1          6           0       -1.302402    0.737350   -0.931534
      2          6           0       -2.509464    0.760738   -1.631343
      3          1           0       -3.454237    0.704427   -1.097078
      4          6           0       -2.492475    0.864437   -3.020855
      5          1           0       -3.428852    0.887950   -3.570393
      6          6           0       -1.276348    0.940972   -3.703177
      7          1           0       -1.266241    1.023294   -4.786045
      8          6           0       -0.075426    0.914174   -2.994519
      9          1           0        0.871273    0.976931   -3.522980
     10          6           0       -0.083925    0.809232   -1.602796
     11          1           0        0.846873    0.790065   -1.044501
     12         16           0       -1.336541    0.508879    0.854963
     13          8           0        0.011442    0.924736    1.328744
     14          8           0       -2.438318    1.415467    1.306071
     15          7           0       -1.552017   -1.003281    1.194036
     16          1           0       -2.519201   -1.241733    0.956995
 ---------------------------------------------------------------------
                    Distance matrix (angstroms):
                    1          2          3          4          5
     1  C    0.000000
     2  C    1.395449   0.000000
     3  H    2.158444   1.086833   0.000000
     4  C    2.407839   1.393480   2.156735   0.000000
     5  H    3.392351   2.149738   2.480244   1.085977   0.000000
     6  C    2.779235   2.417758   3.404542   1.396562   2.157247
     7  H    3.865272   3.400983   4.300870   2.155175   2.484555
     8  C    2.406791   2.793981   3.880804   2.417704   3.402614
     9  H    3.390849   3.880002   4.966819   3.402879   4.301307
    10  C    1.392999   2.426192   3.409654   2.795541   3.881517
    11  H    2.152887   3.407380   4.302284   3.881076   4.967045
    12  S    1.801371   2.760598   2.886752   4.060119   4.909708
    13  O    2.621098   3.891526   4.236045   5.019188   5.986528
    14  O    2.599428   3.010338   2.704218   4.362208   5.003932
    15  N    2.758650   3.465723   3.432770   4.705118   5.458850
    16  H    2.993979   3.272534   2.980109   4.501106   5.085298
                    6          7          8          9         10
     6  C    0.000000
     7  H    1.086040   0.000000
     8  C    1.394678   2.153953   0.000000
     9  H    2.155467   2.483234   1.086024   0.000000
    10  C    2.418849   3.402465   1.395700   2.151193   0.000000
    11  H    3.405789   4.303347   2.160696   2.485633   1.085562
    12  S    4.578970   5.664851   4.071018   4.925434   2.774858
    13  O    5.194121   6.247626   4.324149   4.927602   2.935364
    14  O    5.164096   6.216224   4.932507   5.870727   3.791068
    15  N    5.276249   6.320605   4.837453   5.660726   3.641808
    16  H    5.293967   6.299426   5.121956   6.040526   4.085285
                   11         12         13         14         15
    11  H    0.000000
    12  S    2.907632   0.000000
    13  O    2.519598   1.488107   0.000000
    14  O    4.087639   1.496433   2.498531   0.000000
    15  N    3.739226   1.564618   2.485920   2.578454   0.000000
    16  H    4.411875   2.115121   3.352005   2.681251   1.023959
                   16
    16  H    0.000000
 Stoichiometry    C6H6NO2S(1-)
 Framework group  C1[X(C6H6NO2S)]
 Deg. of freedom    42
 Full point group                 C1      NOp   1
 Largest Abelian subgroup         C1      NOp   1
 Largest concise Abelian subgroup C1      NOp   1
                         Standard orientation:                         
 ---------------------------------------------------------------------
 Center     Atomic      Atomic             Coordinates (Angstroms)
 Number     Number       Type             X           Y           Z
 ---------------------------------------------------------------------
      1          6           0        0.281498    0.016075   -0.050978
      2          6           0        0.957600   -1.204640   -0.046386
      3          1           0        0.403175   -2.138696   -0.083245
      4          6           0        2.350322   -1.214867   -0.001610
      5          1           0        2.882003   -2.161789   -0.002678
      6          6           0        3.059058   -0.012268    0.041240
      7          1           0        4.144532   -0.023313    0.074516
      8          6           0        2.373683    1.202386    0.038863
      9          1           0        2.923061    2.138729    0.068776
     10          6           0        0.978785    1.221099   -0.004587
     11          1           0        0.438761    2.162800   -0.008979
     12         16           0       -1.519501    0.013496   -0.014479
     13          8           0       -1.921469    1.385862   -0.426179
     14          8           0       -1.891419   -1.044436   -1.005322
     15          7           0       -2.021826   -0.248945    1.443884
     16          1           0       -1.829314   -1.229164    1.668837
 ---------------------------------------------------------------------
 Rotational constants (GHZ):           2.6498470           0.8344335           0.7280832
 General basis read from cards:  (6D, 7F)
 There are   206 symmetry adapted cartesian basis functions of A   symmetry.
 There are   206 symmetry adapted basis functions of A   symmetry.
   206 basis functions,   368 primitive gaussians,   206 cartesian basis functions
    41 alpha electrons       41 beta electrons
       nuclear repulsion energy       616.6226539090 Hartrees.
 NAtoms=   16 NActive=   16 NUniq=   16 SFac= 1.00D+00 NAtFMM=   60 NAOKFM=F Big=F
 Integral buffers will be    131072 words long.
 Raffenetti 2 integral format.
 Two-electron integral symmetry is turned on.
 One-electron integrals computed using PRISM.
 NBasis=   206 RedAO= T EigKep=  4.02D-06  NBF=   206
 NBsUse=   206 1.00D-06 EigRej= -1.00D+00 NBFU=   206
 ExpMin= 4.05D-02 ExpMax= 2.19D+04 ExpMxC= 3.30D+03 IAcc=3 IRadAn=         5 AccDes= 0.00D+00
 Harris functional with IExCor= 1009 and IRadAn=       5 diagonalized for initial guess.
 HarFok:  IExCor= 1009 AccDes= 0.00D+00 IRadAn=         5 IDoV= 1 UseB2=F ITyADJ=14
 ICtDFT=  3500011 ScaDFX=  1.000000  1.000000  1.000000  1.000000
 FoFCou: FMM=F IPFlag=           0 FMFlag=      100000 FMFlg1=           0
         NFxFlg=           0 DoJE=T BraDBF=F KetDBF=T FulRan=T
         wScrn=  0.000000 ICntrl=       500 IOpCl=  0 I1Cent=   200000004 NGrid=           0
         NMat0=    1 NMatS0=      1 NMatT0=    0 NMatD0=    1 NMtDS0=    0 NMtDT0=    0
 Petite list used in FoFCou.
 Requested convergence on RMS density matrix=1.00D-08 within 128 cycles.
 Requested convergence on MAX density matrix=1.00D-06.
 Requested convergence on             energy=1.00D-06.
 No special actions if energy rises.
 SCF Done:  E(RM062X) =  -835.412620792     A.U. after   16 cycles
            NFock= 16  Conv=0.75D-08     -V/T= 2.0062

 **********************************************************************

            Population analysis using the SCF Density.

 **********************************************************************

 Orbital symmetries:
       Occupied  (A) (A) (A) (A) (A) (A) (A) (A) (A) (A) (A) (A)
                 (A) (A) (A) (A) (A) (A) (A) (A) (A) (A) (A) (A)
                 (A) (A) (A) (A) (A) (A) (A) (A) (A) (A) (A) (A)
                 (A) (A) (A) (A) (A)
       Virtual   (A) (A) (A) (A) (A) (A) (A) (A) (A) (A) (A) (A)
                 (A) (A) (A) (A) (A) (A) (A) (A) (A) (A) (A) (A)
                 (A) (A) (A) (A) (A) (A) (A) (A) (A) (A) (A) (A)
                 (A) (A) (A) (A) (A) (A) (A) (A) (A) (A) (A) (A)
                 (A) (A) (A) (A) (A) (A) (A) (A) (A) (A) (A) (A)
                 (A) (A) (A) (A) (A) (A) (A) (A) (A) (A) (A) (A)
                 (A) (A) (A) (A) (A) (A) (A) (A) (A) (A) (A) (A)
                 (A) (A) (A) (A) (A) (A) (A) (A) (A) (A) (A) (A)
                 (A) (A) (A) (A) (A) (A) (A) (A) (A) (A) (A) (A)
                 (A) (A) (A) (A) (A) (A) (A) (A) (A) (A) (A) (A)
                 (A) (A) (A) (A) (A) (A) (A) (A) (A) (A) (A) (A)
                 (A) (A) (A) (A) (A) (A) (A) (A) (A) (A) (A) (A)
                 (A) (A) (A) (A) (A) (A) (A) (A) (A) (A) (A) (A)
                 (A) (A) (A) (A) (A) (A) (A) (A) (A)
 The electronic state is 1-A.
 Alpha  occ. eigenvalues --  -89.96194 -19.44091 -19.43979 -14.55071 -10.45109
 Alpha  occ. eigenvalues --  -10.44999 -10.44890 -10.44369 -10.44283 -10.43941
 Alpha  occ. eigenvalues --   -8.27054  -6.19266  -6.19221  -6.19149  -1.02853
 Alpha  occ. eigenvalues --   -0.90961  -0.85029  -0.78994  -0.73435  -0.73384
 Alpha  occ. eigenvalues --   -0.59237  -0.57793  -0.51952  -0.47441  -0.42211
 Alpha  occ. eigenvalues --   -0.40746  -0.39776  -0.38049  -0.37379  -0.33794
 Alpha  occ. eigenvalues --   -0.32765  -0.31256  -0.29369  -0.24096  -0.21721
 Alpha  occ. eigenvalues --   -0.20225  -0.19617  -0.19172  -0.17439  -0.15282
 Alpha  occ. eigenvalues --   -0.12038
 Alpha virt. eigenvalues --    0.10488   0.12148   0.12494   0.12963   0.13040
 Alpha virt. eigenvalues --    0.15487   0.16224   0.16705   0.18690   0.19233
 Alpha virt. eigenvalues --    0.19714   0.19888   0.20164   0.22810   0.23311
 Alpha virt. eigenvalues --    0.23527   0.24259   0.25098   0.25355   0.27464
 Alpha virt. eigenvalues --    0.27606   0.28335   0.28662   0.29377   0.29820
 Alpha virt. eigenvalues --    0.30466   0.31267   0.32494   0.32757   0.33917
 Alpha virt. eigenvalues --    0.34736   0.35309   0.35643   0.36301   0.37394
 Alpha virt. eigenvalues --    0.37608   0.38288   0.39588   0.40471   0.41645
 Alpha virt. eigenvalues --    0.42640   0.43068   0.43594   0.45016   0.45945
 Alpha virt. eigenvalues --    0.46891   0.47940   0.48284   0.48620   0.49566
 Alpha virt. eigenvalues --    0.50553   0.50970   0.52702   0.53974   0.55753
 Alpha virt. eigenvalues --    0.57004   0.62027   0.70349   0.73928   0.76901
 Alpha virt. eigenvalues --    0.77573   0.80581   0.83025   0.83559   0.85509
 Alpha virt. eigenvalues --    0.86694   0.87753   0.88085   0.89152   0.89922
 Alpha virt. eigenvalues --    0.93026   0.93705   0.94866   0.95107   0.96294
 Alpha virt. eigenvalues --    1.04844   1.07422   1.09360   1.10221   1.11597
 Alpha virt. eigenvalues --    1.12135   1.14495   1.18675   1.19938   1.20697
 Alpha virt. eigenvalues --    1.22628   1.24025   1.25247   1.26672   1.28335
 Alpha virt. eigenvalues --    1.30812   1.31410   1.34164   1.37414   1.38265
 Alpha virt. eigenvalues --    1.39493   1.43157   1.46940   1.49752   1.52768
 Alpha virt. eigenvalues --    1.54673   1.54728   1.56536   1.57767   1.59817
 Alpha virt. eigenvalues --    1.60721   1.62251   1.62865   1.64875   1.66059
 Alpha virt. eigenvalues --    1.67157   1.70561   1.77422   1.86720   1.89728
 Alpha virt. eigenvalues --    1.97608   1.99431   1.99749   2.00418   2.01909
 Alpha virt. eigenvalues --    2.07238   2.08116   2.10123   2.11587   2.14066
 Alpha virt. eigenvalues --    2.17436   2.17762   2.19000   2.20666   2.28152
 Alpha virt. eigenvalues --    2.29320   2.30500   2.32226   2.32865   2.33664
 Alpha virt. eigenvalues --    2.38711   2.43965   2.44752   2.46326   2.49164
 Alpha virt. eigenvalues --    2.51582   2.57828   2.71153   2.76577   2.78276
 Alpha virt. eigenvalues --    2.79618   2.83449   2.86568   2.90080   2.91731
 Alpha virt. eigenvalues --    2.98429   3.05873   3.11147   3.18543   3.50558
 Alpha virt. eigenvalues --    4.15868   4.27137   4.36912   4.38546   4.41311
 Alpha virt. eigenvalues --    4.43659   4.44979   4.53767   4.55822   4.82816
          Condensed to atoms (all electrons):
               1          2          3          4          5          6
     1  C   30.749484  -4.430469   0.100659  -0.602837   0.035840  -2.637854
     2  C   -4.430469  45.625333   0.249029  -4.926110  -0.008896  -0.669485
     3  H    0.100659   0.249029   0.477704  -0.098256  -0.004132  -0.001169
     4  C   -0.602837  -4.926110  -0.098256  10.239903   0.284510   0.588633
     5  H    0.035840  -0.008896  -0.004132   0.284510   0.529555  -0.009056
     6  C   -2.637854  -0.669485  -0.001169   0.588633  -0.009056   6.463512
     7  H    0.010007  -0.006426  -0.000128   0.016868  -0.004329   0.261811
     8  C   -3.304206  -2.214520  -0.012783   0.033843  -0.002674   0.635263
     9  H    0.005001  -0.020405   0.000015   0.001178  -0.000146   0.004309
    10  C  -10.679282 -28.141921   0.052361   0.820893  -0.000623   1.423270
    11  H    0.049441   0.028270  -0.000121  -0.013457   0.000014   0.009865
    12  S   -1.910787   0.364232   0.005055  -0.279139   0.000903   0.149277
    13  O   -0.381842   0.176888   0.000676   0.049518   0.000032   0.014758
    14  O    0.088616  -0.136942   0.005534  -0.031119   0.000039  -0.020392
    15  N   -0.160859  -0.331869   0.000734  -0.011704   0.000017   0.028402
    16  H   -0.084080  -0.030588  -0.000634  -0.006030  -0.000000   0.004821
               7          8          9         10         11         12
     1  C    0.010007  -3.304206   0.005001 -10.679282   0.049441  -1.910787
     2  C   -0.006426  -2.214520  -0.020405 -28.141921   0.028270   0.364232
     3  H   -0.000128  -0.012783   0.000015   0.052361  -0.000121   0.005055
     4  C    0.016868   0.033843   0.001178   0.820893  -0.013457  -0.279139
     5  H   -0.004329  -0.002674  -0.000146  -0.000623   0.000014   0.000903
     6  C    0.261811   0.635263   0.004309   1.423270   0.009865   0.149277
     7  H    0.534428   0.038581  -0.004333  -0.021183  -0.000122   0.000131
     8  C    0.038581   8.518628   0.284674   1.903377  -0.057492   0.128078
     9  H   -0.004333   0.284674   0.529097   0.022950  -0.003964   0.001126
    10  C   -0.021183   1.903377   0.022950  39.701229   0.281918   0.944385
    11  H   -0.000122  -0.057492  -0.003964   0.281918   0.453321   0.002710
    12  S    0.000131   0.128078   0.001126   0.944385   0.002710  14.781695
    13  O   -0.000000   0.060907   0.000280  -0.149116   0.003210   0.271983
    14  O    0.000006   0.058107   0.000020  -0.016102   0.001130   0.129121
    15  N    0.000004   0.045247   0.000089   0.435176  -0.000039   0.062874
    16  H   -0.000000  -0.004626   0.000000   0.062777  -0.000013   0.126046
              13         14         15         16
     1  C   -0.381842   0.088616  -0.160859  -0.084080
     2  C    0.176888  -0.136942  -0.331869  -0.030588
     3  H    0.000676   0.005534   0.000734  -0.000634
     4  C    0.049518  -0.031119  -0.011704  -0.006030
     5  H    0.000032   0.000039   0.000017  -0.000000
     6  C    0.014758  -0.020392   0.028402   0.004821
     7  H   -0.000000   0.000006   0.000004  -0.000000
     8  C    0.060907   0.058107   0.045247  -0.004626
     9  H    0.000280   0.000020   0.000089   0.000000
    10  C   -0.149116  -0.016102   0.435176   0.062777
    11  H    0.003210   0.001130  -0.000039  -0.000013
    12  S    0.271983   0.129121   0.062874   0.126046
    13  O    8.951767  -0.135445  -0.189200   0.020842
    14  O   -0.135445   8.920966  -0.207842  -0.022211
    15  N   -0.189200  -0.207842   7.967805   0.149382
    16  H    0.020842  -0.022211   0.149382   0.458073
 Mulliken charges:
               1
     1  C   -0.846834
     2  C    0.473878
     3  H    0.225459
     4  C   -0.066693
     5  H    0.178948
     6  C   -0.245966
     7  H    0.174686
     8  C   -0.110403
     9  H    0.180109
    10  C   -0.640108
    11  H    0.245329
    12  S    1.222310
    13  O   -0.695256
    14  O   -0.633485
    15  N   -0.788214
    16  H    0.326241
 Sum of Mulliken charges =  -1.00000
 Mulliken charges with hydrogens summed into heavy atoms:
               1
     1  C   -0.846834
     2  C    0.699337
     4  C    0.112254
     6  C   -0.071281
     8  C    0.069706
    10  C   -0.394779
    12  S    1.222310
    13  O   -0.695256
    14  O   -0.633485
    15  N   -0.461973
 Electronic spatial extent (au):  <R**2>=           1620.8359
 Charge=             -1.0000 electrons
 Dipole moment (field-independent basis, Debye):
    X=              9.3889    Y=             -1.3519    Z=              0.3891  Tot=              9.4937
 Quadrupole moment (field-independent basis, Debye-Ang):
   XX=            -93.1663   YY=            -70.5609   ZZ=            -80.7830
   XY=              2.8716   XZ=              0.1355   YZ=             -3.1352
 Traceless Quadrupole moment (field-independent basis, Debye-Ang):
   XX=            -11.6629   YY=             10.9425   ZZ=              0.7204
   XY=              2.8716   XZ=              0.1355   YZ=             -3.1352
 Octapole moment (field-independent basis, Debye-Ang**2):
  XXX=             40.4324  YYY=             -4.7925  ZZZ=            -11.9283  XYY=             13.2534
  XXY=             -4.0457  XXZ=             -4.5499  XZZ=              5.6824  YZZ=             -1.0499
  YYZ=              6.9584  XYZ=              6.1775
 Hexadecapole moment (field-independent basis, Debye-Ang**3):
 XXXX=          -1673.9546 YYYY=           -450.2524 ZZZZ=           -252.4783 XXXY=              5.3007
 XXXZ=             29.8250 YYYX=             11.2055 YYYZ=             -4.0006 ZZZX=             23.4683
 ZZZY=            -10.7685 XXYY=           -358.1649 XXZZ=           -362.7157 YYZZ=           -121.7389
 XXYZ=             -9.3715 YYXZ=            -12.3066 ZZXY=              2.2603
 N-N= 6.166226539090D+02 E-N=-3.211238193024D+03  KE= 8.302812304971D+02
 Calling FoFJK, ICntrl=      2127 FMM=F ISym2X=0 I1Cent= 0 IOpClX= 0 NMat=1 NMatS=1 NMatT=0.
 ***** Axes restored to original set *****
 -------------------------------------------------------------------
 Center     Atomic                   Forces (Hartrees/Bohr)
 Number     Number              X              Y              Z
 -------------------------------------------------------------------
      1        6          -0.000300802   -0.001190840   -0.000084494
      2        6           0.002200675    0.000210185   -0.004874627
      3        1           0.001397466    0.000932111    0.002204369
      4        6           0.001151363   -0.000174721    0.001221613
      5        1          -0.000743517    0.000087526   -0.001082906
      6        6           0.000060356    0.000149925   -0.001161808
      7        1          -0.000053676    0.000141557   -0.001102978
      8        6          -0.001862129   -0.000190963    0.001234530
      9        1           0.000720158    0.000037160   -0.000995642
     10        6          -0.001118296    0.000643758   -0.004439000
     11        1          -0.001739064    0.000032862    0.003059595
     12       16           0.005368570    0.011814263    0.036725295
     13        8          -0.006915559   -0.003260139   -0.012071147
     14        8           0.002482602   -0.006480929   -0.011905025
     15        7          -0.000402064   -0.004572469   -0.008265744
     16        1          -0.000246082    0.001820714    0.001537970
 -------------------------------------------------------------------
 Cartesian Forces:  Max     0.036725295 RMS     0.006601260

 GradGradGradGradGradGradGradGradGradGradGradGradGradGradGradGradGradGrad
 Berny optimization.
 FormGI is forming the generalized inverse of G from B-inverse, IUseBI=4.
 Internal  Forces:  Max     0.012396064 RMS     0.003578478
 Search for a local minimum.
 Step number   1 out of a maximum of   84
 All quantities printed in internal units (Hartrees-Bohrs-Radians)
 Mixed Optimization -- RFO/linear search
 Second derivative matrix not updated -- first step.
 ITU=  0
     Eigenvalues ---    0.00352   0.01460   0.02144   0.02148   0.02152
     Eigenvalues ---    0.02155   0.02158   0.02161   0.02165   0.02170
     Eigenvalues ---    0.03087   0.10350   0.11831   0.16000   0.16000
     Eigenvalues ---    0.16000   0.16000   0.16000   0.16000   0.17102
     Eigenvalues ---    0.21640   0.22000   0.22000   0.23472   0.24947
     Eigenvalues ---    0.25000   0.26009   0.35181   0.35274   0.35276
     Eigenvalues ---    0.35282   0.35331   0.42185   0.42271   0.43712
     Eigenvalues ---    0.46291   0.46452   0.46530   0.46712   0.58717
     Eigenvalues ---    0.77870   0.80754
 RFO step:  Lambda=-4.89485113D-03 EMin= 3.52171223D-03
 Linear search not attempted -- first point.
 Iteration  1 RMS(Cart)=  0.03237939 RMS(Int)=  0.00126079
 Iteration  2 RMS(Cart)=  0.00108002 RMS(Int)=  0.00066574
 Iteration  3 RMS(Cart)=  0.00000039 RMS(Int)=  0.00066574
 Variable       Old X    -DE/DX   Delta X   Delta X   Delta X     New X
                                 (Linear)    (Quad)   (Total)
    R1        2.63702  -0.00091   0.00000  -0.00221  -0.00220   2.63482
    R2        2.63239  -0.00153   0.00000  -0.00350  -0.00350   2.62888
    R3        3.40410   0.00605   0.00000   0.02284   0.02284   3.42694
    R4        2.05382  -0.00018   0.00000  -0.00050  -0.00050   2.05332
    R5        2.63330   0.00085   0.00000   0.00182   0.00182   2.63512
    R6        2.05220   0.00119   0.00000   0.00333   0.00333   2.05553
    R7        2.63912  -0.00027   0.00000  -0.00031  -0.00032   2.63880
    R8        2.05232   0.00111   0.00000   0.00310   0.00310   2.05542
    R9        2.63556  -0.00011   0.00000   0.00002   0.00001   2.63557
   R10        2.05229   0.00111   0.00000   0.00311   0.00311   2.05540
   R11        2.63749   0.00102   0.00000   0.00218   0.00218   2.63967
   R12        2.05142   0.00008   0.00000   0.00023   0.00023   2.05164
   R13        2.81212  -0.01102   0.00000  -0.01356  -0.01356   2.79856
   R14        2.82785  -0.00934   0.00000  -0.01193  -0.01193   2.81592
   R15        2.95670   0.00129   0.00000   0.00218   0.00218   2.95888
   R16        1.93500  -0.00055   0.00000  -0.00124  -0.00124   1.93376
    A1        2.11076  -0.00309   0.00000  -0.01304  -0.01308   2.09768
    A2        2.07497   0.00324   0.00000   0.01367   0.01362   2.08859
    A3        2.09558  -0.00013   0.00000   0.00040   0.00035   2.09593
    A4        2.09965  -0.00380   0.00000  -0.02072  -0.02077   2.07888
    A5        2.08377   0.00234   0.00000   0.00951   0.00949   2.09326
    A6        2.09975   0.00145   0.00000   0.01112   0.01107   2.11082
    A7        2.08942   0.00051   0.00000   0.00310   0.00309   2.09251
    A8        2.09656   0.00012   0.00000   0.00074   0.00075   2.09731
    A9        2.09719  -0.00063   0.00000  -0.00385  -0.00386   2.09334
   A10        2.09371   0.00086   0.00000   0.00332   0.00332   2.09702
   A11        2.09500  -0.00185   0.00000  -0.00747  -0.00749   2.08751
   A12        2.09448   0.00099   0.00000   0.00414   0.00414   2.09862
   A13        2.09699  -0.00076   0.00000  -0.00436  -0.00435   2.09264
   A14        2.09771   0.00046   0.00000   0.00224   0.00223   2.09994
   A15        2.08848   0.00030   0.00000   0.00211   0.00211   2.09059
   A16        2.08256   0.00202   0.00000   0.00809   0.00809   2.09065
   A17        2.09586  -0.00461   0.00000  -0.02584  -0.02584   2.07002
   A18        2.10474   0.00258   0.00000   0.01775   0.01775   2.12249
   A19        1.83707  -0.00911   0.00000  -0.04955  -0.04953   1.78754
   A20        1.80913  -0.00783   0.00000  -0.04880  -0.04920   1.75993
   A21        1.91783  -0.00719   0.00000  -0.04683  -0.04730   1.87054
   A22        1.98413   0.00817   0.00000   0.06381   0.06097   2.04510
   A23        1.90269   0.00747   0.00000   0.04017   0.03759   1.94029
   A24        2.00291   0.00547   0.00000   0.02397   0.02095   2.02386
   A25        1.88071  -0.00249   0.00000  -0.01510  -0.01510   1.86561
    D1       -3.14119   0.00070   0.00000   0.02807   0.02790  -3.11329
    D2       -0.00578   0.00029   0.00000   0.01191   0.01188   0.00611
    D3        0.06618   0.00034   0.00000   0.00998   0.00986   0.07603
    D4       -3.08160  -0.00008   0.00000  -0.00618  -0.00616  -3.08776
    D5        0.00680  -0.00035   0.00000  -0.01377  -0.01374  -0.00693
    D6        3.14142  -0.00035   0.00000  -0.01371  -0.01363   3.12779
    D7        3.08185   0.00015   0.00000   0.00502   0.00487   3.08673
    D8       -0.06671   0.00015   0.00000   0.00508   0.00498  -0.06174
    D9       -2.85985  -0.00003   0.00000   0.03729   0.03762  -2.82223
   D10       -0.77155   0.00165   0.00000   0.06540   0.06498  -0.70658
   D11        1.37702  -0.00026   0.00000   0.04041   0.04065   1.41767
   D12        0.34693  -0.00028   0.00000   0.01988   0.02011   0.36704
   D13        2.43523   0.00140   0.00000   0.04799   0.04747   2.48270
   D14       -1.69938  -0.00051   0.00000   0.02300   0.02314  -1.67624
   D15       -3.13644   0.00008   0.00000   0.00253   0.00257  -3.13387
   D16        0.00251  -0.00005   0.00000  -0.00284  -0.00286  -0.00035
   D17       -0.00103  -0.00036   0.00000  -0.01374  -0.01386  -0.01489
   D18        3.13792  -0.00048   0.00000  -0.01911  -0.01929   3.11863
   D19       -3.13992   0.00005   0.00000   0.00209   0.00210  -3.13783
   D20       -0.00036  -0.00011   0.00000  -0.00412  -0.00415  -0.00451
   D21       -0.00099  -0.00008   0.00000  -0.00330  -0.00332  -0.00431
   D22        3.13858  -0.00024   0.00000  -0.00950  -0.00957   3.12901
   D23       -3.13801   0.00013   0.00000   0.00500   0.00503  -3.13298
   D24        0.00140   0.00005   0.00000   0.00223   0.00227   0.00367
   D25        0.00156  -0.00003   0.00000  -0.00121  -0.00122   0.00033
   D26        3.14097  -0.00011   0.00000  -0.00398  -0.00398   3.13698
   D27       -0.00458   0.00017   0.00000   0.00657   0.00661   0.00203
   D28       -3.13916   0.00019   0.00000   0.00669   0.00668  -3.13248
   D29        3.13484   0.00009   0.00000   0.00381   0.00384   3.13869
   D30        0.00026   0.00011   0.00000   0.00393   0.00391   0.00418
   D31       -1.24591  -0.00092   0.00000  -0.02783  -0.02803  -1.27393
   D32        3.03235   0.00973   0.00000   0.03465   0.03670   3.06905
   D33        0.78412  -0.01240   0.00000  -0.10712  -0.10898   0.67514
         Item               Value     Threshold  Converged?
 Maximum Force            0.012396     0.000450     NO 
 RMS     Force            0.003578     0.000300     NO 
 Maximum Displacement     0.097054     0.001800     NO 
 RMS     Displacement     0.032405     0.001200     NO 
 Predicted change in Energy=-2.609111D-03
 GradGradGradGradGradGradGradGradGradGradGradGradGradGradGradGradGradGrad

                          Input orientation:                          
 ---------------------------------------------------------------------
 Center     Atomic      Atomic             Coordinates (Angstroms)
 Number     Number       Type             X           Y           Z
 ---------------------------------------------------------------------
      1          6           0       -1.307264    0.730048   -0.915463
      2          6           0       -2.507609    0.771188   -1.623637
      3          1           0       -3.445675    0.744036   -1.075983
      4          6           0       -2.491959    0.872907   -3.014278
      5          1           0       -3.428848    0.912207   -3.565525
      6          6           0       -1.276936    0.934124   -3.699765
      7          1           0       -1.265069    1.016995   -4.784220
      8          6           0       -0.079947    0.898373   -2.984867
      9          1           0        0.869079    0.953854   -3.513357
     10          6           0       -0.093426    0.797517   -1.591726
     11          1           0        0.825414    0.776415   -1.013806
     12         16           0       -1.334174    0.513288    0.884794
     13          8           0        0.016787    0.972641    1.281100
     14          8           0       -2.484998    1.384626    1.254712
     15          7           0       -1.515578   -1.016748    1.163578
     16          1           0       -2.485657   -1.247834    0.934030
 ---------------------------------------------------------------------
                    Distance matrix (angstroms):
                    1          2          3          4          5
     1  C    0.000000
     2  C    1.394286   0.000000
     3  H    2.144473   1.086568   0.000000
     4  C    2.414319   1.394444   2.164063   0.000000
     5  H    3.399578   2.153949   2.495273   1.087740   0.000000
     6  C    2.791936   2.418969   3.409368   1.396395   2.156206
     7  H    3.879614   3.404940   4.310519   2.158406   2.485587
     8  C    2.411861   2.786156   3.872439   2.412326   3.398896
     9  H    3.396412   3.873814   4.960032   3.398854   4.298445
    10  C    1.391145   2.414537   3.392112   2.789677   3.877380
    11  H    2.135448   3.388358   4.271664   3.875070   4.962707
    12  S    1.813458   2.781310   2.890731   4.083203   4.934788
    13  O    2.576209   3.853655   4.194847   4.975342   5.946918
    14  O    2.554445   2.943079   2.601037   4.299556   4.934442
    15  N    2.723435   3.456791   3.441114   4.688133   5.453978
    16  H    2.953177   3.258619   2.988199   4.481821   5.079506
                    6          7          8          9         10
     6  C    0.000000
     7  H    1.087682   0.000000
     8  C    1.394683   2.157836   0.000000
     9  H    2.154186   2.484686   1.087672   0.000000
    10  C    2.421401   3.407776   1.396852   2.154884   0.000000
    11  H    3.414546   4.317873   2.172472   2.506222   1.085682
    12  S    4.604189   5.691767   4.086031   4.938841   2.784491
    13  O    5.146282   6.199455   4.267710   4.869659   2.880269
    14  O    5.119493   6.171879   4.898443   5.845501   3.763844
    15  N    5.245470   6.290880   4.789396   5.607458   3.592460
    16  H    5.262509   6.270381   5.074584   5.990070   4.035551
                   11         12         13         14         15
    11  H    0.000000
    12  S    2.887514   0.000000
    13  O    2.441102   1.480932   0.000000
    14  O    4.058931   1.490123   2.535617   0.000000
    15  N    3.665607   1.565770   2.513886   2.591269   0.000000
    16  H    4.342216   2.104730   3.363509   2.651920   1.023302
                   16
    16  H    0.000000
 Stoichiometry    C6H6NO2S(1-)
 Framework group  C1[X(C6H6NO2S)]
 Deg. of freedom    42
 Full point group                 C1      NOp   1
 Largest Abelian subgroup         C1      NOp   1
 Largest concise Abelian subgroup C1      NOp   1
                         Standard orientation:                         
 ---------------------------------------------------------------------
 Center     Atomic      Atomic             Coordinates (Angstroms)
 Number     Number       Type             X           Y           Z
 ---------------------------------------------------------------------
      1          6           0        0.262763    0.012608   -0.046027
      2          6           0        0.950106   -1.200484   -0.046530
      3          1           0        0.386288   -2.127501   -0.104658
      4          6           0        2.343730   -1.210658    0.000179
      5          1           0        2.879491   -2.157273   -0.007518
      6          6           0        3.053065   -0.008757    0.047049
      7          1           0        4.140219   -0.016932    0.079939
      8          6           0        2.359554    1.201264    0.041387
      9          1           0        2.907529    2.140389    0.069643
     10          6           0        0.963574    1.213682   -0.006382
     11          1           0        0.402916    2.143294   -0.020121
     12         16           0       -1.550533    0.016849   -0.022122
     13          8           0       -1.871883    1.387503   -0.481689
     14          8           0       -1.845701   -1.102337   -0.960613
     15          7           0       -1.993820   -0.199797    1.463878
     16          1           0       -1.807257   -1.180237    1.689884
 ---------------------------------------------------------------------
 Rotational constants (GHZ):           2.6318722           0.8434675           0.7342161
 Basis read from rwf:  (6D, 7F)
 There are   206 symmetry adapted cartesian basis functions of A   symmetry.
 There are   206 symmetry adapted basis functions of A   symmetry.
   206 basis functions,   368 primitive gaussians,   206 cartesian basis functions
    41 alpha electrons       41 beta electrons
       nuclear repulsion energy       617.7707383034 Hartrees.
 NAtoms=   16 NActive=   16 NUniq=   16 SFac= 1.00D+00 NAtFMM=   60 NAOKFM=F Big=F
 Integral buffers will be    131072 words long.
 Raffenetti 2 integral format.
 Two-electron integral symmetry is turned on.
 One-electron integrals computed using PRISM.
 NBasis=   206 RedAO= T EigKep=  3.95D-06  NBF=   206
 NBsUse=   206 1.00D-06 EigRej= -1.00D+00 NBFU=   206
 Initial guess from the checkpoint file:  "/jobfs/40735762.gadi-pbs/Gau-966735.chk"
 B after Tr=     0.000000    0.000000    0.000000
         Rot=    0.999953    0.009642    0.000637   -0.000272 Ang=   1.11 deg.
 ExpMin= 4.05D-02 ExpMax= 2.19D+04 ExpMxC= 3.30D+03 IAcc=3 IRadAn=         5 AccDes= 0.00D+00
 Harris functional with IExCor= 1009 and IRadAn=       5 diagonalized for initial guess.
 HarFok:  IExCor= 1009 AccDes= 0.00D+00 IRadAn=         5 IDoV= 1 UseB2=F ITyADJ=14
 ICtDFT=  3500011 ScaDFX=  1.000000  1.000000  1.000000  1.000000
 FoFCou: FMM=F IPFlag=           0 FMFlag=      100000 FMFlg1=           0
         NFxFlg=           0 DoJE=T BraDBF=F KetDBF=T FulRan=T
         wScrn=  0.000000 ICntrl=       500 IOpCl=  0 I1Cent=   200000004 NGrid=           0
         NMat0=    1 NMatS0=      1 NMatT0=    0 NMatD0=    1 NMtDS0=    0 NMtDT0=    0
 Petite list used in FoFCou.
 Requested convergence on RMS density matrix=1.00D-08 within 128 cycles.
 Requested convergence on MAX density matrix=1.00D-06.
 Requested convergence on             energy=1.00D-06.
 No special actions if energy rises.
 SCF Done:  E(RM062X) =  -835.414372294     A.U. after   16 cycles
            NFock= 16  Conv=0.26D-08     -V/T= 2.0062
 Calling FoFJK, ICntrl=      2127 FMM=F ISym2X=0 I1Cent= 0 IOpClX= 0 NMat=1 NMatS=1 NMatT=0.
 ***** Axes restored to original set *****
 -------------------------------------------------------------------
 Center     Atomic                   Forces (Hartrees/Bohr)
 Number     Number              X              Y              Z
 -------------------------------------------------------------------
      1        6          -0.000138218    0.000011888   -0.002055107
      2        6           0.000348824    0.000152100   -0.003048251
      3        1          -0.000022761    0.000279653    0.000567363
      4        6          -0.000392586   -0.000085013    0.000841873
      5        1          -0.000104622   -0.000029817   -0.000102452
      6        6           0.000002132    0.000086322   -0.000337838
      7        1           0.000032159   -0.000035587    0.000101137
      8        6           0.000500615   -0.000033210    0.001117931
      9        1           0.000129725    0.000025660   -0.000165612
     10        6           0.000328637   -0.000356819   -0.003715514
     11        1          -0.000035661    0.000130678    0.000474472
     12       16           0.000420609    0.005029313   -0.004389688
     13        8          -0.006525452   -0.002878098    0.003756141
     14        8           0.003706666   -0.003661539    0.003508890
     15        7           0.002074945   -0.000208238    0.001343688
     16        1          -0.000325009    0.001572705    0.002102966
 -------------------------------------------------------------------
 Cartesian Forces:  Max     0.006525452 RMS     0.002006577

 GradGradGradGradGradGradGradGradGradGradGradGradGradGradGradGradGradGrad
 Berny optimization.
 Using GEDIIS/GDIIS optimizer.
 FormGI is forming the generalized inverse of G from B-inverse, IUseBI=4.
 Internal  Forces:  Max     0.007747525 RMS     0.002064948
 Search for a local minimum.
 Step number   2 out of a maximum of   84
 All quantities printed in internal units (Hartrees-Bohrs-Radians)
 Mixed Optimization -- RFO/linear search
 Update second derivatives using D2CorX and points    1    2
 DE= -1.75D-03 DEPred=-2.61D-03 R= 6.71D-01
 TightC=F SS=  1.41D+00  RLast= 2.07D-01 DXNew= 5.0454D-01 6.2096D-01
 Trust test= 6.71D-01 RLast= 2.07D-01 DXMaxT set to 5.05D-01
 ITU=  1  0
 Use linear search instead of GDIIS.
     Eigenvalues ---    0.00350   0.01449   0.02142   0.02145   0.02151
     Eigenvalues ---    0.02152   0.02157   0.02160   0.02163   0.02170
     Eigenvalues ---    0.02929   0.11331   0.12382   0.15369   0.15997
     Eigenvalues ---    0.15999   0.16000   0.16000   0.16000   0.21115
     Eigenvalues ---    0.21982   0.22000   0.22216   0.24180   0.24918
     Eigenvalues ---    0.25000   0.29731   0.35188   0.35259   0.35280
     Eigenvalues ---    0.35283   0.35335   0.42139   0.42427   0.43709
     Eigenvalues ---    0.46295   0.46459   0.46662   0.46875   0.58778
     Eigenvalues ---    0.75615   0.79624
 RFO step:  Lambda=-8.69970914D-04 EMin= 3.49558024D-03
 Quartic linear search produced a step of -0.22162.
 Iteration  1 RMS(Cart)=  0.03847571 RMS(Int)=  0.00064875
 Iteration  2 RMS(Cart)=  0.00074066 RMS(Int)=  0.00008877
 Iteration  3 RMS(Cart)=  0.00000010 RMS(Int)=  0.00008877
 Variable       Old X    -DE/DX   Delta X   Delta X   Delta X     New X
                                 (Linear)    (Quad)   (Total)
    R1        2.63482   0.00096   0.00049   0.00079   0.00128   2.63609
    R2        2.62888   0.00180   0.00078   0.00164   0.00242   2.63130
    R3        3.42694   0.00630  -0.00506   0.02765   0.02259   3.44953
    R4        2.05332   0.00030   0.00011   0.00046   0.00057   2.05389
    R5        2.63512  -0.00058  -0.00040  -0.00025  -0.00065   2.63447
    R6        2.05553   0.00014  -0.00074   0.00162   0.00088   2.05641
    R7        2.63880   0.00025   0.00007   0.00025   0.00031   2.63912
    R8        2.05542  -0.00010  -0.00069   0.00099   0.00031   2.05573
    R9        2.63557   0.00018  -0.00000   0.00024   0.00024   2.63581
   R10        2.05540   0.00019  -0.00069   0.00165   0.00096   2.05636
   R11        2.63967  -0.00088  -0.00048  -0.00060  -0.00108   2.63859
   R12        2.05164   0.00022  -0.00005   0.00057   0.00052   2.05216
   R13        2.79856  -0.00584   0.00301  -0.01088  -0.00787   2.79068
   R14        2.81592  -0.00413   0.00264  -0.00876  -0.00611   2.80981
   R15        2.95888  -0.00092  -0.00048  -0.00036  -0.00084   2.95803
   R16        1.93376  -0.00052   0.00028  -0.00141  -0.00113   1.93263
    A1        2.09768  -0.00172   0.00290  -0.01042  -0.00751   2.09017
    A2        2.08859   0.00096  -0.00302   0.00820   0.00518   2.09378
    A3        2.09593   0.00076  -0.00008   0.00238   0.00231   2.09824
    A4        2.07888  -0.00090   0.00460  -0.01205  -0.00744   2.07144
    A5        2.09326   0.00085  -0.00210   0.00671   0.00460   2.09786
    A6        2.11082   0.00005  -0.00245   0.00513   0.00268   2.11350
    A7        2.09251   0.00002  -0.00068   0.00143   0.00075   2.09326
    A8        2.09731   0.00003  -0.00017   0.00018   0.00001   2.09732
    A9        2.09334  -0.00005   0.00086  -0.00163  -0.00077   2.09256
   A10        2.09702   0.00004  -0.00074   0.00166   0.00092   2.09795
   A11        2.08751  -0.00002   0.00166  -0.00336  -0.00170   2.08581
   A12        2.09862  -0.00002  -0.00092   0.00168   0.00076   2.09939
   A13        2.09264  -0.00004   0.00096  -0.00186  -0.00089   2.09175
   A14        2.09994  -0.00010  -0.00049   0.00032  -0.00018   2.09976
   A15        2.09059   0.00014  -0.00047   0.00154   0.00107   2.09166
   A16        2.09065   0.00095  -0.00179   0.00654   0.00475   2.09540
   A17        2.07002  -0.00090   0.00573  -0.01394  -0.00821   2.06181
   A18        2.12249  -0.00006  -0.00393   0.00738   0.00344   2.12593
   A19        1.78754   0.00534   0.01098   0.00418   0.01517   1.80270
   A20        1.75993   0.00564   0.01090   0.00785   0.01884   1.77877
   A21        1.87054   0.00335   0.01048  -0.00131   0.00931   1.87985
   A22        2.04510  -0.00230  -0.01351   0.00770  -0.00558   2.03952
   A23        1.94029  -0.00456  -0.00833  -0.00745  -0.01540   1.92488
   A24        2.02386  -0.00383  -0.00464  -0.00802  -0.01223   2.01163
   A25        1.86561  -0.00197   0.00335  -0.01542  -0.01208   1.85353
    D1       -3.11329   0.00012  -0.00618   0.01568   0.00951  -3.10377
    D2        0.00611   0.00002  -0.00263   0.00512   0.00250   0.00860
    D3        0.07603   0.00018  -0.00218   0.01194   0.00977   0.08580
    D4       -3.08776   0.00009   0.00136   0.00139   0.00275  -3.08500
    D5       -0.00693   0.00000   0.00304  -0.00490  -0.00187  -0.00881
    D6        3.12779  -0.00007   0.00302  -0.00753  -0.00451   3.12328
    D7        3.08673  -0.00006  -0.00108  -0.00099  -0.00205   3.08468
    D8       -0.06174  -0.00013  -0.00110  -0.00361  -0.00469  -0.06642
    D9       -2.82223  -0.00076  -0.00834   0.06420   0.05574  -2.76649
   D10       -0.70658   0.00076  -0.01440   0.07697   0.06269  -0.64389
   D11        1.41767   0.00055  -0.00901   0.07118   0.06214   1.47981
   D12        0.36704  -0.00063  -0.00446   0.06082   0.05627   0.42331
   D13        2.48270   0.00089  -0.01052   0.07360   0.06322   2.54592
   D14       -1.67624   0.00069  -0.00513   0.06780   0.06267  -1.61357
   D15       -3.13387  -0.00001  -0.00057   0.00124   0.00067  -3.13321
   D16       -0.00035  -0.00003   0.00063  -0.00179  -0.00116  -0.00151
   D17       -0.01489  -0.00011   0.00307  -0.00973  -0.00665  -0.02154
   D18        3.11863  -0.00013   0.00427  -0.01277  -0.00847   3.11015
   D19       -3.13783   0.00001  -0.00046   0.00107   0.00060  -3.13723
   D20       -0.00451  -0.00001   0.00092  -0.00177  -0.00085  -0.00536
   D21       -0.00431  -0.00002   0.00074  -0.00196  -0.00122  -0.00553
   D22        3.12901  -0.00003   0.00212  -0.00479  -0.00267   3.12634
   D23       -3.13298   0.00003  -0.00111   0.00285   0.00173  -3.13124
   D24        0.00367   0.00004  -0.00050   0.00199   0.00148   0.00515
   D25        0.00033   0.00002   0.00027   0.00001   0.00028   0.00062
   D26        3.13698   0.00002   0.00088  -0.00085   0.00003   3.13702
   D27        0.00203  -0.00003  -0.00146   0.00137  -0.00010   0.00193
   D28       -3.13248   0.00005  -0.00148   0.00415   0.00269  -3.12979
   D29        3.13869  -0.00003  -0.00085   0.00050  -0.00036   3.13833
   D30        0.00418   0.00005  -0.00087   0.00329   0.00243   0.00660
   D31       -1.27393  -0.00188   0.00621  -0.05135  -0.04509  -1.31902
   D32        3.06905  -0.00775  -0.00813  -0.05197  -0.06035   3.00870
   D33        0.67514   0.00521   0.02415  -0.04676  -0.02241   0.65273
         Item               Value     Threshold  Converged?
 Maximum Force            0.007748     0.000450     NO 
 RMS     Force            0.002065     0.000300     NO 
 Maximum Displacement     0.115727     0.001800     NO 
 RMS     Displacement     0.038534     0.001200     NO 
 Predicted change in Energy=-6.036199D-04
 GradGradGradGradGradGradGradGradGradGradGradGradGradGradGradGradGradGrad

                          Input orientation:                          
 ---------------------------------------------------------------------
 Center     Atomic      Atomic             Coordinates (Angstroms)
 Number     Number       Type             X           Y           Z
 ---------------------------------------------------------------------
      1          6           0       -1.313718    0.733391   -0.923234
      2          6           0       -2.509974    0.795666   -1.638084
      3          1           0       -3.447269    0.792745   -1.087854
      4          6           0       -2.491628    0.895225   -3.028503
      5          1           0       -3.427285    0.951410   -3.581297
      6          6           0       -1.275123    0.934979   -3.713279
      7          1           0       -1.260088    1.016752   -4.797940
      8          6           0       -0.080515    0.880840   -2.995312
      9          1           0        0.870547    0.921165   -3.522557
     10          6           0       -0.099278    0.781385   -1.602706
     11          1           0        0.815782    0.748411   -1.018859
     12         16           0       -1.344718    0.514038    0.888683
     13          8           0       -0.024131    1.019641    1.314424
     14          8           0       -2.530481    1.323386    1.275671
     15          7           0       -1.458647   -1.019576    1.180721
     16          1           0       -2.429334   -1.275818    0.985714
 ---------------------------------------------------------------------
                    Distance matrix (angstroms):
                    1          2          3          4          5
     1  C    0.000000
     2  C    1.394961   0.000000
     3  H    2.140716   1.086869   0.000000
     4  C    2.417813   1.394100   2.165611   0.000000
     5  H    3.402939   2.154482   2.498566   1.088205   0.000000
     6  C    2.797584   2.418822   3.410470   1.396561   2.156268
     7  H    3.885424   3.405259   4.312619   2.159252   2.486208
     8  C    2.415789   2.784169   3.870555   2.411385   3.398416
     9  H    3.400405   3.872326   4.958610   3.398380   4.298340
    10  C    1.392426   2.410998   3.387366   2.787328   3.875482
    11  H    2.131699   3.383242   4.263840   3.872879   4.960939
    12  S    1.825410   2.796728   2.899155   4.099397   4.950667
    13  O    2.598478   3.866120   4.188114   4.996503   5.962734
    14  O    2.581432   2.961229   2.590045   4.325592   4.953056
    15  N    2.742358   3.513695   3.519312   4.738258   5.516987
    16  H    2.987575   3.343930   3.100779   4.564127   5.178228
                    6          7          8          9         10
     6  C    0.000000
     7  H    1.087844   0.000000
     8  C    1.394810   2.158549   0.000000
     9  H    2.154174   2.485025   1.088178   0.000000
    10  C    2.420892   3.407698   1.396279   2.155442   0.000000
    11  H    3.415639   4.320035   2.174225   2.510249   1.085955
    12  S    4.621697   5.709428   4.100997   4.952998   2.798145
    13  O    5.181693   6.236072   4.312339   4.920013   2.927808
    14  O    5.159109   6.212623   4.943630   5.895063   3.806516
    15  N    5.273064   6.319055   4.790625   5.595753   3.583129
    16  H    5.319808   6.330377   5.100657   6.003371   4.044894
                   11         12         13         14         15
    11  H    0.000000
    12  S    2.891610   0.000000
    13  O    2.494640   1.476767   0.000000
    14  O    4.097919   1.486888   2.524986   0.000000
    15  N    3.624494   1.565324   2.496822   2.578239   0.000000
    16  H    4.318170   2.095088   3.340986   2.617283   1.022703
                   16
    16  H    0.000000
 Stoichiometry    C6H6NO2S(1-)
 Framework group  C1[X(C6H6NO2S)]
 Deg. of freedom    42
 Full point group                 C1      NOp   1
 Largest Abelian subgroup         C1      NOp   1
 Largest concise Abelian subgroup C1      NOp   1
                         Standard orientation:                         
 ---------------------------------------------------------------------
 Center     Atomic      Atomic             Coordinates (Angstroms)
 Number     Number       Type             X           Y           Z
 ---------------------------------------------------------------------
      1          6           0        0.273170    0.010587   -0.048613
      2          6           0        0.966932   -1.199622   -0.046750
      3          1           0        0.401236   -2.125340   -0.112454
      4          6           0        2.360113   -1.209178    0.002949
      5          1           0        2.897252   -2.155555   -0.003703
      6          6           0        3.068984   -0.006792    0.049335
      7          1           0        4.156254   -0.013489    0.084029
      8          6           0        2.372962    1.201903    0.039033
      9          1           0        2.920081    2.142171    0.065238
     10          6           0        0.977609    1.211088   -0.011008
     11          1           0        0.411681    2.137708   -0.030965
     12         16           0       -1.552073    0.015202   -0.024358
     13          8           0       -1.895244    1.348476   -0.558637
     14          8           0       -1.873477   -1.155519   -0.882816
     15          7           0       -2.008693   -0.105460    1.468016
     16          1           0       -1.861333   -1.082073    1.733408
 ---------------------------------------------------------------------
 Rotational constants (GHZ):           2.6492217           0.8329991           0.7261604
 Basis read from rwf:  (6D, 7F)
 There are   206 symmetry adapted cartesian basis functions of A   symmetry.
 There are   206 symmetry adapted basis functions of A   symmetry.
   206 basis functions,   368 primitive gaussians,   206 cartesian basis functions
    41 alpha electrons       41 beta electrons
       nuclear repulsion energy       616.5938907031 Hartrees.
 NAtoms=   16 NActive=   16 NUniq=   16 SFac= 1.00D+00 NAtFMM=   60 NAOKFM=F Big=F
 Integral buffers will be    131072 words long.
 Raffenetti 2 integral format.
 Two-electron integral symmetry is turned on.
 One-electron integrals computed using PRISM.
 NBasis=   206 RedAO= T EigKep=  4.04D-06  NBF=   206
 NBsUse=   206 1.00D-06 EigRej= -1.00D+00 NBFU=   206
 Initial guess from the checkpoint file:  "/jobfs/40735762.gadi-pbs/Gau-966735.chk"
 B after Tr=    -0.000000   -0.000000   -0.000000
         Rot=    0.999875    0.015840   -0.000178    0.000016 Ang=   1.82 deg.
 ExpMin= 4.05D-02 ExpMax= 2.19D+04 ExpMxC= 3.30D+03 IAcc=3 IRadAn=         5 AccDes= 0.00D+00
 Harris functional with IExCor= 1009 and IRadAn=       5 diagonalized for initial guess.
 HarFok:  IExCor= 1009 AccDes= 0.00D+00 IRadAn=         5 IDoV= 1 UseB2=F ITyADJ=14
 ICtDFT=  3500011 ScaDFX=  1.000000  1.000000  1.000000  1.000000
 FoFCou: FMM=F IPFlag=           0 FMFlag=      100000 FMFlg1=           0
         NFxFlg=           0 DoJE=T BraDBF=F KetDBF=T FulRan=T
         wScrn=  0.000000 ICntrl=       500 IOpCl=  0 I1Cent=   200000004 NGrid=           0
         NMat0=    1 NMatS0=      1 NMatT0=    0 NMatD0=    1 NMtDS0=    0 NMtDT0=    0
 Petite list used in FoFCou.
 Requested convergence on RMS density matrix=1.00D-08 within 128 cycles.
 Requested convergence on MAX density matrix=1.00D-06.
 Requested convergence on             energy=1.00D-06.
 No special actions if energy rises.
 SCF Done:  E(RM062X) =  -835.415050937     A.U. after   16 cycles
            NFock= 16  Conv=0.67D-08     -V/T= 2.0062
 Calling FoFJK, ICntrl=      2127 FMM=F ISym2X=0 I1Cent= 0 IOpClX= 0 NMat=1 NMatS=1 NMatT=0.
 ***** Axes restored to original set *****
 -------------------------------------------------------------------
 Center     Atomic                   Forces (Hartrees/Bohr)
 Number     Number              X              Y              Z
 -------------------------------------------------------------------
      1        6          -0.000511649    0.000957671   -0.000538244
      2        6          -0.000326336    0.000274817    0.000078899
      3        1          -0.000226643   -0.000114594    0.000108367
      4        6          -0.000070096    0.000043425   -0.000108601
      5        1           0.000120251   -0.000056050    0.000223166
      6        6          -0.000479635   -0.000013564    0.000117482
      7        1           0.000038087   -0.000059361    0.000267006
      8        6           0.000909290   -0.000124947    0.000900635
      9        1          -0.000119174    0.000006123    0.000206551
     10        6           0.000449045   -0.000520140   -0.000671203
     11        1           0.000618693    0.000087026   -0.000170682
     12       16           0.000712919    0.000835035    0.000307032
     13        8          -0.001833191    0.000405475   -0.000301929
     14        8           0.001129980   -0.000723050   -0.000417223
     15        7           0.000314288   -0.001008418   -0.001513117
     16        1          -0.000725829    0.000010552    0.001511860
 -------------------------------------------------------------------
 Cartesian Forces:  Max     0.001833191 RMS     0.000617448

 GradGradGradGradGradGradGradGradGradGradGradGradGradGradGradGradGradGrad
 Berny optimization.
 Using GEDIIS/GDIIS optimizer.
 FormGI is forming the generalized inverse of G from B-inverse, IUseBI=4.
 Internal  Forces:  Max     0.001585679 RMS     0.000488318
 Search for a local minimum.
 Step number   3 out of a maximum of   84
 All quantities printed in internal units (Hartrees-Bohrs-Radians)
 Mixed Optimization -- En-DIIS/RFO-DIIS
 Update second derivatives using D2CorX and points    1    2    3
 DE= -6.79D-04 DEPred=-6.04D-04 R= 1.12D+00
 TightC=F SS=  1.41D+00  RLast= 1.75D-01 DXNew= 8.4853D-01 5.2565D-01
 Trust test= 1.12D+00 RLast= 1.75D-01 DXMaxT set to 5.26D-01
 ITU=  1  1  0
 Use linear search instead of GDIIS.
     Eigenvalues ---    0.00301   0.01450   0.02075   0.02144   0.02149
     Eigenvalues ---    0.02152   0.02156   0.02161   0.02162   0.02178
     Eigenvalues ---    0.02321   0.11144   0.12701   0.15829   0.15999
     Eigenvalues ---    0.15999   0.16000   0.16000   0.16149   0.21036
     Eigenvalues ---    0.21971   0.22000   0.22797   0.24288   0.24806
     Eigenvalues ---    0.25019   0.33515   0.35178   0.35274   0.35279
     Eigenvalues ---    0.35287   0.35559   0.42124   0.42532   0.43861
     Eigenvalues ---    0.46447   0.46451   0.46581   0.46696   0.59204
     Eigenvalues ---    0.73483   0.79432
 RFO step:  Lambda=-2.66384140D-04 EMin= 3.01397952D-03
 Quartic linear search produced a step of  0.17579.
 Iteration  1 RMS(Cart)=  0.04285972 RMS(Int)=  0.00087231
 Iteration  2 RMS(Cart)=  0.00099444 RMS(Int)=  0.00001455
 Iteration  3 RMS(Cart)=  0.00000049 RMS(Int)=  0.00001455
 Variable       Old X    -DE/DX   Delta X   Delta X   Delta X     New X
                                 (Linear)    (Quad)   (Total)
    R1        2.63609  -0.00008   0.00022  -0.00020   0.00003   2.63612
    R2        2.63130   0.00079   0.00043   0.00209   0.00251   2.63382
    R3        3.44953  -0.00034   0.00397   0.00206   0.00603   3.45556
    R4        2.05389   0.00025   0.00010   0.00089   0.00099   2.05488
    R5        2.63447  -0.00038  -0.00011  -0.00090  -0.00102   2.63345
    R6        2.05641  -0.00022   0.00015  -0.00044  -0.00028   2.05613
    R7        2.63912   0.00010   0.00006   0.00022   0.00028   2.63939
    R8        2.05573  -0.00027   0.00005  -0.00068  -0.00063   2.05510
    R9        2.63581   0.00055   0.00004   0.00140   0.00144   2.63725
   R10        2.05636  -0.00020   0.00017  -0.00040  -0.00023   2.05613
   R11        2.63859  -0.00123  -0.00019  -0.00322  -0.00341   2.63517
   R12        2.05216   0.00043   0.00009   0.00155   0.00164   2.05380
   R13        2.79068  -0.00159  -0.00138  -0.00413  -0.00551   2.78517
   R14        2.80981  -0.00140  -0.00107  -0.00365  -0.00473   2.80508
   R15        2.95803   0.00101  -0.00015   0.00220   0.00205   2.96008
   R16        1.93263   0.00039  -0.00020   0.00092   0.00072   1.93335
    A1        2.09017   0.00074  -0.00132   0.00214   0.00081   2.09098
    A2        2.09378   0.00002   0.00091   0.00123   0.00211   2.09589
    A3        2.09824  -0.00077   0.00041  -0.00391  -0.00353   2.09471
    A4        2.07144   0.00030  -0.00131  -0.00063  -0.00195   2.06949
    A5        2.09786  -0.00056   0.00081  -0.00173  -0.00091   2.09695
    A6        2.11350   0.00027   0.00047   0.00245   0.00291   2.11642
    A7        2.09326  -0.00009   0.00013  -0.00054  -0.00041   2.09285
    A8        2.09732  -0.00009   0.00000  -0.00039  -0.00039   2.09693
    A9        2.09256   0.00018  -0.00014   0.00096   0.00082   2.09338
   A10        2.09795  -0.00020   0.00016  -0.00064  -0.00047   2.09747
   A11        2.08581   0.00048  -0.00030   0.00186   0.00156   2.08737
   A12        2.09939  -0.00028   0.00013  -0.00121  -0.00107   2.09831
   A13        2.09175   0.00024  -0.00016   0.00124   0.00109   2.09283
   A14        2.09976  -0.00024  -0.00003  -0.00125  -0.00128   2.09848
   A15        2.09166  -0.00000   0.00019   0.00001   0.00020   2.09186
   A16        2.09540  -0.00033   0.00084  -0.00062   0.00022   2.09562
   A17        2.06181   0.00066  -0.00144   0.00198   0.00054   2.06235
   A18        2.12593  -0.00033   0.00060  -0.00137  -0.00077   2.12516
   A19        1.80270  -0.00074   0.00267  -0.00641  -0.00374   1.79896
   A20        1.77877   0.00026   0.00331  -0.00072   0.00259   1.78135
   A21        1.87985   0.00053   0.00164   0.00123   0.00287   1.88272
   A22        2.03952  -0.00052  -0.00098  -0.00171  -0.00276   2.03676
   A23        1.92488   0.00070  -0.00271   0.00671   0.00397   1.92885
   A24        2.01163  -0.00025  -0.00215  -0.00048  -0.00268   2.00895
   A25        1.85353   0.00043  -0.00212   0.00113  -0.00099   1.85254
    D1       -3.10377  -0.00012   0.00167  -0.00526  -0.00360  -3.10737
    D2        0.00860  -0.00002   0.00044  -0.00199  -0.00156   0.00705
    D3        0.08580   0.00007   0.00172   0.00760   0.00934   0.09514
    D4       -3.08500   0.00017   0.00048   0.01087   0.01138  -3.07362
    D5       -0.00881   0.00003  -0.00033   0.00233   0.00201  -0.00680
    D6        3.12328   0.00001  -0.00079   0.00125   0.00046   3.12373
    D7        3.08468  -0.00014  -0.00036  -0.01042  -0.01076   3.07391
    D8       -0.06642  -0.00016  -0.00082  -0.01150  -0.01231  -0.07874
    D9       -2.76649   0.00058   0.00980   0.06091   0.07070  -2.69579
   D10       -0.64389  -0.00017   0.01102   0.05622   0.06724  -0.57664
   D11        1.47981  -0.00009   0.01092   0.05585   0.06678   1.54659
   D12        0.42331   0.00073   0.00989   0.07367   0.08354   0.50685
   D13        2.54592  -0.00002   0.01111   0.06897   0.08008   2.62600
   D14       -1.61357   0.00006   0.01102   0.06860   0.07962  -1.53395
   D15       -3.13321  -0.00004   0.00012  -0.00183  -0.00171  -3.13492
   D16       -0.00151   0.00001  -0.00020   0.00086   0.00066  -0.00085
   D17       -0.02154   0.00005  -0.00117   0.00147   0.00030  -0.02124
   D18        3.11015   0.00011  -0.00149   0.00416   0.00267   3.11283
   D19       -3.13723  -0.00003   0.00011  -0.00162  -0.00152  -3.13875
   D20       -0.00536  -0.00000  -0.00015  -0.00007  -0.00022  -0.00558
   D21       -0.00553   0.00002  -0.00021   0.00106   0.00085  -0.00468
   D22        3.12634   0.00005  -0.00047   0.00261   0.00215   3.12849
   D23       -3.13124  -0.00000   0.00030  -0.00020   0.00011  -3.13114
   D24        0.00515   0.00001   0.00026   0.00042   0.00068   0.00583
   D25        0.00062   0.00003   0.00005   0.00136   0.00141   0.00203
   D26        3.13702   0.00004   0.00001   0.00198   0.00198   3.13899
   D27        0.00193  -0.00002  -0.00002  -0.00156  -0.00158   0.00036
   D28       -3.12979  -0.00001   0.00047  -0.00046   0.00002  -3.12977
   D29        3.13833  -0.00001  -0.00006  -0.00094  -0.00100   3.13733
   D30        0.00660  -0.00000   0.00043   0.00016   0.00060   0.00720
   D31       -1.31902  -0.00125  -0.00793  -0.04661  -0.05453  -1.37355
   D32        3.00870  -0.00101  -0.01061  -0.04304  -0.05361   2.95509
   D33        0.65273  -0.00073  -0.00394  -0.04697  -0.05095   0.60178
         Item               Value     Threshold  Converged?
 Maximum Force            0.001586     0.000450     NO 
 RMS     Force            0.000488     0.000300     NO 
 Maximum Displacement     0.134400     0.001800     NO 
 RMS     Displacement     0.042975     0.001200     NO 
 Predicted change in Energy=-1.519534D-04
 GradGradGradGradGradGradGradGradGradGradGradGradGradGradGradGradGradGrad

                          Input orientation:                          
 ---------------------------------------------------------------------
 Center     Atomic      Atomic             Coordinates (Angstroms)
 Number     Number       Type             X           Y           Z
 ---------------------------------------------------------------------
      1          6           0       -1.322159    0.745082   -0.926853
      2          6           0       -2.515999    0.829752   -1.643467
      3          1           0       -3.453278    0.846540   -1.092421
      4          6           0       -2.492638    0.923551   -3.033671
      5          1           0       -3.425897    0.995679   -3.588369
      6          6           0       -1.273754    0.934221   -3.715580
      7          1           0       -1.254854    1.010068   -4.800277
      8          6           0       -0.080581    0.857175   -2.995841
      9          1           0        0.872067    0.874919   -3.521210
     10          6           0       -0.104505    0.763037   -1.604755
     11          1           0        0.809537    0.712623   -1.018947
     12         16           0       -1.356093    0.515052    0.886906
     13          8           0       -0.070341    1.090763    1.320070
     14          8           0       -2.582541    1.257844    1.270949
     15          7           0       -1.393478   -1.024060    1.175652
     16          1           0       -2.361343   -1.318608    1.023402
 ---------------------------------------------------------------------
                    Distance matrix (angstroms):
                    1          2          3          4          5
     1  C    0.000000
     2  C    1.394975   0.000000
     3  H    2.139947   1.087394   0.000000
     4  C    2.416724   1.393561   2.167305   0.000000
     5  H    3.401790   2.153623   2.500550   1.088055   0.000000
     6  C    2.795553   2.418210   3.411595   1.396707   2.156774
     7  H    3.883061   3.404182   4.313700   2.158817   2.486434
     8  C    2.415531   2.785844   3.872752   2.413266   3.400207
     9  H    3.400320   3.873881   4.960689   3.400191   4.300185
    10  C    1.393756   2.412727   3.388767   2.787606   3.875628
    11  H    2.133931   3.385695   4.265551   3.874011   4.961949
    12  S    1.828602   2.801285   2.902723   4.102380   4.954106
    13  O    2.595228   3.851223   4.162214   4.985032   5.946560
    14  O    2.584922   2.946440   2.552033   4.318516   4.938922
    15  N    2.748723   3.555855   3.589718   4.766523   5.559314
    16  H    3.023610   3.428055   3.218213   4.637280   5.268552
                    6          7          8          9         10
     6  C    0.000000
     7  H    1.087510   0.000000
     8  C    1.395573   2.158306   0.000000
     9  H    2.155423   2.485573   1.088057   0.000000
    10  C    2.419097   3.405245   1.394473   2.153837   0.000000
    11  H    3.414826   4.318407   2.172858   2.508300   1.086823
    12  S    4.622268   5.709583   4.101182   4.952342   2.799347
    13  O    5.179815   6.234440   4.322240   4.936874   2.943327
    14  O    5.165571   6.219641   4.962442   5.919944   3.828207
    15  N    5.270043   6.314161   4.760683   5.549715   3.547652
    16  H    5.358736   6.368854   5.107859   5.993331   4.041507
                   11         12         13         14         15
    11  H    0.000000
    12  S    2.891585   0.000000
    13  O    2.527485   1.473849   0.000000
    14  O    4.128811   1.484387   2.518229   0.000000
    15  N    3.561686   1.566409   2.498804   2.574886   0.000000
    16  H    4.283873   2.095584   3.337929   2.597752   1.023084
                   16
    16  H    0.000000
 Stoichiometry    C6H6NO2S(1-)
 Framework group  C1[X(C6H6NO2S)]
 Deg. of freedom    42
 Full point group                 C1      NOp   1
 Largest Abelian subgroup         C1      NOp   1
 Largest concise Abelian subgroup C1      NOp   1
                         Standard orientation:                         
 ---------------------------------------------------------------------
 Center     Atomic      Atomic             Coordinates (Angstroms)
 Number     Number       Type             X           Y           Z
 ---------------------------------------------------------------------
      1          6           0        0.276006    0.007274   -0.057826
      2          6           0        0.970921   -1.202282   -0.052855
      3          1           0        0.404227   -2.127937   -0.119528
      4          6           0        2.363328   -1.209233    0.003427
      5          1           0        2.901735   -2.154735    0.000818
      6          6           0        3.069290   -0.005139    0.054084
      7          1           0        4.156007   -0.009922    0.095346
      8          6           0        2.372073    1.203722    0.041202
      9          1           0        2.917299    2.144854    0.070627
     10          6           0        0.978741    1.210133   -0.014832
     11          1           0        0.411320    2.136808   -0.036967
     12         16           0       -1.552274    0.014216   -0.024201
     13          8           0       -1.892433    1.301569   -0.656061
     14          8           0       -1.881350   -1.212979   -0.791733
     15          7           0       -2.005539    0.001880    1.475145
     16          1           0       -1.907329   -0.965258    1.794051
 ---------------------------------------------------------------------
 Rotational constants (GHZ):           2.6505565           0.8321432           0.7256051
 Basis read from rwf:  (6D, 7F)
 There are   206 symmetry adapted cartesian basis functions of A   symmetry.
 There are   206 symmetry adapted basis functions of A   symmetry.
   206 basis functions,   368 primitive gaussians,   206 cartesian basis functions
    41 alpha electrons       41 beta electrons
       nuclear repulsion energy       616.5616644419 Hartrees.
 NAtoms=   16 NActive=   16 NUniq=   16 SFac= 1.00D+00 NAtFMM=   60 NAOKFM=F Big=F
 Integral buffers will be    131072 words long.
 Raffenetti 2 integral format.
 Two-electron integral symmetry is turned on.
 One-electron integrals computed using PRISM.
 NBasis=   206 RedAO= T EigKep=  4.08D-06  NBF=   206
 NBsUse=   206 1.00D-06 EigRej= -1.00D+00 NBFU=   206
 Initial guess from the checkpoint file:  "/jobfs/40735762.gadi-pbs/Gau-966735.chk"
 B after Tr=    -0.000000    0.000000    0.000000
         Rot=    0.999836    0.018114    0.000038    0.000206 Ang=   2.08 deg.
 ExpMin= 4.05D-02 ExpMax= 2.19D+04 ExpMxC= 3.30D+03 IAcc=3 IRadAn=         5 AccDes= 0.00D+00
 Harris functional with IExCor= 1009 and IRadAn=       5 diagonalized for initial guess.
 HarFok:  IExCor= 1009 AccDes= 0.00D+00 IRadAn=         5 IDoV= 1 UseB2=F ITyADJ=14
 ICtDFT=  3500011 ScaDFX=  1.000000  1.000000  1.000000  1.000000
 FoFCou: FMM=F IPFlag=           0 FMFlag=      100000 FMFlg1=           0
         NFxFlg=           0 DoJE=T BraDBF=F KetDBF=T FulRan=T
         wScrn=  0.000000 ICntrl=       500 IOpCl=  0 I1Cent=   200000004 NGrid=           0
         NMat0=    1 NMatS0=      1 NMatT0=    0 NMatD0=    1 NMtDS0=    0 NMtDT0=    0
 Petite list used in FoFCou.
 Requested convergence on RMS density matrix=1.00D-08 within 128 cycles.
 Requested convergence on MAX density matrix=1.00D-06.
 Requested convergence on             energy=1.00D-06.
 No special actions if energy rises.
 SCF Done:  E(RM062X) =  -835.415255279     A.U. after   16 cycles
            NFock= 16  Conv=0.80D-08     -V/T= 2.0061
 Calling FoFJK, ICntrl=      2127 FMM=F ISym2X=0 I1Cent= 0 IOpClX= 0 NMat=1 NMatS=1 NMatT=0.
 ***** Axes restored to original set *****
[...]
     6         -4.34214936         -1.50238763          3.78088466
     1         -6.22902534         -1.64843397          2.98384834
     6         -3.93945136         -1.54821024          6.38770951
     1         -5.54008343         -1.70664957          7.66823370
     6         -1.49131128         -1.40561161          7.35360369
     1         -1.17713524         -1.44467476          9.38421860
     6          0.55727471         -1.22940584          5.69705299
     1          2.47114728         -1.13301060          6.44117422
     6          0.15727587         -1.18671662          3.09555625
     1          1.72291638         -1.06886135          1.77195997
    16         -2.79720740         -1.06559283         -1.26448255
     8         -0.62756823         -2.47081760         -2.30912914
     8         -5.33411419         -2.22726706         -1.58688130
     7         -2.63208392          1.80002171         -1.98635626
     1         -4.38510235          2.54187774         -1.65708705

 Electric dipole moment (dipole orientation):
 (Debye = 10**-18 statcoulomb cm , SI units = C m)
                  (au)            (Debye)         (10**-30 SI)
   Tot        0.338337D+01      0.859966D+01      0.286854D+02
   x          0.000000D+00      0.000000D+00      0.000000D+00
   y          0.000000D+00      0.000000D+00      0.000000D+00
   z          0.338337D+01      0.859966D+01      0.286854D+02

 Dipole polarizability, Alpha (dipole orientation).
 (esu units = cm**3 , SI units = C**2 m**2 J**-1)
 Alpha(0;0):
               (au)            (10**-24 esu)      (10**-40 SI)
   iso        0.109063D+03      0.161615D+02      0.179821D+02
   aniso      0.544964D+02      0.807553D+01      0.898524D+01
   xx         0.109436D+03      0.162167D+02      0.180435D+02
   yx         0.140296D+01      0.207897D+00      0.231317D+00
   yy         0.788044D+02      0.116776D+02      0.129931D+02
   zx         0.450240D+01      0.667187D+00      0.742346D+00
   zy        -0.795258D+01     -0.117845D+01     -0.131120D+01
   zz         0.138950D+03      0.205902D+02      0.229097D+02

 ----------------------------------------------------------------------
 Unable to Open any file for archive entry.
 1\1\GINC-GADI-CPU-CLX-1179\Freq\RM062X\Gen\C6H6N1O2S1(1-)\YJ5695\20-Ma
 y-2022\0\\#N Geom=AllCheck Guess=TCheck SCRF=Check GenChk RM062X/ChkBa
 s Freq\\A.1.a1.freq\\-1,1\C,-1.345161564,0.7498587575,-0.9312485696\C,
 -2.5292929964,0.8888147771,-1.651520572\H,-3.4663212047,0.9412018551,-
 1.1037201778\C,-2.4919021744,0.9842378025,-3.0437989946\H,-3.417384917
 9,1.0998643444,-3.6039381437\C,-1.2715120688,0.939202932,-3.7175104963
 \H,-1.2421230759,1.0153151097,-4.8019826851\C,-0.0857983677,0.80478356
 66,-2.9906343026\H,0.8690203062,0.7772511475,-3.5111537185\C,-0.122122
 7126,0.711165243,-1.6012446257\H,0.7879373322,0.6157615426,-1.01509044
 02\S,-1.3821086394,0.5241456763,0.8785241699\O,-0.1709994275,1.2422447
 389,1.3193047839\O,-2.6903208801,1.1249989421,1.2483779621\N,-1.252135
 8907,-1.0095256394,1.168422721\H,-2.1956327184,-1.3956827958,1.0928010
 893\\Version=ES64L-G16RevC.01\State=1-A\HF=-835.4154097\RMSD=3.916e-09
 \RMSF=8.979e-06\ZeroPoint=0.1151616\Thermal=0.123753\ETot=-835.2916567
 \HTot=-835.2907126\GTot=-835.3350346\Dipole=-0.4269617,0.1729513,-3.35
 18587\DipoleDeriv=-0.2256945,-0.0043114,0.0121691,-0.0372556,-0.280938
 5,0.0544845,0.0098076,-0.0908084,-0.0726116,0.020393,0.0077837,-0.0485
 541,-0.0188976,-0.088412,0.0188114,-0.0833134,0.0714435,-0.2610539,-0.
 0148473,0.0047744,0.0274007,0.0045243,0.1114131,0.0126303,0.0498921,-0
 .0010827,0.1010314,0.0774956,-0.0181952,0.0117925,-0.0211036,-0.145346
 6,-0.0334779,0.0917131,-0.0343556,0.0641002,-0.1126332,0.0312459,-0.12
 05248,0.0295137,0.1296812,0.0237197,-0.1036322,0.024989,-0.0431947,-0.
 0365944,-0.0083037,-0.0105598,-0.0084721,-0.1896031,-0.0144738,0.00197
 96,0.011459,-0.0339739,0.0589062,0.005239,0.0074914,0.0050538,0.136865
 6,0.0293038,0.0068188,0.0253791,-0.1911393,0.0859938,-0.0227713,-0.002
 3627,-0.0168713,-0.1441969,-0.0342889,-0.1004134,-0.0206035,0.0714424,
 -0.1220166,0.0058994,0.1170552,0.0077205,0.132492,0.0038622,0.101884,0
 .0086171,-0.0318631,0.0322626,-0.0303446,0.0799359,0.0068612,-0.076490
 4,0.0179494,0.1048302,0.0541805,-0.2590015,-0.0037628,0.0105818,-0.029
 001,0.0146306,0.1091481,0.0170713,-0.0534281,0.00655,0.0897694,1.91495
 63,0.0698587,-0.0452146,0.0573944,2.3057846,-0.0990929,-0.0376617,-0.1
 115614,2.3490226,-1.0240265,-0.3111804,-0.4102152,-0.2836355,-0.833127
 1,-0.2302332,-0.1933305,-0.0653263,-0.9977876,-1.1631622,0.3250765,0.4
 345114,0.2826517,-0.9098778,-0.1793425,0.2163502,-0.046752,-0.9445069,
 -0.4435272,0.015759,0.0241204,-0.0013432,-1.4422326,0.4292168,0.058954
 6,0.1856566,-1.1182005,-0.0437428,-0.0811121,-0.0480445,-0.0207715,0.1
 848404,-0.0161402,-0.0704507,-0.0177849,0.277967\Polar=108.7624118,-2.
 45391,79.7662293,-0.8157322,-10.7727231,138.6608771\Quadrupole=6.49726
 69,1.3211715,-7.8184384,2.2849324,-1.7010309,0.6831684\PG=C01 [X(C6H6N
 1O2S1)]\NImag=0\\0.69053451,-0.03835254,0.15482231,0.00323062,-0.03349
 958,0.54277513,-0.28429004,0.02337648,-0.12211226,0.72298051,0.0222036
 1,-0.06506811,0.01829734,-0.04628990,0.14344045,-0.06290309,0.01497331
 ,-0.17828420,-0.04031668,-0.03680724,0.69858177,-0.02028396,0.00151897
 ,0.01261235,-0.27341283,0.01312177,0.12385558,0.29096198,0.00279024,0.
 00415859,-0.00190560,0.01491767,-0.04041635,-0.00540009,-0.01591197,0.
 02844166,-0.01216100,0.00028504,0.01289512,0.12572450,-0.00519257,-0.1
 2860615,-0.13386024,0.00470091,0.13215399,0.04220786,0.00068928,-0.028
 01099,-0.13049434,0.00676421,-0.02941802,0.00494822,-0.00249958,0.0265
 3126,0.72705128,0.00326423,0.00557898,0.00440453,0.00156116,-0.0640182
 6,0.02283361,0.00008538,0.00352010,-0.00142031,-0.04828173,0.14011773,
 -0.08552324,0.00868229,-0.02745039,0.04701880,0.01785836,-0.34467041,-
 0.00232669,0.00127052,-0.00934693,0.02322778,-0.04224830,0.69217194,0.
 00173838,0.00051355,0.00017531,0.00398357,-0.00022650,0.00190218,0.000
 54834,-0.00033029,-0.00042811,-0.26192301,0.02718028,-0.12175514,0.277
 32612,0.00010350,0.00730048,0.00076493,0.00236418,0.00317874,0.0009649
 5,-0.00053642,-0.00408264,-0.00021772,0.02746842,-0.03958025,0.0166719
 7,-0.03002517,0.02902466,0.00111375,0.00121403,-0.00655634,-0.02874655
 ,0.00337805,-0.01057467,0.00045375,-0.00038239,0.00105542,-0.12234695,
 0.01677253,-0.13313744,0.13262545,-0.01886466,0.13752724,-0.08154695,0
 .00537636,-0.00104149,0.03717930,-0.00742165,0.08655569,0.00180500,0.0
 0068754,-0.00132235,-0.29780184,0.01418645,0.05648708,-0.01841737,0.00
 034491,0.01396741,0.67603340,0.00558245,-0.00669550,0.00020193,-0.0044
 8142,0.00758210,-0.00452371,0.00069303,0.00723104,0.00084911,0.0083732
 5,-0.06244861,0.00450971,0.00295144,0.00265044,-0.00173215,-0.03917690
 ,0.13640738,-0.00117693,-0.00106943,0.00054740,0.02716803,-0.00012830,
 -0.02532737,-0.00064188,0.00112721,-0.00508152,0.13025080,-0.00138571,
 -0.17902558,-0.01756694,0.00081734,0.01162486,-0.00726452,-0.04267487,
 0.74560438,-0.00154374,0.00003408,-0.00004505,-0.00489099,0.00078823,0
 .00211772,0.00018712,-0.00012635,0.00130629,0.00483107,-0.00224892,0.0
 2857435,0.00085387,-0.00033550,-0.00066365,-0.05999416,0.00128215,0.00
 762972,0.05770981,0.00007222,-0.00085088,-0.00021800,0.00071643,0.0071
 8843,0.00033024,0.00003657,0.00027687,-0.00005315,0.00012725,0.0025738
 4,-0.00114364,-0.00044260,-0.00406486,-0.00031896,0.00135002,-0.036283
 79,0.02133975,-0.00177411,0.02663681,-0.00007808,-0.00002155,0.0007269
 1,0.00360615,0.00018355,0.00069524,-0.00024642,0.00011153,-0.00061952,
 -0.00300880,0.00124818,-0.01144610,0.00045267,-0.00037990,0.00076914,0
 .00764645,0.02119063,-0.33823807,-0.00837116,-0.02343582,0.36021097,0.
 03708429,-0.00520553,0.03022241,-0.01978933,0.00289443,-0.03464679,0.0
 0011566,-0.00001677,-0.00071135,-0.05934812,0.00293132,0.02663077,-0.0
 0321115,0.00066253,0.00304610,-0.28354900,0.02508375,-0.13108053,0.006
 17542,-0.00071959,0.00395305,0.72675038,-0.00790313,0.00749788,-0.0002
 2286,0.00287477,-0.00649993,0.00631368,-0.00000902,-0.00074860,0.00008
 132,0.00714235,0.00686164,-0.00640604,0.00053922,0.00728508,0.00034790
 ,0.01946748,-0.06424409,0.01789672,0.00171631,0.00228480,0.00079886,-0
 .03874127,0.13904288,0.08761913,-0.00349465,-0.02391262,-0.02917022,0.
 00511655,-0.05975821,-0.00118366,-0.00000007,-0.00055079,-0.03298111,-
 0.00211368,0.06930411,0.00449888,0.00033159,-0.00063268,-0.05701883,0.
 01294867,-0.18548144,-0.02762203,0.00291279,-0.01245122,-0.03065703,-0
 .03715676,0.69527493,0.00174047,0.00028832,0.00027592,0.00034960,-0.00
 001087,-0.00072178,-0.00001421,-0.00009319,0.00008776,-0.00285195,0.00
 099745,-0.00446555,-0.00115973,0.00006469,0.00081479,-0.01843982,0.000
 29275,0.01613934,0.00084925,-0.00028581,-0.00049199,-0.27547942,0.0076
 4921,0.11704936,0.29188450,0.00061802,0.00754535,0.00082845,0.00004702
 ,-0.00079120,-0.00003720,-0.00013383,-0.00117864,-0.00008189,0.0008778
 7,0.00702566,0.00092240,0.00015544,0.00034985,-0.00004384,0.00270065,0
 .00259786,-0.00167379,-0.00038147,-0.00392394,-0.00030607,0.00750568,-
 0.03688645,-0.00190611,-0.00883739,0.02590034,-0.00059997,0.00130081,-
 0.00652404,-0.00098805,0.00008979,-0.00111753,0.00012134,-0.00010403,0
 .00006806,-0.00308042,0.00079031,-0.00097807,-0.00089060,0.00007309,0.
 00041834,-0.01540977,0.00042588,0.01171929,0.00062920,-0.00038032,0.00
 076961,0.11752402,-0.00198075,-0.12315967,-0.12754892,0.00145968,0.126
 76398,-0.29122964,0.00874559,0.11633418,-0.05335966,0.00588872,-0.0276
 5132,-0.00338003,0.00080794,-0.00345054,-0.02362025,-0.00085498,0.0321
 5996,0.00020961,-0.00017257,0.00107177,0.04412230,-0.00090621,-0.02417
 812,-0.00461622,0.00100458,-0.00375314,-0.13121981,0.00775755,-0.03521
 877,0.00250253,-0.00220899,0.02955392,0.71814227,0.01007508,-0.0644078
 8,0.00033172,0.00357014,0.00591047,-0.00106286,0.00122007,0.00691870,0
 .00068979,-0.00074328,-0.00550898,0.00007046,-0.00014268,-0.00087026,-
 0.00008911,0.00167245,0.00653001,0.00427454,0.00100671,0.00693104,0.00
 073373,0.00294197,-0.06404860,0.02387997,0.00023995,0.00371051,-0.0009
 7739,-0.04050766,0.14380822,0.05745979,0.00492280,-0.16731889,0.020596
 34,-0.00483966,0.07034358,-0.00354695,0.00082988,-0.00209234,0.0366473
 5,0.00099494,-0.05672158,0.00076026,-0.00019951,-0.00100368,-0.0831417
 7,0.00818971,-0.03001722,-0.00231091,0.00076096,0.00039344,0.04190184,
 0.01749209,-0.35223406,-0.00116510,0.00107990,-0.00951637,0.03777097,-
 0.04465260,0.70858530,-0.02010756,0.00258672,-0.01426664,-0.00369620,0
 .00033829,0.00357238,-0.00098893,0.00011482,-0.00093888,0.00008594,-0.
 00010863,0.00114989,0.00000095,-0.00005093,-0.00013174,0.00155899,0.00
 022239,0.00107294,0.00024173,-0.00002101,0.00030047,0.00628088,-0.0004
 3546,0.00321107,0.00057514,-0.00022817,-0.00050182,-0.26184988,0.02271
 789,-0.12905651,0.27825645,0.00042306,0.00400046,-0.00012837,0.0006326
 2,0.00700429,0.00033299,-0.00001972,-0.00015259,0.00005748,-0.00008831
 ,-0.00073825,-0.00011157,-0.00009205,-0.00120518,-0.00008534,0.0002670
 9,0.00748043,0.00089469,0.00010326,0.00019205,0.00005677,0.00193328,0.
 00358306,0.00082678,-0.00037989,-0.00422069,-0.00033619,0.02184342,-0.
 04193728,0.01556684,-0.02474090,0.02897656,0.01148592,-0.00170986,0.01
 288372,0.00346871,0.00025453,-0.00170756,0.00087129,-0.00009553,0.0007
 3232,0.00074686,-0.00003048,-0.00049907,-0.00010418,-0.00007631,0.0000
 7091,0.00171681,0.00063848,-0.00501286,-0.00128639,0.00013375,-0.00068
 195,-0.02612966,0.00277468,-0.01046091,0.00034893,-0.00031778,0.001059
 67,-0.13046533,0.01550459,-0.14022187,0.13867066,-0.01725155,0.1442761
 4,-0.07061034,-0.00125117,0.00202412,0.01122888,0.00185285,-0.01652921
 ,-0.00401174,-0.00021979,-0.00425529,-0.00485670,0.00208647,-0.0049707
 6,-0.00008372,-0.00001831,-0.00152238,-0.00454235,0.00029022,-0.000180
 98,-0.00049822,-0.00001525,-0.00000777,-0.00497071,-0.00025549,0.00519
 697,-0.00008958,0.00002997,0.00146050,0.00923288,-0.00351607,0.0189823
 1,-0.00382355,0.00061607,0.00393259,0.93747765,-0.00115420,-0.05509693
 ,0.00452299,0.00125014,0.00060547,0.00132456,0.00041661,-0.00197605,0.
 00118201,0.00067941,0.00618202,-0.00141248,-0.00017553,0.00008946,-0.0
 0041216,0.00047747,-0.00057451,0.00066169,-0.00001225,-0.00070713,-0.0
 0034856,0.00031632,0.00572153,-0.00241354,0.00023257,0.00013612,-0.000
 54728,-0.00236261,-0.00021853,-0.00013501,-0.00031439,-0.00107531,0.00
 086757,0.03681803,0.72917478,0.00320460,0.01575316,-0.14386572,-0.0121
 3694,0.00201147,-0.00852325,0.00297450,-0.00028639,0.00077728,0.002587
 65,-0.00019415,0.00294961,0.00107443,-0.00010709,0.00225544,-0.0004349
 8,-0.00020596,0.00133095,0.00000199,-0.00010323,0.00069848,-0.00231081
 ,0.00025162,0.00332724,-0.00115016,0.00002123,0.00222682,0.01289071,-0
 .00007642,-0.00883633,-0.00277567,0.00025702,0.00044557,0.01957600,0.0
 4487361,0.46280038,-0.00619481,-0.00995002,-0.00067220,0.00063011,0.00
 050821,-0.00546714,0.00063586,-0.00054142,0.00092595,-0.00067975,0.000
 65139,0.00113957,-0.00008533,0.00006826,-0.00051127,0.00079767,-0.0002
 0099,-0.00051072,0.00026949,-0.00020173,-0.00008532,0.00224913,0.00091
 220,-0.00051911,0.00021648,-0.00001716,-0.00061521,-0.00387732,0.00197
 194,-0.00090294,0.00214064,-0.00136801,-0.00166997,-0.37267738,-0.1696
 1892,-0.10492161,0.40108885,-0.00609199,0.00491719,0.00293596,0.000404
 55,0.00076294,-0.00390179,0.00012572,-0.00003378,-0.00009975,-0.001124
 96,-0.00036572,0.00084476,-0.00005790,-0.00003787,-0.00028463,0.000673
 13,-0.00004486,-0.00038225,0.00005394,0.00000906,-0.00006110,0.0001083
 7,-0.00017157,-0.00040626,0.00009059,-0.00002170,-0.00019515,-0.000314
 37,0.00103744,0.00012862,0.00013201,-0.00085495,-0.00004204,-0.1679355
 3,-0.17924590,-0.06349695,0.20165735,0.19055144,-0.02995122,-0.0160774
 4,-0.00911316,0.00470040,-0.00053219,-0.00589936,-0.00056925,-0.000601
 45,-0.00008587,-0.00171924,0.00178030,-0.00155772,-0.00023201,0.000197
 89,-0.00101607,-0.00105750,0.00009838,-0.00077012,-0.00007016,-0.00004
 417,-0.00032489,-0.00026844,0.00036532,0.00101871,0.00029795,-0.000102
 48,-0.00036480,0.00014159,-0.00029601,-0.00228741,-0.00106346,0.000015
 89,-0.00068261,-0.11148026,-0.06702559,-0.12493819,0.12948949,0.074714
 36,0.11308655,-0.00956495,0.01005473,0.00001978,-0.00486057,-0.0004565
 7,-0.00025957,0.00255056,0.00044412,0.00202386,0.00243572,-0.00096455,
 0.00068513,0.00021047,-0.00003248,0.00066168,0.00099531,0.00002870,0.0
 0047401,0.00033290,0.00008235,0.00007661,-0.00116926,-0.00035391,-0.00
 135812,-0.00012102,-0.00006422,0.00060582,0.00077920,-0.00072624,0.006
 78606,0.00078286,0.00019306,-0.00083777,-0.38952309,0.13777340,0.08607
 324,-0.02584178,0.01314439,0.00904451,0.42446526,0.00400278,0.00702989
 ,0.00396800,0.00089274,0.00095997,0.00040678,-0.00054233,-0.00084369,-
 0.00053131,-0.00023064,-0.00028377,-0.00056640,-0.00006298,0.00001381,
 -0.00017119,-0.00087343,0.00014186,-0.00034107,-0.00007769,0.00002444,
 -0.00001307,0.00080248,-0.00085263,0.00120322,0.00001895,-0.00011831,-
 0.00016657,0.00021396,0.00138978,-0.00314368,-0.00016160,-0.00001818,-
 0.00013920,0.14345634,-0.15270911,-0.04175674,-0.01823991,0.01481586,0
 .00119158,-0.16924045,0.14364537,0.03016187,-0.01323472,-0.00725628,-0
 .00079831,-0.00049154,-0.00317065,0.00193299,-0.00012304,-0.00106220,0
 .00088694,0.00028242,0.00072755,-0.00028440,-0.00002619,-0.00033758,0.
 00093617,-0.00013744,-0.00067298,0.00011635,-0.00000626,-0.00033795,0.
 00224362,0.00092569,-0.00147448,0.00028789,0.00011686,-0.00100629,-0.0
 0444338,0.00035815,-0.00641802,0.00048179,-0.00038865,0.00001494,0.092
 27988,-0.04256951,-0.10976682,-0.01102853,0.00149468,0.01675477,-0.109
 14580,0.04833483,0.09742940,0.01169769,0.00086556,0.00115065,-0.001605
 66,0.00000564,0.00004227,0.00032536,0.00000200,0.00050320,0.00004144,-
 0.00035875,0.00172400,0.00001029,0.00010184,0.00016960,0.00165647,-0.0
 0009456,-0.00010961,0.00007980,0.00006509,0.00000110,0.00006070,-0.000
 27114,-0.00176643,0.00003039,-0.00005641,-0.00024440,-0.00152348,0.000
 17024,-0.00066508,0.00042357,0.00057035,-0.00061685,-0.09089712,-0.023
 19269,0.00136668,-0.00233943,-0.04009358,0.00216182,-0.00279105,0.0371
 9522,-0.00389814,0.44686168,0.00210204,-0.01002815,-0.00071050,-0.0014
 1436,0.00007831,0.00387707,-0.00022071,-0.00101637,-0.00046225,0.00071
 415,0.00115303,0.00087384,0.00024112,-0.00007005,0.00064773,0.00009873
 ,-0.00028075,0.00073634,-0.00004498,-0.00029266,0.00027905,-0.00055878
 ,0.00110329,0.00050219,-0.00029129,-0.00011936,0.00060007,0.00105921,0
 .00065126,0.00322198,-0.00003958,-0.00092280,-0.00051348,0.03174204,-0
 .32384426,0.04554901,-0.00411105,-0.02289885,0.00500086,0.00812757,-0.
 01997699,0.00488682,0.13327205,0.45796236,0.00074968,0.02092305,0.0014
 9786,0.00172173,0.00125385,-0.00168760,-0.00036203,0.00054129,-0.00028
 961,-0.00027734,-0.00165597,0.00048188,-0.00024184,0.00006882,-0.00039
 353,-0.00003036,0.00021141,-0.00125064,0.00000858,0.00023169,-0.000185
 93,0.00004331,-0.00162841,0.00071074,0.00024954,-0.00000260,-0.0003911
 9,-0.00110561,0.00136596,-0.00242285,0.00030546,0.00052262,-0.00038430
 ,-0.00785635,0.05430839,-0.07851939,-0.00387461,-0.00955201,0.01086268
 ,0.00329946,-0.00900506,0.01921793,0.02901790,-0.05380377,0.06061986,0
 .00036880,0.00070963,0.00010331,0.00004765,0.00003953,-0.00013223,0.00
 001359,-0.00002497,0.00002494,-0.00002555,-0.00012657,0.00024403,-0.00
 000128,-0.00000696,-0.00000176,0.00014305,0.00005994,-0.00002463,0.000
 01289,0.00000559,0.00000616,0.00002033,-0.00008968,-0.00008011,0.00000
 737,-0.00000702,-0.00001563,-0.00031249,0.00004947,-0.00011564,0.00011
 898,0.00010667,-0.00013161,-0.01135490,0.01886665,-0.00601962,0.003667
 58,-0.00077172,0.00057576,0.00131943,0.00284655,0.00027105,-0.36203065
 ,-0.17067617,-0.02164752,0.36800518,0.00226464,-0.00070368,0.00042905,
 -0.00042221,0.00008269,0.00037569,0.00015588,-0.00009824,0.00021329,0.
 00013230,-0.00006915,0.00018412,-0.00002536,0.00001859,0.00002418,0.00
 016969,-0.00004902,-0.00009285,0.00001660,0.00000593,-0.00003622,0.000
 06179,0.00007169,-0.00023067,0.00002397,-0.00000540,-0.00005194,0.0000
 0641,0.00010410,-0.00021726,-0.00001146,-0.00011160,0.00000264,-0.0436
 8037,-0.02646166,-0.00249020,-0.00152014,-0.00841875,0.00131474,0.0019
 9009,0.00678170,0.00057790,-0.10818087,-0.08149801,-0.00377926,0.14901
 904,0.11035081,-0.00263182,0.00105275,-0.00104447,0.00026433,-0.000452
 00,-0.00029364,-0.00008467,0.00031725,0.00005274,-0.00003578,-0.000058
 22,-0.00080180,0.00001403,-0.00001921,-0.00006935,-0.00058804,0.000010
 23,0.00005092,-0.00001487,-0.00000564,0.00002184,0.00023950,0.00014695
 ,0.00048035,-0.00000797,0.00004326,0.00003219,0.00034310,-0.00005449,-
 0.00023168,-0.00002994,-0.00022941,0.00016787,0.00335062,0.00712330,-0
 .00236207,-0.00077639,-0.00169648,0.00531749,0.00185110,0.00072986,-0.
 00264133,-0.02883671,-0.01068495,-0.00786590,0.02694351,0.00377680,0.0
 0918683\\0.00000030,0.00000402,0.00001340,0.00000602,0.00000276,-0.000
 00607,-0.00000013,0.00000346,-0.00000022,0.00000110,-0.00000047,-0.000
 00113,0.00000039,0.00000317,0.00000103,0.00000064,0.00000145,-0.000002
 24,0.00000173,0.00000175,-0.00000035,-0.00000236,-0.00000256,0.0000013
 8,0.00000097,-0.00000281,0.00000108,0.00000053,-0.00000064,-0.00001298
 ,-0.00000178,-0.00000297,0.00000429,0.00000418,-0.00004401,0.00000560,
 0.00000374,-0.00000221,-0.00000136,-0.00000721,0.00000468,0.00000106,-
 0.00000903,0.00003403,-0.00000251,0.00000092,0.00000034,-0.00000097\\\
 @
 The archive entry for this job was punched.


 QUHEN THE CAUSS IS TAKEN AWAY THE EFFECT WANISHETH.
 -- PROVERBS AND REASONS OF THE YEAR 1585
           AS REPRINTED IN PAISLEY MAGAZINE 1828.
 Job cpu time:       0 days  0 hours 37 minutes 38.4 seconds.
 Elapsed time:       0 days  0 hours  2 minutes 22.3 seconds.
 File lengths (MBytes):  RWF=     85 Int=      0 D2E=      0 Chk=      5 Scr=      1
 Normal termination of Gaussian 16 at Fri May 20 14:20:29 2022.
