 Entering Gaussian System, Link 0=g16
 AtFile(1): //home/561/yj5695//Basis/6-31pGd.gbs
 Initial command:
 /apps/gaussian/g16c01/g16/l1.exe "/jobfs/40638752.gadi-pbs/Gau-2182985.inp" -scrdir="/jobfs/40638752.gadi-pbs/"
 Entering Link 1 = /apps/gaussian/g16c01/g16/l1.exe PID=   2182986.
  
 Copyright (c) 1988-2019, Gaussian, Inc.  All Rights Reserved.
  
 This is part of the Gaussian(R) 16 program.  It is based on
 the Gaussian(R) 09 system (copyright 2009, Gaussian, Inc.),
 the Gaussian(R) 03 system (copyright 2003, Gaussian, Inc.),
 the Gaussian(R) 98 system (copyright 1998, Gaussian, Inc.),
 the Gaussian(R) 94 system (copyright 1995, Gaussian, Inc.),
 the Gaussian 92(TM) system (copyright 1992, Gaussian, Inc.),
 the Gaussian 90(TM) system (copyright 1990, Gaussian, Inc.),
 the Gaussian 88(TM) system (copyright 1988, Gaussian, Inc.),
 the Gaussian 86(TM) system (copyright 1986, Carnegie Mellon
 University), and the Gaussian 82(TM) system (copyright 1983,
 Carnegie Mellon University). Gaussian is a federally registered
 trademark of Gaussian, Inc.
  
 This software contains proprietary and confidential information,
 including trade secrets, belonging to Gaussian, Inc.
  
 This software is provided under written license and may be
 used, copied, transmitted, or stored only in accord with that
 written license.
  
 The following legend is applicable only to US Government
 contracts under FAR:
  
                    RESTRICTED RIGHTS LEGEND
  
 Use, reproduction and disclosure by the US Government is
 subject to restrictions as set forth in subparagraphs (a)
 and (c) of the Commercial Computer Software - Restricted
 Rights clause in FAR 52.227-19.
  
 Gaussian, Inc.
 340 Quinnipiac St., Bldg. 40, Wallingford CT 06492
  
  
 ---------------------------------------------------------------
 Warning -- This program may not be used in any manner that
 competes with the business of Gaussian, Inc. or will provide
 assistance to any competitor of Gaussian, Inc.  The licensee
 of this program is prohibited from giving any competitor of
 Gaussian, Inc. access to this program.  By using this program,
 the user acknowledges that Gaussian, Inc. is engaged in the
 business of creating and licensing software in the field of
 computational chemistry and represents and warrants to the
 licensee that it is not a competitor of Gaussian, Inc. and that
 it will not use this program in any manner prohibited above.
 ---------------------------------------------------------------
  

 Cite this work as:
 Gaussian 16, Revision C.01,
 M. J. Frisch, G. W. Trucks, H. B. Schlegel, G. E. Scuseria, 
 M. A. Robb, J. R. Cheeseman, G. Scalmani, V. Barone, 
 G. A. Petersson, H. Nakatsuji, X. Li, M. Caricato, A. V. Marenich, 
 J. Bloino, B. G. Janesko, R. Gomperts, B. Mennucci, H. P. Hratchian, 
 J. V. Ortiz, A. F. Izmaylov, J. L. Sonnenberg, D. Williams-Young, 
 F. Ding, F. Lipparini, F. Egidi, J. Goings, B. Peng, A. Petrone, 
 T. Henderson, D. Ranasinghe, V. G. Zakrzewski, J. Gao, N. Rega, 
 G. Zheng, W. Liang, M. Hada, M. Ehara, K. Toyota, R. Fukuda, 
 J. Hasegawa, M. Ishida, T. Nakajima, Y. Honda, O. Kitao, H. Nakai, 
 T. Vreven, K. Throssell, J. A. Montgomery, Jr., J. E. Peralta, 
 F. Ogliaro, M. J. Bearpark, J. J. Heyd, E. N. Brothers, K. N. Kudin, 
 V. N. Staroverov, T. A. Keith, R. Kobayashi, J. Normand, 
 K. Raghavachari, A. P. Rendell, J. C. Burant, S. S. Iyengar, 
 J. Tomasi, M. Cossi, J. M. Millam, M. Klene, C. Adamo, R. Cammi, 
 J. W. Ochterski, R. L. Martin, K. Morokuma, O. Farkas, 
 J. B. Foresman, and D. J. Fox, Gaussian, Inc., Wallingford CT, 2019.
 
 ******************************************
 Gaussian 16:  ES64L-G16RevC.01  3-Jul-2019
                19-May-2022 
 ******************************************
 %nproc=16
 Will use up to   16 processors via shared memory.
 %mem=20gb
 ----------------------------------------------------------------------
 #m062X/gen 6D OPT Freq=Noraman INT(grid=ultrafine) SCRF=(SMD,Solvent=h
 2o)
 ----------------------------------------------------------------------
 1/18=20,19=15,26=6,38=1/1,3;
 2/9=110,12=2,17=6,18=5,40=1/2;
 3/5=7,8=2,11=2,25=1,30=1,70=32201,71=1,72=1,74=-55,75=-5/1,2,3;
 4//1;
 5/5=2,38=5,53=1/2;
 6/7=2,8=2,9=2,10=2,28=1/1;
 7//1,2,3,16;
 1/18=20,19=15,26=6/3(2);
 2/9=110/2;
 99//99;
 2/9=110/2;
 3/5=7,6=1,8=2,11=2,25=1,30=1,70=32205,71=1,72=1,74=-55,75=-5,82=7/1,2,3;
 4/5=5,16=3,69=1/1;
 5/5=2,38=5,53=1/2;
 7//1,2,3,16;
 1/18=20,19=15,26=6/3(-5);
 2/9=110/2;
 6/7=2,8=2,9=2,10=2,19=2,28=1/1;
 99/9=1/99;
 -----
 a1 b1
 -----
 Symbolic Z-matrix:
 Charge = -1 Multiplicity = 1
 C                    -1.3024    0.73735  -0.93153 
 C                    -2.50946   0.76074  -1.63134 
 H                    -3.45424   0.70443  -1.09708 
 C                    -2.49248   0.86444  -3.02086 
 H                    -3.42885   0.88795  -3.57039 
 C                    -1.27635   0.94097  -3.70318 
 H                    -1.26624   1.02329  -4.78605 
 C                    -0.07543   0.91417  -2.99452 
 H                     0.87127   0.97693  -3.52298 
 C                    -0.08393   0.80923  -1.6028 
 H                     0.84687   0.79007  -1.0445 
 S                    -1.33654   0.50888   0.85496 
 O                     0.01144   0.92474   1.32874 
 O                    -2.43832   1.41547   1.30607 
 N                    -1.55202  -1.00328   1.19404 
 H                    -2.5192   -1.24173   0.957 
 

 GradGradGradGradGradGradGradGradGradGradGradGradGradGradGradGradGradGrad
 Berny optimization.
 Initialization pass.
                           ----------------------------
                           !    Initial Parameters    !
                           ! (Angstroms and Degrees)  !
 --------------------------                            --------------------------
 ! Name  Definition              Value          Derivative Info.                !
 --------------------------------------------------------------------------------
 ! R1    R(1,2)                  1.3954         estimate D2E/DX2                !
 ! R2    R(1,10)                 1.393          estimate D2E/DX2                !
 ! R3    R(1,12)                 1.8014         estimate D2E/DX2                !
 ! R4    R(2,3)                  1.0868         estimate D2E/DX2                !
 ! R5    R(2,4)                  1.3935         estimate D2E/DX2                !
 ! R6    R(4,5)                  1.086          estimate D2E/DX2                !
 ! R7    R(4,6)                  1.3966         estimate D2E/DX2                !
 ! R8    R(6,7)                  1.086          estimate D2E/DX2                !
 ! R9    R(6,8)                  1.3947         estimate D2E/DX2                !
 ! R10   R(8,9)                  1.086          estimate D2E/DX2                !
 ! R11   R(8,10)                 1.3957         estimate D2E/DX2                !
 ! R12   R(10,11)                1.0856         estimate D2E/DX2                !
 ! R13   R(12,13)                1.4881         estimate D2E/DX2                !
 ! R14   R(12,14)                1.4964         estimate D2E/DX2                !
 ! R15   R(12,15)                1.5646         estimate D2E/DX2                !
 ! R16   R(15,16)                1.024          estimate D2E/DX2                !
 ! A1    A(2,1,10)             120.9374         estimate D2E/DX2                !
 ! A2    A(2,1,12)             118.8871         estimate D2E/DX2                !
 ! A3    A(10,1,12)            120.0679         estimate D2E/DX2                !
 ! A4    A(1,2,3)              120.301          estimate D2E/DX2                !
 ! A5    A(1,2,4)              119.391          estimate D2E/DX2                !
 ! A6    A(3,2,4)              120.307          estimate D2E/DX2                !
 ! A7    A(2,4,5)              119.7152         estimate D2E/DX2                !
 ! A8    A(2,4,6)              120.1242         estimate D2E/DX2                !
 ! A9    A(5,4,6)              120.1604         estimate D2E/DX2                !
 ! A10   A(4,6,7)              119.9606         estimate D2E/DX2                !
 ! A11   A(4,6,8)              120.0344         estimate D2E/DX2                !
 ! A12   A(7,6,8)              120.005          estimate D2E/DX2                !
 ! A13   A(6,8,9)              120.1488         estimate D2E/DX2                !
 ! A14   A(6,8,10)             120.19           estimate D2E/DX2                !
 ! A15   A(9,8,10)             119.6611         estimate D2E/DX2                !
 ! A16   A(1,10,8)             119.3219         estimate D2E/DX2                !
 ! A17   A(1,10,11)            120.0841         estimate D2E/DX2                !
 ! A18   A(8,10,11)            120.5927         estimate D2E/DX2                !
 ! A19   A(1,12,13)            105.2564         estimate D2E/DX2                !
 ! A20   A(1,12,14)            103.6554         estimate D2E/DX2                !
 ! A21   A(1,12,15)            109.8838         estimate D2E/DX2                !
 ! A22   A(13,12,14)           113.682          estimate D2E/DX2                !
 ! A23   A(13,12,15)           109.0163         estimate D2E/DX2                !
 ! A24   A(14,12,15)           114.7585         estimate D2E/DX2                !
 ! A25   A(12,15,16)           107.7569         estimate D2E/DX2                !
 ! D1    D(10,1,2,3)          -179.9769         estimate D2E/DX2                !
 ! D2    D(10,1,2,4)            -0.3311         estimate D2E/DX2                !
 ! D3    D(12,1,2,3)             3.7916         estimate D2E/DX2                !
 ! D4    D(12,1,2,4)          -176.5627         estimate D2E/DX2                !
 ! D5    D(2,1,10,8)             0.3898         estimate D2E/DX2                !
 ! D6    D(2,1,10,11)          179.9902         estimate D2E/DX2                !
 ! D7    D(12,1,10,8)          176.5772         estimate D2E/DX2                !
 ! D8    D(12,1,10,11)          -3.8225         estimate D2E/DX2                !
 ! D9    D(2,1,12,13)         -163.8572         estimate D2E/DX2                !
 ! D10   D(2,1,12,14)          -44.2067         estimate D2E/DX2                !
 ! D11   D(2,1,12,15)           78.8976         estimate D2E/DX2                !
 ! D12   D(10,1,12,13)          19.8776         estimate D2E/DX2                !
 ! D13   D(10,1,12,14)         139.5281         estimate D2E/DX2                !
 ! D14   D(10,1,12,15)         -97.3675         estimate D2E/DX2                !
 ! D15   D(1,2,4,5)           -179.7048         estimate D2E/DX2                !
 ! D16   D(1,2,4,6)              0.1437         estimate D2E/DX2                !
 ! D17   D(3,2,4,5)             -0.0591         estimate D2E/DX2                !
 ! D18   D(3,2,4,6)            179.7895         estimate D2E/DX2                !
 ! D19   D(2,4,6,7)           -179.9044         estimate D2E/DX2                !
 ! D20   D(2,4,6,8)             -0.0207         estimate D2E/DX2                !
 ! D21   D(5,4,6,7)             -0.0566         estimate D2E/DX2                !
 ! D22   D(5,4,6,8)            179.8271         estimate D2E/DX2                !
 ! D23   D(4,6,8,9)           -179.7945         estimate D2E/DX2                !
 ! D24   D(4,6,8,10)             0.0804         estimate D2E/DX2                !
 ! D25   D(7,6,8,9)              0.0891         estimate D2E/DX2                !
 ! D26   D(7,6,8,10)           179.9641         estimate D2E/DX2                !
 ! D27   D(6,8,10,1)            -0.2621         estimate D2E/DX2                !
 ! D28   D(6,8,10,11)         -179.8604         estimate D2E/DX2                !
 ! D29   D(9,8,10,1)           179.6134         estimate D2E/DX2                !
 ! D30   D(9,8,10,11)            0.0151         estimate D2E/DX2                !
 ! D31   D(1,12,15,16)         -71.3852         estimate D2E/DX2                !
 ! D32   D(13,12,15,16)        173.7409         estimate D2E/DX2                !
 ! D33   D(14,12,15,16)         44.9267         estimate D2E/DX2                !
 --------------------------------------------------------------------------------
 Trust Radius=3.00D-01 FncErr=5.00D-06 GrdErr=5.00D-06 EigMax=2.50D+02 EigMin=1.00D-04
 Number of steps in this run=     84 maximum allowed number of steps=    100.
 GradGradGradGradGradGradGradGradGradGradGradGradGradGradGradGradGradGrad

                          Input orientation:                          
 ---------------------------------------------------------------------
 Center     Atomic      Atomic             Coordinates (Angstroms)
 Number     Number       Type             X           Y           Z
 ---------------------------------------------------------------------
      1          6           0       -1.302402    0.737350   -0.931534
      2          6           0       -2.509464    0.760738   -1.631343
      3          1           0       -3.454237    0.704427   -1.097078
      4          6           0       -2.492475    0.864437   -3.020855
      5          1           0       -3.428852    0.887950   -3.570393
      6          6           0       -1.276348    0.940972   -3.703177
      7          1           0       -1.266241    1.023294   -4.786045
      8          6           0       -0.075426    0.914174   -2.994519
      9          1           0        0.871273    0.976931   -3.522980
     10          6           0       -0.083925    0.809232   -1.602796
     11          1           0        0.846873    0.790065   -1.044501
     12         16           0       -1.336541    0.508879    0.854963
     13          8           0        0.011442    0.924736    1.328744
     14          8           0       -2.438318    1.415467    1.306071
     15          7           0       -1.552017   -1.003281    1.194036
     16          1           0       -2.519201   -1.241733    0.956995
 ---------------------------------------------------------------------
                    Distance matrix (angstroms):
                    1          2          3          4          5
     1  C    0.000000
     2  C    1.395449   0.000000
     3  H    2.158444   1.086833   0.000000
     4  C    2.407839   1.393480   2.156735   0.000000
     5  H    3.392351   2.149738   2.480244   1.085977   0.000000
     6  C    2.779235   2.417758   3.404542   1.396562   2.157247
     7  H    3.865272   3.400983   4.300870   2.155175   2.484555
     8  C    2.406791   2.793981   3.880804   2.417704   3.402614
     9  H    3.390849   3.880002   4.966819   3.402879   4.301307
    10  C    1.392999   2.426192   3.409654   2.795541   3.881517
    11  H    2.152887   3.407380   4.302284   3.881076   4.967045
    12  S    1.801371   2.760598   2.886752   4.060119   4.909708
    13  O    2.621098   3.891526   4.236045   5.019188   5.986528
    14  O    2.599428   3.010338   2.704218   4.362208   5.003932
    15  N    2.758650   3.465723   3.432770   4.705118   5.458850
    16  H    2.993979   3.272534   2.980109   4.501106   5.085298
                    6          7          8          9         10
     6  C    0.000000
     7  H    1.086040   0.000000
     8  C    1.394678   2.153953   0.000000
     9  H    2.155467   2.483234   1.086024   0.000000
    10  C    2.418849   3.402465   1.395700   2.151193   0.000000
    11  H    3.405789   4.303347   2.160696   2.485633   1.085562
    12  S    4.578970   5.664851   4.071018   4.925434   2.774858
    13  O    5.194121   6.247626   4.324149   4.927602   2.935364
    14  O    5.164096   6.216224   4.932507   5.870727   3.791068
    15  N    5.276249   6.320605   4.837453   5.660726   3.641808
    16  H    5.293967   6.299426   5.121956   6.040526   4.085285
                   11         12         13         14         15
    11  H    0.000000
    12  S    2.907632   0.000000
    13  O    2.519598   1.488107   0.000000
    14  O    4.087639   1.496433   2.498531   0.000000
    15  N    3.739226   1.564618   2.485920   2.578454   0.000000
    16  H    4.411875   2.115121   3.352005   2.681251   1.023959
                   16
    16  H    0.000000
 Stoichiometry    C6H6NO2S(1-)
 Framework group  C1[X(C6H6NO2S)]
 Deg. of freedom    42
 Full point group                 C1      NOp   1
 Largest Abelian subgroup         C1      NOp   1
 Largest concise Abelian subgroup C1      NOp   1
                         Standard orientation:                         
 ---------------------------------------------------------------------
 Center     Atomic      Atomic             Coordinates (Angstroms)
 Number     Number       Type             X           Y           Z
 ---------------------------------------------------------------------
      1          6           0        0.281498    0.016075   -0.050978
      2          6           0        0.957600   -1.204640   -0.046386
      3          1           0        0.403175   -2.138696   -0.083245
      4          6           0        2.350322   -1.214867   -0.001610
      5          1           0        2.882003   -2.161789   -0.002678
      6          6           0        3.059058   -0.012268    0.041240
      7          1           0        4.144532   -0.023313    0.074516
      8          6           0        2.373683    1.202386    0.038863
      9          1           0        2.923061    2.138729    0.068776
     10          6           0        0.978785    1.221099   -0.004587
     11          1           0        0.438761    2.162800   -0.008979
     12         16           0       -1.519501    0.013496   -0.014479
     13          8           0       -1.921469    1.385862   -0.426179
     14          8           0       -1.891419   -1.044436   -1.005322
     15          7           0       -2.021826   -0.248945    1.443884
     16          1           0       -1.829314   -1.229164    1.668837
 ---------------------------------------------------------------------
 Rotational constants (GHZ):           2.6498470           0.8344335           0.7280832
 General basis read from cards:  (6D, 7F)
 There are   206 symmetry adapted cartesian basis functions of A   symmetry.
 There are   206 symmetry adapted basis functions of A   symmetry.
   206 basis functions,   368 primitive gaussians,   206 cartesian basis functions
    41 alpha electrons       41 beta electrons
       nuclear repulsion energy       616.6226539090 Hartrees.
 NAtoms=   16 NActive=   16 NUniq=   16 SFac= 1.00D+00 NAtFMM=   60 NAOKFM=F Big=F
 Integral buffers will be    131072 words long.
 Raffenetti 2 integral format.
 Two-electron integral symmetry is turned on.
 ------------------------------------------------------------------------------
 Polarizable Continuum Model (PCM)
 =================================
 Model                : PCM.
 Atomic radii         : SMD-Coulomb.
 Polarization charges : Total charges.
 Charge compensation  : None.
 Solution method      : On-the-fly selection.
 Cavity type          : VdW (van der Waals Surface) (Alpha=1.000).
 Cavity algorithm     : GePol (No added spheres)
                        Default sphere list used, NSphG=   16.
                        Lebedev-Laikov grids with approx.  5.0 points / Ang**2.
                        Smoothing algorithm: York/Karplus (Gamma=1.0000).
                        Polarization charges: spherical gaussians, with
                                              point-specific exponents (IZeta= 3).
                        Self-potential: point-specific (ISelfS= 7).
                        Self-field    : sphere-specific E.n sum rule (ISelfD= 2).
 1st derivatives      : Analytical E(r).r(x)/FMM algorithm (CHGder, D1EAlg=3).
                        Cavity 1st derivative terms included.
 Solvent              : Water, Eps=  78.355300 Eps(inf)=   1.777849
 ------------------------------------------------------------------------------
 Spheres list:
 ISph  on   Nord     Re0    Alpha      Xe            Ye            Ze
    1   C      1    1.8500  1.000      0.281498      0.016075     -0.050978
    2   C      2    1.8500  1.000      0.957600     -1.204640     -0.046386
    3   H      3    1.2000  1.000      0.403175     -2.138696     -0.083245
    4   C      4    1.8500  1.000      2.350322     -1.214867     -0.001610
    5   H      5    1.2000  1.000      2.882003     -2.161789     -0.002678
    6   C      6    1.8500  1.000      3.059058     -0.012268      0.041240
    7   H      7    1.2000  1.000      4.144532     -0.023313      0.074516
    8   C      8    1.8500  1.000      2.373683      1.202386      0.038863
    9   H      9    1.2000  1.000      2.923061      2.138729      0.068776
   10   C     10    1.8500  1.000      0.978785      1.221099     -0.004587
   11   H     11    1.2000  1.000      0.438761      2.162800     -0.008979
   12   S     12    2.4900  1.000     -1.519501      0.013496     -0.014479
   13   O     13    1.5200  1.000     -1.921469      1.385862     -0.426179
   14   O     14    1.5200  1.000     -1.891419     -1.044436     -1.005322
   15   N     15    1.8900  1.000     -2.021826     -0.248945      1.443884
   16   H     16    1.2000  1.000     -1.829314     -1.229164      1.668837
 ------------------------------------------------------------------------------
 ------------------------------------------------------------------------------
 Atomic radii for non-electrostatic terms: SMD-CDS.
 ------------------------------------------------------------------------------
 Nuclear repulsion after PCM non-electrostatic terms =      616.6272903974 Hartrees.
 One-electron integrals computed using PRISM.
 NBasis=   206 RedAO= T EigKep=  4.02D-06  NBF=   206
 NBsUse=   206 1.00D-06 EigRej= -1.00D+00 NBFU=   206
 ExpMin= 4.05D-02 ExpMax= 2.19D+04 ExpMxC= 3.30D+03 IAcc=3 IRadAn=         5 AccDes= 0.00D+00
 Harris functional with IExCor= 1009 and IRadAn=       5 diagonalized for initial guess.
 HarFok:  IExCor= 1009 AccDes= 0.00D+00 IRadAn=         5 IDoV= 1 UseB2=F ITyADJ=14
 ICtDFT=  3500011 ScaDFX=  1.000000  1.000000  1.000000  1.000000
 FoFCou: FMM=F IPFlag=           0 FMFlag=      100000 FMFlg1=           0
         NFxFlg=           0 DoJE=T BraDBF=F KetDBF=T FulRan=T
         wScrn=  0.000000 ICntrl=       500 IOpCl=  0 I1Cent=   200000004 NGrid=           0
         NMat0=    1 NMatS0=      1 NMatT0=    0 NMatD0=    1 NMtDS0=    0 NMtDT0=    0
 Petite list used in FoFCou.
 Requested convergence on RMS density matrix=1.00D-08 within 128 cycles.
 Requested convergence on MAX density matrix=1.00D-06.
 Requested convergence on             energy=1.00D-06.
 No special actions if energy rises.
 Inv3:  Mode=1 IEnd=     5713200.
 Iteration    1 A*A^-1 deviation from unit magnitude is 4.22D-15 for   1359.
 Iteration    1 A*A^-1 deviation from orthogonality  is 1.77D-15 for    847    535.
 Iteration    1 A^-1*A deviation from unit magnitude is 4.44D-15 for   1359.
 Iteration    1 A^-1*A deviation from orthogonality  is 1.31D-15 for   1369   1133.
 Error on total polarization charges =  0.05256
 SCF Done:  E(RM062X) =  -835.521879443     A.U. after   15 cycles
            NFock= 15  Conv=0.73D-08     -V/T= 2.0063
 SMD-CDS (non-electrostatic) energy       (kcal/mol) =       2.91
 (included in total energy above)

 **********************************************************************

            Population analysis using the SCF Density.

 **********************************************************************

 Orbital symmetries:
       Occupied  (A) (A) (A) (A) (A) (A) (A) (A) (A) (A) (A) (A)
                 (A) (A) (A) (A) (A) (A) (A) (A) (A) (A) (A) (A)
                 (A) (A) (A) (A) (A) (A) (A) (A) (A) (A) (A) (A)
                 (A) (A) (A) (A) (A)
       Virtual   (A) (A) (A) (A) (A) (A) (A) (A) (A) (A) (A) (A)
                 (A) (A) (A) (A) (A) (A) (A) (A) (A) (A) (A) (A)
                 (A) (A) (A) (A) (A) (A) (A) (A) (A) (A) (A) (A)
                 (A) (A) (A) (A) (A) (A) (A) (A) (A) (A) (A) (A)
                 (A) (A) (A) (A) (A) (A) (A) (A) (A) (A) (A) (A)
                 (A) (A) (A) (A) (A) (A) (A) (A) (A) (A) (A) (A)
                 (A) (A) (A) (A) (A) (A) (A) (A) (A) (A) (A) (A)
                 (A) (A) (A) (A) (A) (A) (A) (A) (A) (A) (A) (A)
                 (A) (A) (A) (A) (A) (A) (A) (A) (A) (A) (A) (A)
                 (A) (A) (A) (A) (A) (A) (A) (A) (A) (A) (A) (A)
                 (A) (A) (A) (A) (A) (A) (A) (A) (A) (A) (A) (A)
                 (A) (A) (A) (A) (A) (A) (A) (A) (A) (A) (A) (A)
                 (A) (A) (A) (A) (A) (A) (A) (A) (A) (A) (A) (A)
                 (A) (A) (A) (A) (A) (A) (A) (A) (A)
 The electronic state is 1-A.
 Alpha  occ. eigenvalues --  -90.13286 -19.61935 -19.61815 -14.71713 -10.57658
 Alpha  occ. eigenvalues --  -10.56305 -10.56203 -10.55884 -10.55841 -10.55759
 Alpha  occ. eigenvalues --   -8.44189  -6.36434  -6.36336  -6.36254  -1.20577
 Alpha  occ. eigenvalues --   -1.09002  -0.97184  -0.95575  -0.85682  -0.84935
 Alpha  occ. eigenvalues --   -0.72636  -0.69378  -0.65534  -0.60777  -0.56232
 Alpha  occ. eigenvalues --   -0.54451  -0.53325  -0.51422  -0.50813  -0.49202
 Alpha  occ. eigenvalues --   -0.45101  -0.43017  -0.41866  -0.40647  -0.39271
 Alpha  occ. eigenvalues --   -0.37254  -0.36025  -0.33056  -0.32246  -0.31398
 Alpha  occ. eigenvalues --   -0.28465
 Alpha virt. eigenvalues --    0.00621   0.01469   0.02088   0.04060   0.04381
 Alpha virt. eigenvalues --    0.04878   0.05738   0.05970   0.06988   0.08515
 Alpha virt. eigenvalues --    0.08585   0.08731   0.09907   0.11033   0.12368
 Alpha virt. eigenvalues --    0.12811   0.13684   0.14346   0.14536   0.15158
 Alpha virt. eigenvalues --    0.15583   0.16172   0.16586   0.18221   0.18472
 Alpha virt. eigenvalues --    0.19191   0.19280   0.20148   0.21144   0.21385
 Alpha virt. eigenvalues --    0.23117   0.23484   0.23964   0.24588   0.25030
 Alpha virt. eigenvalues --    0.25515   0.26024   0.26958   0.27306   0.28624
 Alpha virt. eigenvalues --    0.29179   0.29801   0.30151   0.31101   0.31479
 Alpha virt. eigenvalues --    0.32360   0.33191   0.34161   0.34813   0.36331
 Alpha virt. eigenvalues --    0.37431   0.37678   0.39220   0.39923   0.40898
 Alpha virt. eigenvalues --    0.43403   0.47104   0.57052   0.59327   0.61650
 Alpha virt. eigenvalues --    0.63996   0.67847   0.70573   0.71328   0.71963
 Alpha virt. eigenvalues --    0.72976   0.74765   0.76634   0.77329   0.78234
 Alpha virt. eigenvalues --    0.78757   0.81662   0.82354   0.83667   0.85005
 Alpha virt. eigenvalues --    0.90868   0.95500   0.97248   0.97753   1.00782
 Alpha virt. eigenvalues --    1.01042   1.03434   1.03558   1.06457   1.08360
 Alpha virt. eigenvalues --    1.08640   1.10195   1.11331   1.12733   1.15688
 Alpha virt. eigenvalues --    1.16295   1.19180   1.20388   1.21809   1.23012
 Alpha virt. eigenvalues --    1.25703   1.30007   1.32906   1.34604   1.36445
 Alpha virt. eigenvalues --    1.38860   1.39538   1.40218   1.41002   1.42436
 Alpha virt. eigenvalues --    1.43325   1.49378   1.50174   1.52709   1.53773
 Alpha virt. eigenvalues --    1.55267   1.56481   1.62828   1.69396   1.74175
 Alpha virt. eigenvalues --    1.82198   1.83327   1.83714   1.85850   1.86982
 Alpha virt. eigenvalues --    1.89432   1.91149   1.93718   1.97477   2.00603
 Alpha virt. eigenvalues --    2.01374   2.03099   2.05668   2.06774   2.15728
 Alpha virt. eigenvalues --    2.16325   2.18789   2.19333   2.20679   2.21135
 Alpha virt. eigenvalues --    2.22236   2.28058   2.32860   2.33109   2.34069
 Alpha virt. eigenvalues --    2.37068   2.41085   2.58413   2.64287   2.65042
 Alpha virt. eigenvalues --    2.66485   2.71030   2.74982   2.78072   2.79621
 Alpha virt. eigenvalues --    2.86271   2.88476   2.93406   3.06383   3.38920
 Alpha virt. eigenvalues --    3.99102   4.10388   4.23057   4.24431   4.26976
 Alpha virt. eigenvalues --    4.28549   4.32073   4.41862   4.43516   4.71010
          Condensed to atoms (all electrons):
               1          2          3          4          5          6
     1  C   20.534042  -2.726293   0.037625  -0.157744   0.035579  -1.555879
     2  C   -2.726293  29.643413   0.270802  -3.251843  -0.047467  -0.067868
     3  H    0.037625   0.270802   0.438761  -0.045109  -0.003500   0.002183
     4  C   -0.157744  -3.251843  -0.045109   8.375562   0.347381   0.460402
     5  H    0.035579  -0.047467  -0.003500   0.347381   0.444046  -0.028035
     6  C   -1.555879  -0.067868   0.002183   0.460402  -0.028035   5.775390
     7  H    0.001764   0.009830  -0.000105  -0.020229  -0.003193   0.321364
     8  C   -1.922116  -2.008354  -0.012651   0.490860   0.010917   0.544916
     9  H    0.021401  -0.012708   0.000012   0.008437  -0.000114  -0.020401
    10  C   -6.196670 -15.939874   0.049043   0.203165  -0.007009   0.722193
    11  H   -0.003952   0.007743  -0.000110  -0.006192   0.000011   0.006274
    12  S   -0.906108   0.088078  -0.003090  -0.298613  -0.000242   0.083163
    13  O   -0.155589   0.153079   0.000624   0.023983   0.000028   0.006099
    14  O    0.056163  -0.292624   0.005646  -0.014012   0.000040  -0.014216
    15  N   -0.174044  -0.113885  -0.000058   0.025362   0.000001   0.018007
    16  H   -0.032339  -0.050429  -0.000394  -0.009634  -0.000000   0.002272
               7          8          9         10         11         12
     1  C    0.001764  -1.922116   0.021401  -6.196670  -0.003952  -0.906108
     2  C    0.009830  -2.008354  -0.012708 -15.939874   0.007743   0.088078
     3  H   -0.000105  -0.012651   0.000012   0.049043  -0.000110  -0.003090
     4  C   -0.020229   0.490860   0.008437   0.203165  -0.006192  -0.298613
     5  H   -0.003193   0.010917  -0.000114  -0.007009   0.000011  -0.000242
     6  C    0.321364   0.544916  -0.020401   0.722193   0.006274   0.083163
     7  H    0.446659  -0.002846  -0.003208   0.000352  -0.000102   0.000245
     8  C   -0.002846   7.392750   0.333657   1.252433  -0.004353  -0.003614
     9  H   -0.003208   0.333657   0.445383  -0.020431  -0.003568   0.000125
    10  C    0.000352   1.252433  -0.020431  25.217160   0.309157   0.728877
    11  H   -0.000102  -0.004353  -0.003568   0.309157   0.436577  -0.009522
    12  S    0.000245  -0.003614   0.000125   0.728877  -0.009522  14.436077
    13  O   -0.000005   0.029377   0.000203  -0.234057   0.005133   0.205456
    14  O    0.000001   0.053434   0.000022   0.143468   0.000715   0.074540
    15  N    0.000001   0.035265   0.000038   0.171328  -0.000162   0.139400
    16  H   -0.000000  -0.002156   0.000000   0.051882  -0.000012   0.084384
              13         14         15         16
     1  C   -0.155589   0.056163  -0.174044  -0.032339
     2  C    0.153079  -0.292624  -0.113885  -0.050429
     3  H    0.000624   0.005646  -0.000058  -0.000394
     4  C    0.023983  -0.014012   0.025362  -0.009634
     5  H    0.000028   0.000040   0.000001  -0.000000
     6  C    0.006099  -0.014216   0.018007   0.002272
     7  H   -0.000005   0.000001   0.000001  -0.000000
     8  C    0.029377   0.053434   0.035265  -0.002156
     9  H    0.000203   0.000022   0.000038   0.000000
    10  C   -0.234057   0.143468   0.171328   0.051882
    11  H    0.005133   0.000715  -0.000162  -0.000012
    12  S    0.205456   0.074540   0.139400   0.084384
    13  O    9.048756  -0.100841  -0.195079   0.017273
    14  O   -0.100841   9.007548  -0.165921  -0.014319
    15  N   -0.195079  -0.165921   8.041465   0.188789
    16  H    0.017273  -0.014319   0.188789   0.362178
 Mulliken charges:
               1
     1  C   -0.855840
     2  C    0.338398
     3  H    0.260320
     4  C   -0.131776
     5  H    0.251558
     6  C   -0.255865
     7  H    0.249472
     8  C   -0.187520
     9  H    0.251152
    10  C   -0.451017
    11  H    0.262363
    12  S    1.380844
    13  O   -0.804440
    14  O   -0.739645
    15  N   -0.970508
    16  H    0.402504
 Sum of Mulliken charges =  -1.00000
 Mulliken charges with hydrogens summed into heavy atoms:
               1
     1  C   -0.855840
     2  C    0.598718
     4  C    0.119782
     6  C   -0.006392
     8  C    0.063632
    10  C   -0.188654
    12  S    1.380844
    13  O   -0.804440
    14  O   -0.739645
    15  N   -0.568004
 Electronic spatial extent (au):  <R**2>=           1615.3032
 Charge=             -1.0000 electrons
 Dipole moment (field-independent basis, Debye):
    X=             13.4475    Y=             -2.1270    Z=              0.9006  Tot=             13.6445
 Quadrupole moment (field-independent basis, Debye-Ang):
   XX=            -87.9727   YY=            -68.0236   ZZ=            -81.0721
   XY=              3.8118   XZ=             -0.2608   YZ=             -3.9627
 Traceless Quadrupole moment (field-independent basis, Debye-Ang):
   XX=             -8.9499   YY=             10.9992   ZZ=             -2.0493
   XY=              3.8118   XZ=             -0.2608   YZ=             -3.9627
 Octapole moment (field-independent basis, Debye-Ang**2):
  XXX=             89.8663  YYY=             -8.1573  ZZZ=            -10.4873  XYY=             23.8783
  XXY=             -6.7007  XXZ=             -3.3231  XZZ=             10.0169  YZZ=             -2.2263
  YYZ=              8.7543  XYZ=              7.6248
 Hexadecapole moment (field-independent basis, Debye-Ang**3):
 XXXX=          -1558.6808 YYYY=           -425.9865 ZZZZ=           -251.0992 XXXY=              9.8291
 XXXZ=             31.6067 YYYX=             14.8301 YYYZ=             -5.9056 ZZZX=             22.4947
 ZZZY=            -14.1679 XXYY=           -336.3329 XXZZ=           -361.4158 YYZZ=           -119.3288
 XXYZ=            -12.0733 YYXZ=            -14.9434 ZZXY=              3.8160
 N-N= 6.166272903974D+02 E-N=-3.212199283234D+03  KE= 8.303178941368D+02
 D1PCM: PCM CHGder 1st derivatives, ID1Alg=3 FixD1E=F DoIter=F DoCFld=F I1PDM=0.
 Calling FoFJK, ICntrl=      2127 FMM=F ISym2X=0 I1Cent= 0 IOpClX= 0 NMat=1 NMatS=1 NMatT=0.
 ***** Axes restored to original set *****
 -------------------------------------------------------------------
 Center     Atomic                   Forces (Hartrees/Bohr)
 Number     Number              X              Y              Z
 -------------------------------------------------------------------
      1        6           0.000080721   -0.000010607    0.000004291
      2        6          -0.000050800    0.000025770   -0.000050158
      3        1           0.000008325   -0.000015558    0.000001955
      4        6          -0.000024456   -0.000005203    0.000049256
      5        1           0.000000924   -0.000002424   -0.000008054
      6        6           0.000046911    0.000001179    0.000002085
      7        1          -0.000005993    0.000015479    0.000001620
      8        6          -0.000029186    0.000007092   -0.000034220
      9        1           0.000000513    0.000004893    0.000001893
     10        6          -0.000021447    0.000013315    0.000024758
     11        1          -0.000003621   -0.000002735    0.000005714
     12       16           0.000036997    0.000090327    0.000024993
     13        8           0.000026479    0.000026827   -0.000013842
     14        8          -0.000002182   -0.000044730   -0.000012099
     15        7          -0.000043897   -0.000077449    0.000019212
     16        1          -0.000019288   -0.000026177   -0.000017405
 -------------------------------------------------------------------
 Cartesian Forces:  Max     0.000090327 RMS     0.000030722

 GradGradGradGradGradGradGradGradGradGradGradGradGradGradGradGradGradGrad
 Berny optimization.
 FormGI is forming the generalized inverse of G from B-inverse, IUseBI=4.
 Internal  Forces:  Max     0.000098318 RMS     0.000019513
 Search for a local minimum.
 Step number   1 out of a maximum of   84
 All quantities printed in internal units (Hartrees-Bohrs-Radians)
 Mixed Optimization -- En-DIIS/RFO-DIIS
 Second derivative matrix not updated -- first step.
 ITU=  0
     Eigenvalues ---    0.00352   0.01460   0.02144   0.02148   0.02152
     Eigenvalues ---    0.02155   0.02158   0.02161   0.02165   0.02170
     Eigenvalues ---    0.03087   0.10350   0.11831   0.16000   0.16000
     Eigenvalues ---    0.16000   0.16000   0.16000   0.16000   0.17102
     Eigenvalues ---    0.21640   0.22000   0.22000   0.23472   0.24947
     Eigenvalues ---    0.25000   0.26009   0.35181   0.35274   0.35276
     Eigenvalues ---    0.35282   0.35331   0.42185   0.42271   0.43712
     Eigenvalues ---    0.46291   0.46452   0.46530   0.46712   0.58717
     Eigenvalues ---    0.77870   0.80754
 RFO step:  Lambda=-1.18611796D-07 EMin= 3.52171223D-03
 Linear search not attempted -- first point.
 Iteration  1 RMS(Cart)=  0.00018185 RMS(Int)=  0.00000002
 Iteration  2 RMS(Cart)=  0.00000003 RMS(Int)=  0.00000001
 Variable       Old X    -DE/DX   Delta X   Delta X   Delta X     New X
                                 (Linear)    (Quad)   (Total)
    R1        2.63702   0.00005   0.00000   0.00010   0.00010   2.63712
    R2        2.63239  -0.00003   0.00000  -0.00006  -0.00006   2.63232
    R3        3.40410   0.00001   0.00000   0.00003   0.00003   3.40412
    R4        2.05382  -0.00001   0.00000  -0.00002  -0.00002   2.05380
    R5        2.63330  -0.00003   0.00000  -0.00007  -0.00007   2.63323
    R6        2.05220   0.00000   0.00000   0.00001   0.00001   2.05221
    R7        2.63912   0.00002   0.00000   0.00005   0.00005   2.63917
    R8        2.05232  -0.00000   0.00000  -0.00000  -0.00000   2.05232
    R9        2.63556  -0.00002   0.00000  -0.00005  -0.00005   2.63551
   R10        2.05229   0.00000   0.00000   0.00000   0.00000   2.05229
   R11        2.63749   0.00002   0.00000   0.00005   0.00005   2.63754
   R12        2.05142  -0.00000   0.00000  -0.00000  -0.00000   2.05142
   R13        2.81212   0.00003   0.00000   0.00004   0.00004   2.81215
   R14        2.82785  -0.00003   0.00000  -0.00003  -0.00003   2.82782
   R15        2.95670   0.00010   0.00000   0.00017   0.00017   2.95687
   R16        1.93500   0.00003   0.00000   0.00007   0.00007   1.93507
    A1        2.11076  -0.00000   0.00000   0.00000   0.00000   2.11076
    A2        2.07497  -0.00002   0.00000  -0.00009  -0.00009   2.07489
    A3        2.09558   0.00002   0.00000   0.00009   0.00009   2.09567
    A4        2.09965  -0.00001   0.00000  -0.00004  -0.00004   2.09961
    A5        2.08377  -0.00000   0.00000   0.00000   0.00000   2.08377
    A6        2.09975   0.00001   0.00000   0.00004   0.00004   2.09980
    A7        2.08942   0.00001   0.00000   0.00006   0.00006   2.08948
    A8        2.09656  -0.00000   0.00000  -0.00001  -0.00001   2.09655
    A9        2.09719  -0.00001   0.00000  -0.00004  -0.00004   2.09715
   A10        2.09371  -0.00001   0.00000  -0.00004  -0.00004   2.09367
   A11        2.09500   0.00000   0.00000   0.00001   0.00001   2.09501
   A12        2.09448   0.00000   0.00000   0.00003   0.00003   2.09451
   A13        2.09699   0.00000   0.00000   0.00001   0.00001   2.09700
   A14        2.09771   0.00000   0.00000   0.00001   0.00001   2.09772
   A15        2.08848  -0.00000   0.00000  -0.00002  -0.00002   2.08846
   A16        2.08256  -0.00000   0.00000  -0.00001  -0.00001   2.08255
   A17        2.09586  -0.00001   0.00000  -0.00004  -0.00004   2.09583
   A18        2.10474   0.00001   0.00000   0.00005   0.00005   2.10479
   A19        1.83707  -0.00003   0.00000  -0.00006  -0.00006   1.83701
   A20        1.80913  -0.00000   0.00000  -0.00012  -0.00012   1.80901
   A21        1.91783  -0.00001   0.00000  -0.00008  -0.00008   1.91775
   A22        1.98413   0.00001   0.00000   0.00012   0.00012   1.98424
   A23        1.90269   0.00005   0.00000   0.00037   0.00037   1.90306
   A24        2.00291  -0.00003   0.00000  -0.00025  -0.00025   2.00266
   A25        1.88071   0.00002   0.00000   0.00012   0.00012   1.88083
    D1       -3.14119  -0.00001   0.00000  -0.00023  -0.00023  -3.14142
    D2       -0.00578   0.00000   0.00000   0.00012   0.00012  -0.00566
    D3        0.06618  -0.00001   0.00000  -0.00031  -0.00031   0.06587
    D4       -3.08160   0.00000   0.00000   0.00004   0.00004  -3.08156
    D5        0.00680  -0.00000   0.00000  -0.00008  -0.00008   0.00673
    D6        3.14142   0.00000   0.00000   0.00009   0.00009   3.14152
    D7        3.08185  -0.00000   0.00000  -0.00001  -0.00001   3.08185
    D8       -0.06671   0.00000   0.00000   0.00017   0.00017  -0.06655
    D9       -2.85985   0.00001   0.00000   0.00012   0.00012  -2.85973
   D10       -0.77155   0.00002   0.00000   0.00017   0.00017  -0.77138
   D11        1.37702  -0.00003   0.00000  -0.00024  -0.00024   1.37678
   D12        0.34693   0.00001   0.00000   0.00004   0.00004   0.34697
   D13        2.43523   0.00002   0.00000   0.00009   0.00009   2.43532
   D14       -1.69938  -0.00003   0.00000  -0.00032  -0.00032  -1.69970
   D15       -3.13644  -0.00000   0.00000  -0.00019  -0.00019  -3.13663
   D16        0.00251  -0.00000   0.00000  -0.00014  -0.00014   0.00237
   D17       -0.00103   0.00000   0.00000   0.00017   0.00017  -0.00087
   D18        3.13792   0.00000   0.00000   0.00021   0.00021   3.13813
   D19       -3.13992   0.00000   0.00000   0.00015   0.00015  -3.13978
   D20       -0.00036   0.00000   0.00000   0.00012   0.00012  -0.00024
   D21       -0.00099   0.00000   0.00000   0.00020   0.00020  -0.00079
   D22        3.13858   0.00000   0.00000   0.00017   0.00017   3.13874
   D23       -3.13801  -0.00000   0.00000  -0.00013  -0.00013  -3.13814
   D24        0.00140  -0.00000   0.00000  -0.00008  -0.00008   0.00132
   D25        0.00156  -0.00000   0.00000  -0.00016  -0.00016   0.00140
   D26        3.14097  -0.00000   0.00000  -0.00011  -0.00011   3.14086
   D27       -0.00458   0.00000   0.00000   0.00006   0.00006  -0.00452
   D28       -3.13916  -0.00000   0.00000  -0.00012  -0.00012  -3.13927
   D29        3.13484   0.00000   0.00000   0.00011   0.00011   3.13495
   D30        0.00026  -0.00000   0.00000  -0.00006  -0.00006   0.00020
   D31       -1.24591   0.00001   0.00000   0.00035   0.00035  -1.24556
   D32        3.03235   0.00002   0.00000   0.00026   0.00026   3.03261
   D33        0.78412  -0.00002   0.00000  -0.00001  -0.00001   0.78411
         Item               Value     Threshold  Converged?
 Maximum Force            0.000098     0.000450     YES
 RMS     Force            0.000020     0.000300     YES
 Maximum Displacement     0.000633     0.001800     YES
 RMS     Displacement     0.000182     0.001200     YES
 Predicted change in Energy=-5.930251D-08
 Optimization completed.
    -- Stationary point found.
                           ----------------------------
                           !   Optimized Parameters   !
                           ! (Angstroms and Degrees)  !
 --------------------------                            --------------------------
 ! Name  Definition              Value          Derivative Info.                !
 --------------------------------------------------------------------------------
 ! R1    R(1,2)                  1.3954         -DE/DX =    0.0                 !
 ! R2    R(1,10)                 1.393          -DE/DX =    0.0                 !
 ! R3    R(1,12)                 1.8014         -DE/DX =    0.0                 !
 ! R4    R(2,3)                  1.0868         -DE/DX =    0.0                 !
 ! R5    R(2,4)                  1.3935         -DE/DX =    0.0                 !
 ! R6    R(4,5)                  1.086          -DE/DX =    0.0                 !
 ! R7    R(4,6)                  1.3966         -DE/DX =    0.0                 !
 ! R8    R(6,7)                  1.086          -DE/DX =    0.0                 !
 ! R9    R(6,8)                  1.3947         -DE/DX =    0.0                 !
 ! R10   R(8,9)                  1.086          -DE/DX =    0.0                 !
 ! R11   R(8,10)                 1.3957         -DE/DX =    0.0                 !
 ! R12   R(10,11)                1.0856         -DE/DX =    0.0                 !
 ! R13   R(12,13)                1.4881         -DE/DX =    0.0                 !
 ! R14   R(12,14)                1.4964         -DE/DX =    0.0                 !
 ! R15   R(12,15)                1.5646         -DE/DX =    0.0001              !
 ! R16   R(15,16)                1.024          -DE/DX =    0.0                 !
 ! A1    A(2,1,10)             120.9374         -DE/DX =    0.0                 !
 ! A2    A(2,1,12)             118.8871         -DE/DX =    0.0                 !
 ! A3    A(10,1,12)            120.0679         -DE/DX =    0.0                 !
 ! A4    A(1,2,3)              120.301          -DE/DX =    0.0                 !
 ! A5    A(1,2,4)              119.391          -DE/DX =    0.0                 !
 ! A6    A(3,2,4)              120.307          -DE/DX =    0.0                 !
 ! A7    A(2,4,5)              119.7152         -DE/DX =    0.0                 !
 ! A8    A(2,4,6)              120.1242         -DE/DX =    0.0                 !
 ! A9    A(5,4,6)              120.1604         -DE/DX =    0.0                 !
 ! A10   A(4,6,7)              119.9606         -DE/DX =    0.0                 !
 ! A11   A(4,6,8)              120.0344         -DE/DX =    0.0                 !
 ! A12   A(7,6,8)              120.005          -DE/DX =    0.0                 !
 ! A13   A(6,8,9)              120.1488         -DE/DX =    0.0                 !
 ! A14   A(6,8,10)             120.19           -DE/DX =    0.0                 !
 ! A15   A(9,8,10)             119.6611         -DE/DX =    0.0                 !
 ! A16   A(1,10,8)             119.3219         -DE/DX =    0.0                 !
 ! A17   A(1,10,11)            120.0841         -DE/DX =    0.0                 !
 ! A18   A(8,10,11)            120.5927         -DE/DX =    0.0                 !
 ! A19   A(1,12,13)            105.2564         -DE/DX =    0.0                 !
 ! A20   A(1,12,14)            103.6554         -DE/DX =    0.0                 !
 ! A21   A(1,12,15)            109.8838         -DE/DX =    0.0                 !
 ! A22   A(13,12,14)           113.682          -DE/DX =    0.0                 !
 ! A23   A(13,12,15)           109.0163         -DE/DX =    0.0001              !
 ! A24   A(14,12,15)           114.7585         -DE/DX =    0.0                 !
 ! A25   A(12,15,16)           107.7569         -DE/DX =    0.0                 !
 ! D1    D(10,1,2,3)          -179.9769         -DE/DX =    0.0                 !
 ! D2    D(10,1,2,4)            -0.3311         -DE/DX =    0.0                 !
 ! D3    D(12,1,2,3)             3.7916         -DE/DX =    0.0                 !
 ! D4    D(12,1,2,4)          -176.5627         -DE/DX =    0.0                 !
 ! D5    D(2,1,10,8)             0.3898         -DE/DX =    0.0                 !
 ! D6    D(2,1,10,11)          179.9902         -DE/DX =    0.0                 !
 ! D7    D(12,1,10,8)          176.5772         -DE/DX =    0.0                 !
 ! D8    D(12,1,10,11)          -3.8225         -DE/DX =    0.0                 !
 ! D9    D(2,1,12,13)         -163.8572         -DE/DX =    0.0                 !
 ! D10   D(2,1,12,14)          -44.2067         -DE/DX =    0.0                 !
 ! D11   D(2,1,12,15)           78.8976         -DE/DX =    0.0                 !
 ! D12   D(10,1,12,13)          19.8776         -DE/DX =    0.0                 !
 ! D13   D(10,1,12,14)         139.5281         -DE/DX =    0.0                 !
 ! D14   D(10,1,12,15)         -97.3675         -DE/DX =    0.0                 !
 ! D15   D(1,2,4,5)           -179.7048         -DE/DX =    0.0                 !
 ! D16   D(1,2,4,6)              0.1437         -DE/DX =    0.0                 !
 ! D17   D(3,2,4,5)             -0.0591         -DE/DX =    0.0                 !
 ! D18   D(3,2,4,6)            179.7895         -DE/DX =    0.0                 !
 ! D19   D(2,4,6,7)           -179.9044         -DE/DX =    0.0                 !
 ! D20   D(2,4,6,8)             -0.0207         -DE/DX =    0.0                 !
 ! D21   D(5,4,6,7)             -0.0566         -DE/DX =    0.0                 !
 ! D22   D(5,4,6,8)            179.8271         -DE/DX =    0.0                 !
 ! D23   D(4,6,8,9)           -179.7945         -DE/DX =    0.0                 !
 ! D24   D(4,6,8,10)             0.0804         -DE/DX =    0.0                 !
 ! D25   D(7,6,8,9)              0.0891         -DE/DX =    0.0                 !
 ! D26   D(7,6,8,10)           179.9641         -DE/DX =    0.0                 !
 ! D27   D(6,8,10,1)            -0.2621         -DE/DX =    0.0                 !
 ! D28   D(6,8,10,11)         -179.8604         -DE/DX =    0.0                 !
 ! D29   D(9,8,10,1)           179.6134         -DE/DX =    0.0                 !
 ! D30   D(9,8,10,11)            0.0151         -DE/DX =    0.0                 !
 ! D31   D(1,12,15,16)         -71.3852         -DE/DX =    0.0                 !
 ! D32   D(13,12,15,16)        173.7409         -DE/DX =    0.0                 !
 ! D33   D(14,12,15,16)         44.9267         -DE/DX =    0.0                 !
 --------------------------------------------------------------------------------
 GradGradGradGradGradGradGradGradGradGradGradGradGradGradGradGradGradGrad

                          Input orientation:                          
 ---------------------------------------------------------------------
 Center     Atomic      Atomic             Coordinates (Angstroms)
 Number     Number       Type             X           Y           Z
 ---------------------------------------------------------------------
      1          6           0       -1.302402    0.737350   -0.931534
      2          6           0       -2.509464    0.760738   -1.631343
      3          1           0       -3.454237    0.704427   -1.097078
      4          6           0       -2.492475    0.864437   -3.020855
      5          1           0       -3.428852    0.887950   -3.570393
      6          6           0       -1.276348    0.940972   -3.703177
      7          1           0       -1.266241    1.023294   -4.786045
      8          6           0       -0.075426    0.914174   -2.994519
      9          1           0        0.871273    0.976931   -3.522980
     10          6           0       -0.083925    0.809232   -1.602796
     11          1           0        0.846873    0.790065   -1.044501
     12         16           0       -1.336541    0.508879    0.854963
     13          8           0        0.011442    0.924736    1.328744
     14          8           0       -2.438318    1.415467    1.306071
     15          7           0       -1.552017   -1.003281    1.194036
     16          1           0       -2.519201   -1.241733    0.956995
 ---------------------------------------------------------------------
                    Distance matrix (angstroms):
                    1          2          3          4          5
     1  C    0.000000
     2  C    1.395449   0.000000
     3  H    2.158444   1.086833   0.000000
     4  C    2.407839   1.393480   2.156735   0.000000
     5  H    3.392351   2.149738   2.480244   1.085977   0.000000
     6  C    2.779235   2.417758   3.404542   1.396562   2.157247
     7  H    3.865272   3.400983   4.300870   2.155175   2.484555
     8  C    2.406791   2.793981   3.880804   2.417704   3.402614
     9  H    3.390849   3.880002   4.966819   3.402879   4.301307
    10  C    1.392999   2.426192   3.409654   2.795541   3.881517
    11  H    2.152887   3.407380   4.302284   3.881076   4.967045
    12  S    1.801371   2.760598   2.886752   4.060119   4.909708
    13  O    2.621098   3.891526   4.236045   5.019188   5.986528
    14  O    2.599428   3.010338   2.704218   4.362208   5.003932
    15  N    2.758650   3.465723   3.432770   4.705118   5.458850
    16  H    2.993979   3.272534   2.980109   4.501106   5.085298
                    6          7          8          9         10
     6  C    0.000000
     7  H    1.086040   0.000000
     8  C    1.394678   2.153953   0.000000
     9  H    2.155467   2.483234   1.086024   0.000000
    10  C    2.418849   3.402465   1.395700   2.151193   0.000000
    11  H    3.405789   4.303347   2.160696   2.485633   1.085562
    12  S    4.578970   5.664851   4.071018   4.925434   2.774858
    13  O    5.194121   6.247626   4.324149   4.927602   2.935364
    14  O    5.164096   6.216224   4.932507   5.870727   3.791068
    15  N    5.276249   6.320605   4.837453   5.660726   3.641808
    16  H    5.293967   6.299426   5.121956   6.040526   4.085285
                   11         12         13         14         15
    11  H    0.000000
    12  S    2.907632   0.000000
    13  O    2.519598   1.488107   0.000000
    14  O    4.087639   1.496433   2.498531   0.000000
    15  N    3.739226   1.564618   2.485920   2.578454   0.000000
    16  H    4.411875   2.115121   3.352005   2.681251   1.023959
                   16
    16  H    0.000000
 Stoichiometry    C6H6NO2S(1-)
 Framework group  C1[X(C6H6NO2S)]
 Deg. of freedom    42
 Full point group                 C1      NOp   1
 Largest Abelian subgroup         C1      NOp   1
 Largest concise Abelian subgroup C1      NOp   1
                         Standard orientation:                         
 ---------------------------------------------------------------------
 Center     Atomic      Atomic             Coordinates (Angstroms)
 Number     Number       Type             X           Y           Z
 ---------------------------------------------------------------------
      1          6           0        0.281498    0.016075   -0.050978
      2          6           0        0.957600   -1.204640   -0.046386
      3          1           0        0.403175   -2.138696   -0.083245
      4          6           0        2.350322   -1.214867   -0.001610
      5          1           0        2.882003   -2.161789   -0.002678
      6          6           0        3.059058   -0.012268    0.041240
      7          1           0        4.144532   -0.023313    0.074516
      8          6           0        2.373683    1.202386    0.038863
      9          1           0        2.923061    2.138729    0.068776
     10          6           0        0.978785    1.221099   -0.004587
     11          1           0        0.438761    2.162800   -0.008979
     12         16           0       -1.519501    0.013496   -0.014479
     13          8           0       -1.921469    1.385862   -0.426179
     14          8           0       -1.891419   -1.044436   -1.005322
     15          7           0       -2.021826   -0.248945    1.443884
     16          1           0       -1.829314   -1.229164    1.668837
 ---------------------------------------------------------------------
 Rotational constants (GHZ):           2.6498470           0.8344335           0.7280832
 Unable to Open any file for archive entry.
 1\1\GINC-GADI-CPU-CLX-1760\FOpt\RM062X\Gen\C6H6N1O2S1(1-)\YJ5695\19-Ma
 y-2022\0\\#m062X/gen 6D OPT Freq=Noraman INT(grid=ultrafine) SCRF=(SMD
 ,Solvent=h2o)\\a1 b1\\-1,1\C,-1.302402,0.73735,-0.931534\C,-2.509464,0
 .760738,-1.631343\H,-3.454237,0.704427,-1.097078\C,-2.492475,0.864437,
 -3.020855\H,-3.428852,0.88795,-3.570393\C,-1.276348,0.940972,-3.703177
 \H,-1.266241,1.023294,-4.786045\C,-0.075426,0.914174,-2.994519\H,0.871
 273,0.976931,-3.52298\C,-0.083925,0.809232,-1.602796\H,0.846873,0.7900
 65,-1.044501\S,-1.336541,0.508879,0.854963\O,0.011442,0.924736,1.32874
 4\O,-2.438318,1.415467,1.306071\N,-1.552017,-1.003281,1.194036\H,-2.51
 9201,-1.241733,0.956995\\Version=ES64L-G16RevC.01\State=1-A\HF=-835.52
 18794\RMSD=7.287e-09\RMSF=3.072e-05\Dipole=-0.7256393,0.1820183,-5.315
 7599\Quadrupole=8.0360484,-1.2944798,-6.7415686,3.5679623,-2.187354,0.
 3437924\PG=C01 [X(C6H6N1O2S1)]\\@
 The archive entry for this job was punched.


 CONFIDENCE: THAT QUIET ASSURED FEELING YOU HAVE
 JUST BEFORE YOU FALL FLAT ON YOUR FACE.
 Job cpu time:       0 days  0 hours  7 minutes 26.1 seconds.
 Elapsed time:       0 days  0 hours  0 minutes 28.4 seconds.
 File lengths (MBytes):  RWF=     57 Int=      0 D2E=      0 Chk=      5 Scr=      1
 Normal termination of Gaussian 16 at Thu May 19 13:18:56 2022.
 Link1:  Proceeding to internal job step number  2.
 ------------------------------------------------------------------
 #N Geom=AllCheck Guess=TCheck SCRF=Check GenChk RM062X/ChkBas Freq
 ------------------------------------------------------------------
 1/10=4,29=7,30=1,38=1,40=1/1,3;
 2/12=2,40=1/2;
 3/5=7,6=2,8=2,11=2,14=-4,25=1,30=1,67=1,70=2,71=2,74=-55,75=-5,82=7,116=1,140=1/1,2,3;
 4/5=101/1;
 5/5=2,38=6,98=1/2;
 8/6=4,10=90,11=11/1;
 11/6=1,8=1,9=11,15=111,16=1/1,2,10;
 10/6=1/2;
 6/7=2,8=2,9=2,10=2,28=1/1;
 7/8=1,10=1,25=1/1,2,3,16;
 1/10=4,30=1/3;
 99//99;
 Structure from the checkpoint file:  "/jobfs/40638752.gadi-pbs/Gau-2182986.chk"
 -----
 a1 b1
 -----
 Charge = -1 Multiplicity = 1
 Redundant internal coordinates found in file.  (old form).
 C,0,-1.302402,0.73735,-0.931534
 C,0,-2.509464,0.760738,-1.631343
 H,0,-3.454237,0.704427,-1.097078
 C,0,-2.492475,0.864437,-3.020855
 H,0,-3.428852,0.88795,-3.570393
 C,0,-1.276348,0.940972,-3.703177
 H,0,-1.266241,1.023294,-4.786045
 C,0,-0.075426,0.914174,-2.994519
 H,0,0.871273,0.976931,-3.52298
 C,0,-0.083925,0.809232,-1.602796
 H,0,0.846873,0.790065,-1.044501
 S,0,-1.336541,0.508879,0.854963
 O,0,0.011442,0.924736,1.328744
 O,0,-2.438318,1.415467,1.306071
 N,0,-1.552017,-1.003281,1.194036
 H,0,-2.519201,-1.241733,0.956995
 Recover connectivity data from disk.

 GradGradGradGradGradGradGradGradGradGradGradGradGradGradGradGradGradGrad
 Berny optimization.
 Initialization pass.
                           ----------------------------
                           !    Initial Parameters    !
                           ! (Angstroms and Degrees)  !
 --------------------------                            --------------------------
 ! Name  Definition              Value          Derivative Info.                !
 --------------------------------------------------------------------------------
 ! R1    R(1,2)                  1.3954         calculate D2E/DX2 analytically  !
 ! R2    R(1,10)                 1.393          calculate D2E/DX2 analytically  !
 ! R3    R(1,12)                 1.8014         calculate D2E/DX2 analytically  !
 ! R4    R(2,3)                  1.0868         calculate D2E/DX2 analytically  !
 ! R5    R(2,4)                  1.3935         calculate D2E/DX2 analytically  !
 ! R6    R(4,5)                  1.086          calculate D2E/DX2 analytically  !
 ! R7    R(4,6)                  1.3966         calculate D2E/DX2 analytically  !
 ! R8    R(6,7)                  1.086          calculate D2E/DX2 analytically  !
 ! R9    R(6,8)                  1.3947         calculate D2E/DX2 analytically  !
 ! R10   R(8,9)                  1.086          calculate D2E/DX2 analytically  !
 ! R11   R(8,10)                 1.3957         calculate D2E/DX2 analytically  !
 ! R12   R(10,11)                1.0856         calculate D2E/DX2 analytically  !
 ! R13   R(12,13)                1.4881         calculate D2E/DX2 analytically  !
 ! R14   R(12,14)                1.4964         calculate D2E/DX2 analytically  !
 ! R15   R(12,15)                1.5646         calculate D2E/DX2 analytically  !
 ! R16   R(15,16)                1.024          calculate D2E/DX2 analytically  !
 ! A1    A(2,1,10)             120.9374         calculate D2E/DX2 analytically  !
 ! A2    A(2,1,12)             118.8871         calculate D2E/DX2 analytically  !
 ! A3    A(10,1,12)            120.0679         calculate D2E/DX2 analytically  !
 ! A4    A(1,2,3)              120.301          calculate D2E/DX2 analytically  !
 ! A5    A(1,2,4)              119.391          calculate D2E/DX2 analytically  !
 ! A6    A(3,2,4)              120.307          calculate D2E/DX2 analytically  !
 ! A7    A(2,4,5)              119.7152         calculate D2E/DX2 analytically  !
 ! A8    A(2,4,6)              120.1242         calculate D2E/DX2 analytically  !
 ! A9    A(5,4,6)              120.1604         calculate D2E/DX2 analytically  !
 ! A10   A(4,6,7)              119.9606         calculate D2E/DX2 analytically  !
 ! A11   A(4,6,8)              120.0344         calculate D2E/DX2 analytically  !
 ! A12   A(7,6,8)              120.005          calculate D2E/DX2 analytically  !
 ! A13   A(6,8,9)              120.1488         calculate D2E/DX2 analytically  !
 ! A14   A(6,8,10)             120.19           calculate D2E/DX2 analytically  !
 ! A15   A(9,8,10)             119.6611         calculate D2E/DX2 analytically  !
 ! A16   A(1,10,8)             119.3219         calculate D2E/DX2 analytically  !
 ! A17   A(1,10,11)            120.0841         calculate D2E/DX2 analytically  !
 ! A18   A(8,10,11)            120.5927         calculate D2E/DX2 analytically  !
 ! A19   A(1,12,13)            105.2564         calculate D2E/DX2 analytically  !
 ! A20   A(1,12,14)            103.6554         calculate D2E/DX2 analytically  !
 ! A21   A(1,12,15)            109.8838         calculate D2E/DX2 analytically  !
 ! A22   A(13,12,14)           113.682          calculate D2E/DX2 analytically  !
 ! A23   A(13,12,15)           109.0163         calculate D2E/DX2 analytically  !
 ! A24   A(14,12,15)           114.7585         calculate D2E/DX2 analytically  !
 ! A25   A(12,15,16)           107.7569         calculate D2E/DX2 analytically  !
 ! D1    D(10,1,2,3)          -179.9769         calculate D2E/DX2 analytically  !
 ! D2    D(10,1,2,4)            -0.3311         calculate D2E/DX2 analytically  !
 ! D3    D(12,1,2,3)             3.7916         calculate D2E/DX2 analytically  !
 ! D4    D(12,1,2,4)          -176.5627         calculate D2E/DX2 analytically  !
 ! D5    D(2,1,10,8)             0.3898         calculate D2E/DX2 analytically  !
 ! D6    D(2,1,10,11)          179.9902         calculate D2E/DX2 analytically  !
 ! D7    D(12,1,10,8)          176.5772         calculate D2E/DX2 analytically  !
 ! D8    D(12,1,10,11)          -3.8225         calculate D2E/DX2 analytically  !
 ! D9    D(2,1,12,13)         -163.8572         calculate D2E/DX2 analytically  !
 ! D10   D(2,1,12,14)          -44.2067         calculate D2E/DX2 analytically  !
 ! D11   D(2,1,12,15)           78.8976         calculate D2E/DX2 analytically  !
 ! D12   D(10,1,12,13)          19.8776         calculate D2E/DX2 analytically  !
 ! D13   D(10,1,12,14)         139.5281         calculate D2E/DX2 analytically  !
 ! D14   D(10,1,12,15)         -97.3675         calculate D2E/DX2 analytically  !
 ! D15   D(1,2,4,5)           -179.7048         calculate D2E/DX2 analytically  !
 ! D16   D(1,2,4,6)              0.1437         calculate D2E/DX2 analytically  !
 ! D17   D(3,2,4,5)             -0.0591         calculate D2E/DX2 analytically  !
 ! D18   D(3,2,4,6)            179.7895         calculate D2E/DX2 analytically  !
 ! D19   D(2,4,6,7)           -179.9044         calculate D2E/DX2 analytically  !
 ! D20   D(2,4,6,8)             -0.0207         calculate D2E/DX2 analytically  !
 ! D21   D(5,4,6,7)             -0.0566         calculate D2E/DX2 analytically  !
 ! D22   D(5,4,6,8)            179.8271         calculate D2E/DX2 analytically  !
 ! D23   D(4,6,8,9)           -179.7945         calculate D2E/DX2 analytically  !
 ! D24   D(4,6,8,10)             0.0804         calculate D2E/DX2 analytically  !
 ! D25   D(7,6,8,9)              0.0891         calculate D2E/DX2 analytically  !
 ! D26   D(7,6,8,10)           179.9641         calculate D2E/DX2 analytically  !
 ! D27   D(6,8,10,1)            -0.2621         calculate D2E/DX2 analytically  !
 ! D28   D(6,8,10,11)         -179.8604         calculate D2E/DX2 analytically  !
 ! D29   D(9,8,10,1)           179.6134         calculate D2E/DX2 analytically  !
 ! D30   D(9,8,10,11)            0.0151         calculate D2E/DX2 analytically  !
 ! D31   D(1,12,15,16)         -71.3852         calculate D2E/DX2 analytically  !
 ! D32   D(13,12,15,16)        173.7409         calculate D2E/DX2 analytically  !
 ! D33   D(14,12,15,16)         44.9267         calculate D2E/DX2 analytically  !
 --------------------------------------------------------------------------------
 Trust Radius=3.00D-01 FncErr=1.00D-07 GrdErr=1.00D-07 EigMax=2.50D+02 EigMin=1.00D-04
 Number of steps in this run=      2 maximum allowed number of steps=      2.
 GradGradGradGradGradGradGradGradGradGradGradGradGradGradGradGradGradGrad

                          Input orientation:                          
 ---------------------------------------------------------------------
 Center     Atomic      Atomic             Coordinates (Angstroms)
 Number     Number       Type             X           Y           Z
 ---------------------------------------------------------------------
      1          6           0       -1.302402    0.737350   -0.931534
      2          6           0       -2.509464    0.760738   -1.631343
      3          1           0       -3.454237    0.704427   -1.097078
      4          6           0       -2.492475    0.864437   -3.020855
      5          1           0       -3.428852    0.887950   -3.570393
      6          6           0       -1.276348    0.940972   -3.703177
      7          1           0       -1.266241    1.023294   -4.786045
      8          6           0       -0.075426    0.914174   -2.994519
      9          1           0        0.871273    0.976931   -3.522980
     10          6           0       -0.083925    0.809232   -1.602796
     11          1           0        0.846873    0.790065   -1.044501
     12         16           0       -1.336541    0.508879    0.854963
     13          8           0        0.011442    0.924736    1.328744
     14          8           0       -2.438318    1.415467    1.306071
     15          7           0       -1.552017   -1.003281    1.194036
     16          1           0       -2.519201   -1.241733    0.956995
 ---------------------------------------------------------------------
                    Distance matrix (angstroms):
                    1          2          3          4          5
     1  C    0.000000
     2  C    1.395449   0.000000
     3  H    2.158444   1.086833   0.000000
     4  C    2.407839   1.393480   2.156735   0.000000
     5  H    3.392351   2.149738   2.480244   1.085977   0.000000
     6  C    2.779235   2.417758   3.404542   1.396562   2.157247
     7  H    3.865272   3.400983   4.300870   2.155175   2.484555
     8  C    2.406791   2.793981   3.880804   2.417704   3.402614
     9  H    3.390849   3.880002   4.966819   3.402879   4.301307
    10  C    1.392999   2.426192   3.409654   2.795541   3.881517
    11  H    2.152887   3.407380   4.302284   3.881076   4.967045
    12  S    1.801371   2.760598   2.886752   4.060119   4.909708
    13  O    2.621098   3.891526   4.236045   5.019188   5.986528
    14  O    2.599428   3.010338   2.704218   4.362208   5.003932
    15  N    2.758650   3.465723   3.432770   4.705118   5.458850
    16  H    2.993979   3.272534   2.980109   4.501106   5.085298
                    6          7          8          9         10
     6  C    0.000000
     7  H    1.086040   0.000000
     8  C    1.394678   2.153953   0.000000
     9  H    2.155467   2.483234   1.086024   0.000000
    10  C    2.418849   3.402465   1.395700   2.151193   0.000000
    11  H    3.405789   4.303347   2.160696   2.485633   1.085562
    12  S    4.578970   5.664851   4.071018   4.925434   2.774858
    13  O    5.194121   6.247626   4.324149   4.927602   2.935364
    14  O    5.164096   6.216224   4.932507   5.870727   3.791068
    15  N    5.276249   6.320605   4.837453   5.660726   3.641808
    16  H    5.293967   6.299426   5.121956   6.040526   4.085285
                   11         12         13         14         15
    11  H    0.000000
    12  S    2.907632   0.000000
    13  O    2.519598   1.488107   0.000000
    14  O    4.087639   1.496433   2.498531   0.000000
    15  N    3.739226   1.564618   2.485920   2.578454   0.000000
    16  H    4.411875   2.115121   3.352005   2.681251   1.023959
                   16
    16  H    0.000000
 Stoichiometry    C6H6NO2S(1-)
 Framework group  C1[X(C6H6NO2S)]
 Deg. of freedom    42
 Full point group                 C1      NOp   1
 Largest Abelian subgroup         C1      NOp   1
 Largest concise Abelian subgroup C1      NOp   1
                         Standard orientation:                         
 ---------------------------------------------------------------------
 Center     Atomic      Atomic             Coordinates (Angstroms)
 Number     Number       Type             X           Y           Z
 ---------------------------------------------------------------------
      1          6           0        0.281498    0.016075   -0.050978
      2          6           0        0.957600   -1.204640   -0.046386
      3          1           0        0.403175   -2.138696   -0.083245
      4          6           0        2.350322   -1.214867   -0.001610
      5          1           0        2.882003   -2.161789   -0.002678
      6          6           0        3.059058   -0.012268    0.041240
      7          1           0        4.144532   -0.023313    0.074516
      8          6           0        2.373683    1.202386    0.038863
      9          1           0        2.923061    2.138729    0.068776
     10          6           0        0.978785    1.221099   -0.004587
     11          1           0        0.438761    2.162800   -0.008979
     12         16           0       -1.519501    0.013496   -0.014479
     13          8           0       -1.921469    1.385862   -0.426179
     14          8           0       -1.891419   -1.044436   -1.005322
     15          7           0       -2.021826   -0.248945    1.443884
     16          1           0       -1.829314   -1.229164    1.668837
 ---------------------------------------------------------------------
 Rotational constants (GHZ):           2.6498470           0.8344335           0.7280832
 Basis read from chk: "/jobfs/40638752.gadi-pbs/Gau-2182986.chk" (6D, 7F)
 There are   206 symmetry adapted cartesian basis functions of A   symmetry.
 There are   206 symmetry adapted basis functions of A   symmetry.
   206 basis functions,   368 primitive gaussians,   206 cartesian basis functions
    41 alpha electrons       41 beta electrons
       nuclear repulsion energy       616.6226539090 Hartrees.
 NAtoms=   16 NActive=   16 NUniq=   16 SFac= 1.00D+00 NAtFMM=   60 NAOKFM=F Big=F
 Integral buffers will be    131072 words long.
 Raffenetti 2 integral format.
 Two-electron integral symmetry is turned on.
 Force inversion solution in PCM.
 ------------------------------------------------------------------------------
 Polarizable Continuum Model (PCM)
 =================================
 Model                : PCM.
 Atomic radii         : SMD-Coulomb.
 Polarization charges : Total charges.
 Charge compensation  : None.
 Solution method      : Matrix inversion.
 Cavity type          : VdW (van der Waals Surface) (Alpha=1.000).
 Cavity algorithm     : GePol (No added spheres)
                        Default sphere list used, NSphG=   16.
                        Lebedev-Laikov grids with approx.  5.0 points / Ang**2.
                        Smoothing algorithm: York/Karplus (Gamma=1.0000).
                        Polarization charges: spherical gaussians, with
                                              point-specific exponents (IZeta= 3).
                        Self-potential: point-specific (ISelfS= 7).
                        Self-field    : sphere-specific E.n sum rule (ISelfD= 2).
 1st derivatives      : Analytical E(r).r(x)/FMM algorithm (CHGder, D1EAlg=3).
                        Cavity 1st derivative terms included.
 2nd derivatives      : Analytical E(r).r(xy)/FMM algorithm (CHGder, D2EAlg=3).
                        Cavity 2nd derivative terms included.
 Solvent              : Water, Eps=  78.355300 Eps(inf)=   1.777849
 ------------------------------------------------------------------------------
 Spheres list:
 ISph  on   Nord     Re0    Alpha      Xe            Ye            Ze
    1   C      1    1.8500  1.000      0.281498      0.016075     -0.050978
    2   C      2    1.8500  1.000      0.957600     -1.204640     -0.046386
    3   H      3    1.2000  1.000      0.403175     -2.138696     -0.083245
    4   C      4    1.8500  1.000      2.350322     -1.214867     -0.001610
    5   H      5    1.2000  1.000      2.882003     -2.161789     -0.002678
    6   C      6    1.8500  1.000      3.059058     -0.012268      0.041240
    7   H      7    1.2000  1.000      4.144532     -0.023313      0.074516
    8   C      8    1.8500  1.000      2.373683      1.202386      0.038863
    9   H      9    1.2000  1.000      2.923061      2.138729      0.068776
   10   C     10    1.8500  1.000      0.978785      1.221099     -0.004587
   11   H     11    1.2000  1.000      0.438761      2.162800     -0.008979
   12   S     12    2.4900  1.000     -1.519501      0.013496     -0.014479
   13   O     13    1.5200  1.000     -1.921469      1.385862     -0.426179
   14   O     14    1.5200  1.000     -1.891419     -1.044436     -1.005322
   15   N     15    1.8900  1.000     -2.021826     -0.248945      1.443884
   16   H     16    1.2000  1.000     -1.829314     -1.229164      1.668837
 ------------------------------------------------------------------------------
 ------------------------------------------------------------------------------
 Atomic radii for non-electrostatic terms: SMD-CDS.
 ------------------------------------------------------------------------------
 Nuclear repulsion after PCM non-electrostatic terms =      616.6272903974 Hartrees.
 One-electron integrals computed using PRISM.
 NBasis=   206 RedAO= T EigKep=  4.02D-06  NBF=   206
 NBsUse=   206 1.00D-06 EigRej= -1.00D+00 NBFU=   206
 Initial guess from the checkpoint file:  "/jobfs/40638752.gadi-pbs/Gau-2182986.chk"
 B after Tr=     0.000000    0.000000    0.000000
         Rot=    1.000000   -0.000000    0.000000    0.000000 Ang=   0.00 deg.
 Requested convergence on RMS density matrix=1.00D-08 within 128 cycles.
 Requested convergence on MAX density matrix=1.00D-06.
 Requested convergence on             energy=1.00D-06.
 No special actions if energy rises.
 Inv3:  Mode=1 IEnd=     5713200.
 Iteration    1 A*A^-1 deviation from unit magnitude is 4.00D-15 for   1359.
 Iteration    1 A*A^-1 deviation from orthogonality  is 1.54D-15 for   1376    104.
 Iteration    1 A^-1*A deviation from unit magnitude is 4.22D-15 for   1359.
 Iteration    1 A^-1*A deviation from orthogonality  is 1.04D-15 for    650    416.
 Error on total polarization charges =  0.05256
 SCF Done:  E(RM062X) =  -835.521879443     A.U. after    1 cycles
            NFock=  1  Conv=0.19D-08     -V/T= 2.0063
 SMD-CDS (non-electrostatic) energy       (kcal/mol) =       2.91
 (included in total energy above)
 DoSCS=F DFT=T ScalE2(SS,OS)=  1.000000  1.000000
 Range of M.O.s used for correlation:     1   206
 NBasis=   206 NAE=    41 NBE=    41 NFC=     0 NFV=     0
 NROrb=    206 NOA=    41 NOB=    41 NVA=   165 NVB=   165

 **** Warning!!: The largest alpha MO coefficient is  0.12020114D+03

 Symmetrizing basis deriv contribution to polar:
 IMax=3 JMax=2 DiffMx= 0.00D+00
 G2DrvN: will do    17 centers at a time, making    1 passes.
 Calling FoFCou, ICntrl=  3107 FMM=F I1Cent=   0 AccDes= 0.00D+00.
 NEqPCM:  Using equilibrium solvation (IEInf=0, Eps=  78.3553, EpsInf=   1.7778)
 G2PCM: DoFxE=T DoFxN=T DoGrad=T DoDP/DQ/DG/TGxP=FFFF NFrqRd=   0 IEInf=0 SqF1=F DoCFld=F IF1Alg=4.
 End of G2Drv F.D. properties file   721 does not exist.
 End of G2Drv F.D. properties file   722 does not exist.
 End of G2Drv F.D. properties file   788 does not exist.
          IDoAtm=1111111111111111
 NEqPCM:  Using equilibrium solvation (IEInf=0, Eps=  78.3553, EpsInf=   1.7778)
          Differentiating once with respect to electric field.
                with respect to dipole field.
          Differentiating once with respect to nuclear coordinates.
 Keep R1 ints in memory in canonical form, NReq=243829847.
          There are    51 degrees of freedom in the 1st order CPHF.  IDoFFX=6 NUNeed=     3.
     48 vectors produced by pass  0 Test12= 1.33D-14 1.96D-09 XBig12= 8.32D+01 4.44D+00.
 AX will form    48 AO Fock derivatives at one time.
     48 vectors produced by pass  1 Test12= 1.33D-14 1.96D-09 XBig12= 7.63D+00 4.09D-01.
     48 vectors produced by pass  2 Test12= 1.33D-14 1.96D-09 XBig12= 1.37D-01 5.26D-02.
     48 vectors produced by pass  3 Test12= 1.33D-14 1.96D-09 XBig12= 1.33D-03 4.05D-03.
     48 vectors produced by pass  4 Test12= 1.33D-14 1.96D-09 XBig12= 9.58D-06 2.81D-04.
     48 vectors produced by pass  5 Test12= 1.33D-14 1.96D-09 XBig12= 5.46D-08 2.95D-05.
     47 vectors produced by pass  6 Test12= 1.33D-14 1.96D-09 XBig12= 2.77D-10 1.99D-06.
     10 vectors produced by pass  7 Test12= 1.33D-14 1.96D-09 XBig12= 1.16D-12 1.10D-07.
      3 vectors produced by pass  8 Test12= 1.33D-14 1.96D-09 XBig12= 4.15D-15 8.82D-09.
 InvSVY:  IOpt=1 It=  1 EMax= 7.11D-15
 Solved reduced A of dimension   348 with    51 vectors.
 Isotropic polarizability for W=    0.000000      151.57 Bohr**3.
 End of Minotr F.D. properties file   721 does not exist.
 End of Minotr F.D. properties file   722 does not exist.
 End of Minotr F.D. properties file   788 does not exist.

 **********************************************************************

            Population analysis using the SCF Density.

 **********************************************************************

 Orbital symmetries:
       Occupied  (A) (A) (A) (A) (A) (A) (A) (A) (A) (A) (A) (A)
                 (A) (A) (A) (A) (A) (A) (A) (A) (A) (A) (A) (A)
                 (A) (A) (A) (A) (A) (A) (A) (A) (A) (A) (A) (A)
                 (A) (A) (A) (A) (A)
       Virtual   (A) (A) (A) (A) (A) (A) (A) (A) (A) (A) (A) (A)
                 (A) (A) (A) (A) (A) (A) (A) (A) (A) (A) (A) (A)
                 (A) (A) (A) (A) (A) (A) (A) (A) (A) (A) (A) (A)
                 (A) (A) (A) (A) (A) (A) (A) (A) (A) (A) (A) (A)
                 (A) (A) (A) (A) (A) (A) (A) (A) (A) (A) (A) (A)
                 (A) (A) (A) (A) (A) (A) (A) (A) (A) (A) (A) (A)
                 (A) (A) (A) (A) (A) (A) (A) (A) (A) (A) (A) (A)
                 (A) (A) (A) (A) (A) (A) (A) (A) (A) (A) (A) (A)
                 (A) (A) (A) (A) (A) (A) (A) (A) (A) (A) (A) (A)
                 (A) (A) (A) (A) (A) (A) (A) (A) (A) (A) (A) (A)
                 (A) (A) (A) (A) (A) (A) (A) (A) (A) (A) (A) (A)
                 (A) (A) (A) (A) (A) (A) (A) (A) (A) (A) (A) (A)
                 (A) (A) (A) (A) (A) (A) (A) (A) (A) (A) (A) (A)
                 (A) (A) (A) (A) (A) (A) (A) (A) (A)
 The electronic state is 1-A.
 Alpha  occ. eigenvalues --  -90.13286 -19.61935 -19.61815 -14.71713 -10.57658
 Alpha  occ. eigenvalues --  -10.56305 -10.56203 -10.55884 -10.55841 -10.55759
 Alpha  occ. eigenvalues --   -8.44189  -6.36434  -6.36336  -6.36254  -1.20577
 Alpha  occ. eigenvalues --   -1.09002  -0.97184  -0.95575  -0.85682  -0.84935
 Alpha  occ. eigenvalues --   -0.72636  -0.69378  -0.65534  -0.60777  -0.56232
 Alpha  occ. eigenvalues --   -0.54451  -0.53325  -0.51422  -0.50813  -0.49202
 Alpha  occ. eigenvalues --   -0.45101  -0.43017  -0.41866  -0.40647  -0.39271
 Alpha  occ. eigenvalues --   -0.37254  -0.36025  -0.33056  -0.32246  -0.31398
 Alpha  occ. eigenvalues --   -0.28465
 Alpha virt. eigenvalues --    0.00621   0.01469   0.02088   0.04060   0.04381
 Alpha virt. eigenvalues --    0.04878   0.05738   0.05970   0.06988   0.08515
 Alpha virt. eigenvalues --    0.08585   0.08731   0.09907   0.11033   0.12368
 Alpha virt. eigenvalues --    0.12811   0.13684   0.14346   0.14536   0.15158
 Alpha virt. eigenvalues --    0.15583   0.16172   0.16586   0.18221   0.18472
 Alpha virt. eigenvalues --    0.19191   0.19280   0.20148   0.21144   0.21385
 Alpha virt. eigenvalues --    0.23117   0.23484   0.23964   0.24588   0.25030
[...]
   zz         0.182778D+03      0.270849D+02      0.301360D+02

 ----------------------------------------------------------------------

 Dipole orientation:
     6         -2.19742360         -1.32722852          2.12310200
     6         -4.27863464         -1.32130650          3.74247923
     1         -6.18432530         -1.24507714          2.98044543
     6         -3.89143127         -1.42819675          6.34495702
     1         -5.50420329         -1.43331744          7.61399758
     6         -1.43975545         -1.53431598          7.31602782
     1         -1.14386113         -1.62045120          9.34507552
     6          0.62768393         -1.53433804          5.68144151
     1          2.53552625         -1.62312181          6.43253541
     6          0.25580685         -1.42527884          3.07257794
     1          1.85591487         -1.42890297          1.78885413
    16         -2.71868859         -1.01005181         -1.22586181
     8         -0.31397135         -1.83167758         -2.43012894
     8         -4.89291749         -2.74637515         -1.73048155
     7         -3.21533572          1.82507731         -1.90221390
     1         -4.96675553          2.29482353         -1.22686029

 Electric dipole moment (dipole orientation):
 (Debye = 10**-18 statcoulomb cm , SI units = C m)
                  (au)            (Debye)         (10**-30 SI)
   Tot        0.536815D+01      0.136445D+02      0.455130D+02
   x          0.000000D+00      0.000000D+00      0.000000D+00
   y          0.000000D+00      0.000000D+00      0.000000D+00
   z          0.536815D+01      0.136445D+02      0.455130D+02

 Dipole polarizability, Alpha (dipole orientation).
 (esu units = cm**3 , SI units = C**2 m**2 J**-1)
 Alpha(0;0):
               (au)            (10**-24 esu)      (10**-40 SI)
   iso        0.151572D+03      0.224606D+02      0.249908D+02
   aniso      0.675387D+02      0.100082D+02      0.111356D+02
   xx         0.162447D+03      0.240722D+02      0.267839D+02
   yx        -0.251611D+01     -0.372849D+00     -0.414851D+00
   yy         0.109715D+03      0.162581D+02      0.180896D+02
   zx         0.479831D+01      0.711037D+00      0.791135D+00
   zy        -0.872313D+01     -0.129263D+01     -0.143825D+01
   zz         0.182553D+03      0.270516D+02      0.300990D+02

 ----------------------------------------------------------------------
 Unable to Open any file for archive entry.
 1\1\GINC-GADI-CPU-CLX-1760\Freq\RM062X\Gen\C6H6N1O2S1(1-)\YJ5695\19-Ma
 y-2022\0\\#N Geom=AllCheck Guess=TCheck SCRF=Check GenChk RM062X/ChkBa
 s Freq\\a1 b1\\-1,1\C,-1.302402,0.73735,-0.931534\C,-2.509464,0.760738
 ,-1.631343\H,-3.454237,0.704427,-1.097078\C,-2.492475,0.864437,-3.0208
 55\H,-3.428852,0.88795,-3.570393\C,-1.276348,0.940972,-3.703177\H,-1.2
 66241,1.023294,-4.786045\C,-0.075426,0.914174,-2.994519\H,0.871273,0.9
 76931,-3.52298\C,-0.083925,0.809232,-1.602796\H,0.846873,0.790065,-1.0
 44501\S,-1.336541,0.508879,0.854963\O,0.011442,0.924736,1.328744\O,-2.
 438318,1.415467,1.306071\N,-1.552017,-1.003281,1.194036\H,-2.519201,-1
 .241733,0.956995\\Version=ES64L-G16RevC.01\State=1-A\HF=-835.5218794\R
 MSD=1.907e-09\RMSF=3.072e-05\ZeroPoint=0.1153472\Thermal=0.1238764\ETo
 t=-835.3980031\HTot=-835.3970589\GTot=-835.4409774\Dipole=-0.7256393,0
 .1820183,-5.3157598\DipoleDeriv=-0.2269307,-0.0244408,0.0191418,-0.055
 3479,-0.4155985,0.0406952,-0.0134201,-0.0833177,-0.2576974,0.0033907,0
 .0022443,0.0568649,0.0084727,-0.1278216,0.0322081,-0.154401,0.0503432,
 -0.2108993,0.011826,-0.0100827,0.0577802,-0.0151015,0.1784883,0.014083
 5,0.0855278,0.0121046,0.090194,0.0268878,0.00737,0.0273135,-0.0063912,
 -0.1641377,-0.0268236,0.1418864,-0.0165511,-0.0231691,-0.0423572,0.003
 7239,-0.0948533,0.0040154,0.189503,0.0086723,-0.0899043,0.01301,0.0328
 534,-0.0061162,-0.0010582,0.0018579,0.0051983,-0.1790506,-0.0114815,0.
 0037735,-0.002351,0.0433153,0.1149407,-0.0017815,0.0020444,-0.0025182,
 0.1859455,0.0266923,0.0023876,0.0224254,-0.0992563,0.0281136,0.0025479
 ,-0.0275361,0.0200092,-0.1576136,-0.0286882,-0.1482319,-0.0135362,-0.0
 366869,-0.0474563,-0.0136674,0.0930033,-0.0152028,0.1888542,0.0104477,
 0.0888282,0.0172599,0.0340576,-0.0197609,0.0059993,-0.06791,0.0060718,
 -0.1298707,0.0359379,0.1799757,0.0567804,-0.2144023,0.0195421,0.002975
 1,-0.0513551,0.0036783,0.1773366,0.0155237,-0.0670485,0.0059811,0.1124
 87,3.1965171,0.0590015,-0.0249387,-0.0222897,3.51006,-0.0824818,-0.001
 3251,-0.0379079,3.2847731,-1.7481291,-0.2824352,-0.5507993,-0.2598545,
 -1.0509918,-0.1215754,-0.3445127,-0.0589094,-1.3211003,-1.5267794,0.52
 33491,0.4931351,0.5266617,-1.5733481,-0.3804271,0.2867609,-0.1871354,-
 1.3553306,-0.8641747,-0.2801471,0.2001058,-0.2351527,-1.9443218,0.4610
 944,0.1473052,0.2012426,-1.4560888,0.0804867,0.0064019,-0.1338545,0.03
 77511,0.3125669,0.0061224,-0.1176017,0.0205617,0.3769509\Polar=161.534
 9887,1.2599833,110.4029041,-1.9091057,-11.4576843,182.7779029\Quadrupo
 le=8.0360484,-1.2944796,-6.7415689,3.5679623,-2.187354,0.3437923\PG=C0
 1 [X(C6H6N1O2S1)]\NImag=0\\0.69834499,0.00998139,0.15617736,-0.0024657
 2,-0.03656525,0.54588182,-0.28816901,0.00257347,-0.11994877,0.72965413
 ,-0.00025288,-0.06634134,0.00536193,0.01522882,0.14461810,-0.05725513,
 0.00754341,-0.16816499,-0.03779362,-0.04409000,0.69954084,-0.01820570,
 -0.00124343,0.01288634,-0.27828751,-0.01383611,0.12322092,0.29275049,0
 .00062262,0.00349426,-0.00058195,-0.01264362,-0.03984910,0.00898145,0.
 01404688,0.02699428,-0.01347757,-0.00107285,0.01212191,0.12275827,0.00
 910292,-0.12694631,-0.13172434,-0.01029904,0.13176570,0.04043223,0.003
 78263,-0.02644209,-0.13087717,0.00041184,-0.03551388,0.00495118,-0.002
 31821,0.02789335,0.73904447,0.00728295,0.00801381,0.00223038,-0.004942
 13,-0.06685821,0.02121650,0.00018497,0.00450962,0.00165107,0.00937237,
 0.14298097,-0.08710769,0.00105584,-0.02963407,0.04140785,0.02348373,-0
 .35160191,-0.00202070,0.00104307,-0.00988645,0.03626362,-0.04161516,0.
 70035263,0.00143965,-0.00016671,0.00056573,0.00493980,-0.00022008,0.00
 274240,0.00055346,0.00013705,-0.00032581,-0.27609303,0.00512244,-0.127
 43501,0.28897837,-0.00025667,0.00747172,0.00082754,0.00228270,0.004017
 13,0.00108921,0.00004173,-0.00438666,-0.00038741,0.00514062,-0.0394711
 2,0.00465196,-0.00524328,0.02696999,0.00102849,0.00120415,-0.00547573,
 -0.02741568,0.00068578,-0.01131207,0.00023301,-0.00043954,0.00153055,-
 0.12741526,0.00450697,-0.13331709,0.13604893,-0.00566380,0.13698593,-0
 .08237642,-0.00119483,-0.00180430,0.04113080,-0.00464985,0.08595495,0.
 00151903,-0.00000307,-0.00136896,-0.29512525,-0.00881358,0.05312003,-0
 .01742540,-0.00167472,0.01506726,0.68123145,-0.00156210,-0.00744272,-0
 .00016349,-0.00167578,0.00718826,0.00385963,0.00000126,0.00755766,0.00
 086655,-0.01458912,-0.06669325,0.01035820,0.00074164,0.00412803,-0.000
 29160,0.01160743,0.14490383,-0.00103553,-0.00091141,-0.00063440,0.0287
 2791,0.00298883,-0.02416580,-0.00077371,0.00104625,-0.00522679,0.12773
 971,0.01162013,-0.18345395,-0.01541512,-0.00088909,0.01211984,0.002088
 78,-0.04632769,0.75922056,-0.00125717,-0.00000153,-0.00003701,-0.00459
 967,-0.00044637,0.00220431,0.00014014,-0.00011894,0.00139621,0.0043763
 3,-0.00212286,0.02818380,0.00124500,0.00017160,-0.00074623,-0.05945242
 ,-0.00061282,0.00263302,0.05757160,-0.00003466,-0.00060972,-0.00015624
 ,-0.00038974,0.00728309,0.00060250,0.00001591,-0.00007843,0.00004171,0
 .00028098,0.00400787,0.00157971,0.00009964,-0.00414076,-0.00038419,-0.
 00059892,-0.04143662,0.02326665,0.00086094,0.02869206,-0.00001767,-0.0
 0004405,0.00051677,0.00272216,0.00057534,0.00056980,-0.00020828,0.0000
 3983,-0.00057164,-0.00227848,0.00101014,-0.00963322,-0.00004096,-0.000
 36844,0.00072904,0.00263869,0.02323979,-0.34911673,-0.00279159,-0.0256
 0028,0.36708690,0.03726449,-0.00292905,0.02870804,-0.02058644,0.001810
 29,-0.03385619,0.00022196,0.00009478,-0.00055770,-0.05797406,-0.003355
 48,0.02692750,-0.00291886,-0.00042659,0.00308744,-0.29490955,0.0049658
 7,-0.13245274,0.00490343,-0.00029781,0.00253623,0.74313224,-0.00582967
 ,0.00729722,0.00285487,0.00239416,-0.00645841,0.00351567,0.00007347,-0
 .00094066,-0.00000098,0.00087525,0.00762075,-0.00468063,-0.00048121,0.
 00730497,0.00069554,-0.00100130,-0.06637078,0.00626686,0.00212172,0.00
 416646,0.00115399,0.01653194,0.14365560,0.08872120,0.00422207,-0.02539
 491,-0.03535605,0.00232821,-0.06096664,-0.00075154,-0.00003528,-0.0007
 5391,-0.02968885,-0.00574300,0.07449141,0.00375983,0.00074055,-0.00110
 947,-0.05792167,0.00815972,-0.18908897,-0.02790757,0.00041116,-0.01022
 473,-0.03104003,-0.04253013,0.69528765,0.00150600,-0.00011709,-0.00046
 332,0.00004620,0.00007690,-0.00068839,-0.00000104,0.00001448,0.0001565
 7,-0.00277227,0.00003819,-0.00383951,-0.00095480,-0.00007683,0.0008024
 9,-0.01750582,-0.00163201,0.01478173,0.00122856,0.00013043,0.00006973,
 -0.28067349,-0.01540850,0.12363828,0.29397697,-0.00001676,0.00725796,0
 .00080769,0.00016144,-0.00105531,-0.00008310,-0.00000225,-0.00113076,-
 0.00008347,-0.00002215,0.00753034,0.00062233,0.00003762,-0.00000026,-0
 .00001799,0.00081005,0.00419595,-0.00021790,0.00006302,-0.00426048,-0.
 00037901,-0.01546690,-0.04037992,0.00957693,0.01663604,0.02794895,-0.0
 0079130,0.00122299,-0.00551352,-0.00069634,-0.00004351,-0.00073218,0.0
 0013263,-0.00008876,0.00014564,-0.00315421,0.00059246,-0.00124050,-0.0
 0083112,-0.00005110,0.00046800,-0.01572179,-0.00095635,0.01210754,0.00
 076340,-0.00036356,0.00075948,0.12375303,0.00949405,-0.12766206,-0.132
 00672,-0.01098842,0.13091371,-0.29507996,-0.01241906,0.11951208,-0.057
 39741,0.00030532,-0.02879704,-0.00270770,-0.00004347,-0.00319611,-0.02
 175399,-0.00299438,0.03581205,0.00002341,-0.00009363,0.00071755,0.0431
 2444,0.00303478,-0.02753142,-0.00453024,-0.00011396,-0.00287091,-0.130
 89360,0.00172641,-0.03778332,0.00445548,-0.00223064,0.02769323,0.73460
 529,-0.00958696,-0.06417439,0.01142744,-0.00306835,0.00931187,-0.00418
 115,0.00015927,0.00666338,0.00043303,-0.00247820,-0.00677499,0.0037404
 3,-0.00002651,-0.00094881,-0.00000212,0.00586545,0.00732906,0.00197815
 ,-0.00007884,0.00752575,0.00047011,-0.00347123,-0.06707488,0.02180457,
 0.00022649,0.00390891,0.00179572,0.01019282,0.14236870,0.05659544,0.01
 090916,-0.16621304,0.02693072,-0.00301698,0.07075299,-0.00383276,0.000
 46370,-0.00169834,0.03465044,0.00477311,-0.05970703,0.00072361,-0.0000
 2585,-0.00071018,-0.08481290,0.00042137,-0.02634601,-0.00232585,0.0005
 9346,0.00047503,0.03927845,0.02242412,-0.34618875,-0.00241117,0.000955
 30,-0.01075006,0.04052388,-0.04316544,0.69628172,-0.01850036,0.0003644
 7,-0.01318766,-0.00285511,-0.00055459,0.00369927,-0.00080417,0.0000332
 3,-0.00079800,0.00017259,-0.00002181,0.00078309,0.00000866,0.00004402,
 -0.00013373,0.00145160,-0.00026537,0.00099985,0.00019251,-0.00000030,0
 .00023970,0.00581475,-0.00019953,0.00247691,0.00052519,0.00016227,-0.0
 0027912,-0.27499817,0.00417761,-0.12859160,0.28919166,-0.00141655,0.00
 359155,-0.00125798,-0.00042865,0.00662288,0.00061180,-0.00008207,0.000
 27579,-0.00001331,-0.00006166,-0.00098683,0.00003645,0.00003247,-0.001
 08134,-0.00009305,-0.00020140,0.00744925,0.00104749,0.00011704,-0.0000
 5664,0.00004897,0.00218908,0.00440935,0.00108991,0.00007631,-0.0042918
 0,-0.00044850,0.00330117,-0.03906440,0.00436535,-0.00367741,0.02666584
 ,0.01207871,-0.00044933,0.01195122,0.00325108,0.00060940,-0.00160372,0
 .00078982,0.00003418,0.00063962,0.00058278,0.00001372,-0.00071461,-0.0
 0014475,-0.00009057,0.00012352,0.00140985,0.00093277,-0.00503266,-0.00
 132290,-0.00002309,-0.00056329,-0.02679054,0.00054093,-0.01020514,0.00
 031583,-0.00038131,0.00154019,-0.12929303,0.00411803,-0.13325156,0.138
 15556,-0.00516652,0.13872718,-0.06787402,-0.00252600,0.00139861,0.0077
 5739,0.00352782,-0.01881620,-0.00216401,0.00030519,-0.00121431,-0.0039
 0338,0.00054591,-0.00434728,0.00016641,-0.00008897,-0.00119658,-0.0037
 6507,-0.00012594,0.00003291,-0.00009837,0.00001296,-0.00003821,-0.0039
 0284,-0.00057072,0.00364040,0.00018272,0.00005541,0.00106880,0.0073647
 2,-0.00268541,0.01738608,-0.00289963,-0.00014931,0.00094881,0.79263513
 ,-0.00384709,-0.05231037,0.01082325,0.00178289,-0.00078101,-0.00055016
 ,0.00048097,-0.00248651,-0.00026891,-0.00033772,0.00567106,-0.00104323
 ,-0.00008026,0.00026958,-0.00036970,-0.00019694,-0.00058816,-0.0000559
 7,0.00003774,-0.00088573,-0.00018923,-0.00022874,0.00614146,-0.0005922
 4,0.00011375,0.00020815,-0.00023490,-0.00084381,0.00016977,0.00116492,
 -0.00023498,-0.00282328,-0.00023991,0.00003831,0.65107473,0.00322939,0
 .01920725,-0.15997834,-0.01325699,0.00148499,-0.01311874,0.00167024,-0
 .00020283,-0.00126587,0.00037635,-0.00013513,0.00516684,0.00075085,0.0
 0002965,0.00189892,0.00058991,-0.00030138,0.00284212,-0.00003607,-0.00
 012916,0.00060688,-0.00138867,-0.00003183,0.00406041,-0.00079675,0.000
 00722,0.00189676,0.01366146,0.00117147,-0.01129499,-0.00210435,-0.0002
 1384,-0.00064389,0.02676600,0.02870321,0.48211440,-0.01251754,-0.00750
 614,0.00165299,0.00293152,0.00039569,-0.00621675,0.00043956,-0.0002591
 5,0.00039873,-0.00169094,0.00036666,0.00009549,-0.00001989,0.00011819,
 -0.00071332,0.00031575,-0.00002200,-0.00037357,0.00016031,-0.00007576,
 -0.00009597,0.00161287,0.00053268,-0.00037533,0.00008593,0.00002131,-0
 .00042058,-0.00306027,0.00059848,0.00104629,0.00205240,-0.00030895,0.0
 0055071,-0.37073728,-0.09177456,-0.11040736,0.43845187,-0.00220280,0.0
 0542483,0.00314871,0.00025092,0.00132207,-0.00178271,0.00004526,0.0001
 3051,-0.00002681,-0.00065726,-0.00047374,0.00053656,0.00000677,-0.0001
 4351,-0.00013230,0.00050231,0.00005639,-0.00006356,0.00001961,0.000035
 79,-0.00001628,0.00000571,-0.00025196,-0.00043739,0.00000489,0.0000333
 3,-0.00006026,-0.00035160,0.00044464,0.00084745,0.00005972,-0.00009842
 ,0.00017689,-0.09006531,-0.09573691,-0.03347803,0.11836716,0.10700278,
 -0.03225257,-0.01001444,-0.00462351,0.00567842,0.00003769,-0.00767311,
 -0.00025951,-0.00028137,0.00043194,-0.00275171,0.00087756,-0.00150155,
 -0.00004465,0.00015309,-0.00107857,-0.00071393,-0.00001795,-0.00094036
 ,-0.00004603,-0.00001764,-0.00026480,-0.00058405,0.00025389,0.00026124
 ,0.00020036,-0.00001692,-0.00039526,-0.00005488,-0.00009428,-0.0026016
 1,-0.00177965,-0.00012163,-0.00149453,-0.10930806,-0.03296000,-0.11916
 979,0.13163531,0.04005650,0.11262163,-0.00642797,0.01313210,-0.0001255
 6,-0.00252560,-0.00148170,0.00042785,0.00146355,0.00056895,-0.00017204
 ,0.00124579,-0.00090100,0.00052504,0.00007794,-0.00002516,0.00043228,0
 .00030406,0.00010048,0.00051870,0.00010608,0.00018825,0.00012048,-0.00
 101623,-0.00102910,-0.00004067,-0.00006540,-0.00009113,0.00057003,0.00
 192832,-0.00028870,0.00477805,0.00044230,0.00061899,-0.00032827,-0.252
 72302,0.15019487,0.08026878,-0.03914761,0.02270549,0.00800011,0.291123
 83,0.00870443,0.00243270,0.00398102,0.00057037,0.00088471,0.00007852,-
 0.00005150,-0.00012853,0.00023044,-0.00013886,-0.00013051,-0.00037138,
 -0.00005887,0.00001789,-0.00021311,-0.00042501,-0.00002143,-0.00041021
 ,-0.00003905,0.00001882,-0.00008168,0.00137157,-0.00025590,0.00034997,
 0.00002183,0.00002480,-0.00043204,-0.00145698,0.00070211,-0.00457443,-
 0.00016694,0.00005189,0.00004422,0.15297031,-0.19318499,-0.06549275,-0
 .00361544,0.00883874,-0.00147738,-0.19042918,0.21296396,0.02783609,-0.
 01924220,-0.00545434,0.00081341,-0.00081819,-0.00270642,0.00101053,-0.
 00027979,-0.00045131,-0.00003514,0.00050340,0.00073191,-0.00019788,-0.
 00003119,-0.00044414,0.00111173,-0.00003787,-0.00110373,0.00004212,-0.
 00008968,-0.00024415,0.00193112,0.00183141,-0.00173206,0.00009291,0.00
 025497,-0.00099490,-0.00535266,-0.00108628,-0.00625575,0.00027893,-0.0
 0063129,0.00033012,0.07975023,-0.06510217,-0.11237512,-0.00840389,0.00
 215116,0.01396571,-0.09842803,0.07696683,0.10204593,0.01022187,-0.0025
 7219,-0.00053880,-0.00133223,-0.00045986,0.00099473,0.00012230,-0.0003
 4130,0.00010481,0.00005630,0.00028992,0.00128596,-0.00000187,0.0000787
 1,0.00022913,0.00118660,-0.00002246,0.00019280,0.00000957,-0.00008449,
 0.00003039,-0.00005147,0.00044314,-0.00108260,-0.00004810,-0.00009545,
 -0.00002669,-0.00072141,0.00019000,0.00023019,0.00018796,-0.00007903,-
 0.00018925,-0.08782796,-0.06444722,0.00610402,-0.02122407,-0.04692165,
 0.00278500,0.00445808,0.02994589,-0.00093728,0.47422094,-0.00331055,-0
 .00995776,-0.00300911,-0.00195059,0.00010999,0.00294155,-0.00004723,-0
 .00051457,-0.00027331,0.00069861,0.00106830,0.00049310,0.00011929,-0.0
 0001371,0.00052615,-0.00017316,-0.00026613,0.00076185,0.00001992,-0.00
 026244,0.00015959,-0.00090229,0.00112381,0.00085517,-0.00011243,0.0000
 3406,0.00062008,0.00219886,-0.00058976,0.00412191,0.00025741,-0.000636
 62,-0.00011952,-0.02099108,-0.28932900,0.05789376,-0.01236606,-0.02097
 858,0.00173531,0.00531519,-0.03865341,0.00353778,0.14554172,0.40302519
 ,0.00755619,0.02405127,0.00084179,0.00210287,0.00119392,-0.00174911,-0
 .00027260,0.00040428,0.00022565,-0.00028205,-0.00143939,0.00049061,-0.
 00017589,0.00004877,-0.00039234,0.00082321,0.00024937,-0.00130922,-0.0
 0000687,0.00027374,-0.00013669,0.00036744,-0.00195596,-0.00125028,0.00
 015416,-0.00008319,-0.00060106,-0.00346652,0.00157214,-0.00265879,0.00
 020218,0.00086304,0.00014208,-0.00333449,0.05250565,-0.07553300,-0.008
 16715,-0.01215024,0.00652551,0.00231083,-0.01043181,0.01511520,0.08631
 488,-0.04518842,0.09011565,0.00119892,0.00084196,0.00028944,0.00017032
 ,0.00014475,-0.00030722,0.00000848,-0.00009542,0.00012690,-0.00008880,
 -0.00005217,0.00034575,-0.00001884,0.00000828,-0.00002578,0.00029622,0
 .00005615,-0.00013333,0.00000433,0.00000653,-0.00001531,-0.00002319,-0
 .00017874,-0.00028901,0.00001388,-0.00002187,-0.00005326,-0.00035889,0
 .00027408,-0.00016888,0.00001780,0.00006997,-0.00001440,-0.01221078,0.
 00934279,-0.00542684,0.00234739,-0.00176921,-0.00050415,0.00075588,0.0
 0279743,0.00048778,-0.37925652,-0.11429762,-0.08412618,0.38714379,0.00
 172528,-0.00032510,0.00027119,-0.00014591,-0.00001471,0.00024688,0.000
 21286,-0.00011029,0.00010038,0.00004089,-0.00001407,0.00010901,-0.0000
 1999,0.00000685,-0.00001119,0.00014753,0.00001066,-0.00010037,0.000008
 82,0.00000097,-0.00001879,0.00010885,0.00001289,-0.00020021,0.00000755
 ,-0.00002393,-0.00005789,-0.00021182,0.00020303,-0.00025716,0.00002220
 ,-0.00002721,0.00000010,-0.04025318,-0.02540879,-0.00851258,-0.0044721
 2,-0.00560595,0.00188757,0.00142166,0.00643914,0.00207313,-0.06146573,
 -0.04415939,-0.00991317,0.10287310,0.06901589,-0.00264234,-0.00111663,
 -0.00022664,0.00007475,0.00011596,-0.00012264,-0.00010004,0.00019582,-
 0.00006038,0.00005539,-0.00006276,-0.00054303,0.00001983,-0.00003332,-
 0.00001622,-0.00046086,0.00000894,0.00012854,-0.00000274,-0.00000507,0
 .00001135,0.00008066,0.00016820,0.00047621,-0.00000621,0.00002687,0.00
 005823,0.00042564,0.00001818,0.00016636,0.00003862,-0.00011691,0.00005
 547,0.00726330,0.00840939,-0.00520659,-0.00020560,0.00123033,0.0059370
 7,0.00114241,0.00183377,-0.00042695,-0.09549728,-0.02505588,-0.0298260
 0,0.08981448,0.01438310,0.02959520\\-0.00008073,0.00001061,-0.00000430
 ,0.00005080,-0.00002577,0.00005016,-0.00000833,0.00001556,-0.00000195,
 0.00002446,0.00000520,-0.00004926,-0.00000092,0.00000242,0.00000805,-0
 .00004691,-0.00000118,-0.00000209,0.00000599,-0.00001548,-0.00000162,0
 .00002919,-0.00000709,0.00003422,-0.00000051,-0.00000489,-0.00000189,0
 .00002145,-0.00001331,-0.00002476,0.00000362,0.00000274,-0.00000571,-0
 .00003700,-0.00009033,-0.00002499,-0.00002648,-0.00002683,0.00001384,0
 .00000218,0.00004473,0.00001210,0.00004390,0.00007745,-0.00001921,0.00
 001929,0.00002618,0.00001740\\\@
 The archive entry for this job was punched.


 Until you make peace with who you are,
 you'll never be content with what you have.
                           -- Doris Mortman
 Job cpu time:       0 days  0 hours 39 minutes 34.5 seconds.
 Elapsed time:       0 days  0 hours  2 minutes 32.9 seconds.
 File lengths (MBytes):  RWF=    119 Int=      0 D2E=      0 Chk=      9 Scr=      1
 Normal termination of Gaussian 16 at Thu May 19 13:21:30 2022.
