 Entering Gaussian System, Link 0=g16
 AtFile(1): /home/561/yj5695/Basis/6-31pGd.gbs
 Initial command:
 /apps/gaussian/g16c01/g16/l1.exe "/jobfs/48676083.gadi-pbs/Gau-169931.inp" -scrdir="/jobfs/48676083.gadi-pbs/"
 Entering Link 1 = /apps/gaussian/g16c01/g16/l1.exe PID=    169932.
  
 Copyright (c) 1988-2019, Gaussian, Inc.  All Rights Reserved.
  
 This is part of the Gaussian(R) 16 program.  It is based on
 the Gaussian(R) 09 system (copyright 2009, Gaussian, Inc.),
 the Gaussian(R) 03 system (copyright 2003, Gaussian, Inc.),
 the Gaussian(R) 98 system (copyright 1998, Gaussian, Inc.),
 the Gaussian(R) 94 system (copyright 1995, Gaussian, Inc.),
 the Gaussian 92(TM) system (copyright 1992, Gaussian, Inc.),
 the Gaussian 90(TM) system (copyright 1990, Gaussian, Inc.),
 the Gaussian 88(TM) system (copyright 1988, Gaussian, Inc.),
 the Gaussian 86(TM) system (copyright 1986, Carnegie Mellon
 University), and the Gaussian 82(TM) system (copyright 1983,
 Carnegie Mellon University). Gaussian is a federally registered
 trademark of Gaussian, Inc.
  
 This software contains proprietary and confidential information,
 including trade secrets, belonging to Gaussian, Inc.
  
 This software is provided under written license and may be
 used, copied, transmitted, or stored only in accord with that
 written license.
  
 The following legend is applicable only to US Government
 contracts under FAR:
  
                    RESTRICTED RIGHTS LEGEND
  
 Use, reproduction and disclosure by the US Government is
 subject to restrictions as set forth in subparagraphs (a)
 and (c) of the Commercial Computer Software - Restricted
 Rights clause in FAR 52.227-19.
  
 Gaussian, Inc.
 340 Quinnipiac St., Bldg. 40, Wallingford CT 06492
  
  
 ---------------------------------------------------------------
 Warning -- This program may not be used in any manner that
 competes with the business of Gaussian, Inc. or will provide
 assistance to any competitor of Gaussian, Inc.  The licensee
 of this program is prohibited from giving any competitor of
 Gaussian, Inc. access to this program.  By using this program,
 the user acknowledges that Gaussian, Inc. is engaged in the
 business of creating and licensing software in the field of
 computational chemistry and represents and warrants to the
 licensee that it is not a competitor of Gaussian, Inc. and that
 it will not use this program in any manner prohibited above.
 ---------------------------------------------------------------
  

 Cite this work as:
 Gaussian 16, Revision C.01,
 M. J. Frisch, G. W. Trucks, H. B. Schlegel, G. E. Scuseria, 
 M. A. Robb, J. R. Cheeseman, G. Scalmani, V. Barone, 
 G. A. Petersson, H. Nakatsuji, X. Li, M. Caricato, A. V. Marenich, 
 J. Bloino, B. G. Janesko, R. Gomperts, B. Mennucci, H. P. Hratchian, 
 J. V. Ortiz, A. F. Izmaylov, J. L. Sonnenberg, D. Williams-Young, 
 F. Ding, F. Lipparini, F. Egidi, J. Goings, B. Peng, A. Petrone, 
 T. Henderson, D. Ranasinghe, V. G. Zakrzewski, J. Gao, N. Rega, 
 G. Zheng, W. Liang, M. Hada, M. Ehara, K. Toyota, R. Fukuda, 
 J. Hasegawa, M. Ishida, T. Nakajima, Y. Honda, O. Kitao, H. Nakai, 
 T. Vreven, K. Throssell, J. A. Montgomery, Jr., J. E. Peralta, 
 F. Ogliaro, M. J. Bearpark, J. J. Heyd, E. N. Brothers, K. N. Kudin, 
 V. N. Staroverov, T. A. Keith, R. Kobayashi, J. Normand, 
 K. Raghavachari, A. P. Rendell, J. C. Burant, S. S. Iyengar, 
 J. Tomasi, M. Cossi, J. M. Millam, M. Klene, C. Adamo, R. Cammi, 
 J. W. Ochterski, R. L. Martin, K. Morokuma, O. Farkas, 
 J. B. Foresman, and D. J. Fox, Gaussian, Inc., Wallingford CT, 2019.
 
 ******************************************
 Gaussian 16:  ES64L-G16RevC.01  3-Jul-2019
                29-Jun-2022 
 ******************************************
 %nproc=16
 Will use up to   16 processors via shared memory.
 %mem=50gb
 -----------------------------------------------------
 #m062X/gen 6D OPT Freq=noraman SCRF=(SMD,Solvent=h2o)
 -----------------------------------------------------
 1/18=20,19=15,26=3,38=1/1,3;
 2/9=110,12=2,17=6,18=5,40=1/2;
 3/5=7,8=2,11=2,25=1,30=1,70=32201,71=1,72=1,74=-55/1,2,3;
 4//1;
 5/5=2,38=5,53=1/2;
 6/7=2,8=2,9=2,10=2,28=1/1;
 7//1,2,3,16;
 1/18=20,19=15,26=3/3(2);
 2/9=110/2;
 99//99;
 2/9=110/2;
 3/5=7,6=1,8=2,11=2,25=1,30=1,70=32205,71=1,72=1,74=-55,82=7/1,2,3;
 4/5=5,16=3,69=1/1;
 5/5=2,38=5,53=1/2;
 7//1,2,3,16;
 1/18=20,19=15,26=3/3(-5);
 2/9=110/2;
 6/7=2,8=2,9=2,10=2,19=2,28=1/1;
 99/9=1/99;
 -----------------
 A.10.smd.a2b3.smd
 -----------------
 Symbolic Z-matrix:
 Charge = -1 Multiplicity = 1
 C                    -1.38871   0.73876  -1.02058 
 C                    -2.40034   1.23628  -1.83443 
 H                    -3.35996   1.50495  -1.40389 
 C                    -2.19407   1.38789  -3.2059 
 H                    -2.99983   1.77203  -3.82242 
 C                    -0.95621   1.05315  -3.78038 
 N                    -0.69822   1.24082  -5.1258 
 C                     0.06025   0.54416  -2.94169 
 H                     1.01899   0.27326  -3.37746 
 C                    -0.15496   0.38913  -1.58402 
 H                     0.63735  -0.00949  -0.95518 
 S                    -1.60683   0.55413   0.74795 
 O                    -1.26836  -0.87171   1.03897 
 O                    -0.62813   1.51785   1.34295 
 N                    -3.1033    0.79351   1.14083 
 H                    -3.68255   0.19904   0.54147 
 C                    -1.79959   1.40179  -6.0607 
 H                     0.0642    0.67076  -5.47499 
 H                    -2.29882   2.36233  -5.906 
 H                    -2.54836   0.60292  -5.96976 
 H                    -1.39478   1.39085  -7.0731 
 

 GradGradGradGradGradGradGradGradGradGradGradGradGradGradGradGradGradGrad
 Berny optimization.
 Initialization pass.
                           ----------------------------
                           !    Initial Parameters    !
                           ! (Angstroms and Degrees)  !
 --------------------------                            --------------------------
 ! Name  Definition              Value          Derivative Info.                !
 --------------------------------------------------------------------------------
 ! R1    R(1,2)                  1.3904         estimate D2E/DX2                !
 ! R2    R(1,10)                 1.4007         estimate D2E/DX2                !
 ! R3    R(1,12)                 1.7915         estimate D2E/DX2                !
 ! R4    R(2,3)                  1.0856         estimate D2E/DX2                !
 ! R5    R(2,4)                  1.3952         estimate D2E/DX2                !
 ! R6    R(4,5)                  1.0849         estimate D2E/DX2                !
 ! R7    R(4,6)                  1.4051         estimate D2E/DX2                !
 ! R8    R(6,7)                  1.3827         estimate D2E/DX2                !
 ! R9    R(6,8)                  1.4127         estimate D2E/DX2                !
 ! R10   R(7,17)                 1.4536         estimate D2E/DX2                !
 ! R11   R(7,18)                 1.014          estimate D2E/DX2                !
 ! R12   R(8,9)                  1.0874         estimate D2E/DX2                !
 ! R13   R(8,10)                 1.3833         estimate D2E/DX2                !
 ! R14   R(10,11)                1.0872         estimate D2E/DX2                !
 ! R15   R(12,13)                1.4941         estimate D2E/DX2                !
 ! R16   R(12,14)                1.4969         estimate D2E/DX2                !
 ! R17   R(12,15)                1.5656         estimate D2E/DX2                !
 ! R18   R(15,16)                1.0238         estimate D2E/DX2                !
 ! R19   R(17,19)                1.0935         estimate D2E/DX2                !
 ! R20   R(17,20)                1.0987         estimate D2E/DX2                !
 ! R21   R(17,21)                1.0904         estimate D2E/DX2                !
 ! A1    A(2,1,10)             119.6521         estimate D2E/DX2                !
 ! A2    A(2,1,12)             121.7439         estimate D2E/DX2                !
 ! A3    A(10,1,12)            118.5962         estimate D2E/DX2                !
 ! A4    A(1,2,3)              119.9724         estimate D2E/DX2                !
 ! A5    A(1,2,4)              120.4443         estimate D2E/DX2                !
 ! A6    A(3,2,4)              119.5826         estimate D2E/DX2                !
 ! A7    A(2,4,5)              119.1641         estimate D2E/DX2                !
 ! A8    A(2,4,6)              120.4152         estimate D2E/DX2                !
 ! A9    A(5,4,6)              120.4201         estimate D2E/DX2                !
 ! A10   A(4,6,7)              121.9954         estimate D2E/DX2                !
 ! A11   A(4,6,8)              118.4886         estimate D2E/DX2                !
 ! A12   A(7,6,8)              119.4932         estimate D2E/DX2                !
 ! A13   A(6,7,17)             119.9649         estimate D2E/DX2                !
 ! A14   A(6,7,18)             113.52           estimate D2E/DX2                !
 ! A15   A(17,7,18)            114.2341         estimate D2E/DX2                !
 ! A16   A(6,8,9)              119.0929         estimate D2E/DX2                !
 ! A17   A(6,8,10)             120.738          estimate D2E/DX2                !
 ! A18   A(9,8,10)             120.1691         estimate D2E/DX2                !
 ! A19   A(1,10,8)             120.2558         estimate D2E/DX2                !
 ! A20   A(1,10,11)            120.0499         estimate D2E/DX2                !
 ! A21   A(8,10,11)            119.6938         estimate D2E/DX2                !
 ! A22   A(1,12,13)            105.252          estimate D2E/DX2                !
 ! A23   A(1,12,14)            104.2673         estimate D2E/DX2                !
 ! A24   A(1,12,15)            110.3864         estimate D2E/DX2                !
 ! A25   A(13,12,14)           112.8842         estimate D2E/DX2                !
 ! A26   A(13,12,15)           108.2751         estimate D2E/DX2                !
 ! A27   A(14,12,15)           115.2626         estimate D2E/DX2                !
 ! A28   A(12,15,16)           107.7646         estimate D2E/DX2                !
 ! A29   A(7,17,19)            110.6217         estimate D2E/DX2                !
 ! A30   A(7,17,20)            112.496          estimate D2E/DX2                !
 ! A31   A(7,17,21)            108.3467         estimate D2E/DX2                !
 ! A32   A(19,17,20)           108.4113         estimate D2E/DX2                !
 ! A33   A(19,17,21)           108.0382         estimate D2E/DX2                !
 ! A34   A(20,17,21)           108.8178         estimate D2E/DX2                !
 ! D1    D(10,1,2,3)           179.7429         estimate D2E/DX2                !
 ! D2    D(10,1,2,4)             0.0443         estimate D2E/DX2                !
 ! D3    D(12,1,2,3)            -1.2835         estimate D2E/DX2                !
 ! D4    D(12,1,2,4)           179.0179         estimate D2E/DX2                !
 ! D5    D(2,1,10,8)             0.3523         estimate D2E/DX2                !
 ! D6    D(2,1,10,11)         -179.4122         estimate D2E/DX2                !
 ! D7    D(12,1,10,8)         -178.6536         estimate D2E/DX2                !
 ! D8    D(12,1,10,11)           1.5819         estimate D2E/DX2                !
 ! D9    D(2,1,12,13)          125.9703         estimate D2E/DX2                !
 ! D10   D(2,1,12,14)         -115.0021         estimate D2E/DX2                !
 ! D11   D(2,1,12,15)            9.3499         estimate D2E/DX2                !
 ! D12   D(10,1,12,13)         -55.0456         estimate D2E/DX2                !
 ! D13   D(10,1,12,14)          63.982          estimate D2E/DX2                !
 ! D14   D(10,1,12,15)        -171.666          estimate D2E/DX2                !
 ! D15   D(1,2,4,5)            179.6115         estimate D2E/DX2                !
 ! D16   D(1,2,4,6)             -0.6842         estimate D2E/DX2                !
 ! D17   D(3,2,4,5)             -0.0883         estimate D2E/DX2                !
 ! D18   D(3,2,4,6)            179.6161         estimate D2E/DX2                !
 ! D19   D(2,4,6,7)           -177.3438         estimate D2E/DX2                !
 ! D20   D(2,4,6,8)              0.9092         estimate D2E/DX2                !
 ! D21   D(5,4,6,7)              2.3568         estimate D2E/DX2                !
 ! D22   D(5,4,6,8)           -179.3903         estimate D2E/DX2                !
 ! D23   D(4,6,7,17)           -18.7925         estimate D2E/DX2                !
 ! D24   D(4,6,7,18)          -158.9358         estimate D2E/DX2                !
 ! D25   D(8,6,7,17)           162.9716         estimate D2E/DX2                !
 ! D26   D(8,6,7,18)            22.8283         estimate D2E/DX2                !
 ! D27   D(4,6,8,9)            179.4392         estimate D2E/DX2                !
 ! D28   D(4,6,8,10)            -0.5151         estimate D2E/DX2                !
 ! D29   D(7,6,8,9)             -2.2631         estimate D2E/DX2                !
 ! D30   D(7,6,8,10)           177.7826         estimate D2E/DX2                !
 ! D31   D(6,7,17,19)           69.8339         estimate D2E/DX2                !
 ! D32   D(6,7,17,20)          -51.5716         estimate D2E/DX2                !
 ! D33   D(6,7,17,21)         -171.9135         estimate D2E/DX2                !
 ! D34   D(18,7,17,19)        -150.2879         estimate D2E/DX2                !
 ! D35   D(18,7,17,20)          88.3066         estimate D2E/DX2                !
 ! D36   D(18,7,17,21)         -32.0353         estimate D2E/DX2                !
 ! D37   D(6,8,10,1)            -0.111          estimate D2E/DX2                !
 ! D38   D(6,8,10,11)          179.6543         estimate D2E/DX2                !
 ! D39   D(9,8,10,1)           179.9352         estimate D2E/DX2                !
 ! D40   D(9,8,10,11)           -0.2995         estimate D2E/DX2                !
 ! D41   D(1,12,15,16)          51.5175         estimate D2E/DX2                !
 ! D42   D(13,12,15,16)        -63.2082         estimate D2E/DX2                !
 ! D43   D(14,12,15,16)        169.2982         estimate D2E/DX2                !
 --------------------------------------------------------------------------------
 Trust Radius=3.00D-01 FncErr=1.00D-07 GrdErr=1.00D-06 EigMax=2.50D+02 EigMin=1.00D-04
 Number of steps in this run=    108 maximum allowed number of steps=    126.
 GradGradGradGradGradGradGradGradGradGradGradGradGradGradGradGradGradGrad

                          Input orientation:                          
 ---------------------------------------------------------------------
 Center     Atomic      Atomic             Coordinates (Angstroms)
 Number     Number       Type             X           Y           Z
 ---------------------------------------------------------------------
      1          6           0       -1.388708    0.738760   -1.020582
      2          6           0       -2.400338    1.236275   -1.834429
      3          1           0       -3.359959    1.504954   -1.403886
      4          6           0       -2.194065    1.387889   -3.205904
      5          1           0       -2.999831    1.772034   -3.822423
      6          6           0       -0.956212    1.053150   -3.780377
      7          7           0       -0.698220    1.240819   -5.125795
      8          6           0        0.060247    0.544159   -2.941687
      9          1           0        1.018990    0.273256   -3.377464
     10          6           0       -0.154960    0.389133   -1.584018
     11          1           0        0.637354   -0.009487   -0.955181
     12         16           0       -1.606826    0.554125    0.747949
     13          8           0       -1.268355   -0.871709    1.038973
     14          8           0       -0.628128    1.517846    1.342950
     15          7           0       -3.103304    0.793512    1.140827
     16          1           0       -3.682550    0.199036    0.541467
     17          6           0       -1.799585    1.401790   -6.060696
     18          1           0        0.064199    0.670759   -5.474988
     19          1           0       -2.298824    2.362331   -5.905998
     20          1           0       -2.548364    0.602916   -5.969762
     21          1           0       -1.394781    1.390849   -7.073104
 ---------------------------------------------------------------------
                    Distance matrix (angstroms):
                    1          2          3          4          5
     1  C    0.000000
     2  C    1.390418   0.000000
     3  H    2.149373   1.085554   0.000000
     4  C    2.417768   1.395163   2.149484   0.000000
     5  H    3.393182   2.144423   2.459745   1.084860   0.000000
     6  C    2.811114   2.430175   3.410255   1.405115   2.166781
     7  N    4.193043   3.705444   4.583364   2.438271   2.697848
     8  C    2.414122   2.785592   3.871146   2.421490   3.412836
     9  H    3.401264   3.873005   4.958557   3.405226   4.312221
    10  C    1.400655   2.412898   3.398459   2.790336   3.875069
    11  H    2.160805   3.398908   4.298067   3.877544   4.962258
    12  S    1.791471   2.786336   2.933930   4.083254   4.930727
    13  O    2.617224   3.739174   3.998862   4.897112   5.798324
    14  O    2.602257   3.649075   3.874039   4.812600   5.689522
    15  N    2.759443   3.089069   2.654729   4.480410   5.059848
    16  H    2.827191   2.892199   2.365140   4.203778   4.688706
    17  C    5.100115   4.271959   4.912361   2.881952   2.566620
    18  H    4.685861   4.432541   5.384664   3.280667   3.651309
    19  H    5.227962   4.225634   4.704266   2.872459   2.276213
    20  H    5.085041   4.186172   4.724361   2.894930   2.486307
    21  H    6.087551   5.336549   6.001248   3.948937   3.645328
                    6          7          8          9         10
     6  C    0.000000
     7  N    1.382725   0.000000
     8  C    1.412679   2.414733   0.000000
     9  H    2.161480   2.634701   1.087418   0.000000
    10  C    2.430415   3.683027   1.383334   2.146633   0.000000
    11  H    3.413266   4.554234   2.141444   2.468409   1.087242
    12  S    4.601963   5.983141   4.048783   4.898248   2.751946
    13  O    5.198909   6.541574   4.428941   5.103705   3.115999
    14  O    5.154810   6.475054   4.447476   5.152117   3.172542
    15  N    5.375469   6.727188   5.170798   6.138316   4.034976
    16  H    5.180807   6.489175   5.124451   6.121112   4.122828
    17  C    2.456152   1.453601   3.731317   4.051875   4.875542
    18  H    2.014738   1.013996   2.536465   2.338641   3.907300
    19  H    2.834577   2.104386   4.202155   4.665363   5.212406
    20  H    2.744279   2.131252   3.997192   4.422070   5.000884
    21  H    3.338927   2.073576   4.461233   4.553357   5.715825
                   11         12         13         14         15
    11  H    0.000000
    12  S    2.873091   0.000000
    13  O    2.889949   1.494075   0.000000
    14  O    3.035720   1.496875   2.492442   0.000000
    15  N    4.362405   1.565601   2.479995   2.586892   0.000000
    16  H    4.576572   2.115976   2.687442   3.422153   1.023797
    17  C    5.830665   6.863916   7.473707   7.496650   7.343815
    18  H    4.606506   6.444445   6.825437   6.905154   7.336017
    19  H    6.225532   6.929898   7.730039   7.486763   7.264029
    20  H    5.972425   6.783547   7.275665   7.615784   7.134757
    21  H    6.596931   7.868541   8.422645   8.451855   8.410976
                   16         17         18         19         20
    16  H    0.000000
    17  C    6.969988   0.000000
    18  H    7.103406   2.085941   0.000000
    19  H    6.940054   1.093531   2.937867   0.000000
    20  H    6.621601   1.098699   2.659866   1.778167   0.000000
    21  H    8.039652   1.090393   2.280598   1.767260   1.780156
                   21
    21  H    0.000000
 Stoichiometry    C7H9N2O2S(1-)
 Framework group  C1[X(C7H9N2O2S)]
 Deg. of freedom    57
 Full point group                 C1      NOp   1
 Largest Abelian subgroup         C1      NOp   1
 Largest concise Abelian subgroup C1      NOp   1
                         Standard orientation:                         
 ---------------------------------------------------------------------
 Center     Atomic      Atomic             Coordinates (Angstroms)
 Number     Number       Type             X           Y           Z
 ---------------------------------------------------------------------
      1          6           0       -0.557430   -0.035256    0.017471
      2          6           0        0.246131    1.094777    0.120321
      3          1           0       -0.207610    2.078832    0.184987
      4          6           0        1.636058    0.974902    0.134906
      5          1           0        2.243204    1.870856    0.209489
      6          6           0        2.241720   -0.290779    0.060248
      7          7           0        3.613472   -0.451604    0.126277
      8          6           0        1.412452   -1.429219   -0.048981
      9          1           0        1.871051   -2.412875   -0.116704
     10          6           0        0.035225   -1.301259   -0.071008
     11          1           0       -0.586731   -2.188455   -0.161282
     12         16           0       -2.345432    0.076098    0.021532
     13          8           0       -2.786520   -0.638102   -1.214437
     14          8           0       -2.755961   -0.626692    1.277791
     15          7           0       -2.799036    1.570631   -0.086733
     16          1           0       -2.314132    1.987090   -0.886477
     17          6           0        4.490259    0.678597   -0.132268
     18          1           0        3.937513   -1.328259   -0.266991
     19          1           0        4.422995    1.411201    0.676791
     20          1           0        4.255839    1.184569   -1.078935
     21          1           0        5.517099    0.314066   -0.173173
 ---------------------------------------------------------------------
 Rotational constants (GHZ):           2.4207640           0.4118614           0.3802723
 General basis read from cards:  (6D, 7F)
 There are   250 symmetry adapted cartesian basis functions of A   symmetry.
 There are   250 symmetry adapted basis functions of A   symmetry.
   250 basis functions,   444 primitive gaussians,   250 cartesian basis functions
    49 alpha electrons       49 beta electrons
       nuclear repulsion energy       805.0993418551 Hartrees.
 NAtoms=   21 NActive=   21 NUniq=   21 SFac= 1.00D+00 NAtFMM=   60 NAOKFM=F Big=F
 Integral buffers will be    131072 words long.
 Raffenetti 2 integral format.
 Two-electron integral symmetry is turned on.
 ------------------------------------------------------------------------------
 Polarizable Continuum Model (PCM)
 =================================
 Model                : PCM.
 Atomic radii         : SMD-Coulomb.
 Polarization charges : Total charges.
 Charge compensation  : None.
 Solution method      : On-the-fly selection.
 Cavity type          : VdW (van der Waals Surface) (Alpha=1.000).
 Cavity algorithm     : GePol (No added spheres)
                        Default sphere list used, NSphG=   21.
                        Lebedev-Laikov grids with approx.  5.0 points / Ang**2.
                        Smoothing algorithm: York/Karplus (Gamma=1.0000).
                        Polarization charges: spherical gaussians, with
                                              point-specific exponents (IZeta= 3).
                        Self-potential: point-specific (ISelfS= 7).
                        Self-field    : sphere-specific E.n sum rule (ISelfD= 2).
 1st derivatives      : Analytical E(r).r(x)/FMM algorithm (CHGder, D1EAlg=3).
                        Cavity 1st derivative terms included.
 Solvent              : Water, Eps=  78.355300 Eps(inf)=   1.777849
 ------------------------------------------------------------------------------
 ------------------------------------------------------------------------------
 Atomic radii for non-electrostatic terms: SMD-CDS.
 ------------------------------------------------------------------------------
 Nuclear repulsion after PCM non-electrostatic terms =      805.1037249727 Hartrees.
 One-electron integrals computed using PRISM.
 NBasis=   250 RedAO= T EigKep=  1.72D-06  NBF=   250
 NBsUse=   250 1.00D-06 EigRej= -1.00D+00 NBFU=   250
 ExpMin= 4.05D-02 ExpMax= 2.19D+04 ExpMxC= 3.30D+03 IAcc=3 IRadAn=         5 AccDes= 0.00D+00
 Harris functional with IExCor= 1009 and IRadAn=       5 diagonalized for initial guess.
 HarFok:  IExCor= 1009 AccDes= 0.00D+00 IRadAn=         5 IDoV= 1 UseB2=F ITyADJ=14
 ICtDFT=  3500011 ScaDFX=  1.000000  1.000000  1.000000  1.000000
 FoFCou: FMM=F IPFlag=           0 FMFlag=      100000 FMFlg1=           0
         NFxFlg=           0 DoJE=T BraDBF=F KetDBF=T FulRan=T
         wScrn=  0.000000 ICntrl=       500 IOpCl=  0 I1Cent=   200000004 NGrid=           0
         NMat0=    1 NMatS0=      1 NMatT0=    0 NMatD0=    1 NMtDS0=    0 NMtDT0=    0
 Petite list used in FoFCou.
 Requested convergence on RMS density matrix=1.00D-08 within 128 cycles.
 Requested convergence on MAX density matrix=1.00D-06.
 Requested convergence on             energy=1.00D-06.
 No special actions if energy rises.
 Inv3:  Mode=1 IEnd=     8762043.
 Iteration    1 A*A^-1 deviation from unit magnitude is 3.77D-15 for   1692.
 Iteration    1 A*A^-1 deviation from orthogonality  is 2.10D-15 for   1690    411.
 Iteration    1 A^-1*A deviation from unit magnitude is 3.77D-15 for   1692.
 Iteration    1 A^-1*A deviation from orthogonality  is 4.37D-15 for   1674    481.
 Error on total polarization charges =  0.05799
 SCF Done:  E(RM062X) =  -930.145873115     A.U. after   15 cycles
            NFock= 15  Conv=0.88D-08     -V/T= 2.0065
 SMD-CDS (non-electrostatic) energy       (kcal/mol) =       2.75
 (included in total energy above)

 **********************************************************************

            Population analysis using the SCF Density.

 **********************************************************************

 Orbital symmetries:
       Occupied  (A) (A) (A) (A) (A) (A) (A) (A) (A) (A) (A) (A)
                 (A) (A) (A) (A) (A) (A) (A) (A) (A) (A) (A) (A)
                 (A) (A) (A) (A) (A) (A) (A) (A) (A) (A) (A) (A)
                 (A) (A) (A) (A) (A) (A) (A) (A) (A) (A) (A) (A)
                 (A)
       Virtual   (A) (A) (A) (A) (A) (A) (A) (A) (A) (A) (A) (A)
                 (A) (A) (A) (A) (A) (A) (A) (A) (A) (A) (A) (A)
                 (A) (A) (A) (A) (A) (A) (A) (A) (A) (A) (A) (A)
                 (A) (A) (A) (A) (A) (A) (A) (A) (A) (A) (A) (A)
                 (A) (A) (A) (A) (A) (A) (A) (A) (A) (A) (A) (A)
                 (A) (A) (A) (A) (A) (A) (A) (A) (A) (A) (A) (A)
                 (A) (A) (A) (A) (A) (A) (A) (A) (A) (A) (A) (A)
                 (A) (A) (A) (A) (A) (A) (A) (A) (A) (A) (A) (A)
                 (A) (A) (A) (A) (A) (A) (A) (A) (A) (A) (A) (A)
                 (A) (A) (A) (A) (A) (A) (A) (A) (A) (A) (A) (A)
                 (A) (A) (A) (A) (A) (A) (A) (A) (A) (A) (A) (A)
                 (A) (A) (A) (A) (A) (A) (A) (A) (A) (A) (A) (A)
                 (A) (A) (A) (A) (A) (A) (A) (A) (A) (A) (A) (A)
                 (A) (A) (A) (A) (A) (A) (A) (A) (A) (A) (A) (A)
                 (A) (A) (A) (A) (A) (A) (A) (A) (A) (A) (A) (A)
                 (A) (A) (A) (A) (A) (A) (A) (A) (A) (A) (A) (A)
                 (A) (A) (A) (A) (A) (A) (A) (A) (A)
 The electronic state is 1-A.
 Alpha  occ. eigenvalues --  -90.13060 -19.62298 -19.60791 -14.77173 -14.71185
 Alpha  occ. eigenvalues --  -10.59831 -10.56474 -10.56407 -10.56196 -10.56184
 Alpha  occ. eigenvalues --  -10.55185 -10.54950  -8.43962  -6.36192  -6.36093
 Alpha  occ. eigenvalues --   -6.36058  -1.20162  -1.08483  -1.04440  -0.96320
 Alpha  occ. eigenvalues --   -0.94726  -0.84963  -0.84574  -0.77224  -0.71581
 Alpha  occ. eigenvalues --   -0.68881  -0.65250  -0.61107  -0.58866  -0.54939
 Alpha  occ. eigenvalues --   -0.54049  -0.52437  -0.51479  -0.51028  -0.49154
 Alpha  occ. eigenvalues --   -0.48427  -0.46506  -0.44975  -0.43796  -0.41017
 Alpha  occ. eigenvalues --   -0.40166  -0.39274  -0.38197  -0.35968  -0.35009
 Alpha  occ. eigenvalues --   -0.33014  -0.31331  -0.28483  -0.25482
 Alpha virt. eigenvalues --    0.01641   0.01876   0.02158   0.03135   0.03955
 Alpha virt. eigenvalues --    0.04787   0.05048   0.05202   0.06167   0.06528
 Alpha virt. eigenvalues --    0.07280   0.07790   0.09372   0.09839   0.10583
 Alpha virt. eigenvalues --    0.11256   0.11771   0.13025   0.13389   0.13847
 Alpha virt. eigenvalues --    0.14490   0.14812   0.14928   0.15802   0.16344
 Alpha virt. eigenvalues --    0.16929   0.17743   0.17944   0.18372   0.19154
 Alpha virt. eigenvalues --    0.19870   0.20664   0.21246   0.22145   0.23091
 Alpha virt. eigenvalues --    0.23509   0.23835   0.24661   0.25013   0.25238
 Alpha virt. eigenvalues --    0.25558   0.26038   0.26463   0.26836   0.27587
 Alpha virt. eigenvalues --    0.27891   0.28078   0.28798   0.29353   0.29640
 Alpha virt. eigenvalues --    0.30675   0.30784   0.31094   0.32363   0.32889
 Alpha virt. eigenvalues --    0.33204   0.33881   0.34537   0.35806   0.36246
 Alpha virt. eigenvalues --    0.36975   0.37878   0.38963   0.40572   0.41090
 Alpha virt. eigenvalues --    0.42062   0.43991   0.44214   0.47400   0.51154
 Alpha virt. eigenvalues --    0.57871   0.60549   0.64048   0.65891   0.68994
 Alpha virt. eigenvalues --    0.69682   0.71379   0.72110   0.72350   0.73806
 Alpha virt. eigenvalues --    0.75667   0.76807   0.76994   0.78322   0.79363
 Alpha virt. eigenvalues --    0.80625   0.82869   0.84458   0.84677   0.91942
 Alpha virt. eigenvalues --    0.92510   0.94379   0.95527   0.98491   0.98612
 Alpha virt. eigenvalues --    0.99838   1.02100   1.02603   1.04880   1.07043
 Alpha virt. eigenvalues --    1.07135   1.08115   1.08794   1.09594   1.11009
 Alpha virt. eigenvalues --    1.12160   1.12492   1.14289   1.15621   1.17080
 Alpha virt. eigenvalues --    1.17636   1.19023   1.19871   1.21013   1.22595
 Alpha virt. eigenvalues --    1.23460   1.27113   1.30245   1.32243   1.34212
 Alpha virt. eigenvalues --    1.34690   1.36218   1.36822   1.39749   1.40733
 Alpha virt. eigenvalues --    1.41411   1.43076   1.44629   1.45703   1.49274
 Alpha virt. eigenvalues --    1.49890   1.51933   1.53424   1.55613   1.57898
 Alpha virt. eigenvalues --    1.59088   1.65062   1.65478   1.76417   1.81069
 Alpha virt. eigenvalues --    1.82118   1.83623   1.85027   1.88143   1.88440
 Alpha virt. eigenvalues --    1.89498   1.90222   1.92119   1.94308   1.96628
 Alpha virt. eigenvalues --    2.00385   2.01046   2.02006   2.05279   2.06085
 Alpha virt. eigenvalues --    2.08303   2.09636   2.13543   2.16321   2.17897
 Alpha virt. eigenvalues --    2.20111   2.21646   2.22396   2.23304   2.27256
 Alpha virt. eigenvalues --    2.29285   2.31511   2.34226   2.35876   2.37472
 Alpha virt. eigenvalues --    2.41104   2.44000   2.48344   2.55415   2.56986
 Alpha virt. eigenvalues --    2.61548   2.63652   2.67740   2.70826   2.73807
 Alpha virt. eigenvalues --    2.78966   2.80727   2.81220   2.88646   2.91070
 Alpha virt. eigenvalues --    2.96818   2.97993   3.17461   3.40123   4.04311
 Alpha virt. eigenvalues --    4.09760   4.10993   4.18150   4.28003   4.30698
 Alpha virt. eigenvalues --    4.36187   4.40424   4.42082   4.45098   4.50374
 Alpha virt. eigenvalues --    4.75274
          Condensed to atoms (all electrons):
               1          2          3          4          5          6
     1  C   17.295626  -2.342346  -0.017316  -1.423864   0.078432  -2.020005
     2  C   -2.342346  28.501935   0.286431  -8.630006   0.061289   0.634221
     3  H   -0.017316   0.286431   0.446287   0.082554  -0.003736  -0.003702
     4  C   -1.423864  -8.630006   0.082554  15.672750   0.243061  -0.422387
     5  H    0.078432   0.061289  -0.003736   0.243061   0.456017  -0.087733
     6  C   -2.020005   0.634221  -0.003702  -0.422387  -0.087733   7.776337
     7  N    0.008548  -0.112775  -0.000514  -0.254395  -0.009145   0.123740
     8  C   -0.607996   0.190046  -0.025472  -2.945698   0.036384   0.734193
     9  H    0.030879  -0.018708   0.000012   0.056703  -0.000107   0.019738
    10  C   -2.886517 -11.940567  -0.000773   2.477303  -0.012019  -0.667796
    11  H    0.110717   0.113178  -0.000125  -0.042114   0.000013  -0.010412
    12  S   -1.173747  -0.168547  -0.023376   0.088316   0.000772   0.005005
    13  O    0.161533   0.363218   0.000303   0.103103   0.000025  -0.018192
    14  O    0.112041   0.203102  -0.000811  -0.066287   0.000033   0.005759
    15  N   -0.186421  -0.159973   0.006965   0.208362   0.000455   0.028040
    16  H   -0.005679  -0.021758  -0.000364  -0.008829  -0.000000   0.000649
    17  C   -0.022218  -0.008033   0.001371   0.158697  -0.005639  -0.335112
    18  H    0.001931  -0.002805   0.000003   0.104891  -0.000092  -0.040233
    19  H    0.004999   0.017148   0.000001   0.099929  -0.002167  -0.116892
    20  H   -0.005569   0.015434   0.000001  -0.036017  -0.000923  -0.009371
    21  H   -0.000291   0.000149  -0.000000  -0.016809   0.000182   0.022772
               7          8          9         10         11         12
     1  C    0.008548  -0.607996   0.030879  -2.886517   0.110717  -1.173747
     2  C   -0.112775   0.190046  -0.018708 -11.940567   0.113178  -0.168547
     3  H   -0.000514  -0.025472   0.000012  -0.000773  -0.000125  -0.023376
     4  C   -0.254395  -2.945698   0.056703   2.477303  -0.042114   0.088316
     5  H   -0.009145   0.036384  -0.000107  -0.012019   0.000013   0.000772
     6  C    0.123740   0.734193   0.019738  -0.667796  -0.010412   0.005005
     7  N    7.310907   0.185148  -0.008253   0.062598  -0.000580   0.002829
     8  C    0.185148  11.839786   0.272017  -2.544740  -0.126313  -0.143857
     9  H   -0.008253   0.272017   0.449682  -0.055344  -0.003465  -0.001020
    10  C    0.062598  -2.544740  -0.055344  21.012709   0.253128   0.805401
    11  H   -0.000580  -0.126313  -0.003465   0.253128   0.440537   0.002992
    12  S    0.002829  -0.143857  -0.001020   0.805401   0.002992  14.566505
    13  O   -0.000013  -0.018064  -0.000009  -0.643504   0.000868   0.086989
    14  O    0.000056  -0.062444  -0.000027  -0.292022  -0.000848   0.303209
    15  N   -0.000329   0.018929   0.000056   0.172095   0.001105   0.029803
    16  H    0.000006  -0.007705   0.000000   0.007831   0.000000   0.079410
    17  C    0.154761  -0.106848   0.005292   0.058437   0.000096  -0.003104
    18  H    0.300708  -0.118007   0.004191   0.025750  -0.000004   0.000200
    19  H   -0.018219  -0.037999  -0.000002   0.002900  -0.000000   0.000146
    20  H   -0.075724   0.029631   0.000008   0.005428   0.000000  -0.000186
    21  H   -0.040732   0.007479  -0.000001  -0.000932  -0.000000  -0.000020
              13         14         15         16         17         18
     1  C    0.161533   0.112041  -0.186421  -0.005679  -0.022218   0.001931
     2  C    0.363218   0.203102  -0.159973  -0.021758  -0.008033  -0.002805
     3  H    0.000303  -0.000811   0.006965  -0.000364   0.001371   0.000003
     4  C    0.103103  -0.066287   0.208362  -0.008829   0.158697   0.104891
     5  H    0.000025   0.000033   0.000455  -0.000000  -0.005639  -0.000092
     6  C   -0.018192   0.005759   0.028040   0.000649  -0.335112  -0.040233
     7  N   -0.000013   0.000056  -0.000329   0.000006   0.154761   0.300708
     8  C   -0.018064  -0.062444   0.018929  -0.007705  -0.106848  -0.118007
     9  H   -0.000009  -0.000027   0.000056   0.000000   0.005292   0.004191
    10  C   -0.643504  -0.292022   0.172095   0.007831   0.058437   0.025750
    11  H    0.000868  -0.000848   0.001105   0.000000   0.000096  -0.000004
    12  S    0.086989   0.303209   0.029803   0.079410  -0.003104   0.000200
    13  O    9.045521  -0.201542  -0.149072  -0.017027  -0.000230   0.000001
    14  O   -0.201542   8.844305  -0.160204   0.013869  -0.000085   0.000001
    15  N   -0.149072  -0.160204   8.018688   0.197316   0.000229  -0.000000
    16  H   -0.017027   0.013869   0.197316   0.367086   0.000017  -0.000000
    17  C   -0.000230  -0.000085   0.000229   0.000017   5.400367  -0.031681
    18  H    0.000001   0.000001  -0.000000  -0.000000  -0.031681   0.306608
    19  H    0.000000   0.000000  -0.000000  -0.000000   0.395937   0.003004
    20  H   -0.000000  -0.000000   0.000003  -0.000000   0.412940  -0.000111
    21  H    0.000000  -0.000000   0.000000  -0.000000   0.383915  -0.004484
              19         20         21
     1  C    0.004999  -0.005569  -0.000291
     2  C    0.017148   0.015434   0.000149
     3  H    0.000001   0.000001  -0.000000
     4  C    0.099929  -0.036017  -0.016809
     5  H   -0.002167  -0.000923   0.000182
     6  C   -0.116892  -0.009371   0.022772
     7  N   -0.018219  -0.075724  -0.040732
     8  C   -0.037999   0.029631   0.007479
     9  H   -0.000002   0.000008  -0.000001
    10  C    0.002900   0.005428  -0.000932
    11  H   -0.000000   0.000000  -0.000000
    12  S    0.000146  -0.000186  -0.000020
    13  O    0.000000  -0.000000   0.000000
    14  O    0.000000  -0.000000  -0.000000
    15  N   -0.000000   0.000003   0.000000
    16  H   -0.000000  -0.000000  -0.000000
    17  C    0.395937   0.412940   0.383915
    18  H    0.003004  -0.000111  -0.004484
    19  H    0.475471  -0.040859  -0.021179
    20  H   -0.040859   0.504996  -0.023989
    21  H   -0.021179  -0.023989   0.455486
 Mulliken charges:
               1
     1  C   -1.112737
     2  C   -0.980635
     3  H    0.252262
     4  C    0.550737
     5  H    0.244900
     6  C    0.381381
     7  N   -0.628622
     8  C   -0.568469
     9  H    0.248358
    10  C    0.160632
    11  H    0.261226
    12  S    1.542280
    13  O   -0.713907
    14  O   -0.698105
    15  N   -1.026047
    16  H    0.395178
    17  C   -0.459108
    18  H    0.450130
    19  H    0.237782
    20  H    0.224309
    21  H    0.238454
 Sum of Mulliken charges =  -1.00000
 Mulliken charges with hydrogens summed into heavy atoms:
               1
     1  C   -1.112737
     2  C   -0.728373
     4  C    0.795637
     6  C    0.381381
     7  N   -0.178492
     8  C   -0.320111
    10  C    0.421858
    12  S    1.542280
    13  O   -0.713907
    14  O   -0.698105
    15  N   -0.630868
    17  C    0.241438
 Electronic spatial extent (au):  <R**2>=           2916.7985
 Charge=             -1.0000 electrons
 Dipole moment (field-independent basis, Debye):
    X=             20.9249    Y=              0.1803    Z=             -2.2746  Tot=             21.0490
 Quadrupole moment (field-independent basis, Debye-Ang):
   XX=           -118.0927   YY=            -79.9084   ZZ=            -94.6086
   XY=             -0.3234   XZ=             -1.7950   YZ=             -1.4916
 Traceless Quadrupole moment (field-independent basis, Debye-Ang):
   XX=            -20.5561   YY=             17.6282   ZZ=              2.9280
   XY=             -0.3234   XZ=             -1.7950   YZ=             -1.4916
 Octapole moment (field-independent basis, Debye-Ang**2):
  XXX=            264.3976  YYY=            -17.4640  ZZZ=             -3.7205  XYY=             41.9419
  XXY=            -15.5704  XXZ=            -21.1836  XZZ=             21.8898  YZZ=              8.5890
  YYZ=             -8.4237  XYZ=             13.5594
 Hexadecapole moment (field-independent basis, Debye-Ang**3):
 XXXX=          -3297.4944 YYYY=           -511.9524 ZZZZ=           -251.4326 XXXY=             37.0026
 XXXZ=            -67.5684 YYYX=             21.8156 YYYZ=            -10.7584 ZZZX=             -0.4309
 ZZZY=             -5.2838 XXYY=           -657.9013 XXZZ=           -668.9223 YYZZ=           -136.7666
 XXYZ=              3.7478 YYXZ=             12.3768 ZZXY=            -14.0445
 N-N= 8.051037249727D+02 E-N=-3.810232886586D+03  KE= 9.241124779498D+02
 D1PCM: PCM CHGder 1st derivatives, ID1Alg=3 FixD1E=F DoIter=F DoCFld=F I1PDM=0.
 Calling FoFJK, ICntrl=      2127 FMM=F ISym2X=0 I1Cent= 0 IOpClX= 0 NMat=1 NMatS=1 NMatT=0.
 ***** Axes restored to original set *****
 -------------------------------------------------------------------
 Center     Atomic                   Forces (Hartrees/Bohr)
 Number     Number              X              Y              Z
 -------------------------------------------------------------------
      1        6           0.000670180   -0.000391887   -0.000902122
      2        6           0.001099449   -0.000708080    0.000883342
      3        1          -0.000582057    0.000494199    0.000141306
      4        6          -0.000041115    0.000022754   -0.000105213
      5        1           0.000022679    0.000017982    0.000075024
      6        6          -0.000173286   -0.000042514    0.000016514
      7        7           0.000068350    0.000049023    0.000089551
      8        6          -0.000007046   -0.000040714    0.000037857
      9        1          -0.000045714   -0.000037415   -0.000029694
     10        6           0.000185545   -0.000002724   -0.000002973
     11        1           0.000212104    0.000105252   -0.000232122
     12       16          -0.010744284   -0.011205894   -0.006216207
     13        8           0.017953491   -0.008276865   -0.002106810
     14        8          -0.013298517   -0.002544101    0.004636199
     15        7           0.002417603    0.024458322    0.001152772
     16        1           0.002329518   -0.001830181    0.002525925
     17        6          -0.000034467   -0.000008966    0.000025259
     18        1          -0.000025210   -0.000031569    0.000002382
     19        1           0.000003859   -0.000003131   -0.000018969
     20        1           0.000001175   -0.000010004    0.000021163
     21        1          -0.000012256   -0.000013488    0.000006815
 -------------------------------------------------------------------
 Cartesian Forces:  Max     0.024458322 RMS     0.004887653

 GradGradGradGradGradGradGradGradGradGradGradGradGradGradGradGradGradGrad
 Berny optimization.
 FormGI is forming the generalized inverse of G from B-inverse, IUseBI=4.
 Internal  Forces:  Max     0.022424305 RMS     0.004383813
 Search for a local minimum.
 Step number   1 out of a maximum of  108
 All quantities printed in internal units (Hartrees-Bohrs-Radians)
 Mixed Optimization -- RFO/linear search
 Second derivative matrix not updated -- first step.
 ITU=  0
     Eigenvalues ---    0.00483   0.00983   0.01480   0.01920   0.01960
     Eigenvalues ---    0.02010   0.02082   0.02109   0.02154   0.02166
     Eigenvalues ---    0.02187   0.02218   0.02219   0.03074   0.07229
     Eigenvalues ---    0.07674   0.10190   0.11834   0.13954   0.16000
     Eigenvalues ---    0.16000   0.16000   0.16000   0.16000   0.16000
     Eigenvalues ---    0.16000   0.16000   0.17286   0.21727   0.22000
     Eigenvalues ---    0.22634   0.22963   0.23996   0.24988   0.24996
     Eigenvalues ---    0.25000   0.26800   0.33826   0.34408   0.34767
     Eigenvalues ---    0.35113   0.35133   0.35331   0.35413   0.37777
     Eigenvalues ---    0.41188   0.41832   0.43738   0.44999   0.45265
     Eigenvalues ---    0.45310   0.46715   0.47926   0.48607   0.58490
     Eigenvalues ---    0.77721   0.78673
 RFO step:  Lambda=-1.07354501D-02 EMin= 4.83127136D-03
 Linear search not attempted -- first point.
 Iteration  1 RMS(Cart)=  0.03686269 RMS(Int)=  0.00152079
 Iteration  2 RMS(Cart)=  0.00151687 RMS(Int)=  0.00067522
 Iteration  3 RMS(Cart)=  0.00000246 RMS(Int)=  0.00067522
 Iteration  4 RMS(Cart)=  0.00000000 RMS(Int)=  0.00067522
 Variable       Old X    -DE/DX   Delta X   Delta X   Delta X     New X
                                 (Linear)    (Quad)   (Total)
    R1        2.62751  -0.00099   0.00000  -0.00210  -0.00210   2.62541
    R2        2.64685   0.00038   0.00000   0.00082   0.00082   2.64767
    R3        3.38539   0.00009   0.00000   0.00033   0.00033   3.38572
    R4        2.05140   0.00069   0.00000   0.00190   0.00190   2.05330
    R5        2.63648  -0.00012   0.00000  -0.00032  -0.00032   2.63615
    R6        2.05009  -0.00005   0.00000  -0.00015  -0.00015   2.04994
    R7        2.65528  -0.00018   0.00000  -0.00040  -0.00040   2.65489
    R8        2.61297  -0.00012   0.00000  -0.00025  -0.00025   2.61273
    R9        2.66958  -0.00000   0.00000   0.00005   0.00005   2.66963
   R10        2.74691  -0.00000   0.00000  -0.00000  -0.00000   2.74690
   R11        1.91617  -0.00000   0.00000  -0.00000  -0.00000   1.91617
   R12        2.05492  -0.00002   0.00000  -0.00005  -0.00005   2.05487
   R13        2.61412  -0.00004   0.00000  -0.00002  -0.00002   2.61410
   R14        2.05459  -0.00002   0.00000  -0.00005  -0.00005   2.05454
   R15        2.82339   0.01156   0.00000   0.01450   0.01450   2.83789
   R16        2.82868  -0.00849   0.00000  -0.01078  -0.01078   2.81790
   R17        2.95856  -0.00015   0.00000  -0.00025  -0.00025   2.95830
   R18        1.93470  -0.00173   0.00000  -0.00386  -0.00386   1.93083
   R19        2.06647  -0.00000   0.00000  -0.00001  -0.00001   2.06646
   R20        2.07624   0.00000   0.00000   0.00001   0.00001   2.07625
   R21        2.06054  -0.00001   0.00000  -0.00003  -0.00003   2.06051
    A1        2.08832   0.00024   0.00000   0.00088   0.00088   2.08920
    A2        2.12483  -0.00147   0.00000  -0.00563  -0.00563   2.11920
    A3        2.06989   0.00123   0.00000   0.00476   0.00476   2.07466
    A4        2.09391   0.00015   0.00000   0.00107   0.00107   2.09498
    A5        2.10215   0.00010   0.00000   0.00025   0.00024   2.10239
    A6        2.08711  -0.00025   0.00000  -0.00130  -0.00131   2.08580
    A7        2.07981  -0.00002   0.00000  -0.00011  -0.00011   2.07969
    A8        2.10164  -0.00005   0.00000  -0.00035  -0.00035   2.10129
    A9        2.10173   0.00008   0.00000   0.00046   0.00046   2.10219
   A10        2.12922  -0.00004   0.00000  -0.00020  -0.00020   2.12902
   A11        2.06802   0.00004   0.00000   0.00024   0.00024   2.06825
   A12        2.08555  -0.00000   0.00000  -0.00006  -0.00006   2.08549
   A13        2.09378  -0.00011   0.00000  -0.00061  -0.00061   2.09317
   A14        1.98130   0.00003   0.00000  -0.00015  -0.00015   1.98115
   A15        1.99376   0.00004   0.00000  -0.00003  -0.00003   1.99373
   A16        2.07856  -0.00002   0.00000  -0.00026  -0.00026   2.07830
   A17        2.10728  -0.00003   0.00000   0.00015   0.00015   2.10742
   A18        2.09735   0.00004   0.00000   0.00011   0.00011   2.09746
   A19        2.09886  -0.00030   0.00000  -0.00112  -0.00113   2.09774
   A20        2.09527   0.00046   0.00000   0.00238   0.00238   2.09765
   A21        2.08905  -0.00016   0.00000  -0.00126  -0.00126   2.08779
   A22        1.83699  -0.00948   0.00000  -0.01397  -0.01688   1.82012
   A23        1.81981   0.01012   0.00000   0.01573   0.01426   1.83406
   A24        1.92661   0.00116   0.00000   0.00960   0.00736   1.93397
   A25        1.97020  -0.00419   0.00000  -0.02887  -0.02683   1.94337
   A26        1.88976   0.02242   0.00000   0.14219   0.14209   2.03184
   A27        2.01171  -0.02016   0.00000  -0.12245  -0.12161   1.89010
   A28        1.88085  -0.00273   0.00000  -0.01597  -0.01597   1.86487
   A29        1.93071   0.00001   0.00000   0.00009   0.00009   1.93080
   A30        1.96343  -0.00003   0.00000  -0.00017  -0.00017   1.96325
   A31        1.89101   0.00001   0.00000   0.00005   0.00005   1.89106
   A32        1.89213   0.00001   0.00000   0.00004   0.00004   1.89218
   A33        1.88562  -0.00001   0.00000  -0.00004  -0.00004   1.88558
   A34        1.89923   0.00001   0.00000   0.00003   0.00003   1.89926
    D1        3.13711   0.00017   0.00000   0.00538   0.00539  -3.14069
    D2        0.00077   0.00007   0.00000   0.00225   0.00225   0.00302
    D3       -0.02240   0.00020   0.00000   0.00607   0.00607  -0.01633
    D4        3.12445   0.00010   0.00000   0.00293   0.00293   3.12738
    D5        0.00615  -0.00013   0.00000  -0.00401  -0.00401   0.00214
    D6       -3.13133  -0.00008   0.00000  -0.00231  -0.00231  -3.13365
    D7       -3.11809  -0.00013   0.00000  -0.00457  -0.00457  -3.12267
    D8        0.02761  -0.00008   0.00000  -0.00287  -0.00287   0.02474
    D9        2.19860   0.00877   0.00000   0.07215   0.07199   2.27059
   D10       -2.00716   0.00444   0.00000   0.04058   0.04072  -1.96645
   D11        0.16319  -0.01290   0.00000  -0.09186  -0.09183   0.07136
   D12       -0.96073   0.00879   0.00000   0.07280   0.07263  -0.88810
   D13        1.11670   0.00446   0.00000   0.04122   0.04136   1.15805
   D14       -2.99614  -0.01288   0.00000  -0.09122  -0.09119  -3.08733
   D15        3.13481   0.00003   0.00000   0.00088   0.00088   3.13569
   D16       -0.01194   0.00003   0.00000   0.00097   0.00097  -0.01097
   D17       -0.00154  -0.00007   0.00000  -0.00225  -0.00225  -0.00379
   D18        3.13489  -0.00007   0.00000  -0.00216  -0.00215   3.13274
   D19       -3.09523  -0.00005   0.00000  -0.00151  -0.00152  -3.09675
   D20        0.01587  -0.00008   0.00000  -0.00241  -0.00241   0.01346
   D21        0.04113  -0.00005   0.00000  -0.00142  -0.00142   0.03971
   D22       -3.13095  -0.00007   0.00000  -0.00232  -0.00232  -3.13327
   D23       -0.32799  -0.00002   0.00000  -0.00054  -0.00054  -0.32853
   D24       -2.77395   0.00002   0.00000   0.00057   0.00057  -2.77338
   D25        2.84439   0.00001   0.00000   0.00036   0.00036   2.84475
   D26        0.39843   0.00005   0.00000   0.00147   0.00147   0.39990
   D27        3.13180   0.00002   0.00000   0.00065   0.00065   3.13246
   D28       -0.00899   0.00002   0.00000   0.00065   0.00065  -0.00834
   D29       -0.03950  -0.00001   0.00000  -0.00022  -0.00022  -0.03972
   D30        3.10289  -0.00001   0.00000  -0.00023  -0.00023   3.10266
   D31        1.21883   0.00003   0.00000   0.00114   0.00114   1.21997
   D32       -0.90009   0.00003   0.00000   0.00114   0.00114  -0.89895
   D33       -3.00046   0.00004   0.00000   0.00118   0.00118  -2.99928
   D34       -2.62302  -0.00001   0.00000  -0.00002  -0.00002  -2.62304
   D35        1.54124  -0.00001   0.00000  -0.00003  -0.00003   1.54122
   D36       -0.55912  -0.00001   0.00000   0.00001   0.00001  -0.55911
   D37       -0.00194   0.00009   0.00000   0.00256   0.00256   0.00062
   D38        3.13556   0.00003   0.00000   0.00088   0.00088   3.13644
   D39        3.14046   0.00009   0.00000   0.00256   0.00255  -3.14017
   D40       -0.00523   0.00003   0.00000   0.00087   0.00087  -0.00436
   D41        0.89915   0.00244   0.00000   0.08812   0.08911   0.98826
   D42       -1.10319   0.00055   0.00000   0.01985   0.01599  -1.08720
   D43        2.95481   0.00288   0.00000   0.03358   0.03644   2.99125
         Item               Value     Threshold  Converged?
 Maximum Force            0.022424     0.000450     NO 
 RMS     Force            0.004384     0.000300     NO 
 Maximum Displacement     0.177288     0.001800     NO 
 RMS     Displacement     0.036743     0.001200     NO 
 Predicted change in Energy=-5.810215D-03
 GradGradGradGradGradGradGradGradGradGradGradGradGradGradGradGradGradGrad

                          Input orientation:                          
 ---------------------------------------------------------------------
 Center     Atomic      Atomic             Coordinates (Angstroms)
 Number     Number       Type             X           Y           Z
 ---------------------------------------------------------------------
      1          6           0       -1.392044    0.714253   -1.027326
      2          6           0       -2.403442    1.212524   -1.839102
      3          1           0       -3.365610    1.476705   -1.408918
      4          6           0       -2.195201    1.375381   -3.208815
      5          1           0       -3.001337    1.760987   -3.823801
      6          6           0       -0.954989    1.049761   -3.782926
      7          7           0       -0.695624    1.246977   -5.126580
      8          6           0        0.062758    0.541122   -2.945541
      9          1           0        1.023514    0.277929   -3.381541
     10          6           0       -0.153687    0.376842   -1.589171
     11          1           0        0.640839   -0.020679   -0.962479
     12         16           0       -1.624136    0.514855    0.737998
     13          8           0       -1.174538   -0.891103    1.014378
     14          8           0       -0.708185    1.510747    1.364751
     15          7           0       -3.092137    0.870222    1.149549
     16          1           0       -3.707980    0.270499    0.597236
     17          6           0       -1.796731    1.408081   -6.061759
     18          1           0        0.069610    0.682093   -5.478014
     19          1           0       -2.300387    2.365572   -5.902571
     20          1           0       -2.541996    0.605387   -5.975696
     21          1           0       -1.390917    1.404244   -7.073798
 ---------------------------------------------------------------------
                    Distance matrix (angstroms):
                    1          2          3          4          5
     1  C    0.000000
     2  C    1.389310   0.000000
     3  H    2.149862   1.086561   0.000000
     4  C    2.416826   1.394992   2.149361   0.000000
     5  H    3.392012   2.144136   2.458692   1.084783   0.000000
     6  C    2.810145   2.429601   3.410174   1.404905   2.166807
     7  N    4.191978   3.704773   4.582861   2.437835   2.697731
     8  C    2.413706   2.785163   3.871722   2.421504   3.412929
     9  H    3.401122   3.872546   4.959104   3.405049   4.312131
    10  C    1.401087   2.412929   3.399799   2.790718   3.875375
    11  H    2.162624   3.399545   4.300360   3.877903   4.962554
    12  S    1.791646   2.781278   2.926967   4.079701   4.925397
    13  O    2.606344   3.752039   4.034807   4.900414   5.811948
    14  O    2.612298   3.636964   3.841394   4.811138   5.678225
    15  N    2.766482   3.086017   2.643551   4.478283   5.053307
    16  H    2.863508   2.919755   2.365757   4.242086   4.718735
    17  C    5.098106   4.270501   4.910704   2.880822   2.565945
    18  H    4.684666   4.431594   5.384207   3.280134   3.651184
    19  H    5.226850   4.225153   4.702946   2.871909   2.275552
    20  H    5.081398   4.183207   4.721546   2.892885   2.485369
    21  H    6.085714   5.335167   5.999627   3.947885   3.644613
                    6          7          8          9         10
     6  C    0.000000
     7  N    1.382596   0.000000
     8  C    1.412705   2.414602   0.000000
     9  H    2.161321   2.634321   1.087390   0.000000
    10  C    2.430528   3.682946   1.383321   2.146666   0.000000
    11  H    3.412833   4.553331   2.140639   2.467280   1.087216
    12  S    4.601374   5.982593   4.051514   4.902733   2.756263
    13  O    5.179699   6.520131   4.388978   5.051947   3.070552
    14  O    5.174167   6.496700   4.484768   5.200569   3.212299
    15  N    5.378563   6.728671   5.179907   6.149810   4.047036
    16  H    5.231828   6.541397   5.181020   6.182051   4.174288
    17  C    2.455606   1.453599   3.730969   4.051492   4.875150
    18  H    2.014524   1.013993   2.536402   2.338478   3.907190
    19  H    2.834493   2.104444   4.202035   4.664993   5.212368
    20  H    2.743046   2.131133   3.996337   4.421507   4.999785
    21  H    3.338492   2.073602   4.461015   4.553111   5.715542
                   11         12         13         14         15
    11  H    0.000000
    12  S    2.882452   0.000000
    13  O    2.821559   1.501746   0.000000
    14  O    3.095340   1.491170   2.471666   0.000000
    15  N    4.380579   1.565467   2.607244   2.477864   0.000000
    16  H    4.629225   2.102838   2.818094   3.335575   1.021753
    17  C    5.829731   6.860346   7.466263   7.506565   7.346450
    18  H    4.605459   6.444808   6.795145   6.936503   7.345517
    19  H    6.224911   6.926733   7.727719   7.488645   7.252264
    20  H    5.971159   6.776751   7.278087   7.620020   7.151357
    21  H    6.595958   7.865721   8.410352   8.466793   8.414438
                   16         17         18         19         20
    16  H    0.000000
    17  C    7.020625   0.000000
    18  H    7.165770   2.085916   0.000000
    19  H    6.972671   1.093526   2.937897   0.000000
    20  H    6.683944   1.098702   2.659710   1.778194   0.000000
    21  H    8.093140   1.090377   2.280607   1.767219   1.780164
                   21
    21  H    0.000000
 Stoichiometry    C7H9N2O2S(1-)
 Framework group  C1[X(C7H9N2O2S)]
 Deg. of freedom    57
 Full point group                 C1      NOp   1
 Largest Abelian subgroup         C1      NOp   1
 Largest concise Abelian subgroup C1      NOp   1
                         Standard orientation:                         
 ---------------------------------------------------------------------
 Center     Atomic      Atomic             Coordinates (Angstroms)
 Number     Number       Type             X           Y           Z
 ---------------------------------------------------------------------
      1          6           0       -0.555676   -0.037869    0.000873
      2          6           0        0.245178    1.095811    0.060726
      3          1           0       -0.209593    2.082383    0.082507
      4          6           0        1.634951    0.979050    0.090745
      5          1           0        2.240125    1.878397    0.131890
      6          6           0        2.242389   -0.287638    0.074092
      7          7           0        3.613791   -0.443294    0.155326
      8          6           0        1.415305   -1.431113    0.009805
      9          1           0        1.875868   -2.415903   -0.012251
     10          6           0        0.038055   -1.306654   -0.025810
     11          1           0       -0.580908   -2.198831   -0.080081
     12         16           0       -2.343270    0.081223   -0.017098
     13          8           0       -2.760397   -0.779950   -1.174520
     14          8           0       -2.784253   -0.504052    1.281583
     15          7           0       -2.800497    1.577752   -0.062157
     16          1           0       -2.365792    1.995533   -0.887063
     17          6           0        4.489969    0.676497   -0.146886
     18          1           0        3.941321   -1.335309   -0.198532
     19          1           0        4.417428    1.442916    0.629734
     20          1           0        4.259363    1.140995   -1.115497
     21          1           0        5.517618    0.312558   -0.167093
 ---------------------------------------------------------------------
 Rotational constants (GHZ):           2.4206390           0.4123255           0.3796978
 Basis read from rwf:  (6D, 7F)
 There are   250 symmetry adapted cartesian basis functions of A   symmetry.
 There are   250 symmetry adapted basis functions of A   symmetry.
   250 basis functions,   444 primitive gaussians,   250 cartesian basis functions
    49 alpha electrons       49 beta electrons
       nuclear repulsion energy       805.0453041239 Hartrees.
 NAtoms=   21 NActive=   21 NUniq=   21 SFac= 1.00D+00 NAtFMM=   60 NAOKFM=F Big=F
 Integral buffers will be    131072 words long.
 Raffenetti 2 integral format.
 Two-electron integral symmetry is turned on.
 ------------------------------------------------------------------------------
 Polarizable Continuum Model (PCM)
 =================================
 Model                : PCM.
 Atomic radii         : SMD-Coulomb.
 Polarization charges : Total charges.
 Charge compensation  : None.
 Solution method      : On-the-fly selection.
 Cavity type          : VdW (van der Waals Surface) (Alpha=1.000).
 Cavity algorithm     : GePol (No added spheres)
                        Default sphere list used, NSphG=   21.
                        Lebedev-Laikov grids with approx.  5.0 points / Ang**2.
                        Smoothing algorithm: York/Karplus (Gamma=1.0000).
                        Polarization charges: spherical gaussians, with
                                              point-specific exponents (IZeta= 3).
                        Self-potential: point-specific (ISelfS= 7).
                        Self-field    : sphere-specific E.n sum rule (ISelfD= 2).
 1st derivatives      : Analytical E(r).r(x)/FMM algorithm (CHGder, D1EAlg=3).
                        Cavity 1st derivative terms included.
 Solvent              : Water, Eps=  78.355300 Eps(inf)=   1.777849
 ------------------------------------------------------------------------------
 ------------------------------------------------------------------------------
 Atomic radii for non-electrostatic terms: SMD-CDS.
 ------------------------------------------------------------------------------
 Nuclear repulsion after PCM non-electrostatic terms =      805.0497049613 Hartrees.
 One-electron integrals computed using PRISM.
 NBasis=   250 RedAO= T EigKep=  1.70D-06  NBF=   250
 NBsUse=   250 1.00D-06 EigRej= -1.00D+00 NBFU=   250
 Initial guess from the checkpoint file:  "/jobfs/48676083.gadi-pbs/Gau-169932.chk"
 B after Tr=     0.000000    0.000000   -0.000000
         Rot=    0.999746    0.022543    0.000760   -0.000333 Ang=   2.59 deg.
 ExpMin= 4.05D-02 ExpMax= 2.19D+04 ExpMxC= 3.30D+03 IAcc=3 IRadAn=         5 AccDes= 0.00D+00
 Harris functional with IExCor= 1009 and IRadAn=       5 diagonalized for initial guess.
 HarFok:  IExCor= 1009 AccDes= 0.00D+00 IRadAn=         5 IDoV= 1 UseB2=F ITyADJ=14
 ICtDFT=  3500011 ScaDFX=  1.000000  1.000000  1.000000  1.000000
 FoFCou: FMM=F IPFlag=           0 FMFlag=      100000 FMFlg1=           0
         NFxFlg=           0 DoJE=T BraDBF=F KetDBF=T FulRan=T
         wScrn=  0.000000 ICntrl=       500 IOpCl=  0 I1Cent=   200000004 NGrid=           0
         NMat0=    1 NMatS0=      1 NMatT0=    0 NMatD0=    1 NMtDS0=    0 NMtDT0=    0
 Petite list used in FoFCou.
 Requested convergence on RMS density matrix=1.00D-08 within 128 cycles.
 Requested convergence on MAX density matrix=1.00D-06.
 Requested convergence on             energy=1.00D-06.
 No special actions if energy rises.
 Inv3:  Mode=1 IEnd=     8670000.
 Iteration    1 A*A^-1 deviation from unit magnitude is 3.55D-15 for   1687.
 Iteration    1 A*A^-1 deviation from orthogonality  is 1.93D-15 for   1680    408.
 Iteration    1 A^-1*A deviation from unit magnitude is 3.55D-15 for   1687.
 Iteration    1 A^-1*A deviation from orthogonality  is 1.36D-15 for    838    223.
 Error on total polarization charges =  0.05752
 SCF Done:  E(RM062X) =  -930.150576409     A.U. after   13 cycles
            NFock= 13  Conv=0.63D-08     -V/T= 2.0065
 SMD-CDS (non-electrostatic) energy       (kcal/mol) =       2.76
 (included in total energy above)
 D1PCM: PCM CHGder 1st derivatives, ID1Alg=3 FixD1E=F DoIter=F DoCFld=F I1PDM=0.
 Calling FoFJK, ICntrl=      2127 FMM=F ISym2X=0 I1Cent= 0 IOpClX= 0 NMat=1 NMatS=1 NMatT=0.
 ***** Axes restored to original set *****
 -------------------------------------------------------------------
 Center     Atomic                   Forces (Hartrees/Bohr)
 Number     Number              X              Y              Z
 -------------------------------------------------------------------
      1        6          -0.001070859   -0.002035543   -0.000384423
      2        6           0.000011928    0.000037762    0.000284724
      3        1           0.000002799    0.000041067   -0.000136544
      4        6          -0.000101673    0.000232022   -0.000172033
      5        1           0.000006839   -0.000012247   -0.000015190
      6        6          -0.000124648    0.000015206   -0.000085505
      7        7           0.000000691   -0.000003927    0.000021281
      8        6          -0.000066850    0.000256994    0.000210454
      9        1           0.000043972    0.000069476    0.000052700
     10        6          -0.000005778   -0.000600761    0.000106231
     11        1          -0.000135270    0.000021401   -0.000061222
     12       16           0.001042869    0.003022573    0.000855575
     13        8          -0.002523327    0.000856751   -0.001782353
     14        8           0.003940864    0.002352199    0.004096110
     15        7           0.002868264   -0.001562247   -0.004754752
     16        1          -0.003881725   -0.002647053    0.001827947
     17        6          -0.000027174   -0.000033112   -0.000043444
     18        1           0.000017878   -0.000006857   -0.000022024
     19        1           0.000001988    0.000001301    0.000005679
     20        1           0.000003558    0.000004930   -0.000003445
     21        1          -0.000004347   -0.000009934    0.000000231
 -------------------------------------------------------------------
 Cartesian Forces:  Max     0.004754752 RMS     0.001402655

 GradGradGradGradGradGradGradGradGradGradGradGradGradGradGradGradGradGrad
 Berny optimization.
 Using GEDIIS/GDIIS optimizer.
 FormGI is forming the generalized inverse of G from B-inverse, IUseBI=4.
 Internal  Forces:  Max     0.005709982 RMS     0.001171796
 Search for a local minimum.
 Step number   2 out of a maximum of  108
 All quantities printed in internal units (Hartrees-Bohrs-Radians)
 Mixed Optimization -- RFO/linear search
 Update second derivatives using D2CorX and points    1    2
 DE= -4.70D-03 DEPred=-5.81D-03 R= 8.09D-01
 TightC=F SS=  1.41D+00  RLast= 2.78D-01 DXNew= 5.0454D-01 8.3350D-01
 Trust test= 8.09D-01 RLast= 2.78D-01 DXMaxT set to 5.05D-01
 ITU=  1  0
 Use linear search instead of GDIIS.
     Eigenvalues ---    0.00483   0.00983   0.01480   0.01920   0.01960
     Eigenvalues ---    0.02010   0.02082   0.02109   0.02154   0.02166
     Eigenvalues ---    0.02188   0.02217   0.02223   0.02956   0.07230
     Eigenvalues ---    0.07673   0.11801   0.12650   0.13947   0.15996
     Eigenvalues ---    0.16000   0.16000   0.16000   0.16000   0.16000
     Eigenvalues ---    0.16000   0.16404   0.17410   0.20795   0.22008
     Eigenvalues ---    0.22636   0.22964   0.23996   0.24987   0.24989
     Eigenvalues ---    0.25202   0.26801   0.33826   0.34408   0.34767
     Eigenvalues ---    0.35113   0.35134   0.35332   0.35413   0.37777
     Eigenvalues ---    0.41185   0.41835   0.43927   0.45002   0.45264
     Eigenvalues ---    0.45310   0.46717   0.47926   0.48608   0.58494
     Eigenvalues ---    0.78169   0.79504
 RFO step:  Lambda=-7.51224138D-04 EMin= 4.82539050D-03
 Quartic linear search produced a step of -0.10580.
 Iteration  1 RMS(Cart)=  0.02455310 RMS(Int)=  0.00046007
 Iteration  2 RMS(Cart)=  0.00057472 RMS(Int)=  0.00006222
 Iteration  3 RMS(Cart)=  0.00000018 RMS(Int)=  0.00006222
 Variable       Old X    -DE/DX   Delta X   Delta X   Delta X     New X
                                 (Linear)    (Quad)   (Total)
    R1        2.62541   0.00016   0.00022  -0.00007   0.00015   2.62557
    R2        2.64767  -0.00022  -0.00009  -0.00030  -0.00039   2.64728
    R3        3.38572  -0.00017  -0.00004  -0.00052  -0.00055   3.38517
    R4        2.05330  -0.00005  -0.00020   0.00021   0.00001   2.05332
    R5        2.63615   0.00012   0.00003   0.00020   0.00023   2.63638
    R6        2.04994  -0.00000   0.00002  -0.00003  -0.00001   2.04993
    R7        2.65489  -0.00004   0.00004  -0.00014  -0.00010   2.65478
    R8        2.61273   0.00003   0.00003   0.00002   0.00005   2.61277
    R9        2.66963   0.00019  -0.00001   0.00039   0.00039   2.67001
   R10        2.74690   0.00004   0.00000   0.00008   0.00008   2.74699
   R11        1.91617   0.00003   0.00000   0.00005   0.00005   1.91622
   R12        2.05487   0.00000   0.00001  -0.00001   0.00000   2.05487
   R13        2.61410  -0.00005   0.00000  -0.00011  -0.00011   2.61399
   R14        2.05454  -0.00014   0.00001  -0.00037  -0.00036   2.05418
   R15        2.83789  -0.00188  -0.00153   0.00039  -0.00115   2.83674
   R16        2.81790   0.00571   0.00114   0.00468   0.00582   2.82372
   R17        2.95830  -0.00077   0.00003  -0.00122  -0.00119   2.95711
   R18        1.93083   0.00290   0.00041   0.00524   0.00565   1.93648
   R19        2.06646   0.00001   0.00000   0.00001   0.00002   2.06648
   R20        2.07625  -0.00001  -0.00000  -0.00003  -0.00003   2.07621
   R21        2.06051  -0.00000   0.00000  -0.00001  -0.00001   2.06051
    A1        2.08920   0.00009  -0.00009   0.00045   0.00035   2.08955
    A2        2.11920  -0.00016   0.00060  -0.00160  -0.00101   2.11820
    A3        2.07466   0.00007  -0.00050   0.00107   0.00056   2.07521
    A4        2.09498   0.00010  -0.00011   0.00079   0.00067   2.09565
    A5        2.10239   0.00007  -0.00003   0.00039   0.00036   2.10275
    A6        2.08580  -0.00017   0.00014  -0.00116  -0.00103   2.08478
    A7        2.07969   0.00010   0.00001   0.00036   0.00037   2.08007
    A8        2.10129  -0.00016   0.00004  -0.00062  -0.00058   2.10071
    A9        2.10219   0.00006  -0.00005   0.00026   0.00021   2.10240
   A10        2.12902   0.00003   0.00002   0.00006   0.00008   2.12910
   A11        2.06825  -0.00003  -0.00003  -0.00003  -0.00006   2.06820
   A12        2.08549  -0.00000   0.00001  -0.00004  -0.00004   2.08545
   A13        2.09317   0.00003   0.00006   0.00001   0.00008   2.09325
   A14        1.98115  -0.00000   0.00002  -0.00000   0.00001   1.98116
   A15        1.99373  -0.00002   0.00000  -0.00006  -0.00005   1.99367
   A16        2.07830  -0.00004   0.00003  -0.00013  -0.00010   2.07820
   A17        2.10742   0.00018  -0.00002   0.00070   0.00069   2.10811
   A18        2.09746  -0.00013  -0.00001  -0.00057  -0.00058   2.09687
   A19        2.09774  -0.00016   0.00012  -0.00088  -0.00076   2.09697
   A20        2.09765   0.00004  -0.00025   0.00058   0.00032   2.09797
   A21        2.08779   0.00011   0.00013   0.00032   0.00045   2.08824
   A22        1.82012  -0.00102   0.00179  -0.01448  -0.01249   1.80763
   A23        1.83406   0.00319  -0.00151   0.02319   0.02184   1.85590
   A24        1.93397  -0.00170  -0.00078  -0.00620  -0.00686   1.92711
   A25        1.94337   0.00012   0.00284  -0.00130   0.00139   1.94476
   A26        2.03184  -0.00193  -0.01503   0.00594  -0.00924   2.02260
   A27        1.89010   0.00173   0.01287  -0.00526   0.00750   1.89759
   A28        1.86487   0.00542   0.00169   0.02725   0.02894   1.89381
   A29        1.93080  -0.00003  -0.00001  -0.00015  -0.00016   1.93064
   A30        1.96325   0.00002   0.00002   0.00009   0.00011   1.96336
   A31        1.89106   0.00000  -0.00001   0.00003   0.00003   1.89109
   A32        1.89218   0.00000  -0.00000   0.00002   0.00001   1.89219
   A33        1.88558   0.00001   0.00000  -0.00000   0.00000   1.88558
   A34        1.89926  -0.00000  -0.00000   0.00002   0.00001   1.89927
    D1       -3.14069   0.00001  -0.00057   0.00230   0.00173  -3.13897
    D2        0.00302  -0.00009  -0.00024  -0.00232  -0.00256   0.00046
    D3       -0.01633  -0.00009  -0.00064  -0.00335  -0.00399  -0.02032
    D4        3.12738  -0.00019  -0.00031  -0.00797  -0.00828   3.11911
    D5        0.00214   0.00013   0.00042   0.00344   0.00386   0.00600
    D6       -3.13365   0.00001   0.00024  -0.00057  -0.00033  -3.13397
    D7       -3.12267   0.00023   0.00048   0.00897   0.00946  -3.11321
    D8        0.02474   0.00011   0.00030   0.00496   0.00527   0.03000
    D9        2.27059  -0.00141  -0.00762   0.03907   0.03155   2.30214
   D10       -1.96645  -0.00037  -0.00431   0.04119   0.03684  -1.92961
   D11        0.07136   0.00262   0.00972   0.04496   0.05462   0.12598
   D12       -0.88810  -0.00151  -0.00768   0.03347   0.02588  -0.86222
   D13        1.15805  -0.00047  -0.00438   0.03559   0.03116   1.18922
   D14       -3.08733   0.00252   0.00965   0.03935   0.04895  -3.03838
   D15        3.13569   0.00004  -0.00009   0.00157   0.00148   3.13717
   D16       -0.01097   0.00003  -0.00010   0.00104   0.00094  -0.01003
   D17       -0.00379  -0.00006   0.00024  -0.00302  -0.00278  -0.00657
   D18        3.13274  -0.00007   0.00023  -0.00355  -0.00332   3.12941
   D19       -3.09675   0.00000   0.00016  -0.00025  -0.00009  -3.09684
   D20        0.01346  -0.00000   0.00026  -0.00083  -0.00058   0.01288
   D21        0.03971  -0.00001   0.00015  -0.00079  -0.00064   0.03907
   D22       -3.13327  -0.00002   0.00025  -0.00137  -0.00113  -3.13439
   D23       -0.32853   0.00001   0.00006   0.00031   0.00036  -0.32817
   D24       -2.77338   0.00001  -0.00006   0.00040   0.00034  -2.77305
   D25        2.84475   0.00002  -0.00004   0.00089   0.00085   2.84560
   D26        0.39990   0.00001  -0.00016   0.00098   0.00083   0.40073
   D27        3.13246   0.00003  -0.00007   0.00161   0.00155   3.13400
   D28       -0.00834   0.00004  -0.00007   0.00196   0.00189  -0.00646
   D29       -0.03972   0.00002   0.00002   0.00105   0.00107  -0.03865
   D30        3.10266   0.00003   0.00002   0.00139   0.00142   3.10408
   D31        1.21997   0.00000  -0.00012   0.00068   0.00056   1.22053
   D32       -0.89895   0.00001  -0.00012   0.00071   0.00058  -0.89837
   D33       -2.99928  -0.00000  -0.00012   0.00061   0.00048  -2.99879
   D34       -2.62304   0.00001   0.00000   0.00061   0.00061  -2.62243
   D35        1.54122   0.00001   0.00000   0.00063   0.00064   1.54185
   D36       -0.55911   0.00000  -0.00000   0.00054   0.00054  -0.55857
   D37        0.00062  -0.00010  -0.00027  -0.00328  -0.00355  -0.00293
   D38        3.13644   0.00001  -0.00009   0.00071   0.00062   3.13705
   D39       -3.14017  -0.00009  -0.00027  -0.00293  -0.00320   3.13981
   D40       -0.00436   0.00002  -0.00009   0.00105   0.00096  -0.00339
   D41        0.98826  -0.00078  -0.00943   0.04826   0.03876   1.02702
   D42       -1.08720   0.00326  -0.00169   0.06802   0.06668  -1.02052
   D43        2.99125   0.00310  -0.00386   0.06970   0.06556   3.05681
         Item               Value     Threshold  Converged?
 Maximum Force            0.005710     0.000450     NO 
 RMS     Force            0.001172     0.000300     NO 
 Maximum Displacement     0.143641     0.001800     NO 
 RMS     Displacement     0.024555     0.001200     NO 
 Predicted change in Energy=-4.517265D-04
 GradGradGradGradGradGradGradGradGradGradGradGradGradGradGradGradGradGrad

                          Input orientation:                          
 ---------------------------------------------------------------------
 Center     Atomic      Atomic             Coordinates (Angstroms)
 Number     Number       Type             X           Y           Z
 ---------------------------------------------------------------------
      1          6           0       -1.390700    0.719334   -1.028438
      2          6           0       -2.398474    1.226238   -1.839516
      3          1           0       -3.356423    1.503910   -1.408398
      4          6           0       -2.190947    1.385772   -3.209853
      5          1           0       -2.993731    1.779571   -3.824016
      6          6           0       -0.954925    1.046690   -3.785076
      7          7           0       -0.695078    1.239645   -5.129281
      8          6           0        0.058831    0.528986   -2.948060
      9          1           0        1.016757    0.256745   -3.384730
     10          6           0       -0.157383    0.366649   -1.591478
     11          1           0        0.634105   -0.037305   -0.965388
     12         16           0       -1.619568    0.536530    0.738804
     13          8           0       -1.142839   -0.860225    1.013067
     14          8           0       -0.734043    1.552223    1.384555
     15          7           0       -3.103323    0.841461    1.131493
     16          1           0       -3.713942    0.194488    0.622905
     17          6           0       -1.795483    1.411534   -6.063434
     18          1           0        0.063667    0.666211   -5.481018
     19          1           0       -2.288189    2.374838   -5.904989
     20          1           0       -2.549565    0.617365   -5.975329
     21          1           0       -1.390969    1.401736   -7.075949
 ---------------------------------------------------------------------
                    Distance matrix (angstroms):
                    1          2          3          4          5
     1  C    0.000000
     2  C    1.389391   0.000000
     3  H    2.150348   1.086568   0.000000
     4  C    2.417252   1.395114   2.148844   0.000000
     5  H    3.392502   2.144470   2.458200   1.084775   0.000000
     6  C    2.810003   2.429254   3.409522   1.404851   2.166878
     7  N    4.191841   3.704632   4.582311   2.437864   2.697971
     8  C    2.412948   2.784489   3.871046   2.421594   3.413121
     9  H    3.400286   3.871874   4.958429   3.405091   4.312307
    10  C    1.400882   2.413070   3.400109   2.791618   3.876267
    11  H    2.162478   3.399585   4.300688   3.878620   4.963265
    12  S    1.791353   2.780311   2.926255   4.079164   4.924714
    13  O    2.593104   3.750624   4.043833   4.896539   5.813064
    14  O    2.635800   3.642970   3.831423   4.822744   5.682174
    15  N    2.759220   3.077622   2.637033   4.469451   5.044714
    16  H    2.898250   2.976320   2.443071   4.292867   4.775595
    17  C    5.098448   4.270763   4.910644   2.880968   2.566367
    18  H    4.684386   4.431288   5.383771   3.280129   3.651426
    19  H    5.227516   4.226052   4.703081   2.872536   2.276528
    20  H    5.081839   4.183121   4.721635   2.892562   2.485187
    21  H    6.085890   5.335363   5.999549   3.948027   3.645089
                    6          7          8          9         10
     6  C    0.000000
     7  N    1.382620   0.000000
     8  C    1.412910   2.414775   0.000000
     9  H    2.161440   2.634374   1.087390   0.000000
    10  C    2.431132   3.683380   1.383263   2.146261   0.000000
    11  H    3.413313   4.553607   2.140705   2.467003   1.087025
    12  S    4.600816   5.981930   4.050932   4.902247   2.756277
    13  O    5.166606   6.506796   4.366286   5.025146   3.043025
    14  O    5.198985   6.521449   4.521860   5.243057   3.254980
    15  N    5.369394   6.719784   5.171036   6.141109   4.039626
    16  H    5.269604   6.579783   5.205526   6.200365   4.193119
    17  C    2.455720   1.453644   3.731344   4.051875   4.875812
    18  H    2.014575   1.014021   2.536677   2.338903   3.907316
    19  H    2.834713   2.104374   4.202273   4.664835   5.213399
    20  H    2.743064   2.131233   3.996986   4.422658   5.000354
    21  H    3.338568   2.073657   4.461286   4.553377   5.715991
                   11         12         13         14         15
    11  H    0.000000
    12  S    2.883158   0.000000
    13  O    2.783705   1.501139   0.000000
    14  O    3.149708   1.494249   2.474878   0.000000
    15  N    4.374644   1.564837   2.598704   2.486506   0.000000
    16  H    4.634859   2.125283   2.806282   3.362046   1.024740
    17  C    5.830275   6.860541   7.460811   7.524559   7.335012
    18  H    4.605567   6.444865   6.779293   6.968318   7.333883
    19  H    6.225584   6.925779   7.722497   7.498635   7.247604
    20  H    5.971922   6.778718   7.280098   7.637930   7.131885
    21  H    6.596266   7.865825   8.402989   8.487304   8.402867
                   16         17         18         19         20
    16  H    0.000000
    17  C    7.061785   0.000000
    18  H    7.193798   2.085943   0.000000
    19  H    7.028521   1.093534   2.937751   0.000000
    20  H    6.713515   1.098685   2.660021   1.778195   0.000000
    21  H    8.131790   1.090374   2.280519   1.767223   1.780155
                   21
    21  H    0.000000
 Stoichiometry    C7H9N2O2S(1-)
 Framework group  C1[X(C7H9N2O2S)]
[...]
 2173,-0.04225156,-0.00160162,-0.00600745,0.01118138,0.07595850,0.02653
 818,-0.37085134,-0.00003661,0.00203089,-0.00839231,0.00113320,-0.10224
 730,0.71233869,-0.01420244,0.00979694,-0.01547274,-0.00289615,0.002842
 90,0.00394953,-0.00065335,0.00051406,-0.00092192,0.00013077,-0.0004995
 9,0.00050919,-0.00007869,-0.00029458,-0.00018167,0.00167633,0.00210158
 ,0.00283479,0.00045618,0.00005069,-0.00029063,0.00803957,-0.00208829,0
 .00463074,-0.00008645,-0.00183327,-0.00063817,-0.20684185,0.08821023,-
 0.11853657,0.21469608,0.00540683,0.00027981,0.00487943,0.00285794,0.00
 482308,-0.00031871,0.00027609,0.00011177,0.00027626,-0.00047819,-0.000
 65279,-0.00030322,-0.00026402,-0.00074641,-0.00009279,0.00208953,0.007
 33974,0.00114730,-0.00003501,-0.00006918,0.00015625,0.00262429,0.00356
 147,0.00130340,-0.00187543,-0.00401967,-0.00088155,0.08880183,-0.08701
 380,0.06766455,-0.09855167,0.07893865,0.00837628,-0.00478836,0.0117884
 7,0.00326739,-0.00003107,-0.00061517,0.00054687,-0.00030955,0.00061499
 ,0.00045389,-0.00022906,-0.00070884,-0.00018787,-0.00010219,0.00005629
 ,0.00286435,0.00123960,-0.00389009,-0.00151896,0.00049891,-0.00069412,
 -0.02253326,0.01212142,-0.01261430,-0.00024558,-0.00107510,0.00133472,
 -0.11776619,0.06726004,-0.15280160,0.12593990,-0.07401477,0.15823804,-
 0.06887687,0.00526791,0.00990295,0.00975480,-0.00430073,-0.01062786,-0
 .00314656,0.00048140,-0.00170036,-0.00153574,0.00377966,-0.00431651,0.
 00042114,0.00041530,-0.00107404,-0.00384105,0.00069617,0.00162159,0.00
 075501,0.00060075,-0.00219551,-0.00358830,0.00330590,0.00192187,0.0001
 5521,-0.00000398,0.00094715,0.00124812,-0.00433640,0.02184097,-0.00206
 195,-0.00000793,0.00064031,0.68907686,0.00467021,-0.05120287,0.0093505
 0,-0.00277289,-0.00153819,0.00890006,-0.00051380,-0.00265265,0.0001635
 9,0.00367953,0.00427664,0.00141978,0.00004740,0.00055255,0.00035197,0.
 00097360,-0.00139348,0.00191663,0.00030770,0.00044174,-0.00189647,0.00
 265939,0.00388916,-0.00187586,0.00029886,0.00065288,-0.00037975,-0.005
 00188,-0.00045949,-0.00418579,0.00076488,-0.00226598,-0.00063087,0.008
 39249,0.72452261,0.01592404,0.00720985,-0.15211820,-0.01184187,0.00863
 433,-0.02430411,0.00196517,-0.00105200,-0.00125357,-0.00492377,0.00149
 839,0.01141180,0.00024152,-0.00042875,0.00182685,0.00351770,0.00350911
 ,-0.01704120,-0.00605687,-0.00696459,0.01806275,0.00249550,-0.00240177
 ,0.01338256,-0.00093295,0.00000447,0.00183820,0.01809431,-0.00427510,-
 0.01748748,-0.00165532,0.00028059,-0.00054300,0.03217304,0.03950538,0.
 47808433,0.00726116,0.00522699,0.00154102,0.00061345,0.00021994,-0.000
 26460,0.00055820,0.00015438,0.00042301,0.00041423,-0.00089211,-0.00059
 690,-0.00002300,-0.00002161,-0.00011628,-0.00013134,-0.00036539,0.0013
 8322,0.00061120,0.00055720,-0.00129099,0.00048997,-0.00069227,-0.00119
 583,0.00001590,-0.00004781,-0.00021231,-0.00235257,0.00032475,0.000006
 93,0.00139094,-0.00020603,0.00035211,-0.11490299,0.11352442,-0.0246856
 4,0.11211526,0.01187594,-0.01233374,0.00085809,-0.00455078,0.00032580,
 0.00490036,-0.00046712,-0.00011587,-0.00043544,0.00069505,0.00005299,0
 .00201688,-0.00006792,0.00003605,0.00079741,0.00070582,0.00051410,-0.0
 0308115,-0.00118917,-0.00123424,0.00333098,0.00004105,-0.00003105,0.00
 197810,-0.00017381,-0.00000142,0.00045303,0.00282982,0.00006274,-0.000
 43807,-0.00052131,-0.00012403,-0.00028886,0.10703589,-0.34061879,0.069
 89082,-0.13643253,0.40527543,-0.01394729,0.03002005,-0.00680649,0.0070
 1051,-0.00004269,-0.00133646,-0.00017177,0.00069494,0.00049701,-0.0002
 7797,-0.00101474,-0.00418972,-0.00000810,-0.00023249,-0.00092658,-0.00
 233804,-0.00022137,0.00397714,0.00160436,0.00168986,-0.00457305,-0.001
 08593,0.00012948,-0.00141210,0.00023597,-0.00001441,-0.00038574,-0.001
 26908,0.00140258,-0.00025453,-0.00047972,0.00057942,-0.00041336,-0.025
 01381,0.07175868,-0.09154812,0.02971111,-0.08427117,0.07962528,0.00368
 285,-0.00646676,0.00039231,0.00051708,0.00026924,-0.00126367,0.0002048
 4,-0.00060523,0.00003848,0.00046000,0.00053939,-0.00011795,-0.00002653
 ,0.00001138,-0.00020613,0.00051334,-0.00058808,0.00166658,0.00049532,0
 .00057458,-0.00171110,0.00030437,0.00074921,-0.00187170,0.00010980,0.0
 0011929,-0.00028781,-0.00184267,0.00057728,-0.00072448,0.00013456,-0.0
 0055069,-0.00016650,-0.17017311,-0.13638495,-0.07712389,0.00968029,0.0
 0677979,-0.00054415,0.20091053,-0.00946013,0.00060499,-0.00084052,0.00
 231543,-0.00148828,-0.00273226,0.00007501,-0.00045278,0.00002950,0.000
 17992,0.00074486,-0.00176433,0.00012076,0.00019948,-0.00046789,-0.0011
 0012,-0.00021434,0.00180154,0.00072568,0.00069673,-0.00208832,0.000238
 02,0.00040069,-0.00061568,0.00012455,0.00000989,-0.00030741,-0.0006744
 8,0.00088920,-0.00069752,-0.00019412,-0.00018755,0.00020034,-0.1361179
 5,-0.25128759,-0.10398017,-0.02007424,-0.04296008,-0.01485863,0.173709
 99,0.29358437,-0.01977877,-0.02080737,-0.01361247,0.00445082,-0.004541
 88,-0.00037216,-0.00056997,-0.00092260,0.00000684,0.00226913,0.0020532
 0,-0.00371948,0.00016146,0.00045981,-0.00072681,-0.00217697,-0.0008425
 5,0.00535339,0.00201359,0.00208777,-0.00602743,-0.00025007,0.00213956,
 -0.00253419,0.00030843,0.00012092,-0.00050218,-0.00420139,0.00020701,0
 .00042878,-0.00006337,-0.00065370,0.00013198,-0.08189622,-0.11094820,-
 0.13494939,-0.00235526,0.00217487,0.01361264,0.09848689,0.13126453,0.1
 3057233,-0.01307112,0.00441041,-0.00152470,-0.00290781,0.00195521,-0.0
 0283095,0.00131248,-0.00074436,-0.00006774,0.00033812,-0.00015001,0.00
 179568,-0.00000812,-0.00006241,0.00042058,0.00076278,0.00051838,-0.003
 06178,-0.00087635,-0.00124520,0.00313832,-0.00093660,0.00021570,0.0015
 4469,-0.00015048,-0.00009537,0.00074824,0.00290322,-0.00199156,0.00521
 428,0.00034854,-0.00015777,-0.00025288,-0.30015827,0.04089817,0.063913
 00,-0.02254554,0.01400709,0.00501029,-0.03818126,-0.00798507,0.0026798
 4,0.50447020,0.00148865,0.00768519,0.00101492,0.00071829,-0.00023430,0
 .00107005,-0.00091359,0.00045871,-0.00000457,-0.00074463,-0.00032501,-
 0.00033922,0.00000893,-0.00000219,-0.00003213,-0.00012485,-0.00010431,
 0.00030623,0.00003359,0.00013391,-0.00018819,-0.00032172,-0.00019269,-
 0.00015371,-0.00008320,-0.00021347,-0.00004573,0.00046557,0.00094972,0
 .00010928,-0.00012900,0.00022725,0.00008406,-0.00021210,-0.07754353,-0
 .01228708,0.03883571,-0.00938266,-0.00462920,-0.03933416,-0.00392353,0
 .00084809,0.14148130,0.35635270,0.02645353,-0.00252911,0.00137872,0.00
 064147,0.00064209,-0.00158836,0.00206777,-0.00078820,0.00023109,0.0016
 1440,-0.00114818,-0.00113965,-0.00004290,0.00010329,-0.00034979,-0.000
 18240,-0.00051259,0.00263557,0.00107565,0.00108383,-0.00313187,0.00155
 183,-0.00107079,-0.00229292,0.00009806,-0.00010195,-0.00094141,-0.0032
 0608,0.00383813,-0.00535162,0.00030212,0.00005652,0.00036756,0.0447602
 0,-0.01785413,-0.07942851,-0.00500380,0.00164252,0.01418366,-0.0173458
 4,-0.00390699,0.00629276,-0.00164444,0.12271993,0.11835352,0.00124015,
 0.00167426,-0.00020877,0.00040983,-0.00018154,0.00013753,-0.00004176,-
 0.00007688,0.00027075,-0.00004186,-0.00016811,-0.00002766,-0.00000596,
 0.00000470,-0.00004581,0.00012097,-0.00011804,0.00042173,0.00014106,0.
 00017780,-0.00046027,-0.00010979,-0.00003721,-0.00049604,0.00000080,-0
 .00004286,-0.00006285,-0.00032841,0.00043716,0.00017518,0.00000266,0.0
 0002193,0.00004571,-0.03308790,-0.03136519,-0.01257495,0.00694326,-0.0
 0079002,0.00183139,-0.00661871,-0.00175482,0.00136876,-0.13152223,-0.1
 4113942,-0.05091860,0.16294216,0.00114182,-0.00009814,-0.00003816,0.00
 009254,0.00034652,0.00000077,0.00017390,-0.00035489,0.00026217,0.00013
 401,-0.00009666,-0.00000619,-0.00000448,0.00000624,-0.00002752,0.00009
 209,0.00004523,0.00022462,0.00008208,0.00005398,-0.00023788,0.00000456
 ,-0.00013796,-0.00026113,0.00000626,-0.00002141,-0.00005279,-0.0000923
 0,0.00043599,-0.00015300,0.00002537,0.00002978,0.00001423,0.01551550,-
 0.00479748,-0.00243782,0.00008619,-0.00002853,-0.00021943,0.00094909,0
 .00378714,-0.00145364,-0.19161418,-0.27387988,-0.10168753,0.17343330,0
 .27474959,-0.00096082,-0.00162651,-0.00073921,0.00016024,-0.00000745,-
 0.00009501,-0.00021437,0.00040968,-0.00043991,-0.00017692,0.00006325,0
 .00009823,-0.00000260,-0.00001672,0.00002064,0.00007970,-0.00001987,-0
 .00009943,-0.00007895,-0.00002642,0.00015438,0.00000466,0.00023565,0.0
 0009216,0.00001530,0.00006831,0.00004339,-0.00015149,-0.00037542,0.000
 13803,-0.00005996,-0.00008501,-0.00001075,0.01277800,0.00429543,-0.004
 66896,0.00219372,0.00065474,-0.00034640,0.00072013,-0.00115883,0.00561
 486,-0.07484127,-0.10849769,-0.04934156,0.06051960,0.10607608,0.049574
 74,0.00129197,-0.00133228,0.00252411,-0.00081625,0.00123093,-0.0032342
 6,-0.00011103,-0.00002497,0.00015532,0.00005758,0.00043666,0.00800059,
 -0.00023145,-0.00027703,0.00130385,0.01138999,-0.00646976,-0.00416878,
 -0.19131589,0.04393165,-0.07229138,-0.00087795,-0.00031342,0.00431941,
 0.00001297,-0.00034782,-0.00004828,0.00003101,0.00038815,0.00149010,0.
 00000289,-0.00007515,0.00044976,0.00045150,0.00018208,-0.00316235,0.00
 020857,-0.00061520,0.00090641,0.00024434,0.00038868,0.00103724,-0.0005
 7957,0.00004651,0.00062327,0.00007740,0.00004210,-0.00003821,0.5494266
 1,0.00142173,0.00004069,-0.00173113,0.00016115,0.00020788,0.00045447,0
 .00005380,0.00001199,-0.00005773,0.00133125,-0.00079732,-0.00156339,0.
 00000584,-0.00103178,-0.00037626,-0.00062029,-0.00663423,0.01650577,0.
 02531923,-0.06357162,-0.01089246,-0.00101802,0.00410018,-0.00205577,-0
 .00034971,-0.00039451,-0.00011006,-0.00025528,0.00122936,0.00227050,-0
 .00016459,-0.00024421,0.00000440,-0.00031417,-0.00049100,0.00213319,-0
 .00011109,0.00034431,-0.00045598,-0.00024591,-0.00026347,-0.00079625,0
 .00035806,0.00002503,-0.00032585,-0.00004844,-0.00002192,0.00000024,-0
 .00916648,0.58306102,-0.00015925,-0.00065231,0.00230093,-0.00101388,0.
 00119661,-0.00203189,-0.00009462,-0.00007800,0.00016185,-0.00204863,0.
 00070859,0.00244270,-0.00031365,0.00032614,-0.00204097,-0.02537310,0.0
 0403128,-0.03674828,-0.07067493,0.01498121,-0.15131894,0.00372101,-0.0
 0211774,-0.00028451,-0.00024119,-0.00010438,0.00010900,-0.00086246,0.0
 0116908,-0.00106329,0.00016838,0.00001791,-0.00021033,0.00032422,0.000
 26184,-0.00241945,0.00019306,-0.00043583,0.00059727,0.00020838,0.00026
 997,0.00081076,-0.00040138,0.00001189,0.00039491,0.00005652,0.00002561
 ,-0.00001479,-0.05975864,0.00937210,0.58467073,0.00099150,0.00028436,-
 0.00219462,-0.00045199,0.00047708,0.00114323,0.00002879,-0.00012154,0.
 00007202,0.00439162,0.00034552,-0.00116957,0.00003805,-0.00002996,-0.0
 0016567,-0.00754671,0.00007908,0.01335364,-0.24140739,0.18288133,0.085
 18904,-0.00017923,0.00000555,-0.00573252,0.00002821,0.00065407,0.00055
 111,-0.00115287,-0.00106396,0.00139159,-0.00003221,0.00010280,-0.00003
 836,-0.00022947,-0.00010919,0.00237934,-0.00019473,0.00042353,-0.00060
 305,-0.00020831,-0.00025622,-0.00073600,0.00039901,-0.00005323,-0.0004
 2072,-0.00006487,-0.00003860,0.00003226,-0.01578064,0.01223259,0.00750
 617,0.26185651,-0.00013794,0.00049101,-0.00108728,-0.00024509,0.000863
 61,0.00155914,-0.00006664,-0.00019446,0.00014287,0.00217913,0.00118299
 ,0.00106517,-0.00010235,-0.00023960,-0.00011155,-0.01249379,0.00005800
 ,0.01301803,0.21081635,-0.15838132,-0.09585689,-0.00239164,0.00047151,
 -0.00003115,0.00006018,-0.00030658,-0.00048642,0.00012314,-0.00031778,
 0.00019661,-0.00000402,0.00004663,0.00002531,-0.00019179,-0.00014833,0
 .00106839,-0.00006772,0.00017040,-0.00026105,-0.00010624,-0.00013512,-
 0.00038881,0.00018323,-0.00002580,-0.00013847,-0.00002199,-0.00001601,
 0.00000867,-0.00321188,-0.00514008,-0.00109628,-0.19459755,0.16123786,
 -0.00048683,0.00017645,0.00002307,0.00180949,0.00003344,0.00048925,-0.
 00001145,0.00006550,-0.00038841,-0.00149314,0.00151086,-0.00532278,-0.
 00005538,-0.00028040,0.00006976,0.02833973,-0.02224962,-0.01473113,0.0
 9328456,-0.07808577,-0.10680727,0.00166156,-0.00021311,0.00030843,-0.0
 0129877,0.00032816,-0.00042391,0.00038372,0.00013550,-0.00025149,-0.00
 003466,-0.00004110,0.00007101,-0.00007620,-0.00004298,0.00019451,-0.00
 001614,0.00005751,-0.00006818,-0.00003155,-0.00004481,-0.00009790,-0.0
 0001059,0.00001815,-0.00006794,-0.00000378,-0.00001224,0.00001070,-0.0
 1773593,0.01647568,0.00834288,-0.09898333,0.08114916,0.12067980,0.0000
 7346,0.00014646,-0.00047812,0.00019612,-0.00000430,0.00039466,0.000014
 22,-0.00000632,-0.00003424,0.00035064,-0.00059901,-0.00059656,-0.00004
 078,-0.00034000,0.00054185,-0.00043537,0.00017637,0.00303567,-0.020638
 21,0.02455479,0.00075258,-0.00024788,-0.00001686,-0.00091795,0.0001136
 1,0.00009047,0.00004173,-0.00012676,-0.00019421,0.00012217,-0.00000074
 ,0.00003395,-0.00004388,-0.00007191,-0.00006550,0.00058993,-0.00003936
 ,0.00010823,-0.00014799,-0.00005539,-0.00007423,-0.00020228,0.00010578
 ,-0.00000745,-0.00011822,-0.00001550,-0.00000807,0.00000795,-0.0921617
 1,0.09544212,0.01807218,-0.00112358,0.00205115,-0.00459040,0.10853533,
 0.00006964,-0.00009567,0.00015583,-0.00046113,0.00002649,-0.00044988,-
 0.00000255,0.00000656,0.00000901,0.00065046,-0.00063895,0.00023086,-0.
 00061890,0.00046130,0.00039700,0.00080647,0.00002367,-0.00121056,0.005
 26269,0.00294024,0.00362731,-0.00008051,-0.00022546,0.00036218,-0.0000
 4490,-0.00001600,-0.00001384,-0.00000702,0.00003886,-0.00003736,0.0000
 0019,-0.00000115,0.00002271,0.00003620,0.00006785,-0.00020272,0.000005
 16,-0.00000958,0.00002448,0.00001862,0.00002151,0.00008443,-0.00003562
 ,0.00000276,0.00002031,0.00000345,-0.00000002,0.00000070,0.09991076,-0
 .27246362,-0.04090333,-0.00130590,-0.00007764,0.00097322,-0.11159700,0
 .28908081,0.00058629,-0.00028048,-0.00000200,-0.00047239,-0.00029365,-
 0.00065181,0.00000646,0.00002034,0.00000596,0.00105225,0.00021363,-0.0
 0000676,0.00071661,0.00149245,-0.00246693,-0.00027751,0.00077246,0.002
 19897,-0.01582984,0.02203401,0.00279107,-0.00043313,-0.00022024,-0.001
 00942,0.00008689,0.00005597,0.00004032,-0.00047929,-0.00012318,0.00048
 958,0.00001368,0.00005547,0.00000411,0.00006346,0.00008208,0.00006837,
 -0.00002074,0.00002945,-0.00004086,-0.00000621,0.00000719,0.00003061,0
 .00001407,-0.00000515,-0.00001837,-0.00000424,-0.00000178,0.00000156,0
 .02099969,-0.04490703,-0.05845730,-0.00182615,0.00168612,-0.00249830,-
 0.01461558,0.04239541,0.06120466,0.00033786,0.00020473,-0.00123886,0.0
 0001313,-0.00028594,0.00072671,0.00003936,0.00001066,-0.00004456,0.001
 04273,-0.00027636,-0.00159614,0.00012707,0.00015140,-0.00000988,-0.000
 49791,-0.00013270,0.00775392,-0.02716027,-0.01298851,-0.01211432,-0.00
 046409,0.00095835,-0.00160141,-0.00000305,-0.00009430,0.00002087,-0.00
 012911,0.00002062,0.00067062,-0.00004339,-0.00001965,-0.00006083,-0.00
 017434,-0.00015581,0.00141648,-0.00010274,0.00026602,-0.00036317,-0.00
 012854,-0.00016112,-0.00047017,0.00024729,-0.00001125,-0.00025551,-0.0
 0003405,-0.00001779,0.00001183,-0.16672203,-0.12635856,0.02109838,-0.0
 0082970,-0.00144505,-0.00086019,0.01017082,0.00877802,-0.00085564,0.19
 119765,-0.00008635,0.00014675,-0.00029087,0.00008236,-0.00036509,0.000
 38402,0.00001171,0.00001112,-0.00000025,-0.00055123,-0.00030016,-0.000
 60356,0.00035112,0.00002524,0.00013998,0.00019794,0.00128818,0.0001656
 8,0.00407832,0.01055080,-0.00263139,-0.00007428,-0.00033201,-0.0004392
 2,0.00004005,0.00004919,0.00001891,0.00007122,-0.00014820,0.00000324,-
 0.00000042,0.00001660,-0.00001782,-0.00003467,0.00000102,0.00032683,-0
 .00002513,0.00006039,-0.00009096,-0.00001762,-0.00002697,-0.00008722,0
 .00006120,-0.00000928,-0.00004860,-0.00000955,-0.00000143,0.00000090,-
 0.12670395,-0.18824094,0.02065338,0.00031386,0.00001414,-0.00021586,-0
 .02011235,-0.02072705,0.00454494,0.13992081,0.19615419,0.00129117,-0.0
 0043286,-0.00009907,-0.00018079,0.00070331,-0.00104822,-0.00001468,-0.
 00002959,-0.00002386,0.00100579,-0.00013955,0.00125628,-0.00024709,-0.
 00087395,-0.00074229,-0.00204748,-0.00282083,0.00600410,-0.02193738,-0
 .01369274,-0.00527671,-0.00054764,0.00125776,-0.00160620,-0.00002816,-
 0.00012849,-0.00001635,-0.00082671,0.00030634,0.00131461,-0.00003351,-
 0.00004203,0.00000676,-0.00001540,-0.00014912,0.00032331,-0.00001384,0
 .00005042,-0.00003058,-0.00005688,-0.00003722,-0.00012978,0.00005249,0
 .00000422,-0.00006201,-0.00000939,-0.00000453,0.00000014,0.02154398,0.
 02151728,-0.05467607,-0.00023000,-0.00066843,-0.00041457,-0.00351296,-
 0.00506132,0.00085430,-0.01351168,-0.02200882,0.05503317,0.00012918,-0
 .00002832,-0.00006365,0.00030551,-0.00011132,0.00001157,0.00000769,0.0
 0001045,-0.00003553,-0.00069236,0.00043824,0.00019761,0.00048775,-0.00
 024295,0.00037993,-0.00423273,0.00093571,-0.00171111,0.00817276,-0.000
 25041,-0.03449810,0.00049411,0.00010984,-0.00134461,-0.00003719,-0.000
 00579,0.00003529,-0.00044170,0.00019379,0.00003754,0.00001869,0.000006
 35,-0.00012226,-0.00001417,-0.00002953,0.00024757,-0.00001016,0.000039
 63,-0.00005998,-0.00002280,-0.00002554,-0.00007567,0.00004992,-0.00000
 395,-0.00004977,-0.00000725,-0.00000338,0.00000120,-0.09459831,0.00232
 678,0.10959344,0.00146801,-0.00032951,0.00020930,-0.00460280,-0.001388
 13,0.01128132,-0.00688669,0.00248696,0.01932018,0.10041254,0.00000542,
 -0.00003029,-0.00003531,-0.00008147,0.00016645,-0.00002140,0.00000537,
 0.00001483,0.00000852,0.00026935,-0.00001674,-0.00012046,-0.00023964,-
 0.00004283,-0.00004833,0.00122776,0.00023145,0.00069814,-0.00089088,-0
 .00120802,0.00670720,-0.00001776,0.00031205,0.00025110,0.00000912,0.00
 000029,-0.00000445,0.00006291,-0.00006285,0.00004089,-0.00002597,-0.00
 005002,0.00001663,-0.00000745,-0.00000509,-0.00003135,0.00000119,-0.00
 000222,0.00001261,0.00000176,0.00000083,0.00000202,-0.00000722,0.00000
 136,0.00000577,0.00000146,-0.00000013,0.00000026,0.00198041,-0.0497257
 4,-0.00763775,-0.00022364,0.00044657,0.00026227,0.01042176,0.00158510,
 -0.02755798,-0.00836358,0.00183352,0.02225015,-0.00412893,0.04655148,0
 .00008518,0.00003799,-0.00033353,0.00009673,-0.00007483,0.00014152,0.0
 0001514,0.00000797,-0.00004345,-0.00005075,0.00006297,-0.00005690,-0.0
 0002657,0.00005913,0.00014113,-0.00436317,0.00053502,0.00125729,0.0070
 7238,-0.00058006,-0.02445305,0.00045408,0.00000402,-0.00131264,-0.0000
 4153,0.00000679,0.00000737,-0.00040068,0.00022025,0.00000881,0.0000199
 4,0.00001578,-0.00011237,-0.00005788,-0.00004277,0.00056930,-0.0000318
 4,0.00011533,-0.00016083,-0.00005490,-0.00007249,-0.00018317,0.0001042
 2,-0.00000415,-0.00012378,-0.00001482,-0.00000985,0.00000720,0.0970841
 0,-0.00546172,-0.29056522,0.00048160,0.00020686,0.00088248,0.00169946,
 -0.00042444,-0.00253774,0.00128355,0.00019670,-0.00066695,-0.10335426,
 0.00520149,0.31753454\\-0.00000313,-0.00000119,-0.00000174,0.00000061,
 -0.00000034,-0.00000151,0.00000230,0.00000167,0.00000341,-0.00000088,0
 .00000305,0.00000415,0.00000105,0.00000550,0.00000117,0.00000650,0.000
 00055,-0.00000679,-0.00001263,-0.00000668,0.00000709,-0.00000010,-0.00
 000176,-0.00000447,-0.00000194,-0.00000313,-0.00000263,-0.00000183,-0.
 00000695,0.00000329,0.00000087,-0.00000502,-0.00000472,0.00003523,-0.0
 0000593,0.00000297,-0.00000242,-0.00000317,-0.00000600,-0.00000487,-0.
 00001633,-0.00000363,-0.00001584,0.00000178,0.00000487,0.00000188,-0.0
 0000288,-0.00000117,0.00000084,0.00000735,0.00000223,0.00000101,0.0000
 0984,-0.00000218,-0.00000056,0.00000894,0.00000269,-0.00000328,0.00000
 932,0.00000182,-0.00000282,0.00000537,0.00000114\\\@
 The archive entry for this job was punched.


 ... I FELL INTO A REVERIE ... THE ATOMS WERE GAMBOLING BEFORE MY EYES
 ... I SAW HOW TWO SMALL ONES UNITED TO FORM A PAIR;
 HOW THE LARGER ONES SEIZED TWO OF THE SMALLER ONES;
 HOW STILL LARGER ONES KEPT HOLD OF THREE OR FOUR
 SMALLER ONES ... I SAW HOW THE LARGER ONES FORMED A CHAIN ...
 THIS WAS THE ORIGIN OF THE STRUCTURE THEORY.

                                   -- C.F.KEKULE VON STRADONITZ
 Job cpu time:       0 days  0 hours 59 minutes 20.8 seconds.
 Elapsed time:       0 days  0 hours  3 minutes 43.9 seconds.
 File lengths (MBytes):  RWF=    205 Int=      0 D2E=      0 Chk=     12 Scr=      1
 Normal termination of Gaussian 16 at Wed Jun 29 10:43:12 2022.
