 Entering Gaussian System, Link 0=g16
 AtFile(1): /home/561/yj5695/Basis/6-31pGd.gbs
 Initial command:
 /apps/gaussian/g16c01/g16/l1.exe "/jobfs/40913343.gadi-pbs/Gau-674569.inp" -scrdir="/jobfs/40913343.gadi-pbs/"
 Entering Link 1 = /apps/gaussian/g16c01/g16/l1.exe PID=    674578.
  
 Copyright (c) 1988-2019, Gaussian, Inc.  All Rights Reserved.
  
 This is part of the Gaussian(R) 16 program.  It is based on
 the Gaussian(R) 09 system (copyright 2009, Gaussian, Inc.),
 the Gaussian(R) 03 system (copyright 2003, Gaussian, Inc.),
 the Gaussian(R) 98 system (copyright 1998, Gaussian, Inc.),
 the Gaussian(R) 94 system (copyright 1995, Gaussian, Inc.),
 the Gaussian 92(TM) system (copyright 1992, Gaussian, Inc.),
 the Gaussian 90(TM) system (copyright 1990, Gaussian, Inc.),
 the Gaussian 88(TM) system (copyright 1988, Gaussian, Inc.),
 the Gaussian 86(TM) system (copyright 1986, Carnegie Mellon
 University), and the Gaussian 82(TM) system (copyright 1983,
 Carnegie Mellon University). Gaussian is a federally registered
 trademark of Gaussian, Inc.
  
 This software contains proprietary and confidential information,
 including trade secrets, belonging to Gaussian, Inc.
  
 This software is provided under written license and may be
 used, copied, transmitted, or stored only in accord with that
 written license.
  
 The following legend is applicable only to US Government
 contracts under FAR:
  
                    RESTRICTED RIGHTS LEGEND
  
 Use, reproduction and disclosure by the US Government is
 subject to restrictions as set forth in subparagraphs (a)
 and (c) of the Commercial Computer Software - Restricted
 Rights clause in FAR 52.227-19.
  
 Gaussian, Inc.
 340 Quinnipiac St., Bldg. 40, Wallingford CT 06492
  
  
 ---------------------------------------------------------------
 Warning -- This program may not be used in any manner that
 competes with the business of Gaussian, Inc. or will provide
 assistance to any competitor of Gaussian, Inc.  The licensee
 of this program is prohibited from giving any competitor of
 Gaussian, Inc. access to this program.  By using this program,
 the user acknowledges that Gaussian, Inc. is engaged in the
 business of creating and licensing software in the field of
 computational chemistry and represents and warrants to the
 licensee that it is not a competitor of Gaussian, Inc. and that
 it will not use this program in any manner prohibited above.
 ---------------------------------------------------------------
  

 Cite this work as:
 Gaussian 16, Revision C.01,
 M. J. Frisch, G. W. Trucks, H. B. Schlegel, G. E. Scuseria, 
 M. A. Robb, J. R. Cheeseman, G. Scalmani, V. Barone, 
 G. A. Petersson, H. Nakatsuji, X. Li, M. Caricato, A. V. Marenich, 
 J. Bloino, B. G. Janesko, R. Gomperts, B. Mennucci, H. P. Hratchian, 
 J. V. Ortiz, A. F. Izmaylov, J. L. Sonnenberg, D. Williams-Young, 
 F. Ding, F. Lipparini, F. Egidi, J. Goings, B. Peng, A. Petrone, 
 T. Henderson, D. Ranasinghe, V. G. Zakrzewski, J. Gao, N. Rega, 
 G. Zheng, W. Liang, M. Hada, M. Ehara, K. Toyota, R. Fukuda, 
 J. Hasegawa, M. Ishida, T. Nakajima, Y. Honda, O. Kitao, H. Nakai, 
 T. Vreven, K. Throssell, J. A. Montgomery, Jr., J. E. Peralta, 
 F. Ogliaro, M. J. Bearpark, J. J. Heyd, E. N. Brothers, K. N. Kudin, 
 V. N. Staroverov, T. A. Keith, R. Kobayashi, J. Normand, 
 K. Raghavachari, A. P. Rendell, J. C. Burant, S. S. Iyengar, 
 J. Tomasi, M. Cossi, J. M. Millam, M. Klene, C. Adamo, R. Cammi, 
 J. W. Ochterski, R. L. Martin, K. Morokuma, O. Farkas, 
 J. B. Foresman, and D. J. Fox, Gaussian, Inc., Wallingford CT, 2019.
 
 ******************************************
 Gaussian 16:  ES64L-G16RevC.01  3-Jul-2019
                22-May-2022 
 ******************************************
 %nproc=16
 Will use up to   16 processors via shared memory.
 %mem=20gb
 -----------------------------------------------------
 #m062X/gen 6D OPT Freq=noraman SCRF=(SMD,Solvent=h2o)
 -----------------------------------------------------
 1/18=20,19=15,26=3,38=1/1,3;
 2/9=110,12=2,17=6,18=5,40=1/2;
 3/5=7,8=2,11=2,25=1,30=1,70=32201,71=1,72=1,74=-55/1,2,3;
 4//1;
 5/5=2,38=5,53=1/2;
 6/7=2,8=2,9=2,10=2,28=1/1;
 7//1,2,3,16;
 1/18=20,19=15,26=3/3(2);
 2/9=110/2;
 99//99;
 2/9=110/2;
 3/5=7,6=1,8=2,11=2,25=1,30=1,70=32205,71=1,72=1,74=-55,82=7/1,2,3;
 4/5=5,16=3,69=1/1;
 5/5=2,38=5,53=1/2;
 7//1,2,3,16;
 1/18=20,19=15,26=3/3(-5);
 2/9=110/2;
 6/7=2,8=2,9=2,10=2,19=2,28=1/1;
 99/9=1/99;
 ---------------
 A.15.smd.a1.smd
 ---------------
 Symbolic Z-matrix:
 Charge = -1 Multiplicity = 1
 C                    -1.29315   0.70057  -0.83626 
 C                    -2.47143   0.62592  -1.58131 
 H                    -3.41777   0.40099  -1.09596 
 C                    -2.429     0.84769  -2.95191 
 H                    -3.3396    0.7984   -3.54074 
 C                    -1.21242   1.12891  -3.58459 
 C                    -1.23299   1.36526  -5.06526 
 C                    -0.03988   1.20112  -2.82863 
 H                     0.91038   1.44962  -3.29273 
 C                    -0.07886   0.98789  -1.45094 
 H                     0.82923   1.05729  -0.86126 
 S                    -1.36939   0.35752   0.93296 
 O                    -0.03001   0.73085   1.45939 
 O                    -2.47468   1.24751   1.40463 
 N                    -1.60927  -1.16892   1.1654 
 H                    -2.57717  -1.37885   0.90559 
 N                    -0.1073    1.1172   -5.74729 
 O                    -2.26361   1.77085  -5.63185 
 C                    -0.0346    1.32626  -7.18356 
 H                     0.97681   1.09247  -7.51283 
 H                    -0.26235   2.36645  -7.42981 
 H                    -0.74302   0.67805  -7.70729 
 H                     0.69023   0.71416  -5.27186 
 

 GradGradGradGradGradGradGradGradGradGradGradGradGradGradGradGradGradGrad
 Berny optimization.
 Initialization pass.
                           ----------------------------
                           !    Initial Parameters    !
                           ! (Angstroms and Degrees)  !
 --------------------------                            --------------------------
 ! Name  Definition              Value          Derivative Info.                !
 --------------------------------------------------------------------------------
 ! R1    R(1,2)                  1.3961         estimate D2E/DX2                !
 ! R2    R(1,10)                 1.391          estimate D2E/DX2                !
 ! R3    R(1,12)                 1.8038         estimate D2E/DX2                !
 ! R4    R(2,3)                  1.0871         estimate D2E/DX2                !
 ! R5    R(2,4)                  1.3891         estimate D2E/DX2                !
 ! R6    R(4,5)                  1.0855         estimate D2E/DX2                !
 ! R7    R(4,6)                  1.3998         estimate D2E/DX2                !
 ! R8    R(6,7)                  1.4996         estimate D2E/DX2                !
 ! R9    R(6,8)                  1.397          estimate D2E/DX2                !
 ! R10   R(7,17)                 1.3394         estimate D2E/DX2                !
 ! R11   R(7,18)                 1.2441         estimate D2E/DX2                !
 ! R12   R(8,9)                  1.0863         estimate D2E/DX2                !
 ! R13   R(8,10)                 1.3946         estimate D2E/DX2                !
 ! R14   R(10,11)                1.085          estimate D2E/DX2                !
 ! R15   R(12,13)                1.4868         estimate D2E/DX2                !
 ! R16   R(12,14)                1.4954         estimate D2E/DX2                !
 ! R17   R(12,15)                1.5626         estimate D2E/DX2                !
 ! R18   R(15,16)                1.0239         estimate D2E/DX2                !
 ! R19   R(17,19)                1.4532         estimate D2E/DX2                !
 ! R20   R(17,23)                1.0122         estimate D2E/DX2                !
 ! R21   R(19,20)                1.089          estimate D2E/DX2                !
 ! R22   R(19,21)                1.0929         estimate D2E/DX2                !
 ! R23   R(19,22)                1.0938         estimate D2E/DX2                !
 ! A1    A(2,1,10)             120.797          estimate D2E/DX2                !
 ! A2    A(2,1,12)             118.5289         estimate D2E/DX2                !
 ! A3    A(10,1,12)            120.6378         estimate D2E/DX2                !
 ! A4    A(1,2,3)              120.4993         estimate D2E/DX2                !
 ! A5    A(1,2,4)              119.4891         estimate D2E/DX2                !
 ! A6    A(3,2,4)              120.011          estimate D2E/DX2                !
 ! A7    A(2,4,5)              120.1556         estimate D2E/DX2                !
 ! A8    A(2,4,6)              120.3041         estimate D2E/DX2                !
 ! A9    A(5,4,6)              119.5394         estimate D2E/DX2                !
 ! A10   A(4,6,7)              117.7768         estimate D2E/DX2                !
 ! A11   A(4,6,8)              119.6884         estimate D2E/DX2                !
 ! A12   A(7,6,8)              122.5266         estimate D2E/DX2                !
 ! A13   A(6,7,17)             117.5218         estimate D2E/DX2                !
 ! A14   A(6,7,18)             120.827          estimate D2E/DX2                !
 ! A15   A(17,7,18)            121.6504         estimate D2E/DX2                !
 ! A16   A(6,8,9)              120.9867         estimate D2E/DX2                !
 ! A17   A(6,8,10)             120.2123         estimate D2E/DX2                !
 ! A18   A(9,8,10)             118.7799         estimate D2E/DX2                !
 ! A19   A(1,10,8)             119.505          estimate D2E/DX2                !
 ! A20   A(1,10,11)            120.2445         estimate D2E/DX2                !
 ! A21   A(8,10,11)            120.2465         estimate D2E/DX2                !
 ! A22   A(1,12,13)            105.1566         estimate D2E/DX2                !
 ! A23   A(1,12,14)            103.1455         estimate D2E/DX2                !
 ! A24   A(1,12,15)            109.7662         estimate D2E/DX2                !
 ! A25   A(13,12,14)           113.874          estimate D2E/DX2                !
 ! A26   A(13,12,15)           109.3252         estimate D2E/DX2                !
 ! A27   A(14,12,15)           114.8985         estimate D2E/DX2                !
 ! A28   A(12,15,16)           107.9176         estimate D2E/DX2                !
 ! A29   A(7,17,19)            121.2435         estimate D2E/DX2                !
 ! A30   A(7,17,23)            119.788          estimate D2E/DX2                !
 ! A31   A(19,17,23)           118.8224         estimate D2E/DX2                !
 ! A32   A(17,19,20)           108.3239         estimate D2E/DX2                !
 ! A33   A(17,19,21)           110.4372         estimate D2E/DX2                !
 ! A34   A(17,19,22)           110.829          estimate D2E/DX2                !
 ! A35   A(20,19,21)           109.2519         estimate D2E/DX2                !
 ! A36   A(20,19,22)           109.2397         estimate D2E/DX2                !
 ! A37   A(21,19,22)           108.7347         estimate D2E/DX2                !
 ! D1    D(10,1,2,3)           179.9971         estimate D2E/DX2                !
 ! D2    D(10,1,2,4)            -0.2974         estimate D2E/DX2                !
 ! D3    D(12,1,2,3)             2.1741         estimate D2E/DX2                !
 ! D4    D(12,1,2,4)          -178.1204         estimate D2E/DX2                !
 ! D5    D(2,1,10,8)            -0.1222         estimate D2E/DX2                !
 ! D6    D(2,1,10,11)          179.1512         estimate D2E/DX2                !
 ! D7    D(12,1,10,8)          177.6548         estimate D2E/DX2                !
 ! D8    D(12,1,10,11)          -3.0717         estimate D2E/DX2                !
 ! D9    D(2,1,12,13)         -171.1211         estimate D2E/DX2                !
 ! D10   D(2,1,12,14)          -51.5266         estimate D2E/DX2                !
 ! D11   D(2,1,12,15)           71.3844         estimate D2E/DX2                !
 ! D12   D(10,1,12,13)          11.0523         estimate D2E/DX2                !
 ! D13   D(10,1,12,14)         130.6468         estimate D2E/DX2                !
 ! D14   D(10,1,12,15)        -106.4422         estimate D2E/DX2                !
 ! D15   D(1,2,4,5)           -179.6215         estimate D2E/DX2                !
 ! D16   D(1,2,4,6)              0.7242         estimate D2E/DX2                !
 ! D17   D(3,2,4,5)              0.0854         estimate D2E/DX2                !
 ! D18   D(3,2,4,6)           -179.5689         estimate D2E/DX2                !
 ! D19   D(2,4,6,7)           -179.7178         estimate D2E/DX2                !
 ! D20   D(2,4,6,8)             -0.7311         estimate D2E/DX2                !
 ! D21   D(5,4,6,7)              0.6258         estimate D2E/DX2                !
 ! D22   D(5,4,6,8)            179.6125         estimate D2E/DX2                !
 ! D23   D(4,6,7,17)          -154.4759         estimate D2E/DX2                !
 ! D24   D(4,6,7,18)            25.1984         estimate D2E/DX2                !
 ! D25   D(8,6,7,17)            26.5681         estimate D2E/DX2                !
 ! D26   D(8,6,7,18)          -153.7575         estimate D2E/DX2                !
 ! D27   D(4,6,8,9)           -178.0002         estimate D2E/DX2                !
 ! D28   D(4,6,8,10)             0.3069         estimate D2E/DX2                !
 ! D29   D(7,6,8,9)              0.9365         estimate D2E/DX2                !
 ! D30   D(7,6,8,10)           179.2436         estimate D2E/DX2                !
 ! D31   D(6,7,17,19)         -179.6113         estimate D2E/DX2                !
 ! D32   D(6,7,17,23)            4.8346         estimate D2E/DX2                !
 ! D33   D(18,7,17,19)           0.7172         estimate D2E/DX2                !
 ! D34   D(18,7,17,23)        -174.8369         estimate D2E/DX2                !
 ! D35   D(6,8,10,1)             0.116          estimate D2E/DX2                !
 ! D36   D(6,8,10,11)         -179.1575         estimate D2E/DX2                !
 ! D37   D(9,8,10,1)           178.4601         estimate D2E/DX2                !
 ! D38   D(9,8,10,11)           -0.8134         estimate D2E/DX2                !
 ! D39   D(1,12,15,16)         -72.1837         estimate D2E/DX2                !
 ! D40   D(13,12,15,16)        172.954          estimate D2E/DX2                !
 ! D41   D(14,12,15,16)         43.4885         estimate D2E/DX2                !
 ! D42   D(7,17,19,20)         178.1767         estimate D2E/DX2                !
 ! D43   D(7,17,19,21)          58.5679         estimate D2E/DX2                !
 ! D44   D(7,17,19,22)         -61.9958         estimate D2E/DX2                !
 ! D45   D(23,17,19,20)         -6.2272         estimate D2E/DX2                !
 ! D46   D(23,17,19,21)       -125.836          estimate D2E/DX2                !
 ! D47   D(23,17,19,22)        113.6003         estimate D2E/DX2                !
 --------------------------------------------------------------------------------
 Trust Radius=3.00D-01 FncErr=1.00D-07 GrdErr=1.00D-06 EigMax=2.50D+02 EigMin=1.00D-04
 Number of steps in this run=    117 maximum allowed number of steps=    138.
 GradGradGradGradGradGradGradGradGradGradGradGradGradGradGradGradGradGrad

                          Input orientation:                          
 ---------------------------------------------------------------------
 Center     Atomic      Atomic             Coordinates (Angstroms)
 Number     Number       Type             X           Y           Z
 ---------------------------------------------------------------------
      1          6           0       -1.293146    0.700569   -0.836264
      2          6           0       -2.471427    0.625916   -1.581310
      3          1           0       -3.417769    0.400986   -1.095957
      4          6           0       -2.428997    0.847692   -2.951912
      5          1           0       -3.339600    0.798398   -3.540737
      6          6           0       -1.212420    1.128907   -3.584588
      7          6           0       -1.232989    1.365258   -5.065258
      8          6           0       -0.039882    1.201116   -2.828629
      9          1           0        0.910380    1.449622   -3.292735
     10          6           0       -0.078857    0.987890   -1.450935
     11          1           0        0.829234    1.057287   -0.861259
     12         16           0       -1.369392    0.357516    0.932959
     13          8           0       -0.030012    0.730854    1.459391
     14          8           0       -2.474681    1.247511    1.404632
     15          7           0       -1.609265   -1.168924    1.165398
     16          1           0       -2.577170   -1.378846    0.905586
     17          7           0       -0.107295    1.117196   -5.747286
     18          8           0       -2.263611    1.770849   -5.631852
     19          6           0       -0.034599    1.326262   -7.183561
     20          1           0        0.976810    1.092474   -7.512825
     21          1           0       -0.262352    2.366447   -7.429814
     22          1           0       -0.743020    0.678046   -7.707287
     23          1           0        0.690229    0.714163   -5.271856
 ---------------------------------------------------------------------
                    Distance matrix (angstroms):
                    1          2          3          4          5
     1  C    0.000000
     2  C    1.396070   0.000000
     3  H    2.161299   1.087071   0.000000
     4  C    2.405778   1.389077   2.149834   0.000000
     5  H    3.392892   2.150076   2.478103   1.085515   0.000000
     6  C    2.782674   2.418930   3.403927   1.399793   2.153150
     7  C    4.281334   3.770709   4.632325   2.482849   2.661448
     8  C    2.406395   2.792682   3.879753   2.418259   3.399620
     9  H    3.383911   3.878671   4.965717   3.410267   4.306731
    10  C    1.390997   2.423306   3.408636   2.792086   3.877580
    11  H    2.152294   3.405718   4.303818   3.876961   4.962439
    12  S    1.803787   2.758273   2.883442   4.056508   4.908162
    13  O    2.620392   3.900946   4.256232   5.022786   5.996600
    14  O    2.591676   3.049957   2.803385   4.375091   5.040482
    15  N    2.757097   3.392518   3.293787   4.657354   5.386290
    16  H    3.001121   3.196076   2.807238   4.456424   5.009140
    17  N    5.069315   4.815167   5.753873   3.643768   3.926613
    18  O    5.008489   4.214374   4.876776   2.839304   2.544833
    19  C    6.501047   6.149295   7.025731   4.885594   4.946902
    20  H    7.062773   6.876837   7.808116   5.697488   5.873275
    21  H    6.878415   6.489565   7.344211   5.201209   5.201265
    22  H    6.893047   6.365352   7.137277   5.048256   4.910891
    23  H    4.858851   4.860451   5.866162   3.889671   4.386729
                    6          7          8          9         10
     6  C    0.000000
     7  C    1.499556   0.000000
     8  C    1.396973   2.540267   0.000000
     9  H    2.166637   2.782622   1.086346   0.000000
    10  C    2.420191   3.812841   1.394642   2.141031   0.000000
    11  H    3.404409   4.692677   2.155596   2.464262   1.084971
    12  S    4.585620   6.083811   4.077843   4.924078   2.783128
    13  O    5.195985   6.664883   4.313741   4.897312   2.922063
    14  O    5.147785   6.589017   4.883738   5.793509   3.736528
    15  N    5.291491   6.736819   4.902275   5.751551   3.720107
    16  H    5.320999   6.707303   5.199846   6.147287   4.170875
    17  N    2.428724   1.339360   2.920641   2.677870   4.298390
    18  O    2.389222   1.244072   3.623207   3.955866   4.781866
    19  C    3.791941   2.434105   4.356733   4.005837   5.742774
    20  H    4.497233   3.308807   4.794492   4.235697   6.154013
    21  H    4.149686   2.745112   4.751673   4.396736   6.138492
    22  H    4.173758   2.773562   4.956744   4.776749   6.299131
    23  H    2.576618   2.040925   2.596063   2.122802   3.907155
                   11         12         13         14         15
    11  H    0.000000
    12  S    2.922816   0.000000
    13  O    2.496053   1.486758   0.000000
    14  O    4.010773   1.495403   2.499268   0.000000
    15  N    3.874227   1.562558   2.487896   2.577855   0.000000
    16  H    4.545335   2.115285   3.353438   2.675313   1.023919
    17  N    4.975333   6.840736   7.217439   7.534682   7.434209
    18  O    5.730045   6.774502   7.507082   7.059075   7.434584
    19  C    6.386709   8.282393   8.663438   8.928452   8.854978
    20  H    6.653296   8.796368   9.035769   9.563361   9.333448
    21  H    6.786116   8.671638   9.041411   9.175721   9.390990
    22  H    7.034480   8.668848   9.194518   9.292471   9.104187
    23  H    4.426107   6.547440   6.769691   7.407875   7.090270
                   16         17         18         19         20
    16  H    0.000000
    17  N    7.522713   0.000000
    18  O    7.263401   2.256166   0.000000
    19  C    8.900369   1.453231   2.752082   0.000000
    20  H    9.466142   2.071961   3.807700   1.089045   0.000000
    21  H    9.426797   2.101326   2.755439   1.092930   1.779163
    22  H    9.043036   2.106799   2.795326   1.093770   1.779714
    23  H    7.295024   1.012183   3.157745   2.134164   2.290675
                   21         22         23
    21  H    0.000000
    22  H    1.777282   0.000000
    23  H    2.879971   2.826098   0.000000
 Stoichiometry    C8H9N2O3S(1-)
 Framework group  C1[X(C8H9N2O3S)]
 Deg. of freedom    63
 Full point group                 C1      NOp   1
 Largest Abelian subgroup         C1      NOp   1
 Largest concise Abelian subgroup C1      NOp   1
                         Standard orientation:                         
 ---------------------------------------------------------------------
 Center     Atomic      Atomic             Coordinates (Angstroms)
 Number     Number       Type             X           Y           Z
 ---------------------------------------------------------------------
      1          6           0        1.227408   -0.006468   -0.055638
      2          6           0        0.612517    1.233595    0.126473
      3          1           0        1.210269    2.129087    0.276512
      4          6           0       -0.773845    1.318572    0.108753
      5          1           0       -1.263118    2.278210    0.243102
      6          6           0       -1.549720    0.168060   -0.074988
      7          6           0       -3.040855    0.325947   -0.091006
      8          6           0       -0.923195   -1.067306   -0.256294
      9          1           0       -1.503834   -1.968339   -0.432773
     10          6           0        0.468582   -1.156261   -0.248070
     11          1           0        0.955977   -2.113226   -0.402432
     12         16           0        3.027265   -0.095476    0.023371
     13          8           0        3.368290   -1.472407   -0.421843
     14          8           0        3.462699    0.973341   -0.927554
     15          7           0        3.501918    0.103376    1.498752
     16          1           0        3.365499    1.088203    1.743525
     17          7           0       -3.779434   -0.736135    0.255931
     18          8           0       -3.563902    1.408712   -0.409997
     19          6           0       -5.231391   -0.675490    0.260476
     20          1           0       -5.614134   -1.655632    0.541279
     21          1           0       -5.605520   -0.413451   -0.732429
     22          1           0       -5.587294    0.069488    0.977883
     23          1           0       -3.325187   -1.578472    0.585541
 ---------------------------------------------------------------------
 Rotational constants (GHZ):           2.0188820           0.2612128           0.2447622
 General basis read from cards:  (6D, 7F)
 There are   288 symmetry adapted cartesian basis functions of A   symmetry.
 There are   288 symmetry adapted basis functions of A   symmetry.
   288 basis functions,   508 primitive gaussians,   288 cartesian basis functions
    56 alpha electrons       56 beta electrons
       nuclear repulsion energy       983.3544540285 Hartrees.
 NAtoms=   23 NActive=   23 NUniq=   23 SFac= 1.00D+00 NAtFMM=   60 NAOKFM=F Big=F
 Integral buffers will be    131072 words long.
 Raffenetti 2 integral format.
 Two-electron integral symmetry is turned on.
 ------------------------------------------------------------------------------
 Polarizable Continuum Model (PCM)
 =================================
 Model                : PCM.
 Atomic radii         : SMD-Coulomb.
 Polarization charges : Total charges.
 Charge compensation  : None.
 Solution method      : On-the-fly selection.
 Cavity type          : VdW (van der Waals Surface) (Alpha=1.000).
 Cavity algorithm     : GePol (No added spheres)
                        Default sphere list used, NSphG=   23.
                        Lebedev-Laikov grids with approx.  5.0 points / Ang**2.
                        Smoothing algorithm: York/Karplus (Gamma=1.0000).
                        Polarization charges: spherical gaussians, with
                                              point-specific exponents (IZeta= 3).
                        Self-potential: point-specific (ISelfS= 7).
                        Self-field    : sphere-specific E.n sum rule (ISelfD= 2).
 1st derivatives      : Analytical E(r).r(x)/FMM algorithm (CHGder, D1EAlg=3).
                        Cavity 1st derivative terms included.
 Solvent              : Water, Eps=  78.355300 Eps(inf)=   1.777849
 ------------------------------------------------------------------------------
 ------------------------------------------------------------------------------
 Atomic radii for non-electrostatic terms: SMD-CDS.
 ------------------------------------------------------------------------------
 Nuclear repulsion after PCM non-electrostatic terms =      983.3613832315 Hartrees.
 One-electron integrals computed using PRISM.
 NBasis=   288 RedAO= T EigKep=  1.39D-06  NBF=   288
 NBsUse=   288 1.00D-06 EigRej= -1.00D+00 NBFU=   288
 ExpMin= 4.05D-02 ExpMax= 2.19D+04 ExpMxC= 3.30D+03 IAcc=3 IRadAn=         5 AccDes= 0.00D+00
 Harris functional with IExCor= 1009 and IRadAn=       5 diagonalized for initial guess.
 HarFok:  IExCor= 1009 AccDes= 0.00D+00 IRadAn=         5 IDoV= 1 UseB2=F ITyADJ=14
 ICtDFT=  3500011 ScaDFX=  1.000000  1.000000  1.000000  1.000000
 FoFCou: FMM=F IPFlag=           0 FMFlag=      100000 FMFlg1=           0
         NFxFlg=           0 DoJE=T BraDBF=F KetDBF=T FulRan=T
         wScrn=  0.000000 ICntrl=       500 IOpCl=  0 I1Cent=   200000004 NGrid=           0
         NMat0=    1 NMatS0=      1 NMatT0=    0 NMatD0=    1 NMtDS0=    0 NMtDT0=    0
 Petite list used in FoFCou.
 Requested convergence on RMS density matrix=1.00D-08 within 128 cycles.
 Requested convergence on MAX density matrix=1.00D-06.
 Requested convergence on             energy=1.00D-06.
 No special actions if energy rises.
 Inv3:  Mode=1 IEnd=    10389963.
 Iteration    1 A*A^-1 deviation from unit magnitude is 4.22D-15 for   1831.
 Iteration    1 A*A^-1 deviation from orthogonality  is 6.13D-15 for   1827    411.
 Iteration    1 A^-1*A deviation from unit magnitude is 4.00D-15 for   1842.
 Iteration    1 A^-1*A deviation from orthogonality  is 2.21D-15 for   1848   1669.
 Error on total polarization charges =  0.05984
 SCF Done:  E(RM062X) =  -1043.47312644     A.U. after   16 cycles
            NFock= 16  Conv=0.34D-08     -V/T= 2.0067
 SMD-CDS (non-electrostatic) energy       (kcal/mol) =       4.35
 (included in total energy above)

 **********************************************************************

            Population analysis using the SCF Density.

 **********************************************************************

 Orbital symmetries:
       Occupied  (A) (A) (A) (A) (A) (A) (A) (A) (A) (A) (A) (A)
                 (A) (A) (A) (A) (A) (A) (A) (A) (A) (A) (A) (A)
                 (A) (A) (A) (A) (A) (A) (A) (A) (A) (A) (A) (A)
                 (A) (A) (A) (A) (A) (A) (A) (A) (A) (A) (A) (A)
                 (A) (A) (A) (A) (A) (A) (A) (A)
       Virtual   (A) (A) (A) (A) (A) (A) (A) (A) (A) (A) (A) (A)
                 (A) (A) (A) (A) (A) (A) (A) (A) (A) (A) (A) (A)
                 (A) (A) (A) (A) (A) (A) (A) (A) (A) (A) (A) (A)
                 (A) (A) (A) (A) (A) (A) (A) (A) (A) (A) (A) (A)
                 (A) (A) (A) (A) (A) (A) (A) (A) (A) (A) (A) (A)
                 (A) (A) (A) (A) (A) (A) (A) (A) (A) (A) (A) (A)
                 (A) (A) (A) (A) (A) (A) (A) (A) (A) (A) (A) (A)
                 (A) (A) (A) (A) (A) (A) (A) (A) (A) (A) (A) (A)
                 (A) (A) (A) (A) (A) (A) (A) (A) (A) (A) (A) (A)
                 (A) (A) (A) (A) (A) (A) (A) (A) (A) (A) (A) (A)
                 (A) (A) (A) (A) (A) (A) (A) (A) (A) (A) (A) (A)
                 (A) (A) (A) (A) (A) (A) (A) (A) (A) (A) (A) (A)
                 (A) (A) (A) (A) (A) (A) (A) (A) (A) (A) (A) (A)
                 (A) (A) (A) (A) (A) (A) (A) (A) (A) (A) (A) (A)
                 (A) (A) (A) (A) (A) (A) (A) (A) (A) (A) (A) (A)
                 (A) (A) (A) (A) (A) (A) (A) (A) (A) (A) (A) (A)
                 (A) (A) (A) (A) (A) (A) (A) (A) (A) (A) (A) (A)
                 (A) (A) (A) (A) (A) (A) (A) (A) (A) (A) (A) (A)
                 (A) (A) (A) (A) (A) (A) (A) (A) (A) (A) (A) (A)
                 (A) (A) (A) (A)
 The electronic state is 1-A.
 Alpha  occ. eigenvalues --  -90.13537 -19.62741 -19.62146 -19.61988 -14.79703
 Alpha  occ. eigenvalues --  -14.71918 -10.66757 -10.58331 -10.57682 -10.57220
 Alpha  occ. eigenvalues --  -10.57031 -10.56855 -10.56762 -10.56704  -8.44425
 Alpha  occ. eigenvalues --   -6.36669  -6.36574  -6.36495  -1.20837  -1.16966
 Alpha  occ. eigenvalues --   -1.09245  -1.03851  -0.98085  -0.95993  -0.87905
 Alpha  occ. eigenvalues --   -0.85811  -0.80543  -0.73951  -0.70374  -0.68103
 Alpha  occ. eigenvalues --   -0.65939  -0.63038  -0.59171  -0.55940  -0.55363
 Alpha  occ. eigenvalues --   -0.53953  -0.52814  -0.52679  -0.51122  -0.50845
 Alpha  occ. eigenvalues --   -0.49754  -0.47093  -0.45853  -0.45270  -0.44458
 Alpha  occ. eigenvalues --   -0.42125  -0.41291  -0.39490  -0.37477  -0.36440
 Alpha  occ. eigenvalues --   -0.35168  -0.33596  -0.32907  -0.32220  -0.31967
 Alpha  occ. eigenvalues --   -0.28837
 Alpha virt. eigenvalues --   -0.02063   0.00881   0.01762   0.02907   0.04010
 Alpha virt. eigenvalues --    0.04399   0.04771   0.05197   0.05478   0.06110
 Alpha virt. eigenvalues --    0.06195   0.07492   0.07590   0.08716   0.08780
 Alpha virt. eigenvalues --    0.09413   0.09932   0.10399   0.11358   0.12228
 Alpha virt. eigenvalues --    0.12684   0.13052   0.13402   0.14167   0.14787
 Alpha virt. eigenvalues --    0.15653   0.15948   0.16397   0.17029   0.17555
 Alpha virt. eigenvalues --    0.17732   0.18763   0.19388   0.19988   0.20801
 Alpha virt. eigenvalues --    0.20890   0.21696   0.22006   0.22664   0.22898
 Alpha virt. eigenvalues --    0.23771   0.24277   0.24554   0.25367   0.25439
 Alpha virt. eigenvalues --    0.25948   0.26278   0.26499   0.26993   0.27312
 Alpha virt. eigenvalues --    0.27554   0.28006   0.28957   0.29010   0.29854
 Alpha virt. eigenvalues --    0.30024   0.30515   0.31253   0.31734   0.31757
 Alpha virt. eigenvalues --    0.32335   0.33185   0.33500   0.34040   0.34641
 Alpha virt. eigenvalues --    0.35261   0.35917   0.36269   0.37081   0.37801
 Alpha virt. eigenvalues --    0.38655   0.39581   0.40625   0.41364   0.42350
 Alpha virt. eigenvalues --    0.43857   0.44775   0.47853   0.49460   0.51038
 Alpha virt. eigenvalues --    0.55320   0.59032   0.60472   0.62088   0.67304
 Alpha virt. eigenvalues --    0.68857   0.70831   0.72018   0.72704   0.73494
 Alpha virt. eigenvalues --    0.73627   0.74819   0.76375   0.78093   0.79146
 Alpha virt. eigenvalues --    0.79450   0.81459   0.82117   0.83519   0.84581
 Alpha virt. eigenvalues --    0.85752   0.87499   0.88335   0.91474   0.92312
 Alpha virt. eigenvalues --    0.95255   0.96242   0.97292   0.98519   1.00822
 Alpha virt. eigenvalues --    1.02585   1.03439   1.03859   1.04963   1.07110
 Alpha virt. eigenvalues --    1.07787   1.08797   1.10018   1.10869   1.11768
 Alpha virt. eigenvalues --    1.12965   1.13313   1.13823   1.17241   1.17384
 Alpha virt. eigenvalues --    1.18866   1.20333   1.21672   1.22734   1.25350
 Alpha virt. eigenvalues --    1.26165   1.27483   1.31160   1.32635   1.33703
 Alpha virt. eigenvalues --    1.35399   1.36042   1.37374   1.39446   1.40061
 Alpha virt. eigenvalues --    1.40798   1.41248   1.42096   1.42536   1.43684
 Alpha virt. eigenvalues --    1.45105   1.45911   1.47211   1.50798   1.52020
 Alpha virt. eigenvalues --    1.53292   1.53970   1.55283   1.56464   1.57547
 Alpha virt. eigenvalues --    1.61361   1.63343   1.71004   1.73142   1.79059
 Alpha virt. eigenvalues --    1.80217   1.81800   1.84082   1.84368   1.86245
 Alpha virt. eigenvalues --    1.88800   1.89317   1.89802   1.91209   1.93073
 Alpha virt. eigenvalues --    1.93973   1.97429   1.99162   2.00768   2.01390
 Alpha virt. eigenvalues --    2.03064   2.05412   2.06882   2.08244   2.08979
 Alpha virt. eigenvalues --    2.14315   2.15052   2.16987   2.17325   2.18453
 Alpha virt. eigenvalues --    2.19489   2.21697   2.22908   2.26735   2.27840
 Alpha virt. eigenvalues --    2.30473   2.32447   2.32990   2.34733   2.37867
 Alpha virt. eigenvalues --    2.41112   2.41586   2.44026   2.50906   2.56549
 Alpha virt. eigenvalues --    2.57847   2.63237   2.64783   2.66490   2.69718
 Alpha virt. eigenvalues --    2.72414   2.74978   2.76132   2.80325   2.81689
 Alpha virt. eigenvalues --    2.87593   2.91582   2.93408   2.98054   3.11485
 Alpha virt. eigenvalues --    3.16404   3.26098   3.41545   3.98994   4.09705
 Alpha virt. eigenvalues --    4.12940   4.25051   4.26053   4.29809   4.31562
 Alpha virt. eigenvalues --    4.34251   4.36693   4.40101   4.42424   4.47840
 Alpha virt. eigenvalues --    4.62643   4.76395
          Condensed to atoms (all electrons):
               1          2          3          4          5          6
     1  C   34.115199  -2.898490   0.071909  -1.813321   0.041849  -4.364843
     2  C   -2.898490  46.753666   0.300848  -9.328462  -0.053203  -1.276149
     3  H    0.071909   0.300848   0.429720  -0.108984  -0.003218  -0.003164
     4  C   -1.813321  -9.328462  -0.108984  18.691974   0.282945  -2.436505
     5  H    0.041849  -0.053203  -0.003218   0.282945   0.432645   0.048128
     6  C   -4.364843  -1.276149  -0.003164  -2.436505   0.048128  19.422648
     7  C   -1.768295  -2.221567  -0.006284   2.306932  -0.051519  -8.513062
     8  C   -1.747582   3.099615  -0.035427  -4.274633   0.056808   1.963975
     9  H    0.024316  -0.048004   0.000013   0.067252  -0.000106   0.027515
    10  C  -11.965944 -30.874106   0.075858   2.566007  -0.025559   2.237107
    11  H   -0.019166  -0.015935  -0.000110  -0.006679   0.000011   0.006341
    12  S   -1.544626   1.304622   0.005248   0.113892  -0.000158  -0.181321
    13  O   -0.126778   0.242435   0.000651   0.104525   0.000028  -0.047742
    14  O   -0.071888   0.014615   0.004514   0.022395  -0.000022  -0.056839
    15  N   -0.191767   0.187180  -0.000916  -0.005442  -0.000029   0.023703
    16  H   -0.090261  -0.010654  -0.000430   0.022409  -0.000000  -0.003031
    17  N   -0.071568   0.050290   0.000065  -0.007433   0.000257  -0.788006
    18  O   -0.008729   0.047146   0.000082  -0.050775   0.004787  -0.144872
    19  C    0.003277  -0.016400  -0.000025   0.036352  -0.000375  -0.155571
    20  H    0.000084  -0.000066   0.000000   0.000741   0.000000   0.016069
    21  H   -0.000575   0.002519  -0.000000   0.013510   0.000000   0.009035
    22  H    0.000083  -0.002907   0.000000  -0.014445   0.000000  -0.028007
    23  H    0.000750   0.003635   0.000000  -0.004834  -0.000003  -0.020027
               7          8          9         10         11         12
     1  C   -1.768295  -1.747582   0.024316 -11.965944  -0.019166  -1.544626
     2  C   -2.221567   3.099615  -0.048004 -30.874106  -0.015935   1.304622
     3  H   -0.006284  -0.035427   0.000013   0.075858  -0.000110   0.005248
     4  C    2.306932  -4.274633   0.067252   2.566007  -0.006679   0.113892
     5  H   -0.051519   0.056808  -0.000106  -0.025559   0.000011  -0.000158
     6  C   -8.513062   1.963975   0.027515   2.237107   0.006341  -0.181321
     7  C   14.398764  -3.132053  -0.021869   3.389936   0.003134  -0.203479
     8  C   -3.132053  18.517070   0.210875  -8.658776   0.000348   0.009297
     9  H   -0.021869   0.210875   0.438955   0.028792  -0.003441   0.002648
    10  C    3.389936  -8.658776   0.028792  50.981041   0.345088  -0.636651
    11  H    0.003134   0.000348  -0.003441   0.345088   0.426431  -0.012141
    12  S   -0.203479   0.009297   0.002648  -0.636651  -0.012141  14.986823
    13  O   -0.004091   0.092630   0.000346  -0.486247   0.004903   0.202896
    14  O   -0.022039   0.086356   0.000027  -0.110151   0.000382   0.136136
    15  N   -0.003243   0.029965   0.000080  -0.128286  -0.000775   0.174935
    16  H   -0.000158   0.004153   0.000000   0.017049  -0.000011   0.091016
    17  N    0.814846   0.026671   0.004933   0.017252   0.000278  -0.003017
    18  O    0.489687  -0.007249  -0.000549   0.014887   0.000022   0.000002
    19  C   -0.058059  -0.034999   0.004731  -0.009447   0.000066   0.000094
    20  H   -0.002846  -0.002697   0.000018  -0.000076  -0.000000   0.000001
    21  H   -0.010496  -0.019348  -0.000005  -0.003308   0.000000  -0.000001
    22  H   -0.010158   0.017467  -0.000003   0.002090   0.000000  -0.000003
    23  H    0.001900   0.008909   0.002561   0.003557  -0.000000   0.000048
              13         14         15         16         17         18
     1  C   -0.126778  -0.071888  -0.191767  -0.090261  -0.071568  -0.008729
     2  C    0.242435   0.014615   0.187180  -0.010654   0.050290   0.047146
     3  H    0.000651   0.004514  -0.000916  -0.000430   0.000065   0.000082
     4  C    0.104525   0.022395  -0.005442   0.022409  -0.007433  -0.050775
     5  H    0.000028  -0.000022  -0.000029  -0.000000   0.000257   0.004787
     6  C   -0.047742  -0.056839   0.023703  -0.003031  -0.788006  -0.144872
     7  C   -0.004091  -0.022039  -0.003243  -0.000158   0.814846   0.489687
     8  C    0.092630   0.086356   0.029965   0.004153   0.026671  -0.007249
     9  H    0.000346   0.000027   0.000080   0.000000   0.004933  -0.000549
    10  C   -0.486247  -0.110151  -0.128286   0.017049   0.017252   0.014887
    11  H    0.004903   0.000382  -0.000775  -0.000011   0.000278   0.000022
    12  S    0.202896   0.136136   0.174935   0.091016  -0.003017   0.000002
    13  O    9.056795  -0.100231  -0.171708   0.017795  -0.000076   0.000001
    14  O   -0.100231   8.955260  -0.167656  -0.011863  -0.000060   0.000010
    15  N   -0.171708  -0.167656   7.975619   0.199626  -0.000049  -0.000025
    16  H    0.017795  -0.011863   0.199626   0.358729  -0.000000  -0.000000
    17  N   -0.000076  -0.000060  -0.000049  -0.000000   7.365495  -0.173973
    18  O    0.000001   0.000010  -0.000025  -0.000000  -0.173973   8.540038
    19  C    0.000038  -0.000010   0.000043   0.000001   0.160699  -0.011396
    20  H   -0.000000  -0.000000   0.000000  -0.000000  -0.038278   0.001871
    21  H   -0.000000  -0.000000  -0.000000  -0.000000  -0.049571   0.003372
    22  H    0.000000  -0.000000   0.000000   0.000000  -0.028085  -0.001648
    23  H    0.000001   0.000000   0.000002   0.000000   0.273225   0.006992
              19         20         21         22         23
     1  C    0.003277   0.000084  -0.000575   0.000083   0.000750
     2  C   -0.016400  -0.000066   0.002519  -0.002907   0.003635
     3  H   -0.000025   0.000000  -0.000000   0.000000   0.000000
     4  C    0.036352   0.000741   0.013510  -0.014445  -0.004834
     5  H   -0.000375   0.000000   0.000000   0.000000  -0.000003
     6  C   -0.155571   0.016069   0.009035  -0.028007  -0.020027
     7  C   -0.058059  -0.002846  -0.010496  -0.010158   0.001900
     8  C   -0.034999  -0.002697  -0.019348   0.017467   0.008909
     9  H    0.004731   0.000018  -0.000005  -0.000003   0.002561
    10  C   -0.009447  -0.000076  -0.003308   0.002090   0.003557
    11  H    0.000066  -0.000000   0.000000   0.000000  -0.000000
    12  S    0.000094   0.000001  -0.000001  -0.000003   0.000048
    13  O    0.000038  -0.000000  -0.000000   0.000000   0.000001
    14  O   -0.000010  -0.000000  -0.000000  -0.000000   0.000000
    15  N    0.000043   0.000000  -0.000000   0.000000   0.000002
    16  H    0.000001  -0.000000  -0.000000   0.000000   0.000000
    17  N    0.160699  -0.038278  -0.049571  -0.028085   0.273225
    18  O   -0.011396   0.001871   0.003372  -0.001648   0.006992
    19  C    5.396794   0.379751   0.398914   0.413399  -0.017676
    20  H    0.379751   0.444147  -0.020808  -0.022547  -0.003777
    21  H    0.398914  -0.020808   0.459712  -0.033174   0.001839
    22  H    0.413399  -0.022547  -0.033174   0.457201   0.001816
    23  H   -0.017676  -0.003777   0.001839   0.001816   0.260056
 Mulliken charges:
               1
     1  C   -1.573635
     2  C    0.739371
     3  H    0.269650
     4  C   -0.177420
     5  H    0.266737
     6  C    0.264618
     7  C    0.624019
     8  C   -0.211376
     9  H    0.260915
    10  C   -0.780112
    11  H    0.271253
    12  S    1.553739
    13  O   -0.786171
    14  O   -0.678936
    15  N   -0.921259
    16  H    0.405629
    17  N   -0.553895
    18  O   -0.709677
    19  C   -0.490201
    20  H    0.248416
    21  H    0.248387
    22  H    0.248922
    23  H    0.481028
 Sum of Mulliken charges =  -1.00000
 Mulliken charges with hydrogens summed into heavy atoms:
               1
     1  C   -1.573635
     2  C    1.009021
     4  C    0.089317
     6  C    0.264618
     7  C    0.624019
     8  C    0.049539
    10  C   -0.508859
    12  S    1.553739
    13  O   -0.786171
    14  O   -0.678936
    15  N   -0.515630
    17  N   -0.072867
    18  O   -0.709677
    19  C    0.255523
 Electronic spatial extent (au):  <R**2>=           4333.9636
 Charge=             -1.0000 electrons
 Dipole moment (field-independent basis, Debye):
    X=            -18.8048    Y=             -3.0076    Z=              2.5012  Tot=             19.2074
 Quadrupole moment (field-independent basis, Debye-Ang):
   XX=           -160.1563   YY=            -93.6829   ZZ=           -103.1373
   XY=             30.6721   XZ=             -5.4639   YZ=              6.5272
 Traceless Quadrupole moment (field-independent basis, Debye-Ang):
   XX=            -41.1641   YY=             25.3093   ZZ=             15.8548
   XY=             30.6721   XZ=             -5.4639   YZ=              6.5272
 Octapole moment (field-independent basis, Debye-Ang**2):
  XXX=           -331.5940  YYY=             -7.8257  ZZZ=            -10.3088  XYY=            -23.1751
  XXY=            -55.7384  XXZ=             27.0206  XZZ=            -35.4877  YZZ=              2.1132
  YYZ=             14.0837  XYZ=             12.9338
 Hexadecapole moment (field-independent basis, Debye-Ang**3):
 XXXX=          -5580.1595 YYYY=           -574.0795 ZZZZ=           -300.0167 XXXY=            436.7575
 XXXZ=           -147.9327 YYYX=            102.7418 YYYZ=             12.3842 ZZZX=            -42.3597
 ZZZY=             14.7471 XXYY=          -1027.4188 XXZZ=           -980.5493 YYZZ=           -149.5579
 XXYZ=             57.0742 YYXZ=              0.7628 ZZXY=             20.3245
 N-N= 9.833613832315D+02 E-N=-4.432844495486D+03  KE= 1.036501723619D+03
 D1PCM: PCM CHGder 1st derivatives, ID1Alg=3 FixD1E=F DoIter=F DoCFld=F I1PDM=0.
 Calling FoFJK, ICntrl=      2127 FMM=F ISym2X=0 I1Cent= 0 IOpClX= 0 NMat=1 NMatS=1 NMatT=0.
 ***** Axes restored to original set *****
 -------------------------------------------------------------------
 Center     Atomic                   Forces (Hartrees/Bohr)
 Number     Number              X              Y              Z
 -------------------------------------------------------------------
      1        6          -0.000003966   -0.000001808   -0.000002952
      2        6          -0.000001637    0.000004970   -0.000000803
      3        1          -0.000002776    0.000000804   -0.000002975
      4        6           0.000000152    0.000003084   -0.000003161
      5        1           0.000000264    0.000006868   -0.000001990
      6        6           0.000001689    0.000004187   -0.000000161
      7        6           0.000010432   -0.000009779   -0.000000401
      8        6          -0.000001895   -0.000002833   -0.000000205
      9        1           0.000002589   -0.000004784    0.000006493
     10        6           0.000002733   -0.000004919    0.000006912
     11        1          -0.000001293   -0.000010749    0.000000093
     12       16          -0.000004757   -0.000010863    0.000003159
     13        8          -0.000004922   -0.000011248   -0.000002940
     14        8          -0.000002353   -0.000006420   -0.000001857
     15        7          -0.000015631    0.000004865   -0.000005714
     16        1          -0.000004171   -0.000001937   -0.000003520
     17        7          -0.000000790    0.000022915    0.000006432
     18        8           0.000004162    0.000010051   -0.000001845
     19        6           0.000003966    0.000000895    0.000003447
     20        1           0.000005195    0.000001289    0.000001343
     21        1           0.000009535    0.000006277    0.000003316
     22        1           0.000003499    0.000006551   -0.000000688
     23        1          -0.000000027   -0.000007415   -0.000001983
 -------------------------------------------------------------------
 Cartesian Forces:  Max     0.000022915 RMS     0.000005832

 GradGradGradGradGradGradGradGradGradGradGradGradGradGradGradGradGradGrad
 Berny optimization.
 FormGI is forming the generalized inverse of G from B-inverse, IUseBI=4.
 Internal  Forces:  Max     0.000010082 RMS     0.000002350
 Search for a local minimum.
 Step number   1 out of a maximum of  117
 All quantities printed in internal units (Hartrees-Bohrs-Radians)
 Mixed Optimization -- En-DIIS/RFO-DIIS
 Second derivative matrix not updated -- first step.
 ITU=  0
     Eigenvalues ---    0.00320   0.00772   0.00988   0.01439   0.01607
     Eigenvalues ---    0.01640   0.01712   0.02118   0.02145   0.02157
     Eigenvalues ---    0.02172   0.02176   0.02188   0.02197   0.02494
     Eigenvalues ---    0.03114   0.07457   0.07705   0.10406   0.11860
     Eigenvalues ---    0.15968   0.15993   0.15999   0.16000   0.16000
     Eigenvalues ---    0.16000   0.16000   0.16000   0.16000   0.17025
     Eigenvalues ---    0.21612   0.22000   0.22007   0.22979   0.23994
     Eigenvalues ---    0.24982   0.24996   0.25000   0.25000   0.25000
     Eigenvalues ---    0.25821   0.32424   0.34381   0.34476   0.34923
     Eigenvalues ---    0.35153   0.35238   0.35336   0.35400   0.37825
     Eigenvalues ---    0.42274   0.42328   0.43719   0.45609   0.46043
     Eigenvalues ---    0.46207   0.46793   0.47217   0.57349   0.59198
     Eigenvalues ---    0.78219   0.81234   0.85466
 RFO step:  Lambda= 0.00000000D+00 EMin= 3.20201991D-03
 Linear search not attempted -- first point.
 Iteration  1 RMS(Cart)=  0.00013025 RMS(Int)=  0.00000001
 Iteration  2 RMS(Cart)=  0.00000001 RMS(Int)=  0.00000000
 Variable       Old X    -DE/DX   Delta X   Delta X   Delta X     New X
                                 (Linear)    (Quad)   (Total)
    R1        2.63819  -0.00000   0.00000  -0.00000  -0.00000   2.63819
    R2        2.62860  -0.00000   0.00000  -0.00000  -0.00000   2.62860
    R3        3.40866  -0.00000   0.00000  -0.00000  -0.00000   3.40866
    R4        2.05427   0.00000   0.00000   0.00000   0.00000   2.05427
    R5        2.62497   0.00000   0.00000   0.00000   0.00000   2.62498
    R6        2.05133   0.00000   0.00000   0.00000   0.00000   2.05133
    R7        2.64523   0.00000   0.00000   0.00000   0.00000   2.64523
    R8        2.83375   0.00000   0.00000   0.00000   0.00000   2.83375
    R9        2.63990   0.00000   0.00000   0.00000   0.00000   2.63990
   R10        2.53102  -0.00001   0.00000  -0.00001  -0.00001   2.53101
   R11        2.35095   0.00000   0.00000   0.00000   0.00000   2.35096
   R12        2.05290  -0.00000   0.00000  -0.00000  -0.00000   2.05289
   R13        2.63549   0.00000   0.00000   0.00000   0.00000   2.63549
   R14        2.05030  -0.00000   0.00000  -0.00000  -0.00000   2.05030
   R15        2.80957  -0.00000   0.00000  -0.00000  -0.00000   2.80956
   R16        2.82590  -0.00000   0.00000  -0.00000  -0.00000   2.82590
   R17        2.95281  -0.00001   0.00000  -0.00002  -0.00002   2.95279
   R18        1.93493  -0.00001   0.00000  -0.00001  -0.00001   1.93491
   R19        2.74621  -0.00000   0.00000  -0.00000  -0.00000   2.74621
   R20        1.91275  -0.00000   0.00000  -0.00000  -0.00000   1.91275
   R21        2.05800   0.00000   0.00000   0.00000   0.00000   2.05800
   R22        2.06534   0.00000   0.00000   0.00000   0.00000   2.06534
   R23        2.06693   0.00000   0.00000   0.00000   0.00000   2.06693
    A1        2.10831   0.00000   0.00000   0.00001   0.00001   2.10831
    A2        2.06872   0.00000   0.00000   0.00001   0.00001   2.06873
    A3        2.10553  -0.00000   0.00000  -0.00002  -0.00002   2.10551
    A4        2.10311  -0.00000   0.00000  -0.00000  -0.00000   2.10311
    A5        2.08548  -0.00000   0.00000  -0.00000  -0.00000   2.08548
    A6        2.09459   0.00000   0.00000   0.00000   0.00000   2.09459
    A7        2.09711  -0.00000   0.00000  -0.00000  -0.00000   2.09711
    A8        2.09970   0.00000   0.00000   0.00000   0.00000   2.09970
    A9        2.08636   0.00000   0.00000   0.00000   0.00000   2.08636
   A10        2.05559  -0.00000   0.00000  -0.00001  -0.00001   2.05558
   A11        2.08896  -0.00000   0.00000  -0.00001  -0.00001   2.08895
   A12        2.13849   0.00000   0.00000   0.00002   0.00002   2.13851
   A13        2.05114   0.00001   0.00000   0.00003   0.00003   2.05117
   A14        2.10883  -0.00000   0.00000  -0.00001  -0.00001   2.10882
   A15        2.12320  -0.00001   0.00000  -0.00002  -0.00002   2.12318
   A16        2.11162   0.00000   0.00000   0.00002   0.00002   2.11163
   A17        2.09810   0.00000   0.00000   0.00001   0.00001   2.09811
   A18        2.07310  -0.00000   0.00000  -0.00003  -0.00003   2.07307
   A19        2.08576  -0.00000   0.00000  -0.00001  -0.00001   2.08575
   A20        2.09866   0.00000   0.00000   0.00001   0.00001   2.09868
   A21        2.09870  -0.00000   0.00000  -0.00000  -0.00000   2.09869
   A22        1.83533  -0.00001   0.00000  -0.00002  -0.00002   1.83531
   A23        1.80023  -0.00000   0.00000   0.00000   0.00000   1.80023
   A24        1.91578   0.00000   0.00000   0.00002   0.00002   1.91580
   A25        1.98748   0.00000   0.00000   0.00002   0.00002   1.98749
   A26        1.90808   0.00000   0.00000   0.00000   0.00000   1.90809
   A27        2.00536  -0.00000   0.00000  -0.00001  -0.00001   2.00534
   A28        1.88352   0.00000   0.00000   0.00001   0.00001   1.88353
   A29        2.11610   0.00000   0.00000  -0.00000  -0.00000   2.11610
   A30        2.09069   0.00000   0.00000   0.00000   0.00000   2.09070
   A31        2.07384  -0.00000   0.00000  -0.00002  -0.00002   2.07382
   A32        1.89061   0.00000   0.00000   0.00000   0.00000   1.89061
   A33        1.92749  -0.00000   0.00000   0.00000   0.00000   1.92749
   A34        1.93433   0.00000   0.00000   0.00000   0.00000   1.93433
   A35        1.90681  -0.00000   0.00000  -0.00000  -0.00000   1.90680
   A36        1.90659  -0.00000   0.00000  -0.00001  -0.00001   1.90659
   A37        1.89778   0.00000   0.00000   0.00001   0.00001   1.89778
    D1        3.14154  -0.00000   0.00000  -0.00007  -0.00007   3.14147
    D2       -0.00519  -0.00000   0.00000  -0.00003  -0.00003  -0.00522
    D3        0.03794  -0.00000   0.00000  -0.00009  -0.00009   0.03785
    D4       -3.10879  -0.00000   0.00000  -0.00005  -0.00005  -3.10884
    D5       -0.00213   0.00000   0.00000   0.00006   0.00006  -0.00207
    D6        3.12678   0.00000   0.00000   0.00005   0.00005   3.12683
    D7        3.10066   0.00000   0.00000   0.00008   0.00008   3.10074
    D8       -0.05361   0.00000   0.00000   0.00007   0.00007  -0.05354
    D9       -2.98663  -0.00000   0.00000  -0.00010  -0.00010  -2.98673
   D10       -0.89931   0.00000   0.00000  -0.00009  -0.00009  -0.89940
   D11        1.24589  -0.00000   0.00000  -0.00010  -0.00010   1.24579
   D12        0.19290  -0.00000   0.00000  -0.00012  -0.00012   0.19278
   D13        2.28022   0.00000   0.00000  -0.00011  -0.00011   2.28010
   D14       -1.85777  -0.00000   0.00000  -0.00012  -0.00012  -1.85789
   D15       -3.13499  -0.00000   0.00000  -0.00000  -0.00000  -3.13499
   D16        0.01264  -0.00000   0.00000  -0.00003  -0.00003   0.01261
   D17        0.00149   0.00000   0.00000   0.00004   0.00004   0.00153
   D18       -3.13407   0.00000   0.00000   0.00002   0.00002  -3.13405
   D19       -3.13667   0.00000   0.00000   0.00008   0.00008  -3.13659
   D20       -0.01276   0.00000   0.00000   0.00005   0.00005  -0.01271
   D21        0.01092   0.00000   0.00000   0.00005   0.00005   0.01097
   D22        3.13483   0.00000   0.00000   0.00003   0.00003   3.13486
   D23       -2.69611  -0.00000   0.00000  -0.00005  -0.00005  -2.69616
   D24        0.43980   0.00000   0.00000   0.00009   0.00009   0.43989
   D25        0.46370  -0.00000   0.00000  -0.00002  -0.00002   0.46368
   D26       -2.68358   0.00000   0.00000   0.00011   0.00011  -2.68346
   D27       -3.10669  -0.00000   0.00000  -0.00001  -0.00001  -3.10670
   D28        0.00536  -0.00000   0.00000  -0.00002  -0.00002   0.00533
   D29        0.01635  -0.00000   0.00000  -0.00003  -0.00003   0.01631
   D30        3.12839  -0.00000   0.00000  -0.00005  -0.00005   3.12834
   D31       -3.13481  -0.00000   0.00000  -0.00003  -0.00003  -3.13484
   D32        0.08438   0.00000   0.00000   0.00026   0.00026   0.08464
   D33        0.01252  -0.00000   0.00000  -0.00017  -0.00017   0.01235
   D34       -3.05148   0.00000   0.00000   0.00012   0.00012  -3.05136
   D35        0.00202  -0.00000   0.00000  -0.00003  -0.00003   0.00199
   D36       -3.12689  -0.00000   0.00000  -0.00002  -0.00002  -3.12691
   D37        3.11472  -0.00000   0.00000  -0.00005  -0.00005   3.11467
   D38       -0.01420  -0.00000   0.00000  -0.00004  -0.00004  -0.01423
   D39       -1.25984  -0.00000   0.00000  -0.00001  -0.00001  -1.25985
   D40        3.01862   0.00000   0.00000   0.00001   0.00001   3.01863
   D41        0.75902  -0.00000   0.00000  -0.00000  -0.00000   0.75901
   D42        3.10977   0.00000   0.00000   0.00021   0.00021   3.10998
   D43        1.02220   0.00000   0.00000   0.00021   0.00021   1.02241
   D44       -1.08203   0.00000   0.00000   0.00020   0.00020  -1.08183
   D45       -0.10869  -0.00000   0.00000  -0.00008  -0.00008  -0.10877
   D46       -2.19625  -0.00000   0.00000  -0.00008  -0.00008  -2.19633
   D47        1.98270  -0.00000   0.00000  -0.00009  -0.00009   1.98261
         Item               Value     Threshold  Converged?
 Maximum Force            0.000010     0.000450     YES
 RMS     Force            0.000002     0.000300     YES
 Maximum Displacement     0.000419     0.001800     YES
 RMS     Displacement     0.000130     0.001200     YES
 Predicted change in Energy=-3.780270D-09
 Optimization completed.
    -- Stationary point found.
                           ----------------------------
                           !   Optimized Parameters   !
                           ! (Angstroms and Degrees)  !
 --------------------------                            --------------------------
 ! Name  Definition              Value          Derivative Info.                !
 --------------------------------------------------------------------------------
 ! R1    R(1,2)                  1.3961         -DE/DX =    0.0                 !
 ! R2    R(1,10)                 1.391          -DE/DX =    0.0                 !
 ! R3    R(1,12)                 1.8038         -DE/DX =    0.0                 !
 ! R4    R(2,3)                  1.0871         -DE/DX =    0.0                 !
 ! R5    R(2,4)                  1.3891         -DE/DX =    0.0                 !
 ! R6    R(4,5)                  1.0855         -DE/DX =    0.0                 !
 ! R7    R(4,6)                  1.3998         -DE/DX =    0.0                 !
 ! R8    R(6,7)                  1.4996         -DE/DX =    0.0                 !
 ! R9    R(6,8)                  1.397          -DE/DX =    0.0                 !
 ! R10   R(7,17)                 1.3394         -DE/DX =    0.0                 !
 ! R11   R(7,18)                 1.2441         -DE/DX =    0.0                 !
 ! R12   R(8,9)                  1.0863         -DE/DX =    0.0                 !
 ! R13   R(8,10)                 1.3946         -DE/DX =    0.0                 !
 ! R14   R(10,11)                1.085          -DE/DX =    0.0                 !
 ! R15   R(12,13)                1.4868         -DE/DX =    0.0                 !
 ! R16   R(12,14)                1.4954         -DE/DX =    0.0                 !
 ! R17   R(12,15)                1.5626         -DE/DX =    0.0                 !
 ! R18   R(15,16)                1.0239         -DE/DX =    0.0                 !
 ! R19   R(17,19)                1.4532         -DE/DX =    0.0                 !
 ! R20   R(17,23)                1.0122         -DE/DX =    0.0                 !
 ! R21   R(19,20)                1.089          -DE/DX =    0.0                 !
 ! R22   R(19,21)                1.0929         -DE/DX =    0.0                 !
 ! R23   R(19,22)                1.0938         -DE/DX =    0.0                 !
 ! A1    A(2,1,10)             120.797          -DE/DX =    0.0                 !
 ! A2    A(2,1,12)             118.5289         -DE/DX =    0.0                 !
 ! A3    A(10,1,12)            120.6378         -DE/DX =    0.0                 !
 ! A4    A(1,2,3)              120.4993         -DE/DX =    0.0                 !
 ! A5    A(1,2,4)              119.4891         -DE/DX =    0.0                 !
 ! A6    A(3,2,4)              120.011          -DE/DX =    0.0                 !
 ! A7    A(2,4,5)              120.1556         -DE/DX =    0.0                 !
 ! A8    A(2,4,6)              120.3041         -DE/DX =    0.0                 !
 ! A9    A(5,4,6)              119.5394         -DE/DX =    0.0                 !
 ! A10   A(4,6,7)              117.7768         -DE/DX =    0.0                 !
 ! A11   A(4,6,8)              119.6884         -DE/DX =    0.0                 !
 ! A12   A(7,6,8)              122.5266         -DE/DX =    0.0                 !
 ! A13   A(6,7,17)             117.5218         -DE/DX =    0.0                 !
 ! A14   A(6,7,18)             120.827          -DE/DX =    0.0                 !
 ! A15   A(17,7,18)            121.6504         -DE/DX =    0.0                 !
 ! A16   A(6,8,9)              120.9867         -DE/DX =    0.0                 !
 ! A17   A(6,8,10)             120.2123         -DE/DX =    0.0                 !
 ! A18   A(9,8,10)             118.7799         -DE/DX =    0.0                 !
 ! A19   A(1,10,8)             119.505          -DE/DX =    0.0                 !
 ! A20   A(1,10,11)            120.2445         -DE/DX =    0.0                 !
 ! A21   A(8,10,11)            120.2465         -DE/DX =    0.0                 !
 ! A22   A(1,12,13)            105.1566         -DE/DX =    0.0                 !
 ! A23   A(1,12,14)            103.1455         -DE/DX =    0.0                 !
 ! A24   A(1,12,15)            109.7662         -DE/DX =    0.0                 !
 ! A25   A(13,12,14)           113.874          -DE/DX =    0.0                 !
 ! A26   A(13,12,15)           109.3252         -DE/DX =    0.0                 !
 ! A27   A(14,12,15)           114.8985         -DE/DX =    0.0                 !
 ! A28   A(12,15,16)           107.9176         -DE/DX =    0.0                 !
 ! A29   A(7,17,19)            121.2435         -DE/DX =    0.0                 !
 ! A30   A(7,17,23)            119.788          -DE/DX =    0.0                 !
 ! A31   A(19,17,23)           118.8224         -DE/DX =    0.0                 !
 ! A32   A(17,19,20)           108.3239         -DE/DX =    0.0                 !
 ! A33   A(17,19,21)           110.4372         -DE/DX =    0.0                 !
 ! A34   A(17,19,22)           110.829          -DE/DX =    0.0                 !
 ! A35   A(20,19,21)           109.2519         -DE/DX =    0.0                 !
 ! A36   A(20,19,22)           109.2397         -DE/DX =    0.0                 !
 ! A37   A(21,19,22)           108.7347         -DE/DX =    0.0                 !
 ! D1    D(10,1,2,3)           179.9971         -DE/DX =    0.0                 !
 ! D2    D(10,1,2,4)            -0.2974         -DE/DX =    0.0                 !
 ! D3    D(12,1,2,3)             2.1741         -DE/DX =    0.0                 !
 ! D4    D(12,1,2,4)          -178.1204         -DE/DX =    0.0                 !
 ! D5    D(2,1,10,8)            -0.1222         -DE/DX =    0.0                 !
 ! D6    D(2,1,10,11)          179.1512         -DE/DX =    0.0                 !
 ! D7    D(12,1,10,8)          177.6548         -DE/DX =    0.0                 !
 ! D8    D(12,1,10,11)          -3.0717         -DE/DX =    0.0                 !
 ! D9    D(2,1,12,13)         -171.1211         -DE/DX =    0.0                 !
 ! D10   D(2,1,12,14)          -51.5266         -DE/DX =    0.0                 !
 ! D11   D(2,1,12,15)           71.3844         -DE/DX =    0.0                 !
 ! D12   D(10,1,12,13)          11.0523         -DE/DX =    0.0                 !
 ! D13   D(10,1,12,14)         130.6468         -DE/DX =    0.0                 !
 ! D14   D(10,1,12,15)        -106.4422         -DE/DX =    0.0                 !
 ! D15   D(1,2,4,5)           -179.6215         -DE/DX =    0.0                 !
 ! D16   D(1,2,4,6)              0.7242         -DE/DX =    0.0                 !
 ! D17   D(3,2,4,5)              0.0854         -DE/DX =    0.0                 !
 ! D18   D(3,2,4,6)           -179.5689         -DE/DX =    0.0                 !
 ! D19   D(2,4,6,7)           -179.7178         -DE/DX =    0.0                 !
 ! D20   D(2,4,6,8)             -0.7311         -DE/DX =    0.0                 !
 ! D21   D(5,4,6,7)              0.6258         -DE/DX =    0.0                 !
 ! D22   D(5,4,6,8)            179.6125         -DE/DX =    0.0                 !
 ! D23   D(4,6,7,17)          -154.4759         -DE/DX =    0.0                 !
 ! D24   D(4,6,7,18)            25.1984         -DE/DX =    0.0                 !
 ! D25   D(8,6,7,17)            26.5681         -DE/DX =    0.0                 !
 ! D26   D(8,6,7,18)          -153.7575         -DE/DX =    0.0                 !
 ! D27   D(4,6,8,9)           -178.0002         -DE/DX =    0.0                 !
 ! D28   D(4,6,8,10)             0.3069         -DE/DX =    0.0                 !
 ! D29   D(7,6,8,9)              0.9365         -DE/DX =    0.0                 !
 ! D30   D(7,6,8,10)           179.2436         -DE/DX =    0.0                 !
 ! D31   D(6,7,17,19)         -179.6113         -DE/DX =    0.0                 !
 ! D32   D(6,7,17,23)            4.8346         -DE/DX =    0.0                 !
 ! D33   D(18,7,17,19)           0.7172         -DE/DX =    0.0                 !
 ! D34   D(18,7,17,23)        -174.8369         -DE/DX =    0.0                 !
 ! D35   D(6,8,10,1)             0.116          -DE/DX =    0.0                 !
 ! D36   D(6,8,10,11)         -179.1575         -DE/DX =    0.0                 !
 ! D37   D(9,8,10,1)           178.4601         -DE/DX =    0.0                 !
 ! D38   D(9,8,10,11)           -0.8134         -DE/DX =    0.0                 !
 ! D39   D(1,12,15,16)         -72.1837         -DE/DX =    0.0                 !
 ! D40   D(13,12,15,16)        172.954          -DE/DX =    0.0                 !
 ! D41   D(14,12,15,16)         43.4885         -DE/DX =    0.0                 !
 ! D42   D(7,17,19,20)         178.1767         -DE/DX =    0.0                 !
 ! D43   D(7,17,19,21)          58.5679         -DE/DX =    0.0                 !
 ! D44   D(7,17,19,22)         -61.9958         -DE/DX =    0.0                 !
 ! D45   D(23,17,19,20)         -6.2272         -DE/DX =    0.0                 !
 ! D46   D(23,17,19,21)       -125.836          -DE/DX =    0.0                 !
 ! D47   D(23,17,19,22)        113.6003         -DE/DX =    0.0                 !
 --------------------------------------------------------------------------------
 GradGradGradGradGradGradGradGradGradGradGradGradGradGradGradGradGradGrad

                          Input orientation:                          
 ---------------------------------------------------------------------
 Center     Atomic      Atomic             Coordinates (Angstroms)
 Number     Number       Type             X           Y           Z
 ---------------------------------------------------------------------
      1          6           0       -1.293146    0.700569   -0.836264
      2          6           0       -2.471427    0.625916   -1.581310
      3          1           0       -3.417769    0.400986   -1.095957
      4          6           0       -2.428997    0.847692   -2.951912
      5          1           0       -3.339600    0.798398   -3.540737
      6          6           0       -1.212420    1.128907   -3.584588
      7          6           0       -1.232989    1.365258   -5.065258
      8          6           0       -0.039882    1.201116   -2.828629
      9          1           0        0.910380    1.449622   -3.292735
     10          6           0       -0.078857    0.987890   -1.450935
     11          1           0        0.829234    1.057287   -0.861259
     12         16           0       -1.369392    0.357516    0.932959
     13          8           0       -0.030012    0.730854    1.459391
     14          8           0       -2.474681    1.247511    1.404632
     15          7           0       -1.609265   -1.168924    1.165398
     16          1           0       -2.577170   -1.378846    0.905586
     17          7           0       -0.107295    1.117196   -5.747286
     18          8           0       -2.263611    1.770849   -5.631852
     19          6           0       -0.034599    1.326262   -7.183561
     20          1           0        0.976810    1.092474   -7.512825
     21          1           0       -0.262352    2.366447   -7.429814
     22          1           0       -0.743020    0.678046   -7.707287
     23          1           0        0.690229    0.714163   -5.271856
 ---------------------------------------------------------------------
                    Distance matrix (angstroms):
                    1          2          3          4          5
     1  C    0.000000
     2  C    1.396070   0.000000
     3  H    2.161299   1.087071   0.000000
     4  C    2.405778   1.389077   2.149834   0.000000
     5  H    3.392892   2.150076   2.478103   1.085515   0.000000
     6  C    2.782674   2.418930   3.403927   1.399793   2.153150
     7  C    4.281334   3.770709   4.632325   2.482849   2.661448
     8  C    2.406395   2.792682   3.879753   2.418259   3.399620
     9  H    3.383911   3.878671   4.965717   3.410267   4.306731
    10  C    1.390997   2.423306   3.408636   2.792086   3.877580
    11  H    2.152294   3.405718   4.303818   3.876961   4.962439
    12  S    1.803787   2.758273   2.883442   4.056508   4.908162
    13  O    2.620392   3.900946   4.256232   5.022786   5.996600
    14  O    2.591676   3.049957   2.803385   4.375091   5.040482
    15  N    2.757097   3.392518   3.293787   4.657354   5.386290
    16  H    3.001121   3.196076   2.807238   4.456424   5.009140
    17  N    5.069315   4.815167   5.753873   3.643768   3.926613
    18  O    5.008489   4.214374   4.876776   2.839304   2.544833
    19  C    6.501047   6.149295   7.025731   4.885594   4.946902
    20  H    7.062773   6.876837   7.808116   5.697488   5.873275
    21  H    6.878415   6.489565   7.344211   5.201209   5.201265
    22  H    6.893047   6.365352   7.137277   5.048256   4.910891
    23  H    4.858851   4.860451   5.866162   3.889671   4.386729
                    6          7          8          9         10
     6  C    0.000000
     7  C    1.499556   0.000000
     8  C    1.396973   2.540267   0.000000
     9  H    2.166637   2.782622   1.086346   0.000000
    10  C    2.420191   3.812841   1.394642   2.141031   0.000000
    11  H    3.404409   4.692677   2.155596   2.464262   1.084971
    12  S    4.585620   6.083811   4.077843   4.924078   2.783128
    13  O    5.195985   6.664883   4.313741   4.897312   2.922063
    14  O    5.147785   6.589017   4.883738   5.793509   3.736528
    15  N    5.291491   6.736819   4.902275   5.751551   3.720107
    16  H    5.320999   6.707303   5.199846   6.147287   4.170875
    17  N    2.428724   1.339360   2.920641   2.677870   4.298390
    18  O    2.389222   1.244072   3.623207   3.955866   4.781866
    19  C    3.791941   2.434105   4.356733   4.005837   5.742774
    20  H    4.497233   3.308807   4.794492   4.235697   6.154013
    21  H    4.149686   2.745112   4.751673   4.396736   6.138492
    22  H    4.173758   2.773562   4.956744   4.776749   6.299131
    23  H    2.576618   2.040925   2.596063   2.122802   3.907155
                   11         12         13         14         15
    11  H    0.000000
    12  S    2.922816   0.000000
    13  O    2.496053   1.486758   0.000000
    14  O    4.010773   1.495403   2.499268   0.000000
    15  N    3.874227   1.562558   2.487896   2.577855   0.000000
    16  H    4.545335   2.115285   3.353438   2.675313   1.023919
    17  N    4.975333   6.840736   7.217439   7.534682   7.434209
    18  O    5.730045   6.774502   7.507082   7.059075   7.434584
    19  C    6.386709   8.282393   8.663438   8.928452   8.854978
    20  H    6.653296   8.796368   9.035769   9.563361   9.333448
    21  H    6.786116   8.671638   9.041411   9.175721   9.390990
    22  H    7.034480   8.668848   9.194518   9.292471   9.104187
    23  H    4.426107   6.547440   6.769691   7.407875   7.090270
                   16         17         18         19         20
    16  H    0.000000
    17  N    7.522713   0.000000
    18  O    7.263401   2.256166   0.000000
    19  C    8.900369   1.453231   2.752082   0.000000
    20  H    9.466142   2.071961   3.807700   1.089045   0.000000
    21  H    9.426797   2.101326   2.755439   1.092930   1.779163
    22  H    9.043036   2.106799   2.795326   1.093770   1.779714
    23  H    7.295024   1.012183   3.157745   2.134164   2.290675
                   21         22         23
    21  H    0.000000
    22  H    1.777282   0.000000
    23  H    2.879971   2.826098   0.000000
 Stoichiometry    C8H9N2O3S(1-)
 Framework group  C1[X(C8H9N2O3S)]
 Deg. of freedom    63
 Full point group                 C1      NOp   1
 Largest Abelian subgroup         C1      NOp   1
 Largest concise Abelian subgroup C1      NOp   1
                         Standard orientation:                         
 ---------------------------------------------------------------------
 Center     Atomic      Atomic             Coordinates (Angstroms)
 Number     Number       Type             X           Y           Z
 ---------------------------------------------------------------------
      1          6           0        1.227408   -0.006468   -0.055638
      2          6           0        0.612517    1.233595    0.126473
      3          1           0        1.210269    2.129087    0.276512
      4          6           0       -0.773845    1.318572    0.108753
      5          1           0       -1.263118    2.278210    0.243102
      6          6           0       -1.549720    0.168060   -0.074988
      7          6           0       -3.040855    0.325947   -0.091006
      8          6           0       -0.923195   -1.067306   -0.256294
      9          1           0       -1.503834   -1.968339   -0.432773
     10          6           0        0.468582   -1.156261   -0.248070
     11          1           0        0.955977   -2.113226   -0.402432
     12         16           0        3.027265   -0.095476    0.023371
     13          8           0        3.368290   -1.472407   -0.421843
     14          8           0        3.462699    0.973341   -0.927554
     15          7           0        3.501918    0.103376    1.498752
     16          1           0        3.365499    1.088203    1.743525
     17          7           0       -3.779434   -0.736135    0.255931
     18          8           0       -3.563902    1.408712   -0.409997
     19          6           0       -5.231391   -0.675490    0.260476
     20          1           0       -5.614134   -1.655632    0.541279
     21          1           0       -5.605520   -0.413451   -0.732429
     22          1           0       -5.587294    0.069488    0.977883
     23          1           0       -3.325187   -1.578472    0.585541
 ---------------------------------------------------------------------
 Rotational constants (GHZ):           2.0188820           0.2612128           0.2447622
 Unable to Open any file for archive entry.
 1\1\GINC-GADI-CPU-CLX-1100\FOpt\RM062X\Gen\C8H9N2O3S1(1-)\YJ5695\22-Ma
 y-2022\0\\#m062X/gen 6D OPT Freq=noraman SCRF=(SMD,Solvent=h2o)\\A.15.
 smd.a1.smd\\-1,1\C,-1.293146,0.700569,-0.836264\C,-2.471427,0.625916,-
 1.58131\H,-3.417769,0.400986,-1.095957\C,-2.428997,0.847692,-2.951912\
 H,-3.3396,0.798398,-3.540737\C,-1.21242,1.128907,-3.584588\C,-1.232989
 ,1.365258,-5.065258\C,-0.039882,1.201116,-2.828629\H,0.91038,1.449622,
 -3.292735\C,-0.078857,0.98789,-1.450935\H,0.829234,1.057287,-0.861259\
 S,-1.369392,0.357516,0.932959\O,-0.030012,0.730854,1.459391\O,-2.47468
 1,1.247511,1.404632\N,-1.609265,-1.168924,1.165398\H,-2.57717,-1.37884
 6,0.905586\N,-0.107295,1.117196,-5.747286\O,-2.263611,1.770849,-5.6318
 52\C,-0.034599,1.326262,-7.183561\H,0.97681,1.092474,-7.512825\H,-0.26
 2352,2.366447,-7.429814\H,-0.74302,0.678046,-7.707287\H,0.690229,0.714
 163,-5.271856\\Version=ES64L-G16RevC.01\State=1-A\HF=-1043.4731264\RMS
 D=3.438e-09\RMSF=5.832e-06\Dipole=1.8575146,0.0963731,-7.3242794\Quadr
 upole=22.5543489,9.4985746,-32.0529235,7.0584669,-17.0624488,10.990728
 7\PG=C01 [X(C8H9N2O3S1)]\\@
 The archive entry for this job was punched.


 COMMON SENSE IS NOT SO COMMON.   -- VOLTAIRE
 Job cpu time:       0 days  0 hours 13 minutes 36.8 seconds.
 Elapsed time:       0 days  0 hours  0 minutes 52.4 seconds.
 File lengths (MBytes):  RWF=    107 Int=      0 D2E=      0 Chk=      9 Scr=      1
 Normal termination of Gaussian 16 at Sun May 22 14:03:00 2022.
 Link1:  Proceeding to internal job step number  2.
 ------------------------------------------------------------------
 #N Geom=AllCheck Guess=TCheck SCRF=Check GenChk RM062X/ChkBas Freq
 ------------------------------------------------------------------
 1/10=4,29=7,30=1,38=1,40=1/1,3;
 2/12=2,40=1/2;
 3/5=7,6=2,8=2,11=2,14=-4,25=1,30=1,67=1,70=2,71=2,74=-55,82=7,116=1,140=1/1,2,3;
 4/5=101/1;
 5/5=2,38=6,98=1/2;
 8/6=4,10=90,11=11/1;
 11/6=1,8=1,9=11,15=111,16=1/1,2,10;
 10/6=1/2;
 6/7=2,8=2,9=2,10=2,28=1/1;
 7/8=1,10=1,25=1/1,2,3,16;
 1/10=4,30=1/3;
 99//99;
 Structure from the checkpoint file:  "/jobfs/40913343.gadi-pbs/Gau-674578.chk"
 ---------------
 A.15.smd.a1.smd
 ---------------
 Charge = -1 Multiplicity = 1
 Redundant internal coordinates found in file.  (old form).
 C,0,-1.293146,0.700569,-0.836264
 C,0,-2.471427,0.625916,-1.58131
 H,0,-3.417769,0.400986,-1.095957
 C,0,-2.428997,0.847692,-2.951912
 H,0,-3.3396,0.798398,-3.540737
 C,0,-1.21242,1.128907,-3.584588
 C,0,-1.232989,1.365258,-5.065258
 C,0,-0.039882,1.201116,-2.828629
 H,0,0.91038,1.449622,-3.292735
 C,0,-0.078857,0.98789,-1.450935
 H,0,0.829234,1.057287,-0.861259
 S,0,-1.369392,0.357516,0.932959
 O,0,-0.030012,0.730854,1.459391
 O,0,-2.474681,1.247511,1.404632
 N,0,-1.609265,-1.168924,1.165398
 H,0,-2.57717,-1.378846,0.905586
 N,0,-0.107295,1.117196,-5.747286
 O,0,-2.263611,1.770849,-5.631852
 C,0,-0.034599,1.326262,-7.183561
 H,0,0.97681,1.092474,-7.512825
 H,0,-0.262352,2.366447,-7.429814
 H,0,-0.74302,0.678046,-7.707287
 H,0,0.690229,0.714163,-5.271856
 Recover connectivity data from disk.

 GradGradGradGradGradGradGradGradGradGradGradGradGradGradGradGradGradGrad
 Berny optimization.
 Initialization pass.
                           ----------------------------
                           !    Initial Parameters    !
                           ! (Angstroms and Degrees)  !
 --------------------------                            --------------------------
 ! Name  Definition              Value          Derivative Info.                !
 --------------------------------------------------------------------------------
 ! R1    R(1,2)                  1.3961         calculate D2E/DX2 analytically  !
 ! R2    R(1,10)                 1.391          calculate D2E/DX2 analytically  !
 ! R3    R(1,12)                 1.8038         calculate D2E/DX2 analytically  !
 ! R4    R(2,3)                  1.0871         calculate D2E/DX2 analytically  !
 ! R5    R(2,4)                  1.3891         calculate D2E/DX2 analytically  !
 ! R6    R(4,5)                  1.0855         calculate D2E/DX2 analytically  !
 ! R7    R(4,6)                  1.3998         calculate D2E/DX2 analytically  !
 ! R8    R(6,7)                  1.4996         calculate D2E/DX2 analytically  !
 ! R9    R(6,8)                  1.397          calculate D2E/DX2 analytically  !
 ! R10   R(7,17)                 1.3394         calculate D2E/DX2 analytically  !
 ! R11   R(7,18)                 1.2441         calculate D2E/DX2 analytically  !
 ! R12   R(8,9)                  1.0863         calculate D2E/DX2 analytically  !
 ! R13   R(8,10)                 1.3946         calculate D2E/DX2 analytically  !
 ! R14   R(10,11)                1.085          calculate D2E/DX2 analytically  !
 ! R15   R(12,13)                1.4868         calculate D2E/DX2 analytically  !
 ! R16   R(12,14)                1.4954         calculate D2E/DX2 analytically  !
 ! R17   R(12,15)                1.5626         calculate D2E/DX2 analytically  !
 ! R18   R(15,16)                1.0239         calculate D2E/DX2 analytically  !
 ! R19   R(17,19)                1.4532         calculate D2E/DX2 analytically  !
 ! R20   R(17,23)                1.0122         calculate D2E/DX2 analytically  !
 ! R21   R(19,20)                1.089          calculate D2E/DX2 analytically  !
 ! R22   R(19,21)                1.0929         calculate D2E/DX2 analytically  !
 ! R23   R(19,22)                1.0938         calculate D2E/DX2 analytically  !
 ! A1    A(2,1,10)             120.797          calculate D2E/DX2 analytically  !
 ! A2    A(2,1,12)             118.5289         calculate D2E/DX2 analytically  !
 ! A3    A(10,1,12)            120.6378         calculate D2E/DX2 analytically  !
 ! A4    A(1,2,3)              120.4993         calculate D2E/DX2 analytically  !
 ! A5    A(1,2,4)              119.4891         calculate D2E/DX2 analytically  !
 ! A6    A(3,2,4)              120.011          calculate D2E/DX2 analytically  !
 ! A7    A(2,4,5)              120.1556         calculate D2E/DX2 analytically  !
 ! A8    A(2,4,6)              120.3041         calculate D2E/DX2 analytically  !
 ! A9    A(5,4,6)              119.5394         calculate D2E/DX2 analytically  !
[...]
 01501,0.15288091,-0.19212815,-0.06791709,-0.00278047,0.00855005,-0.001
 96004,-0.18982141,0.21098982,0.02804987,-0.01806126,-0.00606040,0.0010
 2652,-0.00049620,-0.00297283,0.00073856,-0.00026563,-0.00022009,-0.000
 55760,0.00047903,0.00131853,-0.00008436,-0.00004103,-0.00039008,0.0011
 7027,0.00040570,-0.00224893,0.00036639,-0.00061602,0.00317118,0.001627
 69,0.00231762,-0.00113863,0.00003167,0.00025035,-0.00094905,-0.0045286
 6,-0.00126404,-0.00628603,0.00032561,-0.00071448,0.00015277,0.08625898
 ,-0.06898670,-0.11418101,-0.01019270,0.00250917,0.01400671,-0.10519312
 ,0.08091673,0.10361988,0.00966556,-0.00340590,-0.00097165,-0.00109870,
 -0.00047433,0.00119401,0.00023302,-0.00046112,0.00014404,0.00004730,0.
 00038589,0.00113290,-0.00002078,0.00001851,0.00021181,0.00091306,0.000
 04177,0.00047937,0.00003405,-0.00002904,-0.00064238,-0.00009807,0.0007
 2977,-0.00087044,-0.00002537,-0.00009870,0.00000225,-0.00074265,0.0000
 2637,0.00038587,0.00027086,-0.00021749,-0.00014280,-0.08894558,-0.0698
 7139,0.00256319,-0.02143612,-0.04668925,-0.00070176,0.00467993,0.02999
 669,0.00059536,0.47661733,-0.00435062,-0.01167699,-0.00447180,-0.00188
 405,0.00026224,0.00283295,0.00008227,-0.00048508,-0.00032665,0.0007027
 0,0.00101383,0.00024284,0.00004388,-0.00008807,0.00045213,-0.00019577,
 -0.00050170,0.00167679,-0.00013684,0.00014094,-0.00255861,-0.00143231,
 0.00096443,0.00062209,-0.00008034,-0.00002542,0.00070505,0.00212370,-0
 .00082473,0.00517751,0.00044414,-0.00060448,-0.00008261,-0.02491143,-0
 .29805920,0.04313780,-0.01166392,-0.01927409,-0.00015993,0.00434554,-0
 .03834511,0.00060957,0.14076414,0.40739338,0.00844140,0.02346688,0.003
 07416,0.00120339,0.00113889,-0.00208440,-0.00015141,0.00013038,0.00021
 183,-0.00053735,-0.00108525,0.00148248,-0.00009572,0.00010436,-0.00025
 531,0.00133174,0.00050453,-0.00228203,0.00025007,-0.00027282,0.0030773
 4,0.00092506,-0.00162956,-0.00129487,0.00010166,-0.00000907,-0.0006339
 7,-0.00340065,0.00100825,-0.00313752,0.00003088,0.00082607,0.00017373,
 -0.00443616,0.03719019,-0.06882095,-0.00944188,-0.01446944,0.00562449,
 0.00222856,-0.01287185,0.01490386,0.09844032,-0.02452510,0.08531263,0.
 00114044,0.00080326,0.00051532,0.00004528,0.00012517,-0.00037659,0.000
 09259,-0.00006651,0.00010408,-0.00010497,0.00001113,0.00038726,-0.0000
 1205,0.00001329,-0.00002021,0.00027655,0.00011574,-0.00023613,0.000042
 58,-0.00006800,0.00030550,0.00005781,-0.00014274,-0.00024967,0.0000121
 3,-0.00000936,-0.00005871,-0.00029890,0.00018457,-0.00029348,-0.000002
 40,0.00006738,-0.00002112,-0.01258294,0.00963353,-0.00494864,0.0024474
 5,-0.00160407,-0.00062034,0.00076636,0.00294224,0.00071890,-0.38015705
 ,-0.10414059,-0.09452521,0.38831668,0.00179456,-0.00027269,0.00034764,
 -0.00027198,-0.00012319,0.00026038,0.00031107,-0.00016517,0.00022691,0
 .00006640,-0.00000050,0.00018734,-0.00001555,0.00000940,-0.00000553,0.
 00015935,0.00001108,-0.00022781,0.00004255,-0.00002712,0.00025634,0.00
 012600,0.00005610,-0.00014983,0.00000818,-0.00001887,-0.00006501,-0.00
 018438,0.00013677,-0.00031318,0.00003080,-0.00001710,-0.00002944,-0.04
 037082,-0.02551256,-0.01007738,-0.00444728,-0.00560817,0.00109183,0.00
 133512,0.00628729,0.00250392,-0.05064714,-0.03959989,-0.00986413,0.092
 09437,0.06481128,-0.00246242,-0.00099557,-0.00027781,0.00004760,0.0001
 5605,-0.00013835,-0.00018653,0.00033440,-0.00015095,0.00014268,-0.0001
 3728,-0.00056494,0.00001215,-0.00001827,-0.00001621,-0.00045176,-0.000
 01510,0.00012847,-0.00003396,0.00004160,-0.00016186,0.00001619,0.00007
 025,0.00047510,-0.00000602,0.00002166,0.00005887,0.00038550,0.00005600
 ,0.00020257,0.00007249,-0.00006413,0.00004862,0.00466617,0.00743936,-0
 .00529712,-0.00070502,0.00022170,0.00593851,0.00123553,0.00214214,-0.0
 0028492,-0.10230646,-0.02528339,-0.03314213,0.09954622,0.01605754,0.03
 306183,0.00007089,-0.00003272,0.00032916,0.00078882,-0.00001172,0.0008
 1314,-0.00001491,-0.00006928,0.00004730,0.00208083,0.00059154,-0.00245
 256,0.00022899,0.00044889,-0.00010389,0.00330508,-0.00022548,0.0126557
 3,-0.27069159,0.04743314,0.12931026,-0.00350953,0.00022470,-0.00047906
 ,0.00098167,0.00011452,0.00001298,-0.00007491,0.00008748,0.00104651,0.
 00000285,-0.00002392,0.00017642,0.00001106,0.00014991,-0.00159139,0.00
 032032,0.00001200,0.00045257,-0.00030017,0.00015520,0.00049345,-0.0000
 8350,-0.00040404,0.00049302,0.00004866,0.00004517,-0.00002903,0.775719
 21,0.00035952,0.00011669,-0.00006210,-0.00028826,-0.00054807,-0.000294
 30,-0.00000599,-0.00012298,0.00005705,-0.00061647,0.00086083,0.0015936
 0,-0.00011598,0.00009141,0.00005277,-0.00251230,0.01145414,0.00229172,
 0.05716097,-0.07183540,-0.01426493,-0.00041321,-0.00003368,-0.00029457
 ,0.00050958,0.00083880,0.00002183,0.00018342,-0.00042499,0.00027636,-0
 .00001112,-0.00001957,0.00005050,0.00004106,0.00000880,0.00004544,-0.0
 0000179,-0.00000145,-0.00000308,-0.00002885,0.00001000,-0.00000905,-0.
 00000048,0.00005716,-0.00002715,-0.00000071,-0.00000593,0.00000170,-0.
 25749276,0.18503123,0.00087291,0.00034007,-0.00105162,0.00132062,0.001
 26181,-0.00200820,-0.00000475,0.00018709,-0.00080593,-0.00518764,0.000
 07522,-0.00482334,0.00020072,-0.00057767,0.00029755,0.03709280,-0.0053
 2964,-0.02729494,0.11089418,-0.00682777,-0.22408543,0.00276669,-0.0005
 6376,-0.00115964,0.00066112,0.00045844,-0.00076224,0.00017719,0.000590
 38,0.00029918,-0.00005528,-0.00002574,-0.00024404,0.00001986,-0.000559
 24,0.00330369,-0.00063491,-0.00002649,-0.00093220,0.00065675,-0.000314
 42,-0.00111425,0.00016508,0.00082209,-0.00094185,-0.00010305,-0.000096
 48,0.00006232,-0.00303852,-0.11470764,0.70339471,0.00014962,0.00011003
 ,-0.00019071,0.00107101,-0.00006707,-0.00134881,0.00003703,0.00007878,
 -0.00036834,-0.00520386,-0.00199592,0.00328481,0.00199770,-0.00009311,
 0.00109646,-0.00580586,0.01041379,-0.02415925,-0.40191910,0.12907414,-
 0.19062481,0.00282627,0.00029268,-0.00059442,0.00030659,0.00076968,0.0
 0042417,0.00002479,-0.00057078,-0.00117988,0.00000091,0.00007733,-0.00
 038940,0.00000843,-0.00010605,0.00228518,-0.00035310,-0.00002605,-0.00
 058509,0.00048134,-0.00027308,-0.00075240,0.00013960,0.00060533,-0.000
 74574,-0.00007711,-0.00006565,0.00004606,-0.11584559,0.04180099,-0.003
 69312,0.51837084,0.00011824,0.00004460,0.00029737,0.00019851,-0.000314
 84,0.00006816,-0.00003067,-0.00000975,0.00013172,0.00135690,-0.0000273
 8,-0.00111578,0.00008521,-0.00010935,0.00050124,0.01365256,0.01110092,
 0.01409297,0.12334868,-0.12677577,0.08068860,-0.00260515,0.00081681,0.
 00235419,-0.00005611,0.00018443,-0.00017257,0.00124174,-0.00073816,0.0
 0057329,-0.00003202,-0.00024072,0.00031369,0.00009733,0.00016875,-0.00
 106358,0.00015822,0.00001353,0.00036253,-0.00024756,0.00013482,0.00035
 583,-0.00006210,-0.00024658,0.00028657,0.00003135,0.00002338,-0.000020
 65,0.04463284,0.00730215,-0.00102174,-0.18029287,0.10566233,-0.0017808
 5,-0.00014751,-0.00175003,-0.00037472,-0.00082031,0.00050907,0.0001050
 9,0.00022030,-0.00030403,-0.00265601,0.00100610,-0.00106539,-0.0007935
 6,0.00079887,-0.00187760,-0.04291778,0.01913526,-0.02809451,-0.1758042
 4,0.07704300,-0.21173687,0.00628082,0.00247145,-0.00442475,-0.00035095
 ,0.00083097,0.00056907,-0.00095099,-0.00121499,-0.00366027,0.00009395,
 0.00001936,-0.00088436,-0.00031259,-0.00049685,0.00449262,-0.00073685,
 -0.00000027,-0.00133483,0.00089779,-0.00046428,-0.00137011,0.00031642,
 0.00117141,-0.00128847,-0.00012782,-0.00010930,0.00006634,-0.00562149,
 -0.00096088,0.02953912,0.21599901,-0.09666472,0.21912272,0.00001608,0.
 00006427,-0.00005605,-0.00024499,-0.00038867,0.00004130,0.00000050,-0.
 00000467,0.00010793,0.00037734,-0.00008158,0.00108495,0.00000478,0.000
 10726,-0.00000433,-0.00380349,0.00325417,0.00109310,-0.00499200,-0.003
 33090,0.03233450,-0.00027285,-0.00031548,-0.00039497,0.00034594,0.0001
 7802,0.00010451,0.00025584,-0.00006900,0.00010612,-0.00000217,-0.00000
 719,0.00002983,0.00001800,0.00003458,-0.00012437,0.00002798,-0.0000014
 1,0.00004363,-0.00002800,0.00000839,0.00003676,-0.00000905,-0.00002714
 ,0.00003619,0.00000551,0.00000236,-0.00000393,-0.09861134,0.01457446,0
 .00295762,0.00278878,-0.00361742,0.00406569,0.63209927,-0.00054288,-0.
 00005643,0.00003758,0.00071107,-0.00023992,0.00041338,-0.00000592,-0.0
 0000502,-0.00010797,-0.00013249,0.00041931,-0.00152765,0.00000175,0.00
 011169,0.00007529,0.00328342,0.00570202,0.00073550,-0.00520030,0.00366
 149,-0.00611256,-0.00003220,-0.00016026,0.00074703,0.00016380,-0.00012
 354,0.00006348,0.00027586,0.00005230,-0.00055288,-0.00000230,0.0000238
 8,-0.00001291,-0.00000949,-0.00003598,-0.00001647,0.00000075,0.0000088
 4,-0.00001372,-0.00000291,-0.00000809,-0.00001486,0.00000897,-0.000002
 05,0.00003062,0.00000385,0.00000339,-0.00000560,0.01678039,-0.06957066
 ,0.02744507,0.00070045,-0.00560750,-0.00095941,-0.01579154,0.59152540,
 -0.00024483,-0.00006679,0.00022982,0.00014027,-0.00024674,0.00048479,-
 0.00002785,0.00000396,0.00008769,0.00053027,-0.00008489,-0.00019551,0.
 00000928,0.00011934,0.00000650,-0.00045040,0.00095845,0.00350968,0.025
 93460,-0.00400392,-0.02785763,-0.00032921,0.00020631,0.00060209,-0.000
 26922,-0.00007475,-0.00019780,0.00001824,-0.00001770,-0.00005698,0.000
 01261,-0.00001800,0.00007058,-0.00000396,0.00010441,-0.00069209,0.0001
 2769,0.00000300,0.00019918,-0.00014374,0.00007101,0.00023517,-0.000034
 54,-0.00017661,0.00020537,0.00002242,0.00001850,-0.00001527,-0.0034761
 2,0.03106008,-0.24315851,-0.01392278,0.00406468,-0.00041709,-0.0006474
 3,0.01215241,0.50728821,0.00000206,-0.00000426,0.00003515,-0.00000379,
 -0.00000405,0.00000774,-0.00000010,-0.00000256,0.00000750,0.00004556,-
 0.00001055,0.00005043,0.00000602,0.00001012,-0.00000068,-0.00003953,0.
 00005209,-0.00003952,0.00116675,-0.00021912,-0.00092157,-0.00001220,-0
 .00000096,0.00003826,-0.00002263,-0.00001736,0.00001234,-0.00000903,-0
 .00001067,0.00001098,0.00000158,-0.00000049,0.00000606,-0.00000009,0.0
 0001563,-0.00007432,0.00001522,-0.00000016,0.00002128,-0.00001530,0.00
 000567,0.00002429,-0.00000386,-0.00001865,0.00002000,0.00000193,0.0000
 0193,-0.00000110,0.00136420,-0.00023029,-0.00280795,-0.00030916,0.0000
 4899,0.00080251,-0.30370561,0.05887091,0.08158077,0.32056324,0.0000167
 4,0.00000290,0.00002162,-0.00000370,-0.00004422,-0.00002056,-0.0000010
 0,-0.00000008,0.00000411,-0.00000569,-0.00000289,0.00004417,-0.0000098
 1,0.00001524,0.00000036,-0.00009459,0.00040692,0.00002165,0.00062223,-
 0.00019197,0.00132250,0.00000917,-0.00003239,0.00001497,-0.00000739,0.
 00003379,0.00000560,-0.00000082,-0.00003183,0.00001195,0.00000050,-0.0
 0000155,0.00000293,0.00000159,0.00001264,-0.00003687,0.00000641,-0.000
 00106,0.00000948,-0.00000899,0.00000218,0.00001291,-0.00000192,-0.0000
 0820,0.00000854,0.00000058,0.00000117,-0.00000021,-0.00715441,-0.00018
 413,0.00388457,0.00010122,0.00037636,-0.00068954,0.06086773,-0.0640891
 0,-0.01949496,-0.06420960,0.06125652,0.00001772,0.00000211,-0.00008926
 ,0.00012625,0.00009931,-0.00007063,0.00000317,0.00000784,-0.00006533,-
 0.00024594,0.00003782,-0.00048852,0.00001015,-0.00003017,0.00001188,0.
 00153212,-0.00041307,-0.00025924,-0.00466503,0.00262227,-0.00541629,0.
 00009628,0.00001233,-0.00002476,-0.00000276,-0.00002042,0.00001390,-0.
 00004225,0.00004568,-0.00002442,-0.00000280,0.00000619,-0.00002760,-0.
 00000353,-0.00004306,0.00025588,-0.00004736,-0.00000143,-0.00007301,0.
 00005043,-0.00002444,-0.00008485,0.00001384,0.00006390,-0.00007178,-0.
 00000739,-0.00000674,0.00000443,0.03946594,-0.00875357,-0.01980388,0.0
 0053775,-0.00040253,0.00166506,0.06843881,-0.01555872,-0.07234805,-0.0
 8500418,0.01768287,0.08677591,-0.00004044,-0.00001050,0.00003987,0.000
 04578,0.00000866,0.00003499,-0.00000170,-0.00000084,-0.00000177,-0.000
 00468,-0.00001641,-0.00007091,-0.00000065,-0.00000635,-0.00000182,0.00
 026442,0.00058450,-0.00010453,0.00055690,-0.00090286,0.00140887,-0.000
 02273,-0.00003082,0.00012976,0.00001030,0.00002840,0.00000491,0.000038
 96,-0.00004491,-0.00006232,0.00000058,0.00000229,0.00000450,-0.0000005
 6,0.00000938,-0.00006227,0.00001117,0.00000097,0.00001416,-0.00001361,
 0.00000484,0.00002113,-0.00000348,-0.00001288,0.00001626,0.00000154,0.
 00000106,-0.00000018,-0.00023831,-0.00195320,-0.00065212,0.00004662,-0
 .00030835,-0.00077281,-0.06200970,0.05593467,-0.01133791,-0.00346764,0
 .02861127,-0.00695028,0.05921411,-0.00001262,0.00000823,0.00001539,-0.
 00000154,-0.00004324,0.00003124,-0.00000100,-0.00000102,0.00001039,0.0
 0007049,0.00005358,0.00002879,-0.00000731,0.00001872,0.00000154,-0.000
 32397,-0.00041843,0.00018354,0.00340129,0.00009109,-0.00063992,-0.0000
 6397,0.00004992,-0.00004451,-0.00002227,-0.00001501,-0.00000636,-0.000
 02362,-0.00000908,0.00000707,0.00000256,-0.00000559,0.00000296,-0.0000
 0090,0.00001071,-0.00006261,0.00001342,0.00000128,0.00001876,-0.000015
 21,0.00000744,0.00002405,-0.00000274,-0.00001361,0.00001738,0.00000185
 ,0.00000186,-0.00000181,-0.00000069,0.00303493,0.00712404,-0.00110137,
 0.00030639,-0.00106630,0.05514453,-0.30484208,0.05243985,0.00029052,-0
 .00365243,-0.00006394,-0.06082064,0.32384622,0.00017875,0.00004150,-0.
 00013414,-0.00013180,0.00007889,-0.00022956,0.00000636,0.00000627,-0.0
 0001970,-0.00024145,-0.00006423,0.00023193,0.00001300,-0.00003964,0.00
 000193,-0.00022336,-0.00113909,-0.00059244,-0.00683415,0.00230922,0.00
 173064,0.00016014,-0.00001182,-0.00027595,0.00003315,0.00004501,0.0000
 6164,-0.00005536,0.00001014,0.00012322,-0.00000380,-0.00000132,-0.0000
 2515,0.00000254,-0.00003475,0.00032538,-0.00005782,-0.00000510,-0.0000
 8545,0.00006641,-0.00003218,-0.00010555,0.00001620,0.00007848,-0.00009
 860,-0.00001063,-0.00000808,0.00000635,-0.00709834,0.03511463,-0.02146
 608,0.00286806,-0.00084404,0.00135532,-0.00981439,0.04623854,-0.057540
 69,0.00042280,-0.00982014,0.00251513,0.01415397,-0.06064772,0.07298799
 ,0.00003774,-0.00000903,0.00005728,-0.00001258,0.00005803,-0.00004478,
 -0.00000157,-0.00000445,0.00000317,-0.00001062,-0.00001617,0.00011197,
 -0.00000290,-0.00000405,-0.00000021,-0.00014275,-0.00091628,-0.0002184
 6,-0.00014065,0.00090112,0.00164124,-0.00004348,0.00006511,-0.00006205
 ,0.00002110,0.00001963,-0.00001919,-0.00004613,-0.00001536,0.00000771,
 0.00000191,-0.00000078,-0.00000236,0.00000276,0.00001425,-0.00006899,0
 .00001396,0.00000020,0.00001584,-0.00001418,0.00000569,0.00002165,-0.0
 0000507,-0.00001595,0.00001825,0.00000182,0.00000123,-0.00000048,0.004
 49288,0.00578017,-0.00074756,0.00080446,0.00005049,-0.00022649,-0.1688
 7002,-0.10976016,-0.08128912,-0.01640829,-0.01863182,-0.01343979,0.005
 13837,0.00484090,0.00406307,0.17483677,0.00003276,0.00000053,0.0000174
 6,-0.00002545,0.00001853,-0.00003310,0.00000009,-0.00000186,0.00000178
 ,-0.00002603,-0.00002364,0.00005711,0.00000264,0.00000039,-0.00000141,
 -0.00000495,-0.00040630,-0.00010533,-0.00038725,0.00080441,-0.00042138
 ,0.00002781,0.00000598,-0.00002190,-0.00002499,0.00001575,-0.00002232,
 -0.00002835,-0.00001454,0.00003392,-0.00000035,-0.00000063,0.00000160,
 -0.00000248,0.00000738,-0.00001465,0.00000373,-0.00000029,0.00000544,-
 0.00000250,0.00000116,0.00000586,-0.00000085,-0.00000485,0.00000185,0.
 00000027,0.00000081,0.00000018,0.00769018,0.00845374,0.00370916,-0.000
 30482,-0.00033952,0.00061027,-0.10968367,-0.15230142,-0.07635322,0.005
 47858,0.00553782,0.00506222,-0.02117414,-0.01774893,-0.01347133,0.1183
 4809,0.15637450,-0.00001552,0.00003197,-0.00011867,0.00009014,-0.00004
 588,-0.00007983,0.00000405,0.00000871,-0.00004569,-0.00024501,0.000039
 70,-0.00019080,0.00001307,0.00000311,0.00001736,0.00051692,0.00117918,
 -0.00017936,-0.00891476,0.00223788,0.00180503,0.00008834,-0.00009826,-
 0.00003858,0.00014908,0.00001039,0.00007509,0.00007563,0.00005595,-0.0
 0006787,-0.00000341,0.00000447,-0.00002677,-0.00000189,-0.00005839,0.0
 0028912,-0.00005273,0.00000156,-0.00008282,0.00006008,-0.00002759,-0.0
 0010140,0.00001710,0.00007663,-0.00007911,-0.00000806,-0.00000799,0.00
 000430,-0.01862821,-0.01636657,-0.03190082,0.00328637,-0.00188106,0.00
 166783,-0.07756854,-0.07266077,-0.10136148,0.00566635,0.00718605,0.005
 91921,0.00450655,0.00285724,0.00426312,0.09039029,0.08001567,0.1232595
 4,0.00048212,0.00014064,-0.00027573,-0.00019535,0.00018884,-0.00055311
 ,0.00000523,0.00003621,-0.00004873,-0.00043762,-0.00038789,0.00024037,
 0.00005138,-0.00006158,-0.00003932,-0.00010871,-0.00054359,-0.00026200
 ,-0.02178849,0.00759477,-0.01547361,0.00003582,0.00011434,-0.00003660,
 0.00000467,0.00001446,-0.00090317,-0.00009992,-0.00025429,0.00032272,-
 0.00000835,0.00001436,-0.00005062,0.00001763,-0.00005399,0.00064152,-0
 .00011483,-0.00001137,-0.00016897,0.00011754,-0.00006214,-0.00019827,0
 .00002855,0.00016282,-0.00020268,-0.00002192,-0.00001737,0.00001630,-0
 .30004561,0.14326126,-0.14086062,0.00045978,0.00223118,0.00486586,0.00
 660920,-0.00525570,0.00380096,0.00083067,-0.00010769,0.00011885,0.0004
 7474,-0.00136772,0.00248666,0.00034648,0.00008167,0.00057416,0.3133569
 8,0.00016073,-0.00005754,0.00013614,-0.00031727,0.00012028,-0.00004666
 ,0.00000097,-0.00001050,0.00004455,-0.00000030,-0.00006796,0.00039006,
 -0.00004862,-0.00009651,-0.00003574,-0.00058512,-0.00139474,-0.0008010
 8,0.00014355,-0.00898912,0.00188617,0.00112455,-0.00006003,-0.00036949
 ,-0.00066702,-0.00112545,-0.00179158,-0.00039599,-0.00025390,0.0002801
 8,-0.00000106,0.00000194,0.00003160,-0.00001761,0.00006858,-0.00017988
 ,0.00002529,-0.00000525,0.00006441,-0.00004214,0.00002072,0.00007854,-
 0.00000968,-0.00007197,0.00003985,0.00000341,0.00000865,-0.00000056,0.
 14704906,-0.07451304,0.08415263,0.00087232,0.00827508,0.00028736,-0.00
 091710,-0.00446626,-0.00066442,-0.00004573,0.00059431,-0.00032445,0.00
 009583,-0.00068097,0.00219677,-0.00071089,-0.00037902,-0.00256200,-0.1
 4571721,0.08308270,-0.00009292,-0.00007292,0.00012473,-0.00020588,-0.0
 0001086,0.00006466,-0.00000363,0.00000947,0.00001595,-0.00023594,-0.00
 011233,0.00000309,-0.00009641,-0.00009244,0.00002928,0.00050955,-0.000
 17476,-0.00107568,0.00913369,-0.00874998,0.01709386,0.00282116,-0.0001
 9604,-0.00169185,-0.00106755,-0.00219068,-0.00581633,-0.00040819,-0.00
 000228,-0.00009980,-0.00000586,0.00000321,0.00002410,-0.00002453,0.000
 03854,-0.00024331,0.00003094,-0.00000140,0.00009427,-0.00005597,0.0000
 3921,0.00010001,-0.00000774,-0.00008452,0.00006511,0.00000736,0.000010
 48,-0.00000815,-0.14277786,0.08517814,-0.15534361,0.00872686,-0.000904
 15,-0.00077886,-0.02186694,0.00960464,-0.00907797,0.00014286,-0.000172
 01,0.00168618,-0.00031806,-0.00022906,-0.00302937,-0.00021098,0.000922
 12,-0.00302741,0.14600604,-0.08281240,0.16089109\\0.00000396,0.0000018
 1,0.00000295,0.00000164,-0.00000498,0.00000080,0.00000277,-0.00000080,
 0.00000298,-0.00000015,-0.00000308,0.00000315,-0.00000026,-0.00000687,
 0.00000199,-0.00000170,-0.00000419,0.00000016,-0.00001043,0.00000978,0
 .00000040,0.00000190,0.00000283,0.00000021,-0.00000259,0.00000478,-0.0
 0000649,-0.00000273,0.00000492,-0.00000691,0.00000129,0.00001075,-0.00
 000009,0.00000475,0.00001087,-0.00000316,0.00000492,0.00001125,0.00000
 294,0.00000235,0.00000642,0.00000186,0.00001563,-0.00000487,0.00000571
 ,0.00000417,0.00000194,0.00000352,0.00000079,-0.00002291,-0.00000643,-
 0.00000416,-0.00001005,0.00000185,-0.00000397,-0.00000090,-0.00000345,
 -0.00000520,-0.00000129,-0.00000134,-0.00000954,-0.00000628,-0.0000033
 2,-0.00000350,-0.00000655,0.00000069,0.00000003,0.00000741,0.00000198\
 \\@
 The archive entry for this job was punched.


 THE MORE PROGRESS PHYSICAL SCIENCES MAKE, THE MORE THEY TEND TO ENTER
 THE DOMAIN OF MATHEMATICS, WHICH IS A KIND OF CENTRE TO WHICH THEY ALL
 CONVERGE.  WE MAY EVEN JUDGE THE DEGREE OF PERFECTION TO WHICH A 
 SCIENCE HAS ARRIVED BY THE FACILITY WITH WHICH IT MAY BE SUBMITTED
 TO CALCULATION.

                               -- ADOLPHE QUETELET, 1796-1874
 Job cpu time:       0 days  1 hours 25 minutes  9.0 seconds.
 Elapsed time:       0 days  0 hours  5 minutes 22.6 seconds.
 File lengths (MBytes):  RWF=    284 Int=      0 D2E=      0 Chk=     14 Scr=      1
 Normal termination of Gaussian 16 at Sun May 22 14:08:24 2022.
