 Entering Gaussian System, Link 0=g16
 AtFile(1): /home/561/yj5695/Basis/6-31pGd.gbs
 Initial command:
 /apps/gaussian/g16c01/g16/l1.exe "/jobfs/41413635.gadi-pbs/Gau-1205543.inp" -scrdir="/jobfs/41413635.gadi-pbs/"
 Entering Link 1 = /apps/gaussian/g16c01/g16/l1.exe PID=   1205559.
  
 Copyright (c) 1988-2019, Gaussian, Inc.  All Rights Reserved.
  
 This is part of the Gaussian(R) 16 program.  It is based on
 the Gaussian(R) 09 system (copyright 2009, Gaussian, Inc.),
 the Gaussian(R) 03 system (copyright 2003, Gaussian, Inc.),
 the Gaussian(R) 98 system (copyright 1998, Gaussian, Inc.),
 the Gaussian(R) 94 system (copyright 1995, Gaussian, Inc.),
 the Gaussian 92(TM) system (copyright 1992, Gaussian, Inc.),
 the Gaussian 90(TM) system (copyright 1990, Gaussian, Inc.),
 the Gaussian 88(TM) system (copyright 1988, Gaussian, Inc.),
 the Gaussian 86(TM) system (copyright 1986, Carnegie Mellon
 University), and the Gaussian 82(TM) system (copyright 1983,
 Carnegie Mellon University). Gaussian is a federally registered
 trademark of Gaussian, Inc.
  
 This software contains proprietary and confidential information,
 including trade secrets, belonging to Gaussian, Inc.
  
 This software is provided under written license and may be
 used, copied, transmitted, or stored only in accord with that
 written license.
  
 The following legend is applicable only to US Government
 contracts under FAR:
  
                    RESTRICTED RIGHTS LEGEND
  
 Use, reproduction and disclosure by the US Government is
 subject to restrictions as set forth in subparagraphs (a)
 and (c) of the Commercial Computer Software - Restricted
 Rights clause in FAR 52.227-19.
  
 Gaussian, Inc.
 340 Quinnipiac St., Bldg. 40, Wallingford CT 06492
  
  
 ---------------------------------------------------------------
 Warning -- This program may not be used in any manner that
 competes with the business of Gaussian, Inc. or will provide
 assistance to any competitor of Gaussian, Inc.  The licensee
 of this program is prohibited from giving any competitor of
 Gaussian, Inc. access to this program.  By using this program,
 the user acknowledges that Gaussian, Inc. is engaged in the
 business of creating and licensing software in the field of
 computational chemistry and represents and warrants to the
 licensee that it is not a competitor of Gaussian, Inc. and that
 it will not use this program in any manner prohibited above.
 ---------------------------------------------------------------
  

 Cite this work as:
 Gaussian 16, Revision C.01,
 M. J. Frisch, G. W. Trucks, H. B. Schlegel, G. E. Scuseria, 
 M. A. Robb, J. R. Cheeseman, G. Scalmani, V. Barone, 
 G. A. Petersson, H. Nakatsuji, X. Li, M. Caricato, A. V. Marenich, 
 J. Bloino, B. G. Janesko, R. Gomperts, B. Mennucci, H. P. Hratchian, 
 J. V. Ortiz, A. F. Izmaylov, J. L. Sonnenberg, D. Williams-Young, 
 F. Ding, F. Lipparini, F. Egidi, J. Goings, B. Peng, A. Petrone, 
 T. Henderson, D. Ranasinghe, V. G. Zakrzewski, J. Gao, N. Rega, 
 G. Zheng, W. Liang, M. Hada, M. Ehara, K. Toyota, R. Fukuda, 
 J. Hasegawa, M. Ishida, T. Nakajima, Y. Honda, O. Kitao, H. Nakai, 
 T. Vreven, K. Throssell, J. A. Montgomery, Jr., J. E. Peralta, 
 F. Ogliaro, M. J. Bearpark, J. J. Heyd, E. N. Brothers, K. N. Kudin, 
 V. N. Staroverov, T. A. Keith, R. Kobayashi, J. Normand, 
 K. Raghavachari, A. P. Rendell, J. C. Burant, S. S. Iyengar, 
 J. Tomasi, M. Cossi, J. M. Millam, M. Klene, C. Adamo, R. Cammi, 
 J. W. Ochterski, R. L. Martin, K. Morokuma, O. Farkas, 
 J. B. Foresman, and D. J. Fox, Gaussian, Inc., Wallingford CT, 2019.
 
 ******************************************
 Gaussian 16:  ES64L-G16RevC.01  3-Jul-2019
                26-May-2022 
 ******************************************
 %nproc=16
 Will use up to   16 processors via shared memory.
 %mem=60gb
 -----------------------------------------------------
 #m062X/gen 6D OPT Freq=noraman SCRF=(SMD,Solvent=h2o)
 -----------------------------------------------------
 1/18=20,19=15,26=3,38=1/1,3;
 2/9=110,12=2,17=6,18=5,40=1/2;
 3/5=7,8=2,11=2,25=1,30=1,70=32201,71=1,72=1,74=-55/1,2,3;
 4//1;
 5/5=2,38=5,53=1/2;
 6/7=2,8=2,9=2,10=2,28=1/1;
 7//1,2,3,16;
 1/18=20,19=15,26=3/3(2);
 2/9=110/2;
 99//99;
 2/9=110/2;
 3/5=7,6=1,8=2,11=2,25=1,30=1,70=32205,71=1,72=1,74=-55,82=7/1,2,3;
 4/5=5,16=3,69=1/1;
 5/5=2,38=5,53=1/2;
 7//1,2,3,16;
 1/18=20,19=15,26=3/3(-5);
 2/9=110/2;
 6/7=2,8=2,9=2,10=2,19=2,28=1/1;
 99/9=1/99;
 -------------------
 A.18.smd.a2b2f2.smd
 -------------------
 Symbolic Z-matrix:
 Charge = -1 Multiplicity = 1
 C                    -0.60903   1.0114   -1.53509 
 S                    -0.90373   1.46042   0.17263 
 O                    -2.39027   1.46478   0.21347 
 O                    -0.26545   0.36729   0.94621 
 N                    -0.19776   2.80652   0.48762 
 H                     0.75466   2.76699   0.11513 
 O                    -1.10835   1.86227  -2.47967 
 C                    -0.81958   1.33913  -3.69095 
 C                    -0.14729   0.16815  -3.52141 
 C                    -0.00539  -0.05665  -2.11088 
 S                     0.44893  -0.88637  -4.79147 
 C                    -0.30182  -2.44267  -4.45499 
 O                     1.90708  -1.00538  -4.6295 
 O                    -0.04692  -0.37537  -6.07951 
 C                     0.36509  -3.35762  -3.64121 
 C                    -0.25945  -4.55913  -3.34235 
 C                    -1.53454  -4.82923  -3.85103 
 C                    -2.21133  -3.90664  -4.66998 
 C                    -1.57687  -2.70356  -4.9586 
 O                    -2.17417  -5.99174  -3.56293 
 C                    -3.58488  -4.21044  -5.21032 
 N                    -3.5676   -5.06349  -6.40648 
 C                    -2.96643  -4.34295  -7.52657 
 C                    -4.95024  -5.39271  -6.74704 
 H                    -1.14737   1.89609  -4.55794 
 H                     0.47441  -0.88783  -1.61303 
 H                     1.35348  -3.13832  -3.24912 
 H                     0.23124  -5.29689  -2.71316 
 H                    -2.0844   -1.97102  -5.58249 
 H                    -1.63     -6.53848  -2.96989 
 H                    -4.09322  -3.25537  -5.43329 
 H                    -4.17087  -4.72244  -4.4415 
 H                    -1.91584  -4.12026  -7.32427 
 H                    -3.4927   -3.39295  -7.72954 
 H                    -3.01548  -4.96345  -8.42526 
 H                    -5.4184   -5.93874  -5.92345 
 H                    -4.97001  -6.0238   -7.63939 
 H                    -5.54863  -4.48693  -6.95 
 

 GradGradGradGradGradGradGradGradGradGradGradGradGradGradGradGradGradGrad
 Berny optimization.
 Initialization pass.
                           ----------------------------
                           !    Initial Parameters    !
                           ! (Angstroms and Degrees)  !
 --------------------------                            --------------------------
 ! Name  Definition              Value          Derivative Info.                !
 --------------------------------------------------------------------------------
 ! R1    R(1,2)                  1.7902         estimate D2E/DX2                !
 ! R2    R(1,7)                  1.3658         estimate D2E/DX2                !
 ! R3    R(1,10)                 1.3552         estimate D2E/DX2                !
 ! R4    R(2,3)                  1.4871         estimate D2E/DX2                !
 ! R5    R(2,4)                  1.4835         estimate D2E/DX2                !
 ! R6    R(2,5)                  1.5523         estimate D2E/DX2                !
 ! R7    R(5,6)                  1.0234         estimate D2E/DX2                !
 ! R8    R(7,8)                  1.3507         estimate D2E/DX2                !
 ! R9    R(8,9)                  1.3608         estimate D2E/DX2                !
 ! R10   R(8,25)                 1.0813         estimate D2E/DX2                !
 ! R11   R(9,10)                 1.4354         estimate D2E/DX2                !
 ! R12   R(9,11)                 1.7551         estimate D2E/DX2                !
 ! R13   R(10,26)                1.0812         estimate D2E/DX2                !
 ! R14   R(11,12)                1.7604         estimate D2E/DX2                !
 ! R15   R(11,13)                1.4719         estimate D2E/DX2                !
 ! R16   R(11,14)                1.4717         estimate D2E/DX2                !
 ! R17   R(12,15)                1.3943         estimate D2E/DX2                !
 ! R18   R(12,19)                1.3955         estimate D2E/DX2                !
 ! R19   R(15,16)                1.3867         estimate D2E/DX2                !
 ! R20   R(15,27)                1.0857         estimate D2E/DX2                !
 ! R21   R(16,17)                1.3991         estimate D2E/DX2                !
 ! R22   R(16,28)                1.0867         estimate D2E/DX2                !
 ! R23   R(17,18)                1.4071         estimate D2E/DX2                !
 ! R24   R(17,20)                1.3578         estimate D2E/DX2                !
 ! R25   R(18,19)                1.3904         estimate D2E/DX2                !
 ! R26   R(18,21)                1.507          estimate D2E/DX2                !
 ! R27   R(19,29)                1.0879         estimate D2E/DX2                !
 ! R28   R(20,30)                0.973          estimate D2E/DX2                !
 ! R29   R(21,22)                1.4693         estimate D2E/DX2                !
 ! R30   R(21,31)                1.1047         estimate D2E/DX2                !
 ! R31   R(21,32)                1.0939         estimate D2E/DX2                !
 ! R32   R(22,23)                1.4612         estimate D2E/DX2                !
 ! R33   R(22,24)                1.4615         estimate D2E/DX2                !
 ! R34   R(23,33)                1.0928         estimate D2E/DX2                !
 ! R35   R(23,34)                1.1048         estimate D2E/DX2                !
 ! R36   R(23,35)                1.0932         estimate D2E/DX2                !
 ! R37   R(24,36)                1.0934         estimate D2E/DX2                !
 ! R38   R(24,37)                1.0931         estimate D2E/DX2                !
 ! R39   R(24,38)                1.1044         estimate D2E/DX2                !
 ! A1    A(2,1,7)              116.3134         estimate D2E/DX2                !
 ! A2    A(2,1,10)             132.5544         estimate D2E/DX2                !
 ! A3    A(7,1,10)             111.0978         estimate D2E/DX2                !
 ! A4    A(1,2,3)              101.0401         estimate D2E/DX2                !
 ! A5    A(1,2,4)              103.9922         estimate D2E/DX2                !
 ! A6    A(1,2,5)              109.646          estimate D2E/DX2                !
 ! A7    A(3,2,4)              114.7037         estimate D2E/DX2                !
 ! A8    A(3,2,5)              116.5195         estimate D2E/DX2                !
 ! A9    A(4,2,5)              109.7243         estimate D2E/DX2                !
 ! A10   A(2,5,6)              108.414          estimate D2E/DX2                !
 ! A11   A(1,7,8)              107.5033         estimate D2E/DX2                !
 ! A12   A(7,8,9)              109.0977         estimate D2E/DX2                !
 ! A13   A(7,8,25)             117.0474         estimate D2E/DX2                !
 ! A14   A(9,8,25)             133.8548         estimate D2E/DX2                !
 ! A15   A(8,9,10)             107.8201         estimate D2E/DX2                !
 ! A16   A(8,9,11)             126.4881         estimate D2E/DX2                !
 ! A17   A(10,9,11)            125.6916         estimate D2E/DX2                !
 ! A18   A(1,10,9)             104.4807         estimate D2E/DX2                !
 ! A19   A(1,10,26)            127.4375         estimate D2E/DX2                !
 ! A20   A(9,10,26)            128.0818         estimate D2E/DX2                !
 ! A21   A(9,11,12)            104.358          estimate D2E/DX2                !
 ! A22   A(9,11,13)            107.7863         estimate D2E/DX2                !
 ! A23   A(9,11,14)            108.0737         estimate D2E/DX2                !
 ! A24   A(12,11,13)           109.2664         estimate D2E/DX2                !
 ! A25   A(12,11,14)           109.3023         estimate D2E/DX2                !
 ! A26   A(13,11,14)           117.2672         estimate D2E/DX2                !
 ! A27   A(11,12,15)           119.1894         estimate D2E/DX2                !
 ! A28   A(11,12,19)           119.0755         estimate D2E/DX2                !
 ! A29   A(15,12,19)           121.6657         estimate D2E/DX2                !
 ! A30   A(12,15,16)           118.615          estimate D2E/DX2                !
 ! A31   A(12,15,27)           120.9082         estimate D2E/DX2                !
 ! A32   A(16,15,27)           120.4767         estimate D2E/DX2                !
 ! A33   A(15,16,17)           119.9573         estimate D2E/DX2                !
 ! A34   A(15,16,28)           120.6395         estimate D2E/DX2                !
 ! A35   A(17,16,28)           119.4031         estimate D2E/DX2                !
 ! A36   A(16,17,18)           121.5589         estimate D2E/DX2                !
 ! A37   A(16,17,20)           121.1625         estimate D2E/DX2                !
 ! A38   A(18,17,20)           117.2762         estimate D2E/DX2                !
 ! A39   A(17,18,19)           117.9477         estimate D2E/DX2                !
 ! A40   A(17,18,21)           120.9921         estimate D2E/DX2                !
 ! A41   A(19,18,21)           121.0592         estimate D2E/DX2                !
 ! A42   A(12,19,18)           120.2503         estimate D2E/DX2                !
 ! A43   A(12,19,29)           120.4872         estimate D2E/DX2                !
 ! A44   A(18,19,29)           119.2623         estimate D2E/DX2                !
 ! A45   A(17,20,30)           110.3009         estimate D2E/DX2                !
 ! A46   A(18,21,22)           113.4682         estimate D2E/DX2                !
 ! A47   A(18,21,31)           108.5125         estimate D2E/DX2                !
 ! A48   A(18,21,32)           109.306          estimate D2E/DX2                !
 ! A49   A(22,21,31)           110.0632         estimate D2E/DX2                !
 ! A50   A(22,21,32)           107.8628         estimate D2E/DX2                !
 ! A51   A(31,21,32)           107.4587         estimate D2E/DX2                !
 ! A52   A(21,22,23)           110.0354         estimate D2E/DX2                !
 ! A53   A(21,22,24)           108.0204         estimate D2E/DX2                !
 ! A54   A(23,22,24)           108.7636         estimate D2E/DX2                !
 ! A55   A(22,23,33)           110.7377         estimate D2E/DX2                !
 ! A56   A(22,23,34)           111.6451         estimate D2E/DX2                !
 ! A57   A(22,23,35)           109.3791         estimate D2E/DX2                !
 ! A58   A(33,23,34)           108.4646         estimate D2E/DX2                !
 ! A59   A(33,23,35)           108.1183         estimate D2E/DX2                !
 ! A60   A(34,23,35)           108.4004         estimate D2E/DX2                !
 ! A61   A(22,24,36)           109.9999         estimate D2E/DX2                !
 ! A62   A(22,24,37)           109.7168         estimate D2E/DX2                !
 ! A63   A(22,24,38)           111.7561         estimate D2E/DX2                !
 ! A64   A(36,24,37)           108.5915         estimate D2E/DX2                !
 ! A65   A(36,24,38)           108.4211         estimate D2E/DX2                !
 ! A66   A(37,24,38)           108.2804         estimate D2E/DX2                !
 ! D1    D(7,1,2,3)             60.5056         estimate D2E/DX2                !
 ! D2    D(7,1,2,4)            179.6782         estimate D2E/DX2                !
 ! D3    D(7,1,2,5)            -63.0463         estimate D2E/DX2                !
 ! D4    D(10,1,2,3)          -117.1321         estimate D2E/DX2                !
 ! D5    D(10,1,2,4)             2.0406         estimate D2E/DX2                !
 ! D6    D(10,1,2,5)           119.3161         estimate D2E/DX2                !
 ! D7    D(2,1,7,8)           -178.3399         estimate D2E/DX2                !
 ! D8    D(10,1,7,8)            -0.2049         estimate D2E/DX2                !
 ! D9    D(2,1,10,9)           177.9188         estimate D2E/DX2                !
 ! D10   D(2,1,10,26)           -2.1308         estimate D2E/DX2                !
 ! D11   D(7,1,10,9)             0.1885         estimate D2E/DX2                !
 ! D12   D(7,1,10,26)         -179.8611         estimate D2E/DX2                !
 ! D13   D(1,2,5,6)            -46.3943         estimate D2E/DX2                !
 ! D14   D(3,2,5,6)           -160.3094         estimate D2E/DX2                !
 ! D15   D(4,2,5,6)             67.2294         estimate D2E/DX2                !
 ! D16   D(1,7,8,9)              0.1308         estimate D2E/DX2                !
 ! D17   D(1,7,8,25)          -179.9182         estimate D2E/DX2                !
 ! D18   D(7,8,9,10)            -0.0161         estimate D2E/DX2                !
 ! D19   D(7,8,9,11)          -179.8735         estimate D2E/DX2                !
 ! D20   D(25,8,9,10)         -179.9555         estimate D2E/DX2                !
 ! D21   D(25,8,9,11)            0.1871         estimate D2E/DX2                !
 ! D22   D(8,9,10,1)            -0.1043         estimate D2E/DX2                !
 ! D23   D(8,9,10,26)          179.9458         estimate D2E/DX2                !
 ! D24   D(11,9,10,1)          179.7546         estimate D2E/DX2                !
 ! D25   D(11,9,10,26)          -0.1953         estimate D2E/DX2                !
 ! D26   D(8,9,11,12)         -123.192          estimate D2E/DX2                !
 ! D27   D(8,9,11,13)          120.7161         estimate D2E/DX2                !
 ! D28   D(8,9,11,14)           -6.9314         estimate D2E/DX2                !
 ! D29   D(10,9,11,12)          56.9752         estimate D2E/DX2                !
 ! D30   D(10,9,11,13)         -59.1168         estimate D2E/DX2                !
 ! D31   D(10,9,11,14)         173.2357         estimate D2E/DX2                !
 ! D32   D(9,11,12,15)         -90.9117         estimate D2E/DX2                !
 ! D33   D(9,11,12,19)          86.1112         estimate D2E/DX2                !
 ! D34   D(13,11,12,15)         24.1438         estimate D2E/DX2                !
 ! D35   D(13,11,12,19)       -158.8333         estimate D2E/DX2                !
 ! D36   D(14,11,12,15)        153.6861         estimate D2E/DX2                !
 ! D37   D(14,11,12,19)        -29.2909         estimate D2E/DX2                !
 ! D38   D(11,12,15,16)        177.5726         estimate D2E/DX2                !
 ! D39   D(11,12,15,27)         -2.5277         estimate D2E/DX2                !
 ! D40   D(19,12,15,16)          0.6297         estimate D2E/DX2                !
 ! D41   D(19,12,15,27)       -179.4707         estimate D2E/DX2                !
 ! D42   D(11,12,19,18)       -177.8191         estimate D2E/DX2                !
 ! D43   D(11,12,19,29)          2.342          estimate D2E/DX2                !
 ! D44   D(15,12,19,18)         -0.8727         estimate D2E/DX2                !
 ! D45   D(15,12,19,29)        179.2883         estimate D2E/DX2                !
 ! D46   D(12,15,16,17)         -0.2427         estimate D2E/DX2                !
 ! D47   D(12,15,16,28)        179.8591         estimate D2E/DX2                !
 ! D48   D(27,15,16,17)        179.8572         estimate D2E/DX2                !
 ! D49   D(27,15,16,28)         -0.0409         estimate D2E/DX2                !
 ! D50   D(15,16,17,18)          0.102          estimate D2E/DX2                !
 ! D51   D(15,16,17,20)       -179.3243         estimate D2E/DX2                !
 ! D52   D(28,16,17,18)       -179.9986         estimate D2E/DX2                !
 ! D53   D(28,16,17,20)          0.5751         estimate D2E/DX2                !
 ! D54   D(16,17,18,19)         -0.3265         estimate D2E/DX2                !
 ! D55   D(16,17,18,21)       -179.9643         estimate D2E/DX2                !
 ! D56   D(20,17,18,19)        179.1211         estimate D2E/DX2                !
 ! D57   D(20,17,18,21)         -0.5167         estimate D2E/DX2                !
 ! D58   D(16,17,20,30)          1.3037         estimate D2E/DX2                !
 ! D59   D(18,17,20,30)       -178.1463         estimate D2E/DX2                !
 ! D60   D(17,18,19,12)          0.6981         estimate D2E/DX2                !
 ! D61   D(17,18,19,29)       -179.4609         estimate D2E/DX2                !
 ! D62   D(21,18,19,12)       -179.6643         estimate D2E/DX2                !
 ! D63   D(21,18,19,29)          0.1766         estimate D2E/DX2                !
 ! D64   D(17,18,21,22)        -81.4013         estimate D2E/DX2                !
 ! D65   D(17,18,21,31)        155.9306         estimate D2E/DX2                !
 ! D66   D(17,18,21,32)         39.0239         estimate D2E/DX2                !
 ! D67   D(19,18,21,22)         98.9722         estimate D2E/DX2                !
 ! D68   D(19,18,21,31)        -23.6959         estimate D2E/DX2                !
 ! D69   D(19,18,21,32)       -140.6026         estimate D2E/DX2                !
 ! D70   D(18,21,22,23)        -67.0535         estimate D2E/DX2                !
 ! D71   D(18,21,22,24)        174.3474         estimate D2E/DX2                !
 ! D72   D(31,21,22,23)         54.7541         estimate D2E/DX2                !
 ! D73   D(31,21,22,24)        -63.845          estimate D2E/DX2                !
 ! D74   D(32,21,22,23)        171.7083         estimate D2E/DX2                !
 ! D75   D(32,21,22,24)         53.1092         estimate D2E/DX2                !
 ! D76   D(21,22,23,33)         64.4443         estimate D2E/DX2                !
 ! D77   D(21,22,23,34)        -56.5266         estimate D2E/DX2                !
 ! D78   D(21,22,23,35)       -176.4991         estimate D2E/DX2                !
 ! D79   D(24,22,23,33)       -177.4142         estimate D2E/DX2                !
 ! D80   D(24,22,23,34)         61.6149         estimate D2E/DX2                !
 ! D81   D(24,22,23,35)        -58.3576         estimate D2E/DX2                !
 ! D82   D(21,22,24,36)        -60.935          estimate D2E/DX2                !
 ! D83   D(21,22,24,37)        179.6685         estimate D2E/DX2                !
 ! D84   D(21,22,24,38)         59.5506         estimate D2E/DX2                !
 ! D85   D(23,22,24,36)        179.658          estimate D2E/DX2                !
 ! D86   D(23,22,24,37)         60.2615         estimate D2E/DX2                !
 ! D87   D(23,22,24,38)        -59.8564         estimate D2E/DX2                !
 --------------------------------------------------------------------------------
 Trust Radius=3.00D-01 FncErr=1.00D-07 GrdErr=1.00D-06 EigMax=2.50D+02 EigMin=1.00D-04
 Number of steps in this run=    202 maximum allowed number of steps=    228.
 GradGradGradGradGradGradGradGradGradGradGradGradGradGradGradGradGradGrad

                          Input orientation:                          
 ---------------------------------------------------------------------
 Center     Atomic      Atomic             Coordinates (Angstroms)
 Number     Number       Type             X           Y           Z
 ---------------------------------------------------------------------
      1          6           0       -0.609028    1.011401   -1.535089
      2         16           0       -0.903730    1.460418    0.172626
      3          8           0       -2.390266    1.464781    0.213473
      4          8           0       -0.265453    0.367285    0.946213
      5          7           0       -0.197755    2.806524    0.487615
      6          1           0        0.754659    2.766986    0.115126
      7          8           0       -1.108351    1.862269   -2.479671
      8          6           0       -0.819579    1.339129   -3.690949
      9          6           0       -0.147289    0.168151   -3.521412
     10          6           0       -0.005388   -0.056649   -2.110880
     11         16           0        0.448931   -0.886368   -4.791472
     12          6           0       -0.301822   -2.442671   -4.454991
     13          8           0        1.907079   -1.005385   -4.629497
     14          8           0       -0.046924   -0.375371   -6.079509
     15          6           0        0.365087   -3.357619   -3.641208
     16          6           0       -0.259452   -4.559133   -3.342355
     17          6           0       -1.534536   -4.829228   -3.851028
     18          6           0       -2.211327   -3.906644   -4.669977
     19          6           0       -1.576865   -2.703563   -4.958596
     20          8           0       -2.174174   -5.991742   -3.562932
     21          6           0       -3.584878   -4.210445   -5.210322
     22          7           0       -3.567597   -5.063491   -6.406478
     23          6           0       -2.966434   -4.342954   -7.526571
     24          6           0       -4.950242   -5.392712   -6.747036
     25          1           0       -1.147367    1.896087   -4.557938
     26          1           0        0.474406   -0.887833   -1.613026
     27          1           0        1.353484   -3.138319   -3.249119
     28          1           0        0.231243   -5.296894   -2.713157
     29          1           0       -2.084401   -1.971018   -5.582495
     30          1           0       -1.629999   -6.538479   -2.969885
     31          1           0       -4.093218   -3.255366   -5.433292
     32          1           0       -4.170868   -4.722444   -4.441496
     33          1           0       -1.915840   -4.120264   -7.324266
     34          1           0       -3.492703   -3.392954   -7.729544
     35          1           0       -3.015482   -4.963450   -8.425264
     36          1           0       -5.418401   -5.938739   -5.923446
     37          1           0       -4.970014   -6.023804   -7.639386
     38          1           0       -5.548632   -4.486934   -6.950003
 ---------------------------------------------------------------------
                    Distance matrix (angstroms):
                    1          2          3          4          5
     1  C    0.000000
     2  S    1.790183   0.000000
     3  O    2.536894   1.487103   0.000000
     4  O    2.586463   1.483501   2.501247   0.000000
     5  N    2.735497   1.552295   2.585059   2.482898   0.000000
     6  H    2.768561   2.112032   3.405285   2.736768   1.023427
     7  O    1.365846   2.690359   3.009041   3.831727   3.244316
     8  C    2.190769   3.866394   4.210387   4.770200   4.472171
     9  C    2.206752   3.985985   4.545499   4.473622   4.799568
    10  C    1.355230   2.884945   3.661285   3.097285   3.871297
    11  S    3.914695   5.655030   6.215981   5.916335   6.474906
    12  C    4.533301   6.083686   6.436174   6.088529   7.210703
    13  O    4.469181   6.086150   6.929881   6.139435   6.719063
    14  O    4.784438   6.572171   6.962689   7.068243   7.298926
    15  C    4.947017   6.274449   6.760627   5.942804   7.440472
    16  C    5.866793   7.000370   7.312443   6.531573   8.302131
    17  C    6.350833   7.493154   7.541021   7.185252   8.883441
    18  C    6.048310   7.346153   7.261702   7.320825   8.701830
    19  C    5.143740   6.642386   6.692310   6.783559   7.869194
    20  O    7.456932   8.432266   8.361080   8.025760   9.885477
    21  C    7.044906   8.265795   7.940582   8.359253   9.652820
    22  N    8.329938   9.640653   9.371670   9.719030  10.991883
    23  C    8.374028   9.859590   9.693814  10.063286  11.090888
    24  C    9.328622  10.546154  10.100860  10.691627  11.922826
    25  H    3.195324   4.756827   4.949463   5.780198   5.214237
    26  H    2.187920   3.256086   4.132461   2.944897   4.302646
    27  H    4.899952   6.160498   6.869770   5.701844   7.191014
    28  H    6.472131   7.434862   7.820340   6.761702   8.723208
    29  H    5.239565   6.803687   6.744740   7.169398   7.951766
    30  H    7.752529   8.624685   8.646615   8.055271  10.066514
    31  H    6.748397   7.989854   7.554190   8.274870   9.326215
    32  H    7.349210   8.378072   7.944875   8.377650   9.837028
    33  H    7.845783   9.400626   9.393366   9.553151  10.581006
    34  H    8.129280   9.628203   9.375739   9.991161  10.807956
    35  H    9.432093  10.938432  10.786140  11.126724  12.155307
    36  H    9.523245  10.596786  10.081839  10.654155  12.034803
    37  H   10.284685  11.557499  11.153538  11.691511  12.915003
    38  H    9.162569  10.376799   9.834306  10.668910  11.710874
                    6          7          8          9         10
     6  H    0.000000
     7  O    3.319984   0.000000
     8  C    4.359267   1.350651   0.000000
     9  C    4.559809   2.208823   1.360848   0.000000
    10  C    3.675009   2.243832   2.260027   1.435365   0.000000
    11  S    6.124963   3.914659   2.788029   1.755147   2.842607
    12  C    7.010182   4.804673   3.892794   2.777020   3.357950
    13  O    6.170114   4.683803   3.716488   2.612559   3.301676
    14  O    6.992170   4.369496   3.040021   2.617126   3.981623
    15  C    7.195318   5.546839   4.844105   3.564819   3.657261
    16  C    8.164228   6.534467   5.935045   4.732003   4.674766
    17  C    8.869795   6.843858   6.211716   5.196816   5.305084
    18  C    8.731072   6.268521   5.514852   4.709927   5.122266
    19  C    7.817005   5.216454   4.303925   3.515100   4.193469
    20  O    9.940900   7.999683   7.456070   6.484926   6.483627
    21  C    9.791656   7.104048   6.383819   5.817348   6.298675
    22  N   11.069308   8.332698   7.477917   6.884199   7.497330
    23  C   11.081214   8.211484   7.183805   6.658750   7.514647
    24  C   12.091974   9.252312   8.468750   8.024725   8.626650
    25  H    5.119931   2.078908   1.081350   2.249512   3.332475
    26  H    4.052500   3.289263   3.309308   2.267938   1.081170
    27  H    6.822709   5.626594   4.996494   3.641319   3.555111
    28  H    8.561502   7.287156   6.789485   5.537443   5.280047
    29  H    7.935479   5.027353   4.016814   3.546338   4.476518
    30  H   10.089379   8.431192   7.951945   6.890682   6.737312
    31  H    9.516069   6.619932   5.904393   5.562923   6.162838
    32  H   10.055605   7.522381   6.966859   6.399505   6.674776
    33  H   10.483813   7.740339   6.648891   5.998331   6.880566
    34  H   10.840839   7.801517   6.771148   6.448383   7.406867
    35  H   12.120720   9.250820   8.182801   7.655562   8.544519
    36  H   12.262164   9.554677   8.893850   8.417155   8.856374
    37  H   13.045395  10.184559   9.328936   8.863221   9.529891
    38  H   11.927568   8.944962   8.180977   7.911988   8.589068
                   11         12         13         14         15
    11  S    0.000000
    12  C    1.760377   0.000000
    13  O    1.471936   2.641115   0.000000
    14  O    1.471744   2.641545   2.513480   0.000000
    15  C    2.727126   1.394324   2.981184   3.874128   0.000000
    16  C    4.011353   2.391478   4.356572   5.004103   1.386722
    17  C    4.512729   2.753182   5.203124   5.197688   2.412100
    18  C    4.026636   2.415708   5.037878   4.375078   2.828021
    19  C    2.726532   1.395499   3.889728   3.002939   2.436078
    20  O    5.869824   4.110642   6.531305   6.511680   3.659587
    21  C    5.243714   3.804472   6.385245   5.289650   4.334934
    22  N    6.015738   4.619771   7.042582   5.872011   5.101247
    23  C    5.576152   4.488411   6.579022   5.134125   5.212098
    24  C    7.299482   5.963558   8.411627   7.047115   6.483864
    25  H    3.216327   4.421580   4.213467   2.947147   5.543405
    26  H    3.178548   3.331188   3.341477   4.525911   3.197705
    27  H    2.875474   2.162890   2.600254   4.195966   1.085705
    28  H    4.880525   3.385961   4.989773   5.969178   2.154061
    29  H    2.867046   2.161321   4.215752   2.635228   3.419247
    30  H    6.291779   4.554694   6.773504   7.082358   3.814304
    31  H    5.162868   3.999029   6.458488   5.008439   4.806090
    32  H    6.015023   4.490775   7.126943   6.211847   4.803967
    33  H    4.739754   3.694876   5.619516   4.366519   4.398769
    34  H    5.518308   4.669845   6.668465   4.868451   5.621235
    35  H    6.467550   5.429673   7.369242   5.946879   6.074054
    36  H    7.825177   6.368535   8.926082   7.734868   6.731978
    37  H    7.991798   6.690060   9.029860   7.653419   7.180339
    38  H    7.320799   6.158986   8.549477   6.923258   6.869902
                   16         17         18         19         20
    16  C    0.000000
    17  C    1.399121   0.000000
    18  C    2.449110   1.407084   0.000000
    19  C    2.791228   2.397280   1.390412   0.000000
    20  O    2.401496   1.357783   2.361051   3.621709   0.000000
    21  C    3.830058   2.536627   1.506954   2.523128   2.806599
    22  N    4.537295   3.273918   2.488614   3.410079   3.299853
    23  C    4.988201   3.974470   2.986751   3.348582   4.365388
    24  C    5.855785   4.513471   3.744894   4.670087   4.266604
    25  H    6.628416   6.773440   5.900530   4.637001   8.016372
    26  H    4.124024   4.957731   5.066688   4.324052   6.071820
    27  H    2.151504   3.400313   3.913699   3.420273   4.548062
    28  H    1.086721   2.152077   3.424630   3.877708   2.644043
    29  H    3.879047   3.386694   2.143699   1.087872   4.500324
    30  H    2.436174   1.925374   3.186661   4.320229   0.973012
    31  H    4.557366   3.395211   2.132681   2.619514   3.829978
    32  H    4.066197   2.703757   2.134838   3.327480   2.523842
    33  H    4.334956   3.565306   2.679216   2.778190   4.209133
    34  H    5.573268   4.576045   3.356598   3.438582   5.084572
    35  H    5.796131   4.809870   3.983175   4.381152   5.040581
    36  H    5.931281   4.539861   3.998239   5.114166   4.012461
    37  H    6.542104   5.251778   4.572757   5.451981   4.943200
    38  H    6.402793   5.082694   4.083241   4.787593   5.012351
                   21         22         23         24         25
    21  C    0.000000
    22  N    1.469277   0.000000
    23  C    2.401050   1.461225   0.000000
    24  C    2.371384   1.461531   2.375955   0.000000
    25  H    6.607329   7.596732   7.144748   8.507679   0.000000
    26  H    6.360666   7.533332   7.664676   8.722316   4.364959
    27  H    5.420626   6.155667   6.197534   7.553454   5.771699
    28  H    4.688175   5.303422   5.856970   6.567279   7.552666
    29  H    2.721209   3.527351   3.191159   4.612720   4.108802
    30  H    3.776354   4.211894   5.231613   5.157874   8.596322
    31  H    1.104672   2.119595   2.614251   2.651162   5.998479
    32  H    1.093902   2.083603   3.333521   2.524321   7.277367
    33  H    2.694917   2.111945   1.092825   3.340646   6.666303
    34  H    2.650145   2.132324   1.104834   2.662475   6.598003
    35  H    3.350684   2.095313   1.093193   2.596923   8.093165
    36  H    2.618655   2.103534   3.335968   1.093444   9.027228
    37  H    3.332750   2.099771   2.617693   1.093141   9.318403
    38  H    2.638042   2.133621   2.649699   1.104400   8.113943
                   26         27         28         29         30
    26  H    0.000000
    27  H    2.917921   0.000000
    28  H    4.550740   2.491210   0.000000
    29  H    4.845355   4.315818   4.965557   0.000000
    30  H    6.180565   4.532133   2.252036   5.281469   0.000000
    31  H    6.408029   5.869487   5.501630   2.388966   4.786925
    32  H    6.654551   5.869385   4.764004   3.636697   3.452483
    33  H    6.984279   5.315968   5.220800   2.771541   4.988998
    34  H    7.708786   6.604890   6.531225   2.935138   6.001529
    35  H    8.671595   7.015087   6.578797   4.231181   5.844779
    36  H    8.877868   7.800821   6.529655   5.193709   4.840992
    37  H    9.609210   8.221137   7.200639   5.383552   5.764098
    38  H    8.815545   7.946981   7.212063   4.494531   5.950282
                   31         32         33         34         35
    31  H    0.000000
    32  H    1.772571   0.000000
    33  H    3.010782   3.709196   0.000000
    34  H    2.377461   3.610916   1.783179   0.000000
    35  H    3.609842   4.154926   1.769851   1.782757   0.000000
    36  H    3.032631   2.287332   4.187730   3.667605   3.603374
    37  H    3.646899   3.543822   3.612581   3.018600   2.358421
    38  H    2.436268   2.871638   3.670381   2.455875   2.969901
                   36         37         38
    36  H    0.000000
    37  H    1.775595   0.000000
    38  H    1.782840   1.781016   0.000000
 Stoichiometry    C13H15N2O6S2(1-)
 Framework group  C1[X(C13H15N2O6S2)]
 Deg. of freedom   108
 Full point group                 C1      NOp   1
 Largest Abelian subgroup         C1      NOp   1
 Largest concise Abelian subgroup C1      NOp   1
                         Standard orientation:                         
 ---------------------------------------------------------------------
 Center     Atomic      Atomic             Coordinates (Angstroms)
 Number     Number       Type             X           Y           Z
 ---------------------------------------------------------------------
      1          6           0       -3.205421   -0.092425   -0.362432
      2         16           0       -4.514310   -1.307561   -0.239926
      3          8           0       -4.146146   -2.234847   -1.342683
      4          8           0       -4.354428   -1.870802    1.123148
      5          7           0       -5.892748   -0.603495   -0.357489
      6          1           0       -5.887408    0.220961    0.248850
      7          8           0       -3.117548    0.585697   -1.544787
      8          6           0       -2.059100    1.420090   -1.456835
      9          6           0       -1.477383    1.274129   -0.235276
     10          6           0       -2.220829    0.283190    0.489706
     11         16           0       -0.071707    2.139323    0.361427
     12          6           0        1.071453    0.871392    0.790922
     13          8           0       -0.472874    2.864089    1.578134
     14          8           0        0.478841    2.935627   -0.747098
     15          6           0        1.067092    0.363157    2.089313
     16          6           0        1.937482   -0.670462    2.400842
     17          6           0        2.791820   -1.184246    1.419174
     18          6           0        2.796364   -0.675527    0.107278
     19          6           0        1.915842    0.357471   -0.194121
     20          8           0        3.644048   -2.204988    1.693703
     21          6           0        3.721474   -1.239105   -0.940320
     22          7           0        5.086964   -0.701924   -0.865169
     23          6           0        5.086058    0.717937   -1.210385
     24          6           0        5.909814   -1.421157   -1.835578
     25          1           0       -1.847622    2.038584   -2.318263
     26          1           0       -2.041935   -0.084780    1.490468
     27          1           0        0.398867    0.766661    2.843908
     28          1           0        1.963205   -1.089758    3.403086
     29          1           0        1.895195    0.760906   -1.204210
     30          1           0        3.536592   -2.495698    2.616033
     31          1           0        3.288684   -1.036178   -1.936218
     32          1           0        3.781235   -2.325113   -0.823543
     33          1           0        4.516031    1.294047   -0.477288
     34          1           0        4.649448    0.894041   -2.209893
     35          1           0        6.113432    1.091528   -1.211909
     36          1           0        5.929450   -2.486994   -1.592215
     37          1           0        6.933291   -1.038230   -1.806980
     38          1           0        5.525144   -1.305104   -2.864296
 ---------------------------------------------------------------------
 Rotational constants (GHZ):           0.3662907           0.1073871           0.0998945
 General basis read from cards:  (6D, 7F)
 There are   475 symmetry adapted cartesian basis functions of A   symmetry.
 There are   475 symmetry adapted basis functions of A   symmetry.
   475 basis functions,   844 primitive gaussians,   475 cartesian basis functions
    94 alpha electrons       94 beta electrons
       nuclear repulsion energy      2306.6800046408 Hartrees.
 NAtoms=   38 NActive=   38 NUniq=   38 SFac= 1.00D+00 NAtFMM=   60 NAOKFM=F Big=F
 Integral buffers will be    131072 words long.
 Raffenetti 2 integral format.
 Two-electron integral symmetry is turned on.
 ------------------------------------------------------------------------------
 Polarizable Continuum Model (PCM)
 =================================
 Model                : PCM.
 Atomic radii         : SMD-Coulomb.
 Polarization charges : Total charges.
 Charge compensation  : None.
 Solution method      : On-the-fly selection.
 Cavity type          : VdW (van der Waals Surface) (Alpha=1.000).
 Cavity algorithm     : GePol (No added spheres)
                        Default sphere list used, NSphG=   38.
                        Lebedev-Laikov grids with approx.  5.0 points / Ang**2.
                        Smoothing algorithm: York/Karplus (Gamma=1.0000).
                        Polarization charges: spherical gaussians, with
                                              point-specific exponents (IZeta= 3).
                        Self-potential: point-specific (ISelfS= 7).
                        Self-field    : sphere-specific E.n sum rule (ISelfD= 2).
 1st derivatives      : Analytical E(r).r(x)/FMM algorithm (CHGder, D1EAlg=3).
                        Cavity 1st derivative terms included.
 Solvent              : Water, Eps=  78.355300 Eps(inf)=   1.777849
 ------------------------------------------------------------------------------
 ------------------------------------------------------------------------------
 Atomic radii for non-electrostatic terms: SMD-CDS.
 ------------------------------------------------------------------------------
 Nuclear repulsion after PCM non-electrostatic terms =     2306.6875031424 Hartrees.
 One-electron integrals computed using PRISM.
 NBasis=   475 RedAO= T EigKep=  2.10D-06  NBF=   475
 NBsUse=   474 1.00D-06 EigRej=  7.99D-07 NBFU=   474
 ExpMin= 4.05D-02 ExpMax= 2.19D+04 ExpMxC= 3.30D+03 IAcc=3 IRadAn=         5 AccDes= 0.00D+00
 Harris functional with IExCor= 1009 and IRadAn=       5 diagonalized for initial guess.
 HarFok:  IExCor= 1009 AccDes= 0.00D+00 IRadAn=         5 IDoV= 1 UseB2=F ITyADJ=14
 ICtDFT=  3500011 ScaDFX=  1.000000  1.000000  1.000000  1.000000
 FoFCou: FMM=F IPFlag=           0 FMFlag=      100000 FMFlg1=           0
         NFxFlg=           0 DoJE=T BraDBF=F KetDBF=T FulRan=T
         wScrn=  0.000000 ICntrl=       500 IOpCl=  0 I1Cent=   200000004 NGrid=           0
         NMat0=    1 NMatS0=      1 NMatT0=    0 NMatD0=    1 NMtDS0=    0 NMtDT0=    0
 Petite list used in FoFCou.
 Requested convergence on RMS density matrix=1.00D-08 within 128 cycles.
 Requested convergence on MAX density matrix=1.00D-06.
 Requested convergence on             energy=1.00D-06.
 No special actions if energy rises.
 Inv3:  Mode=1 IEnd=    24333312.
 Iteration    1 A*A^-1 deviation from unit magnitude is 5.11D-15 for   2838.
 Iteration    1 A*A^-1 deviation from orthogonality  is 4.99D-15 for   2838    890.
 Iteration    1 A^-1*A deviation from unit magnitude is 4.88D-15 for   2838.
 Iteration    1 A^-1*A deviation from orthogonality  is 1.85D-15 for   1915    480.
 Error on total polarization charges =  0.07135
 SCF Done:  E(RM062X) =  -1861.16958728     A.U. after   16 cycles
            NFock= 16  Conv=0.21D-08     -V/T= 2.0064
 SMD-CDS (non-electrostatic) energy       (kcal/mol) =       4.71
 (included in total energy above)

 **********************************************************************

            Population analysis using the SCF Density.

 **********************************************************************

 Orbital symmetries:
       Occupied  (A) (A) (A) (A) (A) (A) (A) (A) (A) (A) (A) (A)
                 (A) (A) (A) (A) (A) (A) (A) (A) (A) (A) (A) (A)
                 (A) (A) (A) (A) (A) (A) (A) (A) (A) (A) (A) (A)
                 (A) (A) (A) (A) (A) (A) (A) (A) (A) (A) (A) (A)
                 (A) (A) (A) (A) (A) (A) (A) (A) (A) (A) (A) (A)
                 (A) (A) (A) (A) (A) (A) (A) (A) (A) (A) (A) (A)
                 (A) (A) (A) (A) (A) (A) (A) (A) (A) (A) (A) (A)
                 (A) (A) (A) (A) (A) (A) (A) (A) (A) (A)
       Virtual   (A) (A) (A) (A) (A) (A) (A) (A) (A) (A) (A) (A)
                 (A) (A) (A) (A) (A) (A) (A) (A) (A) (A) (A) (A)
                 (A) (A) (A) (A) (A) (A) (A) (A) (A) (A) (A) (A)
                 (A) (A) (A) (A) (A) (A) (A) (A) (A) (A) (A) (A)
                 (A) (A) (A) (A) (A) (A) (A) (A) (A) (A) (A) (A)
                 (A) (A) (A) (A) (A) (A) (A) (A) (A) (A) (A) (A)
                 (A) (A) (A) (A) (A) (A) (A) (A) (A) (A) (A) (A)
                 (A) (A) (A) (A) (A) (A) (A) (A) (A) (A) (A) (A)
                 (A) (A) (A) (A) (A) (A) (A) (A) (A) (A) (A) (A)
                 (A) (A) (A) (A) (A) (A) (A) (A) (A) (A) (A) (A)
                 (A) (A) (A) (A) (A) (A) (A) (A) (A) (A) (A) (A)
                 (A) (A) (A) (A) (A) (A) (A) (A) (A) (A) (A) (A)
                 (A) (A) (A) (A) (A) (A) (A) (A) (A) (A) (A) (A)
                 (A) (A) (A) (A) (A) (A) (A) (A) (A) (A) (A) (A)
                 (A) (A) (A) (A) (A) (A) (A) (A) (A) (A) (A) (A)
                 (A) (A) (A) (A) (A) (A) (A) (A) (A) (A) (A) (A)
                 (A) (A) (A) (A) (A) (A) (A) (A) (A) (A) (A) (A)
                 (A) (A) (A) (A) (A) (A) (A) (A) (A) (A) (A) (A)
                 (A) (A) (A) (A) (A) (A) (A) (A) (A) (A) (A) (A)
                 (A) (A) (A) (A) (A) (A) (A) (A) (A) (A) (A) (A)
                 (A) (A) (A) (A) (A) (A) (A) (A) (A) (A) (A) (A)
                 (A) (A) (A) (A) (A) (A) (A) (A) (A) (A) (A) (A)
                 (A) (A) (A) (A) (A) (A) (A) (A) (A) (A) (A) (A)
                 (A) (A) (A) (A) (A) (A) (A) (A) (A) (A) (A) (A)
                 (A) (A) (A) (A) (A) (A) (A) (A) (A) (A) (A) (A)
                 (A) (A) (A) (A) (A) (A) (A) (A) (A) (A) (A) (A)
                 (A) (A) (A) (A) (A) (A) (A) (A) (A) (A) (A) (A)
                 (A) (A) (A) (A) (A) (A) (A) (A) (A) (A) (A) (A)
                 (A) (A) (A) (A) (A) (A) (A) (A) (A) (A) (A) (A)
                 (A) (A) (A) (A) (A) (A) (A) (A) (A) (A) (A) (A)
                 (A) (A) (A) (A) (A) (A) (A) (A) (A) (A) (A) (A)
                 (A) (A) (A) (A) (A) (A) (A) (A)
 The electronic state is 1-A.
 Alpha  occ. eigenvalues --  -90.16790 -90.15021 -19.74778 -19.68802 -19.65939
 Alpha  occ. eigenvalues --  -19.65894 -19.63428 -19.62310 -14.75994 -14.72267
 Alpha  occ. eigenvalues --  -10.64077 -10.63691 -10.63471 -10.59804 -10.59345
 Alpha  occ. eigenvalues --  -10.58201 -10.58199 -10.58058 -10.57306 -10.57245
 Alpha  occ. eigenvalues --  -10.56669 -10.55454 -10.55369  -8.48044  -8.45801
 Alpha  occ. eigenvalues --   -6.40240  -6.40168  -6.40102  -6.38041  -6.37974
 Alpha  occ. eigenvalues --   -6.37894  -1.27505  -1.24730  -1.21862  -1.19868
 Alpha  occ. eigenvalues --   -1.13812  -1.10295  -1.03386  -0.98653  -0.97198
 Alpha  occ. eigenvalues --   -0.94807  -0.89250  -0.88412  -0.87313  -0.80277
 Alpha  occ. eigenvalues --   -0.79186  -0.78779  -0.73796  -0.72779  -0.71145
 Alpha  occ. eigenvalues --   -0.69211  -0.67195  -0.64727  -0.63957  -0.63024
 Alpha  occ. eigenvalues --   -0.60511  -0.58336  -0.58000  -0.56855  -0.56510
 Alpha  occ. eigenvalues --   -0.55198  -0.54539  -0.54284  -0.53776  -0.53269
 Alpha  occ. eigenvalues --   -0.53170  -0.51437  -0.50329  -0.50120  -0.50017
 Alpha  occ. eigenvalues --   -0.48386  -0.47191  -0.46583  -0.44880  -0.44290
 Alpha  occ. eigenvalues --   -0.43531  -0.42785  -0.42413  -0.42375  -0.42030
 Alpha  occ. eigenvalues --   -0.41420  -0.40277  -0.40108  -0.39956  -0.39640
 Alpha  occ. eigenvalues --   -0.38061  -0.37440  -0.37097  -0.34711  -0.32513
 Alpha  occ. eigenvalues --   -0.31568  -0.29876  -0.29149  -0.28784
 Alpha virt. eigenvalues --   -0.01558   0.00071   0.01103   0.01375   0.02183
 Alpha virt. eigenvalues --    0.02606   0.02844   0.03749   0.03991   0.04106
 Alpha virt. eigenvalues --    0.04292   0.04832   0.05021   0.05459   0.05559
 Alpha virt. eigenvalues --    0.06119   0.06484   0.06937   0.07409   0.07787
 Alpha virt. eigenvalues --    0.08250   0.08584   0.08823   0.09178   0.09548
 Alpha virt. eigenvalues --    0.09834   0.10059   0.10823   0.10967   0.11691
 Alpha virt. eigenvalues --    0.11882   0.12064   0.12421   0.12636   0.12919
 Alpha virt. eigenvalues --    0.13514   0.13852   0.14060   0.14256   0.14670
 Alpha virt. eigenvalues --    0.15123   0.15554   0.15975   0.16076   0.16268
 Alpha virt. eigenvalues --    0.16931   0.17368   0.17610   0.17736   0.18092
 Alpha virt. eigenvalues --    0.18602   0.19092   0.19400   0.19721   0.19952
 Alpha virt. eigenvalues --    0.20375   0.20886   0.21231   0.21609   0.21719
 Alpha virt. eigenvalues --    0.21810   0.22306   0.22680   0.23110   0.23510
 Alpha virt. eigenvalues --    0.23906   0.23937   0.24431   0.24873   0.24933
 Alpha virt. eigenvalues --    0.25146   0.25599   0.26008   0.26181   0.26244
 Alpha virt. eigenvalues --    0.26601   0.27027   0.27440   0.27778   0.27935
 Alpha virt. eigenvalues --    0.28322   0.28417   0.29004   0.29726   0.29918
 Alpha virt. eigenvalues --    0.29995   0.30124   0.30791   0.31008   0.31512
 Alpha virt. eigenvalues --    0.31661   0.31709   0.31972   0.32244   0.32528
 Alpha virt. eigenvalues --    0.32630   0.32831   0.33389   0.33732   0.34064
 Alpha virt. eigenvalues --    0.34245   0.34412   0.34942   0.35472   0.35686
 Alpha virt. eigenvalues --    0.36108   0.36778   0.37208   0.37468   0.37646
 Alpha virt. eigenvalues --    0.38470   0.39078   0.39229   0.39763   0.40519
 Alpha virt. eigenvalues --    0.41432   0.41688   0.41874   0.42414   0.43234
 Alpha virt. eigenvalues --    0.43701   0.44514   0.45463   0.45861   0.46422
 Alpha virt. eigenvalues --    0.46713   0.47843   0.48450   0.49342   0.49956
 Alpha virt. eigenvalues --    0.50932   0.51993   0.53428   0.58741   0.60670
 Alpha virt. eigenvalues --    0.61253   0.62690   0.64252   0.65753   0.67111
 Alpha virt. eigenvalues --    0.67563   0.69158   0.70033   0.70802   0.71259
 Alpha virt. eigenvalues --    0.73492   0.74409   0.74950   0.75571   0.75982
 Alpha virt. eigenvalues --    0.76886   0.77404   0.78413   0.78989   0.79600
 Alpha virt. eigenvalues --    0.80236   0.81370   0.82753   0.83576   0.83779
 Alpha virt. eigenvalues --    0.84641   0.85307   0.86438   0.86790   0.88493
 Alpha virt. eigenvalues --    0.89170   0.89556   0.90720   0.91238   0.92955
 Alpha virt. eigenvalues --    0.93099   0.94439   0.94679   0.96669   0.98875
 Alpha virt. eigenvalues --    0.99209   0.99509   1.00304   1.00845   1.02070
 Alpha virt. eigenvalues --    1.02299   1.04088   1.04167   1.05183   1.05923
 Alpha virt. eigenvalues --    1.06692   1.07135   1.08191   1.08866   1.09881
 Alpha virt. eigenvalues --    1.10427   1.11410   1.11667   1.12309   1.13019
 Alpha virt. eigenvalues --    1.13478   1.14162   1.15219   1.16653   1.18251
 Alpha virt. eigenvalues --    1.18485   1.18792   1.19727   1.20594   1.21091
 Alpha virt. eigenvalues --    1.22186   1.22571   1.22964   1.23961   1.24869
 Alpha virt. eigenvalues --    1.26142   1.26984   1.28680   1.29032   1.29853
 Alpha virt. eigenvalues --    1.30133   1.31696   1.31882   1.32770   1.33475
 Alpha virt. eigenvalues --    1.35306   1.36185   1.36632   1.37366   1.38015
 Alpha virt. eigenvalues --    1.38398   1.38976   1.39695   1.39894   1.40371
 Alpha virt. eigenvalues --    1.40735   1.41534   1.42404   1.42568   1.43274
 Alpha virt. eigenvalues --    1.43860   1.44278   1.45351   1.46169   1.46287
 Alpha virt. eigenvalues --    1.47360   1.48177   1.49394   1.50381   1.51979
 Alpha virt. eigenvalues --    1.52972   1.54503   1.55755   1.57427   1.58716
 Alpha virt. eigenvalues --    1.59372   1.60334   1.61104   1.63395   1.64386
 Alpha virt. eigenvalues --    1.65194   1.67242   1.68703   1.72010   1.72808
 Alpha virt. eigenvalues --    1.78410   1.79088   1.80342   1.81179   1.81614
 Alpha virt. eigenvalues --    1.82898   1.83691   1.84004   1.84598   1.86650
 Alpha virt. eigenvalues --    1.87570   1.88340   1.88782   1.89371   1.90276
 Alpha virt. eigenvalues --    1.91045   1.92858   1.93140   1.93997   1.94763
 Alpha virt. eigenvalues --    1.96133   1.97770   1.99283   2.00291   2.00772
 Alpha virt. eigenvalues --    2.01417   2.01992   2.03138   2.03760   2.05064
 Alpha virt. eigenvalues --    2.06793   2.07764   2.08864   2.09761   2.10348
 Alpha virt. eigenvalues --    2.11558   2.13373   2.14875   2.15577   2.17073
 Alpha virt. eigenvalues --    2.17631   2.18410   2.20522   2.21518   2.22511
 Alpha virt. eigenvalues --    2.23120   2.25487   2.26043   2.27879   2.28196
 Alpha virt. eigenvalues --    2.29782   2.31315   2.31464   2.33146   2.33907
 Alpha virt. eigenvalues --    2.34600   2.34721   2.35611   2.36329   2.37000
 Alpha virt. eigenvalues --    2.38083   2.39410   2.40997   2.42148   2.44724
 Alpha virt. eigenvalues --    2.46678   2.53948   2.55277   2.57535   2.60100
 Alpha virt. eigenvalues --    2.60333   2.63077   2.63358   2.66488   2.69111
 Alpha virt. eigenvalues --    2.72171   2.72729   2.77415   2.79058   2.81391
 Alpha virt. eigenvalues --    2.82085   2.84670   2.85611   2.86740   2.87286
 Alpha virt. eigenvalues --    2.87681   2.90303   2.92938   2.96400   2.97132
 Alpha virt. eigenvalues --    2.98858   2.99060   2.99509   3.08828   3.16033
 Alpha virt. eigenvalues --    3.18392   3.41418   3.99480   4.04242   4.07148
 Alpha virt. eigenvalues --    4.16407   4.21591   4.26573   4.27931   4.29958
 Alpha virt. eigenvalues --    4.32706   4.37298   4.38088   4.40053   4.41329
 Alpha virt. eigenvalues --    4.42286   4.42582   4.46361   4.48115   4.50503
 Alpha virt. eigenvalues --    4.51689   4.55079   4.59229   4.64205   4.84467
          Condensed to atoms (all electrons):
               1          2          3          4          5          6
     1  C   13.268294  -1.204462  -0.332785  -0.135165   0.233632   0.017292
     2  S   -1.204462  16.235932   0.504809  -0.109034   0.068401   0.100398
     3  O   -0.332785   0.504809   8.953078  -0.170345  -0.203570   0.013353
     4  O   -0.135165  -0.109034  -0.170345   9.129567  -0.182228  -0.016318
     5  N    0.233632   0.068401  -0.203570  -0.182228   8.005524   0.196578
     6  H    0.017292   0.100398   0.013353  -0.016318   0.196578   0.340728
     7  O   -0.120192  -0.067312   0.019336   0.009726  -0.011786  -0.003468
     8  C    0.167142  -0.283883  -0.032607  -0.009545  -0.046951  -0.003407
     9  C    1.065536  -1.748847  -0.074120  -0.037193   0.072507  -0.018175
    10  C   -4.564557   0.613045   0.005866   0.262406  -0.206031  -0.041602
    11  S   -1.050931  -0.049671   0.001660  -0.002001   0.002941  -0.001373
    12  C    0.339116   0.080107   0.000402  -0.001116   0.003012   0.000186
    13  O   -0.059747   0.002448   0.000065   0.000222  -0.000165   0.000002
    14  O   -0.054308  -0.005889  -0.000073  -0.000051  -0.000051  -0.000001
    15  C   -0.613844  -0.111251   0.000300   0.000455  -0.002552  -0.000098
    16  C   -0.081620  -0.028576  -0.000551  -0.001843  -0.000333  -0.000003
    17  C   -0.065348   0.003337   0.000772   0.000683  -0.000041  -0.000004
    18  C    0.106365   0.001204  -0.000470  -0.000922  -0.000137   0.000004
    19  C    0.469598   0.066631   0.000414   0.001528   0.000323  -0.000014
    20  O    0.000479   0.000043  -0.000000  -0.000001   0.000000   0.000000
    21  C   -0.006430  -0.006930  -0.000110  -0.000142  -0.000031   0.000000
    22  N   -0.000476  -0.000076  -0.000000  -0.000000  -0.000000   0.000000
    23  C    0.000050   0.000061   0.000001   0.000001  -0.000000   0.000000
    24  C   -0.000087  -0.000022   0.000000  -0.000000  -0.000000   0.000000
    25  H    0.063733   0.004646   0.000098   0.000006   0.000213  -0.000000
    26  H    0.034063  -0.004369  -0.000168   0.001519  -0.000261  -0.000003
    27  H    0.003773   0.000152  -0.000000   0.000003   0.000000   0.000000
    28  H   -0.000290  -0.000038  -0.000000  -0.000000  -0.000000   0.000000
    29  H   -0.002999  -0.000050  -0.000000  -0.000000   0.000000   0.000000
    30  H   -0.000002  -0.000001   0.000000  -0.000000  -0.000000  -0.000000
    31  H   -0.000011  -0.000003  -0.000000  -0.000000  -0.000000   0.000000
    32  H    0.000025   0.000007   0.000000  -0.000000   0.000000   0.000000
    33  H    0.000001   0.000000  -0.000000   0.000000   0.000000  -0.000000
    34  H   -0.000006  -0.000000  -0.000000  -0.000000  -0.000000  -0.000000
    35  H    0.000001   0.000000   0.000000   0.000000   0.000000   0.000000
    36  H   -0.000000   0.000000   0.000000  -0.000000   0.000000  -0.000000
    37  H    0.000000   0.000000   0.000000   0.000000   0.000000   0.000000
    38  H   -0.000002  -0.000000  -0.000000   0.000000  -0.000000   0.000000
               7          8          9         10         11         12
     1  C   -0.120192   0.167142   1.065536  -4.564557  -1.050931   0.339116
     2  S   -0.067312  -0.283883  -1.748847   0.613045  -0.049671   0.080107
     3  O    0.019336  -0.032607  -0.074120   0.005866   0.001660   0.000402
     4  O    0.009726  -0.009545  -0.037193   0.262406  -0.002001  -0.001116
     5  N   -0.011786  -0.046951   0.072507  -0.206031   0.002941   0.003012
     6  H   -0.003468  -0.003407  -0.018175  -0.041602  -0.001373   0.000186
     7  O    8.185248  -0.063673  -0.042158   0.334774   0.014453   0.003134
     8  C   -0.063673  17.779246  -0.586374  -9.672956  -1.096576  -0.941165
     9  C   -0.042158  -0.586374  21.245973  -8.561096  -4.087694  -2.878240
    10  C    0.334774  -9.672956  -8.561096  24.311143   1.405716   2.407127
    11  S    0.014453  -1.096576  -4.087694   1.405716  21.403003  -1.098426
    12  C    0.003134  -0.941165  -2.878240   2.407127  -1.098426  25.547406
    13  O    0.000723  -0.239980  -0.381571   0.351650   0.634229  -0.074387
    14  O   -0.002032  -0.196050  -0.195126   0.087827   0.663218  -0.109846
    15  C    0.002681   2.014083   1.530199  -2.218416   0.068225  -7.327241
    16  C    0.001363   0.231624   0.368166  -0.190896  -0.689439  -1.702754
    17  C   -0.001272  -0.153836  -0.158599   0.106631   0.965822  -2.548807
    18  C   -0.002644  -0.437557   0.604530   0.070213  -0.441588  -6.275942
    19  C   -0.002809  -0.956507   0.683653   0.516445  -1.180469   1.667520
    20  O   -0.000000   0.000480   0.002347  -0.002314   0.001307  -0.009133
    21  C    0.000330   0.117763   0.178967  -0.123578  -0.548517  -0.759805
    22  N    0.000011   0.001321   0.004320  -0.000385  -0.018325   0.045878
    23  C    0.000009  -0.004445  -0.004755   0.003159   0.018285  -0.128329
    24  C    0.000004  -0.000449   0.000160   0.000386  -0.004259   0.031237
    25  H   -0.046450   0.467654  -0.098508  -0.066952  -0.016724   0.000500
    26  H    0.005373   0.009733   0.020457   0.242769  -0.006165   0.038531
    27  H    0.000016  -0.001981  -0.001862   0.010036  -0.040293  -0.014710
    28  H    0.000000  -0.000319  -0.001997   0.000250   0.004855   0.061715
    29  H   -0.000057  -0.013744  -0.003867   0.002194   0.061623  -0.026907
    30  H    0.000000   0.000002   0.000061  -0.000031   0.000101   0.001986
    31  H   -0.000000   0.000356   0.000249  -0.000114  -0.003518   0.011946
    32  H   -0.000000   0.000074   0.000106  -0.000151   0.000794  -0.021007
    33  H   -0.000000  -0.000273  -0.000677   0.000201   0.001347  -0.001524
    34  H    0.000000   0.000110   0.000025  -0.000043  -0.001084   0.002120
    35  H   -0.000000   0.000000  -0.000000   0.000002   0.000219  -0.001116
    36  H   -0.000000   0.000001   0.000003  -0.000002   0.000048  -0.000207
    37  H   -0.000000  -0.000001  -0.000002   0.000000   0.000050   0.000670
    38  H    0.000000  -0.000006  -0.000014   0.000008  -0.000297  -0.002701
              13         14         15         16         17         18
     1  C   -0.059747  -0.054308  -0.613844  -0.081620  -0.065348   0.106365
     2  S    0.002448  -0.005889  -0.111251  -0.028576   0.003337   0.001204
     3  O    0.000065  -0.000073   0.000300  -0.000551   0.000772  -0.000470
     4  O    0.000222  -0.000051   0.000455  -0.001843   0.000683  -0.000922
     5  N   -0.000165  -0.000051  -0.002552  -0.000333  -0.000041  -0.000137
     6  H    0.000002  -0.000001  -0.000098  -0.000003  -0.000004   0.000004
     7  O    0.000723  -0.002032   0.002681   0.001363  -0.001272  -0.002644
     8  C   -0.239980  -0.196050   2.014083   0.231624  -0.153836  -0.437557
     9  C   -0.381571  -0.195126   1.530199   0.368166  -0.158599   0.604530
    10  C    0.351650   0.087827  -2.218416  -0.190896   0.106631   0.070213
    11  S    0.634229   0.663218   0.068225  -0.689439   0.965822  -0.441588
    12  C   -0.074387  -0.109846  -7.327241  -1.702754  -2.548807  -6.275942
    13  O    8.676521  -0.182743  -0.655139  -0.026489  -0.002596   0.084966
    14  O   -0.182743   8.668569   0.448498   0.115274  -0.023205  -0.100160
    15  C   -0.655139   0.448498  28.230477  -3.505389   1.167421  -5.892707
    16  C   -0.026489   0.115274  -3.505389  13.902608  -1.779823   0.266615
    17  C   -0.002596  -0.023205   1.167421  -1.779823  19.210938  -4.314155
    18  C    0.084966  -0.100160  -5.892707   0.266615  -4.314155  21.824323
    19  C    0.376061  -0.589756  -8.225255  -0.415126  -3.305882   2.768713
    20  O   -0.000051   0.000015   0.059699   0.029627   0.011653  -0.031115
    21  C   -0.001952   0.035131   1.207236  -0.617356  -2.800624  -1.994136
    22  N    0.000070   0.000924   0.051448   0.025403   0.044907  -0.513458
    23  C    0.000177  -0.001700  -0.042969   0.058177   0.126755   0.245205
    24  C    0.000041   0.000347   0.006678  -0.020532  -0.138686  -0.045128
    25  H   -0.000641   0.002772   0.000938  -0.000042  -0.000058  -0.000136
    26  H   -0.000422  -0.000167  -0.032587  -0.011372  -0.002553   0.004529
    27  H    0.006455   0.000631   0.320191   0.022966  -0.027604   0.019829
    28  H    0.000020   0.000035  -0.066446   0.386529  -0.075658   0.004945
    29  H    0.000477   0.005020  -0.003800  -0.024187   0.060872  -0.023157
    30  H    0.000000   0.000001  -0.023206  -0.141006  -0.047668   0.173319
    31  H   -0.000001   0.000031  -0.001643  -0.006931  -0.071347  -0.092111
    32  H   -0.000002   0.000003  -0.003373   0.009723   0.029306  -0.029007
    33  H    0.000011  -0.000063  -0.001280   0.009347  -0.007768   0.029455
    34  H   -0.000001  -0.000027   0.000464  -0.000226  -0.004819  -0.042442
    35  H   -0.000000   0.000004  -0.000092  -0.001285   0.004462   0.017009
    36  H   -0.000000   0.000000   0.000372   0.000001   0.021511  -0.007101
    37  H    0.000000   0.000000   0.000110  -0.001233   0.000136   0.019202
    38  H   -0.000000  -0.000000  -0.000448   0.000965  -0.017275  -0.026335
              19         20         21         22         23         24
     1  C    0.469598   0.000479  -0.006430  -0.000476   0.000050  -0.000087
     2  S    0.066631   0.000043  -0.006930  -0.000076   0.000061  -0.000022
     3  O    0.000414  -0.000000  -0.000110  -0.000000   0.000001   0.000000
     4  O    0.001528  -0.000001  -0.000142  -0.000000   0.000001  -0.000000
     5  N    0.000323   0.000000  -0.000031  -0.000000  -0.000000  -0.000000
     6  H   -0.000014   0.000000   0.000000   0.000000   0.000000   0.000000
     7  O   -0.002809  -0.000000   0.000330   0.000011   0.000009   0.000004
     8  C   -0.956507   0.000480   0.117763   0.001321  -0.004445  -0.000449
     9  C    0.683653   0.002347   0.178967   0.004320  -0.004755   0.000160
    10  C    0.516445  -0.002314  -0.123578  -0.000385   0.003159   0.000386
    11  S   -1.180469   0.001307  -0.548517  -0.018325   0.018285  -0.004259
    12  C    1.667520  -0.009133  -0.759805   0.045878  -0.128329   0.031237
    13  O    0.376061  -0.000051  -0.001952   0.000070   0.000177   0.000041
    14  O   -0.589756   0.000015   0.035131   0.000924  -0.001700   0.000347
    15  C   -8.225255   0.059699   1.207236   0.051448  -0.042969   0.006678
    16  C   -0.415126   0.029627  -0.617356   0.025403   0.058177  -0.020532
    17  C   -3.305882   0.011653  -2.800624   0.044907   0.126755  -0.138686
    18  C    2.768713  -0.031115  -1.994136  -0.513458   0.245205  -0.045128
    19  C   14.310909   0.056773  -0.640925  -0.008380  -0.117277   0.079239
    20  O    0.056773   8.615860  -0.177987   0.021498  -0.000155  -0.005678
    21  C   -0.640925  -0.177987  11.443915   0.388486  -0.330158  -0.121188
    22  N   -0.008380   0.021498   0.388486   7.238189   0.259028   0.254315
    23  C   -0.117277  -0.000155  -0.330158   0.259028   5.531717  -0.223102
    24  C    0.079239  -0.005678  -0.121188   0.254315  -0.223102   5.533067
    25  H    0.002100  -0.000000   0.000059  -0.000001   0.000003  -0.000000
    26  H    0.008325   0.000000  -0.000143   0.000002   0.000003   0.000000
    27  H    0.003574  -0.000441   0.004714   0.000012  -0.000056   0.000005
    28  H    0.000993  -0.009625  -0.000104   0.000021   0.000044  -0.000010
    29  H    0.338233  -0.000515  -0.074129   0.003415  -0.003989   0.000537
    30  H    0.009014   0.172855   0.025825  -0.000915  -0.000063   0.000560
    31  H    0.036085  -0.000201   0.471466  -0.061250  -0.017205   0.002173
    32  H   -0.035528   0.006815   0.417134  -0.057244   0.016291  -0.020415
    33  H    0.019698   0.000191  -0.046719  -0.038857   0.367967   0.013328
    34  H    0.005018  -0.000019   0.009916  -0.054920   0.396264   0.001142
    35  H   -0.009032   0.000038   0.014500  -0.052197   0.391712  -0.018598
    36  H   -0.004334  -0.000268  -0.023619  -0.041420   0.016056   0.384870
    37  H    0.001521   0.000142   0.004971  -0.045042  -0.018103   0.383601
    38  H    0.000291  -0.000073   0.018040  -0.050733  -0.006907   0.402965
              25         26         27         28         29         30
     1  C    0.063733   0.034063   0.003773  -0.000290  -0.002999  -0.000002
     2  S    0.004646  -0.004369   0.000152  -0.000038  -0.000050  -0.000001
     3  O    0.000098  -0.000168  -0.000000  -0.000000  -0.000000   0.000000
     4  O    0.000006   0.001519   0.000003  -0.000000  -0.000000  -0.000000
     5  N    0.000213  -0.000261   0.000000  -0.000000   0.000000  -0.000000
     6  H   -0.000000  -0.000003   0.000000   0.000000   0.000000  -0.000000
     7  O   -0.046450   0.005373   0.000016   0.000000  -0.000057   0.000000
     8  C    0.467654   0.009733  -0.001981  -0.000319  -0.013744   0.000002
     9  C   -0.098508   0.020457  -0.001862  -0.001997  -0.003867   0.000061
    10  C   -0.066952   0.242769   0.010036   0.000250   0.002194  -0.000031
    11  S   -0.016724  -0.006165  -0.040293   0.004855   0.061623   0.000101
    12  C    0.000500   0.038531  -0.014710   0.061715  -0.026907   0.001986
    13  O   -0.000641  -0.000422   0.006455   0.000020   0.000477   0.000000
    14  O    0.002772  -0.000167   0.000631   0.000035   0.005020   0.000001
    15  C    0.000938  -0.032587   0.320191  -0.066446  -0.003800  -0.023206
    16  C   -0.000042  -0.011372   0.022966   0.386529  -0.024187  -0.141006
    17  C   -0.000058  -0.002553  -0.027604  -0.075658   0.060872  -0.047668
    18  C   -0.000136   0.004529   0.019829   0.004945  -0.023157   0.173319
    19  C    0.002100   0.008325   0.003574   0.000993   0.338233   0.009014
    20  O   -0.000000   0.000000  -0.000441  -0.009625  -0.000515   0.172855
    21  C    0.000059  -0.000143   0.004714  -0.000104  -0.074129   0.025825
    22  N   -0.000001   0.000002   0.000012   0.000021   0.003415  -0.000915
    23  C    0.000003   0.000003  -0.000056   0.000044  -0.003989  -0.000063
    24  C   -0.000000   0.000000   0.000005  -0.000010   0.000537   0.000560
    25  H    0.371938  -0.000050  -0.000000  -0.000000  -0.000027  -0.000000
    26  H   -0.000050   0.374902  -0.000139   0.000001  -0.000001   0.000000
    27  H   -0.000000  -0.000139   0.409590  -0.002616  -0.000115  -0.000007
    28  H   -0.000000   0.000001  -0.002616   0.420990   0.000011   0.005297
    29  H   -0.000027  -0.000001  -0.000115   0.000011   0.417695   0.000003
    30  H   -0.000000   0.000000  -0.000007   0.005297   0.000003   0.237075
    31  H   -0.000000  -0.000000  -0.000000   0.000001   0.002127  -0.000001
    32  H   -0.000000  -0.000000  -0.000000  -0.000002   0.000102   0.000000
    33  H   -0.000000   0.000000   0.000000  -0.000001  -0.000836  -0.000001
    34  H    0.000000  -0.000000   0.000000   0.000000  -0.000165   0.000000
    35  H    0.000000  -0.000000  -0.000000   0.000000   0.000020  -0.000000
    36  H   -0.000000  -0.000000  -0.000000   0.000000  -0.000001  -0.000001
    37  H   -0.000000   0.000000   0.000000   0.000000   0.000001   0.000000
    38  H    0.000000  -0.000000  -0.000000  -0.000000   0.000001  -0.000000
              31         32         33         34         35         36
     1  C   -0.000011   0.000025   0.000001  -0.000006   0.000001  -0.000000
     2  S   -0.000003   0.000007   0.000000  -0.000000   0.000000   0.000000
     3  O   -0.000000   0.000000  -0.000000  -0.000000   0.000000   0.000000
     4  O   -0.000000  -0.000000   0.000000  -0.000000   0.000000  -0.000000
     5  N   -0.000000   0.000000   0.000000  -0.000000   0.000000   0.000000
     6  H    0.000000   0.000000  -0.000000  -0.000000   0.000000  -0.000000
     7  O   -0.000000  -0.000000  -0.000000   0.000000  -0.000000  -0.000000
     8  C    0.000356   0.000074  -0.000273   0.000110   0.000000   0.000001
     9  C    0.000249   0.000106  -0.000677   0.000025  -0.000000   0.000003
    10  C   -0.000114  -0.000151   0.000201  -0.000043   0.000002  -0.000002
    11  S   -0.003518   0.000794   0.001347  -0.001084   0.000219   0.000048
    12  C    0.011946  -0.021007  -0.001524   0.002120  -0.001116  -0.000207
    13  O   -0.000001  -0.000002   0.000011  -0.000001  -0.000000  -0.000000
    14  O    0.000031   0.000003  -0.000063  -0.000027   0.000004   0.000000
    15  C   -0.001643  -0.003373  -0.001280   0.000464  -0.000092   0.000372
    16  C   -0.006931   0.009723   0.009347  -0.000226  -0.001285   0.000001
    17  C   -0.071347   0.029306  -0.007768  -0.004819   0.004462   0.021511
    18  C   -0.092111  -0.029007   0.029455  -0.042442   0.017009  -0.007101
    19  C    0.036085  -0.035528   0.019698   0.005018  -0.009032  -0.004334
    20  O   -0.000201   0.006815   0.000191  -0.000019   0.000038  -0.000268
    21  C    0.471466   0.417134  -0.046719   0.009916   0.014500  -0.023619
    22  N   -0.061250  -0.057244  -0.038857  -0.054920  -0.052197  -0.041420
    23  C   -0.017205   0.016291   0.367967   0.396264   0.391712   0.016056
    24  C    0.002173  -0.020415   0.013328   0.001142  -0.018598   0.384870
    25  H   -0.000000  -0.000000  -0.000000   0.000000   0.000000  -0.000000
    26  H   -0.000000  -0.000000   0.000000  -0.000000  -0.000000  -0.000000
    27  H   -0.000000  -0.000000   0.000000   0.000000  -0.000000  -0.000000
    28  H    0.000001  -0.000002  -0.000001   0.000000   0.000000   0.000000
    29  H    0.002127   0.000102  -0.000836  -0.000165   0.000020  -0.000001
    30  H   -0.000001   0.000000  -0.000001   0.000000  -0.000000  -0.000001
    31  H    0.513307  -0.036651  -0.001379   0.010367  -0.000212  -0.001214
    32  H   -0.036651   0.475318   0.000002  -0.000291  -0.000115   0.004383
    33  H   -0.001379   0.000002   0.470061  -0.036343  -0.018694  -0.000137
    34  H    0.010367  -0.000291  -0.036343   0.519529  -0.033290  -0.000302
    35  H   -0.000212  -0.000115  -0.018694  -0.033290   0.473703   0.000201
    36  H   -0.001214   0.004383  -0.000137  -0.000302   0.000201   0.475207
    37  H   -0.000332   0.000232   0.000118  -0.001299   0.003391  -0.017781
    38  H    0.009094  -0.001959  -0.000271   0.009257  -0.001316  -0.035267
              37         38
     1  C    0.000000  -0.000002
     2  S    0.000000  -0.000000
     3  O    0.000000  -0.000000
     4  O    0.000000   0.000000
     5  N    0.000000  -0.000000
     6  H    0.000000   0.000000
     7  O   -0.000000   0.000000
     8  C   -0.000001  -0.000006
     9  C   -0.000002  -0.000014
    10  C    0.000000   0.000008
    11  S    0.000050  -0.000297
    12  C    0.000670  -0.002701
    13  O    0.000000  -0.000000
    14  O    0.000000  -0.000000
    15  C    0.000110  -0.000448
    16  C   -0.001233   0.000965
    17  C    0.000136  -0.017275
    18  C    0.019202  -0.026335
    19  C    0.001521   0.000291
    20  O    0.000142  -0.000073
    21  C    0.004971   0.018040
    22  N   -0.045042  -0.050733
    23  C   -0.018103  -0.006907
    24  C    0.383601   0.402965
    25  H   -0.000000   0.000000
    26  H    0.000000  -0.000000
    27  H    0.000000  -0.000000
    28  H    0.000000  -0.000000
    29  H    0.000001   0.000001
    30  H    0.000000  -0.000000
    31  H   -0.000332   0.009094
    32  H    0.000232  -0.001959
    33  H    0.000118  -0.000271
    34  H   -0.001299   0.009257
    35  H    0.003391  -0.001316
    36  H   -0.017781  -0.035267
    37  H    0.473878  -0.035081
    38  H   -0.035081   0.518399
 Mulliken charges:
               1
     1  C   -1.475837
     2  S    1.939190
     3  O   -0.685355
     4  O   -0.740210
     5  N   -0.928993
     6  H    0.415923
     7  O   -0.213326
     8  C   -0.047303
     9  C   -0.896384
    10  C    0.917276
    11  S    1.089454
    12  C   -0.319230
    13  O   -0.508253
    14  O   -0.567052
    15  C   -0.381741
    16  C   -0.181376
    17  C   -0.207581
    18  C    0.029979
    19  C    0.068636
    20  O   -0.742246
    21  C   -0.063870
    22  N   -0.395569
    23  C   -0.531752
    24  C   -0.496500
    25  H    0.314930
    26  H    0.318193
    27  H    0.287874
    28  H    0.271399
    29  H    0.286212
    30  H    0.586805
    31  H    0.236923
    32  H    0.245430
    33  H    0.243094
    34  H    0.221064
    35  H    0.230686
    36  H    0.228998
    37  H    0.230850
    38  H    0.219663
 Sum of Mulliken charges =  -1.00000
 Mulliken charges with hydrogens summed into heavy atoms:
               1
     1  C   -1.475837
     2  S    1.939190
     3  O   -0.685355
     4  O   -0.740210
     5  N   -0.513070
     7  O   -0.213326
     8  C    0.267627
     9  C   -0.896384
    10  C    1.235469
    11  S    1.089454
    12  C   -0.319230
    13  O   -0.508253
    14  O   -0.567052
    15  C   -0.093867
    16  C    0.090023
    17  C   -0.207581
    18  C    0.029979
    19  C    0.354848
    20  O   -0.155441
    21  C    0.418482
    22  N   -0.395569
    23  C    0.163092
    24  C    0.183011
 Electronic spatial extent (au):  <R**2>=          11072.3467
 Charge=             -1.0000 electrons
 Dipole moment (field-independent basis, Debye):
    X=             24.2283    Y=              2.6922    Z=              2.5313  Tot=             24.5085
 Quadrupole moment (field-independent basis, Debye-Ang):
   XX=           -272.4735   YY=           -192.0149   ZZ=           -143.3684
   XY=            -52.2686   XZ=            -10.0479   YZ=            -15.9218
 Traceless Quadrupole moment (field-independent basis, Debye-Ang):
   XX=            -69.8546   YY=             10.6040   ZZ=             59.2506
   XY=            -52.2686   XZ=            -10.0479   YZ=            -15.9218
 Octapole moment (field-independent basis, Debye-Ang**2):
  XXX=            667.5367  YYY=            -48.6610  ZZZ=             48.9643  XYY=             94.6238
  XXY=            222.9150  XXZ=             40.2223  XZZ=             93.4364  YZZ=            -19.9906
  YYZ=              0.2665  XYZ=              4.8310
 Hexadecapole moment (field-independent basis, Debye-Ang**3):
 XXXX=         -14818.1384 YYYY=          -2577.8867 ZZZZ=          -1323.1713 XXXY=          -1081.7875
 XXXZ=           -644.4107 YYYX=           -269.6823 YYYZ=           -127.1890 ZZZX=            147.0325
 ZZZY=           -173.1173 XXYY=          -2536.4052 XXZZ=          -2155.2526 YYZZ=           -634.1346
 XXYZ=            -74.8071 YYXZ=             67.2299 ZZXY=           -211.6461
 N-N= 2.306687503142D+03 E-N=-9.007944157779D+03  KE= 1.849352530179D+03
 D1PCM: PCM CHGder 1st derivatives, ID1Alg=3 FixD1E=F DoIter=F DoCFld=F I1PDM=0.
 Calling FoFJK, ICntrl=      2127 FMM=F ISym2X=0 I1Cent= 0 IOpClX= 0 NMat=1 NMatS=1 NMatT=0.
 ***** Axes restored to original set *****
 -------------------------------------------------------------------
 Center     Atomic                   Forces (Hartrees/Bohr)
 Number     Number              X              Y              Z
 -------------------------------------------------------------------
      1        6           0.003458469   -0.003436805    0.000825153
      2       16           0.013476611   -0.004393001   -0.003159584
      3        8           0.006699107    0.010775425    0.010283471
      4        8          -0.005804528   -0.017436897   -0.003070026
      5        7          -0.018337141    0.015664194   -0.009262884
      6        1          -0.000089315   -0.002378280    0.003752088
      7        8           0.000716823    0.000481313   -0.000053167
      8        6          -0.000526741   -0.000960771   -0.001257939
      9        6           0.000199505   -0.000606467    0.000276452
     10        6           0.000402431    0.002144187    0.000203471
     11       16           0.002321843    0.004826731   -0.003163669
     12        6           0.000665110   -0.001649995    0.000071100
     13        8          -0.001540800   -0.002612691    0.002088330
     14        8          -0.002055255    0.000673192    0.001955288
     15        6          -0.000002726    0.000387711   -0.000379707
     16        6          -0.000568643   -0.000919276    0.000297324
     17        6           0.000616179    0.000178446    0.000227121
     18        6           0.000216312    0.000235375   -0.000021841
     19        6           0.000160420    0.000092213    0.000307944
     20        8          -0.000373938   -0.000549094    0.000132929
     21        6           0.000182492    0.000028619   -0.000049849
     22        7          -0.000003062    0.000032856   -0.000074404
     23        6          -0.000048920   -0.000052699   -0.000023784
     24        6          -0.000008172    0.000020481   -0.000098628
     25        1           0.000030903   -0.000581413    0.000281354
     26        1           0.000136327   -0.000484172    0.000316171
     27        1           0.000093326   -0.000088374   -0.000157861
     28        1          -0.000030073    0.000309734   -0.000032845
     29        1           0.000009508   -0.000005235    0.000026591
     30        1           0.000010402    0.000294087   -0.000278407
     31        1          -0.000022473   -0.000008855    0.000038280
     32        1          -0.000005411    0.000026432    0.000027967
     33        1          -0.000012061   -0.000005513    0.000022294
     34        1           0.000008789   -0.000009426   -0.000036987
     35        1          -0.000006826    0.000003044    0.000033221
     36        1          -0.000001353    0.000008111   -0.000053728
     37        1           0.000025215   -0.000007166    0.000011200
     38        1           0.000007666    0.000003981   -0.000002437
 -------------------------------------------------------------------
 Cartesian Forces:  Max     0.018337141 RMS     0.003761545

[...]
 48163,-0.00041100,0.00606355,-0.01289989,0.00367200,-0.11324808,0.1028
 9677,-0.01713965,0.00381906,-0.00342399,0.00143967,-0.00000043,-0.0000
 0169,-0.00000074,0.00000012,0.00000047,0.00000015,0.00000576,-0.000007
 45,-0.00000602,-0.00000852,0.00000015,-0.00000364,0.00000753,-0.000090
 26,-0.00006281,0.00001311,-0.00000831,0.00000728,-0.00048293,0.0005534
 7,-0.00123541,-0.00003323,-0.00000147,-0.00021583,-0.01364792,0.026670
 38,-0.00321126,0.11518338,-0.00000267,0.00000350,0.00000100,0.00000151
 ,-0.00000595,-0.00000606,-0.00000265,0.00000162,0.00000164,0.00000008,
 0.00000175,0.00000155,0.00000060,0.00000330,0.00000100,-0.00000010,-0.
 00000012,0.00000017,-0.00000954,0.00000832,0.00001747,0.00001200,-0.00
 001197,-0.00000064,0.00001451,0.00003713,-0.00001009,-0.00000570,-0.00
 000134,-0.00000415,-0.00004652,-0.00015583,0.00005286,0.00008550,0.000
 07086,0.00001436,0.00004730,0.00003738,-0.00000249,0.00000113,0.000045
 57,-0.00002934,0.00006287,0.00004537,0.00001028,-0.00002546,-0.0000398
 7,0.00002026,0.00010889,0.00020358,-0.00016314,-0.00032918,-0.00016878
 ,0.00023262,0.00005586,-0.00003092,0.00016464,-0.00000729,-0.00015398,
 0.00023840,-0.00089185,0.00170284,-0.00340963,0.00199851,-0.02516020,0
 .01612309,0.10357294,-0.22364829,0.02641311,0.00257797,0.00174461,0.00
 052442,0.00000035,0.00000141,0.00000137,-0.00000038,-0.00000027,-0.000
 00063,0.00000110,0.00000287,-0.00000529,0.00001825,-0.00000133,0.00001
 047,-0.00001546,-0.00008984,-0.00005076,-0.00001093,0.00003181,0.00000
 140,-0.00016361,0.00087303,0.00147507,-0.00027917,0.00032036,0.0000252
 5,-0.00260820,0.00619065,-0.00169171,-0.11193780,0.25221210,0.00000101
 ,-0.00000100,-0.00000011,-0.00000022,0.00000136,0.00000126,0.00000054,
 -0.00000039,-0.00000031,0.,0.00000012,-0.00000018,0.00000015,-0.000000
 93,-0.00000050,-0.00000003,0.00000014,0.00000007,0.00000180,-0.0000022
 3,-0.00000379,-0.00000372,0.00000295,0.00000035,0.00000548,-0.00000154
 ,0.00000025,-0.00000191,-0.00000365,0.00000139,0.00001111,0.00005261,-
 0.00001401,-0.00007123,0.00001303,-0.00001236,-0.00001878,-0.00001306,
 0.00000093,0.00000322,-0.00001505,0.00001759,-0.00001574,-0.00007829,0
 .00000093,0.00003666,0.00003228,0.00003784,0.00000573,-0.00000323,0.00
 000190,0.00011490,-0.00029628,0.00003519,-0.00005748,0.00008966,-0.000
 05152,-0.00004121,0.00004742,-0.00012583,-0.00164691,0.00495819,0.0027
 8180,-0.00596212,0.02904483,-0.01445210,-0.01775283,0.02721844,-0.0550
 2610,-0.00292418,-0.00058987,-0.00033500,-0.00000036,-0.00000010,0.000
 00029,0.00000026,0.00000039,0.00000019,0.00000090,-0.00000141,-0.00000
 028,-0.00000152,0.00000193,-0.00000165,-0.00007517,-0.00007728,-0.0001
 0686,-0.00000230,-0.00002944,-0.00001671,0.00046958,-0.00139898,0.0008
 6985,0.00020186,-0.00030293,0.00017235,-0.00440934,0.00677003,-0.00088
 759,0.01726557,-0.04187952,0.06109144,0.00000415,-0.00000258,-0.000001
 16,-0.00000050,0.00000175,0.00000535,0.00000158,-0.00000043,-0.0000015
 4,-0.00000052,0.00000037,-0.00000152,-0.00000019,-0.00000141,-0.000001
 12,0.00000014,0.00000012,0.00000008,0.00000376,-0.00000418,-0.00001181
 ,-0.00001045,0.00000643,0.00000270,-0.00000081,-0.00001458,0.00000064,
 -0.00000100,-0.00000260,0.00000382,0.00005142,0.00008776,-0.00000470,0
 .00020542,-0.00008796,0.00003258,-0.00002778,-0.00001588,-0.00000225,-
 0.00000382,-0.00002682,0.00001554,-0.00003321,0.00018328,-0.00008774,-
 0.00018998,-0.00009552,-0.00001779,0.00030452,-0.00031225,0.00017785,0
 .00006969,0.00006143,-0.00056864,-0.00001784,0.00002285,-0.00018765,0.
 00002809,0.00012673,-0.00001541,-0.00191904,-0.00228782,0.00224030,-0.
 00157908,0.00734080,0.01417119,-0.04964417,-0.00489780,-0.00873116,0.0
 0021487,0.00076437,0.00179861,-0.00000029,-0.00000033,-0.00000050,0.00
 000007,-0.00000003,0.00000034,-0.00000540,0.00000764,0.00000538,-0.000
 00201,0.00000248,-0.00000030,-0.00007841,0.00008516,-0.00002758,0.0000
 0845,0.00000233,0.00000373,0.00006154,-0.00024756,-0.00023030,0.000273
 76,0.00033669,0.00096403,0.00196848,-0.01709688,-0.02538579,0.00052752
 ,0.00950884,0.01370931,0.04986942,0.00000049,-0.00000153,-0.00000031,0
 .00000104,0.00000108,0.00000298,-0.00000004,-0.00000025,-0.00000095,-0
 .00000056,0.00000034,-0.00000118,-0.00000043,-0.00000077,-0.00000062,0
 .00000001,0.00000005,0.00000012,-0.00000044,-0.00000092,-0.00000270,-0
 .00000153,0.00000065,0.00000139,0.00000001,-0.00000006,-0.00000147,-0.
 00000012,-0.00000031,0.00000052,0.00002317,-0.00000229,0.00001299,0.00
 013867,-0.00000381,0.00002537,-0.00000573,0.00000314,-0.00000130,-0.00
 000780,-0.00000262,-0.00000365,-0.00001066,0.00011538,-0.00004042,-0.0
 0009811,-0.00006651,-0.00001970,0.00011183,-0.00004927,0.00007237,-0.0
 0024030,-0.00010337,-0.00025401,-0.00000784,-0.00012921,-0.00007901,-0
 .00001032,-0.00000466,-0.00006203,-0.00214072,-0.00084638,0.00249506,-
 0.00033014,0.01059948,0.01916496,-0.00286804,-0.13881089,-0.13315108,0
 .00019058,0.00066909,0.00112902,0.00000031,0.00000062,0.00000011,-0.00
 000007,-0.00000011,0.00000005,-0.00000366,0.00000658,0.00000073,0.0000
 0479,-0.00000207,-0.00000300,-0.00005453,0.00006389,-0.00004555,-0.000
 00692,0.00000891,0.00000706,-0.00019082,0.00036902,0.00022885,-0.00018
 310,0.00068529,0.00083058,0.00056115,-0.00296844,-0.00339457,-0.001721
 95,-0.01413105,-0.02221338,0.00653606,0.14488178,0.00000349,-0.0000054
 0,-0.00000155,0.00000264,0.00000717,0.00001337,0.00000197,-0.00000205,
 -0.00000412,-0.00000245,0.00000004,-0.00000427,-0.00000171,-0.00000475
 ,-0.00000276,0.00000027,0.00000034,0.00000025,0.00000950,-0.00001117,-
 0.00002312,-0.00001619,0.00001385,0.00000184,-0.00000649,-0.00003904,0
 .00001045,0.00000387,-0.00000229,0.00000566,0.00007364,0.00018518,-0.0
 0005624,-0.00014598,-0.00004578,-0.00003632,-0.00007379,-0.00004522,-0
 .00000006,-0.00000593,-0.00005394,0.00004056,-0.00007300,-0.00012125,0
 .00002021,0.00008225,0.00010776,-0.00000630,-0.00022476,-0.00023282,0.
 00005331,0.00078733,0.00006856,0.00031121,0.00001961,0.00014774,0.0000
 3785,0.00000430,0.00019734,-0.00016252,0.00306960,0.00414664,-0.001833
 69,0.00006248,-0.01242505,-0.02643256,-0.00481811,-0.12460252,-0.23584
 373,-0.00162683,-0.00121324,0.00045673,0.00000002,-0.00000009,-0.00000
 129,0.00000068,0.00000016,0.00000041,0.00000062,-0.00000429,-0.0000026
 6,-0.00002178,0.00000040,-0.00001499,0.00000933,0.00001032,-0.00000342
 ,0.00000118,-0.00002946,0.00000937,0.00005866,-0.00019151,0.00014888,0
 .00012617,-0.00087508,-0.00147614,-0.00045955,-0.00347605,-0.00463590,
 0.00029459,0.00254374,0.00570783,0.00224541,0.13539997,0.26302941,0.00
 000126,-0.00000089,-0.00000078,-0.00000053,0.00000080,0.00000388,0.000
 00118,-0.00000017,-0.00000117,-0.00000042,0.00000046,-0.00000134,-0.00
 000005,-0.00000079,-0.00000097,0.00000002,0.00000003,0.00000015,0.0000
 0169,-0.00000248,-0.00000503,-0.00000353,0.00000302,0.00000110,-0.0000
 0163,-0.00000623,0.00000046,0.00000062,-0.00000101,0.00000121,0.000021
 81,0.00003446,0.00000186,-0.00001152,0.00002795,-0.00001687,-0.0000076
 3,-0.00000580,-0.00000194,-0.00000371,-0.00000948,0.00000264,-0.000021
 40,-0.00001945,-0.00000368,0.00000836,0.00001497,0.00000350,-0.0000727
 2,-0.00011317,0.00002902,0.00017089,0.00039124,-0.00004946,0.00008903,
 0.00003213,0.00007998,0.00001154,0.00007002,-0.00007115,0.00034782,0.0
 0042693,0.00209087,-0.02044075,-0.01819768,0.02539576,-0.00517048,-0.0
 0171035,-0.00380769,-0.09833731,-0.05835830,0.08125016,0.00000008,0.00
 000007,0.00000005,-0.00000003,0.,0.00000011,0.00000086,-0.00000075,-0.
 00000060,-0.00000411,0.00000097,-0.00000290,0.00000088,0.00001178,-0.0
 0000800,0.00000755,-0.00000872,-0.00000286,0.00000386,-0.00013750,-0.0
 0028394,0.00031754,-0.00002402,-0.00065299,-0.00090927,-0.00132370,0.0
 0138141,0.00004373,-0.00048530,0.00020325,0.00017353,0.00027399,-0.000
 14563,0.11527700,-0.00000021,-0.00000050,-0.00000039,-0.00000243,-0.00
 000122,0.00000115,0.00000142,0.00000054,-0.00000031,0.00000053,0.00000
 053,-0.00000037,0.00000071,0.00000060,-0.00000048,-0.00000007,-0.00000
 008,0.00000012,0.,0.00000051,-0.00000008,0.00000060,0.00000018,0.00000
 069,-0.00000047,0.00000102,-0.00000111,0.00000053,0.00000025,-0.000000
 01,0.00000059,-0.00000189,0.00001274,-0.00000055,0.00002206,0.00001318
 ,0.00000428,0.00000109,-0.00000247,-0.00000116,0.00000114,-0.00000500,
 0.00000188,0.00000379,-0.00000751,-0.00000733,-0.00000532,0.00001026,-
 0.00001338,0.00001530,0.00000356,0.00021052,0.00005289,-0.00011505,0.0
 0004985,-0.00000438,0.00003030,-0.00003817,-0.00002831,-0.00009191,-0.
 00027213,0.00011591,0.00101005,-0.00408460,-0.00361584,0.00358730,-0.0
 0185400,0.00052699,-0.00170030,-0.06212412,-0.12585192,0.10509640,-0.0
 0000004,0.00000001,0.00000036,-0.00000039,-0.00000015,0.00000010,0.000
 00061,-0.00000122,-0.00000205,0.00000125,0.00000082,0.00000126,0.00000
 540,0.00000325,-0.00000750,0.00000254,-0.00000546,-0.00000042,0.000099
 48,-0.00014565,0.00010669,-0.00022790,-0.00030028,-0.00055175,-0.00028
 489,0.00009159,0.00056217,0.00024364,0.00031147,-0.00026603,0.00023740
 ,0.00014864,0.00033107,0.07052681,0.13078835,-0.00000046,0.00000084,0.
 00000053,0.00000114,0.00000023,-0.00000280,-0.00000136,0.,0.00000097,0
 .00000022,-0.00000060,0.00000098,-0.00000027,0.00000015,0.00000065,0.0
 0000004,0.,-0.00000013,-0.00000091,0.00000128,0.00000305,0.00000190,-0
 .00000169,-0.00000083,-0.00000017,0.00000204,0.00000006,-0.00000049,0.
 00000046,-0.00000048,-0.00001084,-0.00002478,-0.00000312,0.00002857,-0
 .00003419,0.00000500,0.00000758,0.00000617,0.00000185,0.00000140,0.000
 00727,-0.00000334,0.00002437,0.00002591,0.00000017,-0.00001637,-0.0000
 1892,-0.00002416,0.00007360,0.00007044,0.00004117,-0.00002062,-0.00006
 101,0.00055014,-0.00008802,-0.00002318,0.00001609,0.00004205,0.0000171
 7,0.00009389,-0.00165399,-0.00111133,0.00085784,-0.00480980,-0.0070121
 2,0.00684894,-0.00102524,-0.00093878,0.00051580,0.08941167,0.10787088,
 -0.20072120,-0.00000008,-0.00000020,-0.00000015,-0.00000003,0.00000002
 ,-0.00000011,-0.00000061,0.00000140,-0.00000069,0.00000258,-0.00000011
 ,0.00000397,0.00000506,-0.00000100,0.00000406,0.00000991,0.00000293,0.
 00000063,0.00014989,0.00010906,-0.00022612,-0.00032348,0.00006832,-0.0
 0013662,-0.00032037,-0.00001985,0.00036403,-0.00013066,-0.00001881,0.0
 0000072,-0.00003361,0.00023337,0.00031270,-0.09330962,-0.11529417,0.21
 129126,0.00000502,-0.00000595,-0.00000359,-0.00000119,0.00000626,0.000
 01535,0.00000423,-0.00000153,-0.00000440,-0.00000137,0.00000063,-0.000
 00467,-0.00000071,-0.00000481,-0.00000344,0.00000046,0.00000040,0.0000
 0034,0.00001139,-0.00001289,-0.00002680,-0.00001961,0.00001628,0.00000
 323,-0.00000616,-0.00003990,0.00000853,0.00000311,-0.00000455,0.000007
 39,0.00007727,0.00022288,-0.00005271,-0.00018709,0.00001615,0.00009254
 ,-0.00009285,-0.00006390,-0.00000285,-0.00000557,-0.00006721,0.0000472
 6,-0.00011608,-0.00014046,-0.00002810,0.00004115,0.00013102,0.00007514
 ,-0.00030029,-0.00047052,0.00014571,0.00062823,-0.00102729,-0.00140659
 ,-0.00018086,0.00009793,-0.00014935,0.00013078,0.00032770,-0.00017020,
 -0.00555789,-0.00185331,-0.00028097,-0.00367464,-0.02021142,-0.0311817
 7,0.00078334,-0.00038342,-0.00207829,-0.04993413,0.00953235,0.01479107
 ,-0.00000034,-0.00000031,-0.00000132,0.00000037,0.00000003,0.00000095,
 0.00000533,-0.00000749,-0.00000735,-0.00002850,0.00000174,-0.00002118,
 0.00002980,-0.00003132,-0.00004970,0.00001219,-0.00003294,0.00001779,0
 .00003305,-0.00039785,-0.00015659,0.00003307,0.00035713,0.00001025,0.0
 0016391,0.00023176,-0.00016885,-0.00015819,-0.00003524,0.00035456,-0.0
 0016907,0.00018352,0.00051632,0.00001710,0.00884761,0.01026503,0.05827
 599,0.00000105,-0.00000238,-0.00000076,0.00000166,0.00000330,0.0000059
 1,0.00000059,-0.00000091,-0.00000185,-0.00000109,0.00000010,-0.0000019
 6,-0.00000083,-0.00000228,-0.00000128,0.00000013,0.00000017,0.00000013
 ,0.00000375,-0.00000440,-0.00000905,-0.00000645,0.00000532,0.00000112,
 -0.00000272,-0.00001426,0.00000336,0.00000137,-0.00000120,0.00000243,0
 .00002972,0.00008000,-0.00002006,-0.00007205,-0.00000760,0.00000006,-0
 .00003065,-0.00002051,-0.00000122,-0.00000218,-0.00002238,0.00001726,-
 0.00002612,-0.00005068,0.00000411,0.00001145,0.00007766,-0.00000467,-0
 .00020174,-0.00021800,-0.00000660,0.00024973,0.00014889,-0.00051452,0.
 00002545,0.00005310,-0.00001060,0.00001967,0.00008179,-0.00009722,-0.0
 0233929,0.00069166,0.00054502,-0.00170202,-0.00371772,-0.00516408,0.00
 036065,-0.00001827,-0.00083801,0.00458823,-0.13476427,-0.12651292,0.00
 000027,0.00000033,-0.00000049,0.00000023,0.00000003,0.00000023,0.00000
 084,-0.00000308,-0.00000276,-0.00001870,-0.00000281,-0.00000889,0.0000
 1226,-0.00000998,-0.00000742,0.00000245,-0.00000661,0.00000692,0.00008
 317,0.00031926,0.00037370,0.00039479,0.00013488,-0.00010535,0.00008979
 ,0.00008083,0.00020030,0.00018017,-0.00018136,-0.00004927,-0.00032191,
 -0.00012827,0.00026037,0.00053069,0.01137824,0.01458028,-0.00325690,0.
 14060173,0.00000237,-0.00000464,-0.00000157,0.00000191,0.00000561,0.00
 001129,0.00000181,-0.00000158,-0.00000341,-0.00000190,0.00000021,-0.00
 000367,-0.00000126,-0.00000391,-0.00000234,0.00000022,0.00000027,0.000
 00025,0.00000707,-0.00000886,-0.00001801,-0.00001291,0.00001059,0.0000
 0161,-0.00000118,-0.00002468,0.00000712,0.00000241,-0.00000254,0.00000
 456,0.00004856,0.00015177,-0.00003764,-0.00015260,-0.00005524,-0.00000
 635,-0.00006587,-0.00004188,-0.00000130,-0.00000431,-0.00004314,0.0000
 3229,-0.00004614,-0.00010260,0.00001947,0.00005800,0.00009718,0.000000
 58,-0.00016127,-0.00022501,0.00002577,0.00041903,-0.00067077,-0.000051
 80,-0.00017047,0.00005930,-0.00010182,0.00001585,0.00015047,-0.0001364
 6,-0.00255016,0.00011150,0.00089204,-0.00150189,-0.00415628,-0.0100507
 8,0.00151185,0.00104507,0.00058969,0.00679043,-0.12674723,-0.23991484,
 0.00000017,0.00000020,-0.00000087,0.00000046,0.00000002,0.00000037,-0.
 00000021,-0.00000275,-0.00000276,-0.00001700,-0.00000172,-0.00001415,0
 .00000817,-0.00000693,-0.00003285,-0.00000057,-0.00001864,0.00000679,0
 .00013171,-0.00029648,-0.00003047,-0.00025036,-0.00004252,0.00042709,-
 0.00019246,0.00028098,0.00039980,-0.00007967,-0.00018454,-0.00009658,0
 .00009954,-0.00013403,0.00043725,0.00042189,-0.01289353,-0.01672280,-0
 .00461182,0.13993708,0.25835131,0.00000286,-0.00000343,-0.00000193,-0.
 00000199,0.00000543,0.00001030,0.00000394,-0.00000148,-0.00000327,-0.0
 0000070,-0.00000029,-0.00000284,-0.00000038,-0.00000337,-0.00000183,0.
 00000016,0.00000024,0.00000010,0.00000875,-0.00000997,-0.00001882,-0.0
 0001424,0.00001226,0.00000208,-0.00000008,-0.00002575,0.00000611,0.000
 00175,-0.00000309,0.00000493,0.00005129,0.00017054,-0.00003151,-0.0001
 8393,0.00000210,-0.00004207,-0.00005795,-0.00004408,-0.00000391,-0.000
 00145,-0.00004631,0.00003434,-0.00006176,-0.00015607,0.00001955,0.0001
 0925,0.00007242,0.00005645,-0.00001202,-0.00008590,0.00003936,0.000401
 48,-0.00054396,0.00021473,0.00007469,0.00013372,-0.00004093,-0.0000159
 3,0.00011641,-0.00019104,0.00026170,0.00272765,0.00363945,-0.03649268,
 0.02238745,-0.01166885,0.00183598,0.00340447,-0.00341863,-0.10946984,0
 .10250263,-0.01894877,-0.00000032,-0.00000029,-0.00000079,0.00000033,0
 .00000008,0.00000039,0.00000062,-0.00000279,0.00000084,-0.00000352,0.0
 0000524,-0.00000549,0.00001544,-0.00000077,-0.00000995,-0.00000385,-0.
 00003268,-0.00000146,0.00067358,-0.00128435,-0.00028586,-0.00007469,-0
 .00024094,-0.00022111,0.00018746,-0.00059975,0.00011455,0.00075936,-0.
 00121116,0.00059917,-0.00008282,-0.00014184,0.00024828,0.00848874,-0.0
 1132381,0.00172199,0.00017875,0.00139453,0.00030060,0.13342202,-0.0000
 0230,0.00000272,0.00000161,0.00000472,-0.00000374,-0.00000459,-0.00000
 397,0.00000077,0.00000121,-0.00000105,0.00000085,0.00000107,-0.0000008
 5,0.00000211,0.00000130,0.,-0.00000013,-0.00000008,-0.00000565,0.00000
 560,0.00001156,0.00000863,-0.00000752,-0.00000139,0.00000084,0.0000181
 2,-0.00000302,-0.00000104,0.00000243,-0.00000369,-0.00002497,-0.000091
 79,0.00001838,0.00000534,0.00003841,-0.00002233,0.00003214,0.00002223,
 -0.00000066,-0.00000037,0.00002810,-0.00001955,0.00003470,-0.00000633,
 0.00002941,0.00003690,-0.00001144,-0.00000670,0.00001872,0.00009193,-0
 .00015375,-0.00020362,0.00011217,0.00000839,0.00012213,-0.00003510,0.0
 0003531,-0.00000453,-0.00012577,0.00019266,-0.00229946,0.00364206,-0.0
 0068811,0.00118807,0.00681043,0.00038144,-0.00216733,0.00367896,-0.000
 91900,0.10128448,-0.22447958,0.03368187,0.00000021,0.00000049,0.000000
 19,0.00000004,-0.00000021,-0.00000035,-0.00000042,0.00000152,0.0000024
 4,0.00000751,0.00000145,0.00001418,-0.00001183,0.00000234,0.00001636,-
 0.00000725,0.00001506,-0.00001010,0.00091470,0.00004427,0.00181403,0.0
 0010172,-0.00028433,0.00008048,0.00017458,0.00017911,-0.00007534,0.001
 73294,-0.00006841,-0.00100953,0.00010406,-0.00030116,-0.00003962,0.008
 05949,-0.01350295,0.00156253,0.00807581,-0.01448030,0.00381925,-0.1171
 7307,0.23869761,0.00000034,-0.00000075,-0.00000078,-0.00000312,-0.0000
 0002,0.00000182,0.00000191,0.00000010,-0.00000042,0.00000075,0.0000000
 5,-0.00000038,0.00000071,-0.00000014,-0.00000053,-0.00000001,0.,0.0000
 0010,0.00000224,-0.00000246,-0.00000418,-0.00000281,0.00000251,0.00000
 066,-0.00000013,-0.00000461,0.00000062,0.00000097,-0.00000045,0.000000
 83,0.00000733,0.00003653,-0.00000041,-0.00005921,0.00001457,-0.0000060
 3,-0.00001086,-0.00001027,-0.00000208,0.00000020,-0.00000911,0.0000052
 6,-0.00001282,-0.00005302,0.00000893,0.00004047,0.00002478,0.00003176,
 0.00001707,-0.00002021,-0.00005038,0.00019663,-0.00019874,-0.00000132,
 0.00004640,0.00002421,-0.00001592,-0.00000914,-0.00000103,-0.00001420,
 -0.00140900,0.00257673,0.00134417,-0.01115841,0.00653767,-0.00283712,0
 .00168492,-0.00098970,0.00006632,-0.01894267,0.03404541,-0.05903877,-0
 .00000042,-0.00000046,0.00000001,-0.00000007,0.00000004,0.00000016,0.0
 0000006,-0.00000064,0.00000056,0.00000118,0.00000185,0.00000252,-0.000
 00109,-0.00000265,-0.00000214,-0.00000057,-0.00000615,0.00000098,0.000
 33287,-0.00026947,0.00021890,0.00022016,0.00015207,-0.00010362,-0.0000
 4565,-0.00011067,-0.00004862,-0.00017667,-0.00041734,0.00040932,-0.000
 16582,-0.00019651,-0.00005565,-0.01250067,0.02017303,-0.00307194,0.014
 05908,-0.02257932,0.00602316,0.02788585,-0.03871584,0.05713843\\-0.000
 00353,-0.00000353,0.00000419,-0.00001705,-0.00000334,-0.00000828,-0.00
 000381,-0.00000019,0.00000279,0.00000441,0.00000154,0.00000335,0.00000
 321,0.00000761,-0.00001083,-0.00000499,0.00000669,0.00000317,-0.000003
 59,0.00000535,-0.00000464,-0.00000114,0.00000020,0.00000004,-0.0000093
 5,0.00000902,-0.00001093,-0.00000029,0.00000511,0.00000226,-0.00000053
 ,0.00000036,-0.00000027,-0.00000078,0.00000461,0.00000115,0.00000155,0
 .00000446,-0.00000216,-0.00000298,0.00000012,-0.00000048,0.00000433,0.
 00000232,-0.00000128,0.00000277,0.00000136,-0.00000029,0.00000314,-0.0
 0000075,0.00000083,0.00000222,0.00000220,-0.00000039,-0.00000121,-0.00
 000364,0.00000119,0.00000508,-0.00000094,0.00000081,0.00000337,-0.0000
 0291,0.00000302,0.00000173,-0.00000301,0.00000075,0.00000081,-0.000002
 94,0.00000054,0.00000193,-0.00000530,0.00000160,-0.00000695,-0.0000011
 9,-0.00000049,-0.00000294,0.00000156,-0.00000192,0.00000035,0.00000349
 ,-0.00000004,0.00000441,0.00000258,0.00000085,-0.00000084,-0.00000053,
 0.00000046,0.00000556,0.00000026,0.00000201,0.00000049,-0.00000368,0.0
 0000109,0.00000331,-0.00000299,0.00000247,0.00000093,-0.00000141,0.000
 00063,0.,-0.00000345,0.00000104,0.00000187,-0.00000288,0.00000099,0.00
 000384,-0.00000532,0.00000245,0.00000304,-0.00000513,0.00000223,0.0000
 0164,-0.00000572,0.00000210\\\@
 The archive entry for this job was punched.


 HAPPINESS IS NOT HAVING WHAT YOU WANT --
 HAPPINESS IS WANTING WHAT YOU HAVE!

              -- FROM MRS. SEVERN'S DESK
 Job cpu time:       0 days  6 hours 30 minutes 42.1 seconds.
 Elapsed time:       0 days  0 hours 25 minutes 24.4 seconds.
 File lengths (MBytes):  RWF=   1093 Int=      0 D2E=      0 Chk=     30 Scr=      1
 Normal termination of Gaussian 16 at Fri May 27 01:01:28 2022.
