 Entering Gaussian System, Link 0=g16
 AtFile(1): /home/561/yj5695/Basis/6-31pGd.gbs
 Initial command:
 /apps/gaussian/g16c01/g16/l1.exe "/jobfs/41414901.gadi-pbs/Gau-2460959.inp" -scrdir="/jobfs/41414901.gadi-pbs/"
 Entering Link 1 = /apps/gaussian/g16c01/g16/l1.exe PID=   2460960.
  
 Copyright (c) 1988-2019, Gaussian, Inc.  All Rights Reserved.
  
 This is part of the Gaussian(R) 16 program.  It is based on
 the Gaussian(R) 09 system (copyright 2009, Gaussian, Inc.),
 the Gaussian(R) 03 system (copyright 2003, Gaussian, Inc.),
 the Gaussian(R) 98 system (copyright 1998, Gaussian, Inc.),
 the Gaussian(R) 94 system (copyright 1995, Gaussian, Inc.),
 the Gaussian 92(TM) system (copyright 1992, Gaussian, Inc.),
 the Gaussian 90(TM) system (copyright 1990, Gaussian, Inc.),
 the Gaussian 88(TM) system (copyright 1988, Gaussian, Inc.),
 the Gaussian 86(TM) system (copyright 1986, Carnegie Mellon
 University), and the Gaussian 82(TM) system (copyright 1983,
 Carnegie Mellon University). Gaussian is a federally registered
 trademark of Gaussian, Inc.
  
 This software contains proprietary and confidential information,
 including trade secrets, belonging to Gaussian, Inc.
  
 This software is provided under written license and may be
 used, copied, transmitted, or stored only in accord with that
 written license.
  
 The following legend is applicable only to US Government
 contracts under FAR:
  
                    RESTRICTED RIGHTS LEGEND
  
 Use, reproduction and disclosure by the US Government is
 subject to restrictions as set forth in subparagraphs (a)
 and (c) of the Commercial Computer Software - Restricted
 Rights clause in FAR 52.227-19.
  
 Gaussian, Inc.
 340 Quinnipiac St., Bldg. 40, Wallingford CT 06492
  
  
 ---------------------------------------------------------------
 Warning -- This program may not be used in any manner that
 competes with the business of Gaussian, Inc. or will provide
 assistance to any competitor of Gaussian, Inc.  The licensee
 of this program is prohibited from giving any competitor of
 Gaussian, Inc. access to this program.  By using this program,
 the user acknowledges that Gaussian, Inc. is engaged in the
 business of creating and licensing software in the field of
 computational chemistry and represents and warrants to the
 licensee that it is not a competitor of Gaussian, Inc. and that
 it will not use this program in any manner prohibited above.
 ---------------------------------------------------------------
  

 Cite this work as:
 Gaussian 16, Revision C.01,
 M. J. Frisch, G. W. Trucks, H. B. Schlegel, G. E. Scuseria, 
 M. A. Robb, J. R. Cheeseman, G. Scalmani, V. Barone, 
 G. A. Petersson, H. Nakatsuji, X. Li, M. Caricato, A. V. Marenich, 
 J. Bloino, B. G. Janesko, R. Gomperts, B. Mennucci, H. P. Hratchian, 
 J. V. Ortiz, A. F. Izmaylov, J. L. Sonnenberg, D. Williams-Young, 
 F. Ding, F. Lipparini, F. Egidi, J. Goings, B. Peng, A. Petrone, 
 T. Henderson, D. Ranasinghe, V. G. Zakrzewski, J. Gao, N. Rega, 
 G. Zheng, W. Liang, M. Hada, M. Ehara, K. Toyota, R. Fukuda, 
 J. Hasegawa, M. Ishida, T. Nakajima, Y. Honda, O. Kitao, H. Nakai, 
 T. Vreven, K. Throssell, J. A. Montgomery, Jr., J. E. Peralta, 
 F. Ogliaro, M. J. Bearpark, J. J. Heyd, E. N. Brothers, K. N. Kudin, 
 V. N. Staroverov, T. A. Keith, R. Kobayashi, J. Normand, 
 K. Raghavachari, A. P. Rendell, J. C. Burant, S. S. Iyengar, 
 J. Tomasi, M. Cossi, J. M. Millam, M. Klene, C. Adamo, R. Cammi, 
 J. W. Ochterski, R. L. Martin, K. Morokuma, O. Farkas, 
 J. B. Foresman, and D. J. Fox, Gaussian, Inc., Wallingford CT, 2019.
 
 ******************************************
 Gaussian 16:  ES64L-G16RevC.01  3-Jul-2019
                27-May-2022 
 ******************************************
 %nproc=16
 Will use up to   16 processors via shared memory.
 %mem=60gb
 -----------------------------------------------------
 #m062X/gen 6D OPT Freq=noraman SCRF=(SMD,Solvent=h2o)
 -----------------------------------------------------
 1/18=20,19=15,26=3,38=1/1,3;
 2/9=110,12=2,17=6,18=5,40=1/2;
 3/5=7,8=2,11=2,25=1,30=1,70=32201,71=1,72=1,74=-55/1,2,3;
 4//1;
 5/5=2,38=5,53=1/2;
 6/7=2,8=2,9=2,10=2,28=1/1;
 7//1,2,3,16;
 1/18=20,19=15,26=3/3(2);
 2/9=110/2;
 99//99;
 2/9=110/2;
 3/5=7,6=1,8=2,11=2,25=1,30=1,70=32205,71=1,72=1,74=-55,82=7/1,2,3;
 4/5=5,16=3,69=1/1;
 5/5=2,38=5,53=1/2;
 7//1,2,3,16;
 1/18=20,19=15,26=3/3(-5);
 2/9=110/2;
 6/7=2,8=2,9=2,10=2,19=2,28=1/1;
 99/9=1/99;
 -----------------
 A.19.smd.a1b2.smd
 -----------------
 Symbolic Z-matrix:
 Charge = -1 Multiplicity = 1
 C                    -1.44375   1.30046  -1.88568 
 S                    -1.71791   1.46288  -0.13026 
 O                    -0.80375   2.57692   0.25354 
 O                    -3.16294   1.78961  -0.07008 
 N                    -1.43876   0.10963   0.58456 
 H                    -1.80053  -0.64356  -0.00565 
 C                    -2.27833   1.33678  -2.95625 
 C                    -1.44571   1.06812  -4.10205 
 C                    -0.18534   0.89006  -3.59273 
 O                    -0.13826   1.02377  -2.24841 
 C                    -1.44192   0.93936  -5.5334 
 C                    -0.19672   0.67542  -6.02173 
 S                     1.03924   0.57786  -4.76041 
 H                    -3.34098   1.53226  -2.92285 
 H                    -2.30993   1.03562  -6.17672 
 C                     0.19158   0.45571  -7.45146 
 N                     1.17221   1.42596  -7.94423 
 C                     0.61287   2.78051  -7.91854 
 C                     1.59605   3.77155  -8.51244 
 O                     1.93501   3.42272  -9.85145 
 C                     2.48696   2.1104   -9.8969 
 C                     1.51516   1.09293  -9.33 
 H                    -0.73721   0.49514  -8.04819 
 H                     0.62026  -0.54468  -7.58117 
 H                     0.39613   3.069    -6.88518 
 H                    -0.33431   2.81653  -8.48862 
 H                     2.51259   3.80838  -7.90571 
 H                     1.15433   4.7697   -8.54925 
 H                     3.43      2.09477  -9.33132 
 H                     2.69805   1.89278  -10.94616 
 H                     1.96989   0.09748  -9.3598 
 H                     0.60629   1.07282  -9.95919 
 

 GradGradGradGradGradGradGradGradGradGradGradGradGradGradGradGradGradGrad
 Berny optimization.
 Initialization pass.
                           ----------------------------
                           !    Initial Parameters    !
                           ! (Angstroms and Degrees)  !
 --------------------------                            --------------------------
 ! Name  Definition              Value          Derivative Info.                !
 --------------------------------------------------------------------------------
 ! R1    R(1,2)                  1.7841         estimate D2E/DX2                !
 ! R2    R(1,7)                  1.3579         estimate D2E/DX2                !
 ! R3    R(1,10)                 1.3829         estimate D2E/DX2                !
 ! R4    R(2,3)                  1.4913         estimate D2E/DX2                !
 ! R5    R(2,4)                  1.4827         estimate D2E/DX2                !
 ! R6    R(2,5)                  1.5557         estimate D2E/DX2                !
 ! R7    R(5,6)                  1.023          estimate D2E/DX2                !
 ! R8    R(7,8)                  1.4416         estimate D2E/DX2                !
 ! R9    R(7,14)                 1.081          estimate D2E/DX2                !
 ! R10   R(8,9)                  1.371          estimate D2E/DX2                !
 ! R11   R(8,11)                 1.4371         estimate D2E/DX2                !
 ! R12   R(9,10)                 1.3518         estimate D2E/DX2                !
 ! R13   R(9,13)                 1.7206         estimate D2E/DX2                !
 ! R14   R(11,12)                1.3633         estimate D2E/DX2                !
 ! R15   R(11,15)                1.0847         estimate D2E/DX2                !
 ! R16   R(12,13)                1.7686         estimate D2E/DX2                !
 ! R17   R(12,16)                1.4977         estimate D2E/DX2                !
 ! R18   R(16,17)                1.4649         estimate D2E/DX2                !
 ! R19   R(16,23)                1.1047         estimate D2E/DX2                !
 ! R20   R(16,24)                1.0961         estimate D2E/DX2                !
 ! R21   R(17,18)                1.4657         estimate D2E/DX2                !
 ! R22   R(17,22)                1.4659         estimate D2E/DX2                !
 ! R23   R(18,19)                1.5171         estimate D2E/DX2                !
 ! R24   R(18,25)                1.0945         estimate D2E/DX2                !
 ! R25   R(18,26)                1.1061         estimate D2E/DX2                !
 ! R26   R(19,20)                1.4246         estimate D2E/DX2                !
 ! R27   R(19,27)                1.0998         estimate D2E/DX2                !
 ! R28   R(19,28)                1.0921         estimate D2E/DX2                !
 ! R29   R(20,21)                1.4244         estimate D2E/DX2                !
 ! R30   R(21,22)                1.5169         estimate D2E/DX2                !
 ! R31   R(21,29)                1.0997         estimate D2E/DX2                !
 ! R32   R(21,30)                1.0922         estimate D2E/DX2                !
 ! R33   R(22,31)                1.0948         estimate D2E/DX2                !
 ! R34   R(22,32)                1.1056         estimate D2E/DX2                !
 ! A1    A(2,1,7)              132.7518         estimate D2E/DX2                !
 ! A2    A(2,1,10)             114.9201         estimate D2E/DX2                !
 ! A3    A(7,1,10)             112.2572         estimate D2E/DX2                !
 ! A4    A(1,2,3)              103.1217         estimate D2E/DX2                !
 ! A5    A(1,2,4)              102.1078         estimate D2E/DX2                !
 ! A6    A(1,2,5)              110.2023         estimate D2E/DX2                !
 ! A7    A(3,2,4)              114.9826         estimate D2E/DX2                !
 ! A8    A(3,2,5)              114.9333         estimate D2E/DX2                !
 ! A9    A(4,2,5)              110.3594         estimate D2E/DX2                !
 ! A10   A(2,5,6)              108.1738         estimate D2E/DX2                !
 ! A11   A(1,7,8)              105.4649         estimate D2E/DX2                !
 ! A12   A(1,7,14)             125.7789         estimate D2E/DX2                !
 ! A13   A(8,7,14)             128.756          estimate D2E/DX2                !
 ! A14   A(7,8,9)              105.0636         estimate D2E/DX2                !
 ! A15   A(7,8,11)             144.0782         estimate D2E/DX2                !
 ! A16   A(9,8,11)             110.8507         estimate D2E/DX2                !
 ! A17   A(8,9,10)             112.8686         estimate D2E/DX2                !
 ! A18   A(8,9,13)             115.1969         estimate D2E/DX2                !
 ! A19   A(10,9,13)            131.9172         estimate D2E/DX2                !
 ! A20   A(1,10,9)             104.3448         estimate D2E/DX2                !
 ! A21   A(8,11,12)            112.1176         estimate D2E/DX2                !
 ! A22   A(8,11,15)            125.4949         estimate D2E/DX2                !
 ! A23   A(12,11,15)           122.3874         estimate D2E/DX2                !
 ! A24   A(11,12,13)           113.1725         estimate D2E/DX2                !
 ! A25   A(11,12,16)           127.3823         estimate D2E/DX2                !
 ! A26   A(13,12,16)           119.4404         estimate D2E/DX2                !
 ! A27   A(9,13,12)             88.6601         estimate D2E/DX2                !
 ! A28   A(12,16,17)           113.4227         estimate D2E/DX2                !
 ! A29   A(12,16,23)           107.0044         estimate D2E/DX2                !
 ! A30   A(12,16,24)           110.3804         estimate D2E/DX2                !
 ! A31   A(17,16,23)           110.9459         estimate D2E/DX2                !
 ! A32   A(17,16,24)           107.632          estimate D2E/DX2                !
 ! A33   A(23,16,24)           107.3074         estimate D2E/DX2                !
 ! A34   A(16,17,18)           110.5334         estimate D2E/DX2                !
 ! A35   A(16,17,22)           108.9131         estimate D2E/DX2                !
 ! A36   A(18,17,22)           108.4097         estimate D2E/DX2                !
 ! A37   A(17,18,19)           110.4589         estimate D2E/DX2                !
 ! A38   A(17,18,25)           109.6151         estimate D2E/DX2                !
 ! A39   A(17,18,26)           110.3556         estimate D2E/DX2                !
 ! A40   A(19,18,25)           109.0106         estimate D2E/DX2                !
 ! A41   A(19,18,26)           109.3855         estimate D2E/DX2                !
 ! A42   A(25,18,26)           107.9651         estimate D2E/DX2                !
 ! A43   A(18,19,20)           111.2349         estimate D2E/DX2                !
 ! A44   A(18,19,27)           110.2426         estimate D2E/DX2                !
 ! A45   A(18,19,28)           110.3722         estimate D2E/DX2                !
 ! A46   A(20,19,27)           109.1743         estimate D2E/DX2                !
 ! A47   A(20,19,28)           106.7581         estimate D2E/DX2                !
 ! A48   A(27,19,28)           108.9694         estimate D2E/DX2                !
 ! A49   A(19,20,21)           110.3516         estimate D2E/DX2                !
 ! A50   A(20,21,22)           110.9653         estimate D2E/DX2                !
 ! A51   A(20,21,29)           109.206          estimate D2E/DX2                !
 ! A52   A(20,21,30)           106.8054         estimate D2E/DX2                !
 ! A53   A(22,21,29)           110.3422         estimate D2E/DX2                !
 ! A54   A(22,21,30)           110.4384         estimate D2E/DX2                !
 ! A55   A(29,21,30)           108.9963         estimate D2E/DX2                !
 ! A56   A(17,22,21)           110.535          estimate D2E/DX2                !
 ! A57   A(17,22,31)           109.2375         estimate D2E/DX2                !
 ! A58   A(17,22,32)           110.475          estimate D2E/DX2                !
 ! A59   A(21,22,31)           109.4881         estimate D2E/DX2                !
 ! A60   A(21,22,32)           109.0362         estimate D2E/DX2                !
 ! A61   A(31,22,32)           108.0243         estimate D2E/DX2                !
 ! D1    D(7,1,2,3)           -124.548          estimate D2E/DX2                !
 ! D2    D(7,1,2,4)             -4.9745         estimate D2E/DX2                !
 ! D3    D(7,1,2,5)            112.2893         estimate D2E/DX2                !
 ! D4    D(10,1,2,3)            58.8135         estimate D2E/DX2                !
 ! D5    D(10,1,2,4)           178.387          estimate D2E/DX2                !
 ! D6    D(10,1,2,5)           -64.3492         estimate D2E/DX2                !
 ! D7    D(2,1,7,8)           -176.9687         estimate D2E/DX2                !
 ! D8    D(2,1,7,14)             3.1983         estimate D2E/DX2                !
 ! D9    D(10,1,7,8)            -0.2625         estimate D2E/DX2                !
 ! D10   D(10,1,7,14)          179.9045         estimate D2E/DX2                !
 ! D11   D(2,1,10,9)           177.4543         estimate D2E/DX2                !
 ! D12   D(7,1,10,9)             0.1207         estimate D2E/DX2                !
 ! D13   D(1,2,5,6)            -39.4971         estimate D2E/DX2                !
 ! D14   D(3,2,5,6)           -155.4628         estimate D2E/DX2                !
 ! D15   D(4,2,5,6)             72.5239         estimate D2E/DX2                !
 ! D16   D(1,7,8,9)              0.2943         estimate D2E/DX2                !
 ! D17   D(1,7,8,11)          -178.5229         estimate D2E/DX2                !
 ! D18   D(14,7,8,9)          -179.8795         estimate D2E/DX2                !
 ! D19   D(14,7,8,11)            1.3033         estimate D2E/DX2                !
 ! D20   D(7,8,9,10)            -0.2393         estimate D2E/DX2                !
 ! D21   D(7,8,9,13)          -178.9117         estimate D2E/DX2                !
 ! D22   D(11,8,9,10)          179.0182         estimate D2E/DX2                !
 ! D23   D(11,8,9,13)            0.3458         estimate D2E/DX2                !
 ! D24   D(7,8,11,12)          178.7465         estimate D2E/DX2                !
 ! D25   D(7,8,11,15)           -1.234          estimate D2E/DX2                !
 ! D26   D(9,8,11,12)           -0.0312         estimate D2E/DX2                !
 ! D27   D(9,8,11,15)          179.9882         estimate D2E/DX2                !
 ! D28   D(8,9,10,1)             0.0844         estimate D2E/DX2                !
 ! D29   D(13,9,10,1)          178.4699         estimate D2E/DX2                !
 ! D30   D(8,9,13,12)           -0.4221         estimate D2E/DX2                !
 ! D31   D(10,9,13,12)        -178.778          estimate D2E/DX2                !
 ! D32   D(8,11,12,13)          -0.2827         estimate D2E/DX2                !
 ! D33   D(8,11,12,16)         178.9097         estimate D2E/DX2                !
 ! D34   D(15,11,12,13)        179.6985         estimate D2E/DX2                !
 ! D35   D(15,11,12,16)         -1.1091         estimate D2E/DX2                !
 ! D36   D(11,12,13,9)           0.3956         estimate D2E/DX2                !
 ! D37   D(16,12,13,9)        -178.8675         estimate D2E/DX2                !
 ! D38   D(11,12,16,17)        119.7991         estimate D2E/DX2                !
 ! D39   D(11,12,16,23)         -2.8766         estimate D2E/DX2                !
 ! D40   D(11,12,16,24)       -119.331          estimate D2E/DX2                !
 ! D41   D(13,12,16,17)        -61.0535         estimate D2E/DX2                !
 ! D42   D(13,12,16,23)        176.2709         estimate D2E/DX2                !
 ! D43   D(13,12,16,24)         59.8164         estimate D2E/DX2                !
 ! D44   D(12,16,17,18)        -62.9583         estimate D2E/DX2                !
 ! D45   D(12,16,17,22)        178.0414         estimate D2E/DX2                !
 ! D46   D(23,16,17,18)         57.5114         estimate D2E/DX2                !
 ! D47   D(23,16,17,22)        -61.4888         estimate D2E/DX2                !
 ! D48   D(24,16,17,18)        174.6351         estimate D2E/DX2                !
 ! D49   D(24,16,17,22)         55.6349         estimate D2E/DX2                !
 ! D50   D(16,17,18,19)       -176.3439         estimate D2E/DX2                !
 ! D51   D(16,17,18,25)         63.5207         estimate D2E/DX2                !
 ! D52   D(16,17,18,26)        -55.2609         estimate D2E/DX2                !
 ! D53   D(22,17,18,19)        -57.0388         estimate D2E/DX2                !
 ! D54   D(22,17,18,25)       -177.1743         estimate D2E/DX2                !
 ! D55   D(22,17,18,26)         64.0442         estimate D2E/DX2                !
 ! D56   D(16,17,22,21)        177.6489         estimate D2E/DX2                !
 ! D57   D(16,17,22,31)        -61.8181         estimate D2E/DX2                !
 ! D58   D(16,17,22,32)         56.8752         estimate D2E/DX2                !
 ! D59   D(18,17,22,21)         57.3301         estimate D2E/DX2                !
 ! D60   D(18,17,22,31)        177.863          estimate D2E/DX2                !
 ! D61   D(18,17,22,32)        -63.4437         estimate D2E/DX2                !
 ! D62   D(17,18,19,20)         58.2026         estimate D2E/DX2                !
 ! D63   D(17,18,19,27)        -63.0532         estimate D2E/DX2                !
 ! D64   D(17,18,19,28)        176.5144         estimate D2E/DX2                !
 ! D65   D(25,18,19,20)        178.7004         estimate D2E/DX2                !
 ! D66   D(25,18,19,27)         57.4445         estimate D2E/DX2                !
 ! D67   D(25,18,19,28)        -62.9878         estimate D2E/DX2                !
 ! D68   D(26,18,19,20)        -63.4554         estimate D2E/DX2                !
 ! D69   D(26,18,19,27)        175.2887         estimate D2E/DX2                !
 ! D70   D(26,18,19,28)         54.8564         estimate D2E/DX2                !
 ! D71   D(18,19,20,21)        -57.9151         estimate D2E/DX2                !
 ! D72   D(27,19,20,21)         63.9636         estimate D2E/DX2                !
 ! D73   D(28,19,20,21)       -178.3825         estimate D2E/DX2                !
 ! D74   D(19,20,21,22)         58.0046         estimate D2E/DX2                !
 ! D75   D(19,20,21,29)        -63.8451         estimate D2E/DX2                !
 ! D76   D(19,20,21,30)        178.4266         estimate D2E/DX2                !
 ! D77   D(20,21,22,17)        -58.597          estimate D2E/DX2                !
 ! D78   D(20,21,22,31)       -178.9802         estimate D2E/DX2                !
 ! D79   D(20,21,22,32)         63.03           estimate D2E/DX2                !
 ! D80   D(29,21,22,17)         62.5865         estimate D2E/DX2                !
 ! D81   D(29,21,22,31)        -57.7967         estimate D2E/DX2                !
 ! D82   D(29,21,22,32)       -175.7865         estimate D2E/DX2                !
 ! D83   D(30,21,22,17)       -176.8399         estimate D2E/DX2                !
 ! D84   D(30,21,22,31)         62.7769         estimate D2E/DX2                !
 ! D85   D(30,21,22,32)        -55.2129         estimate D2E/DX2                !
 --------------------------------------------------------------------------------
 Trust Radius=3.00D-01 FncErr=1.00D-07 GrdErr=1.00D-06 EigMax=2.50D+02 EigMin=1.00D-04
 Number of steps in this run=    190 maximum allowed number of steps=    192.
 GradGradGradGradGradGradGradGradGradGradGradGradGradGradGradGradGradGrad

                          Input orientation:                          
 ---------------------------------------------------------------------
 Center     Atomic      Atomic             Coordinates (Angstroms)
 Number     Number       Type             X           Y           Z
 ---------------------------------------------------------------------
      1          6           0       -1.443745    1.300465   -1.885684
      2         16           0       -1.717907    1.462877   -0.130257
      3          8           0       -0.803748    2.576920    0.253542
      4          8           0       -3.162943    1.789606   -0.070082
      5          7           0       -1.438760    0.109628    0.584557
      6          1           0       -1.800526   -0.643562   -0.005654
      7          6           0       -2.278334    1.336784   -2.956245
      8          6           0       -1.445712    1.068119   -4.102048
      9          6           0       -0.185340    0.890061   -3.592728
     10          8           0       -0.138259    1.023766   -2.248409
     11          6           0       -1.441916    0.939358   -5.533403
     12          6           0       -0.196721    0.675418   -6.021735
     13         16           0        1.039239    0.577864   -4.760410
     14          1           0       -3.340979    1.532256   -2.922852
     15          1           0       -2.309934    1.035622   -6.176723
     16          6           0        0.191581    0.455708   -7.451462
     17          7           0        1.172209    1.425964   -7.944231
     18          6           0        0.612874    2.780508   -7.918536
     19          6           0        1.596053    3.771553   -8.512437
     20          8           0        1.935010    3.422724   -9.851450
     21          6           0        2.486962    2.110401   -9.896899
     22          6           0        1.515157    1.092925   -9.329997
     23          1           0       -0.737212    0.495144   -8.048194
     24          1           0        0.620264   -0.544682   -7.581165
     25          1           0        0.396131    3.069000   -6.885180
     26          1           0       -0.334305    2.816527   -8.488621
     27          1           0        2.512590    3.808376   -7.905711
     28          1           0        1.154333    4.769698   -8.549254
     29          1           0        3.430001    2.094772   -9.331321
     30          1           0        2.698048    1.892779  -10.946159
     31          1           0        1.969887    0.097482   -9.359805
     32          1           0        0.606285    1.072819   -9.959193
 ---------------------------------------------------------------------
                    Distance matrix (angstroms):
                    1          2          3          4          5
     1  C    0.000000
     2  S    1.784115   0.000000
     3  O    2.572007   1.491335   0.000000
     4  O    2.547805   1.482735   2.508066   0.000000
     5  N    2.742300   1.555688   2.569113   2.494732   0.000000
     6  H    2.727828   2.111738   3.381162   2.789379   1.022995
     7  C    1.357924   2.883780   3.743671   3.052461   3.840322
     8  C    2.228510   4.000631   4.654005   4.441416   4.783620
     9  C    2.160096   3.829567   4.245199   4.699397   4.430558
    10  O    1.382905   2.678558   3.019093   3.805303   3.248484
    11  C    3.665550   5.435460   6.047942   5.790745   6.173969
    12  C    4.364936   6.135439   6.585081   6.742556   6.745804
    13  S    3.866705   5.461082   5.703730   6.412942   5.910025
    14  H    2.174613   3.230753   4.197421   2.869882   4.236062
    15  H    4.385595   6.090385   6.781777   6.211858   6.879776
    16  C    5.862234   7.632862   8.053403   8.216866   8.207033
    17  N    6.600376   8.331406   8.510734   8.995999   9.016104
    18  C    6.543356   8.235653   8.296453   8.765667   9.145786
    19  C    7.698084   9.304475   9.166710   9.891891  10.265237
    20  O    8.909175  10.568178  10.503668  11.150397  11.457276
    21  C    8.960247  10.653052  10.680724  11.339783  11.369930
    22  C    8.013487   9.758319   9.971147  10.397885  10.391866
    23  H    6.254939   8.036915   8.559033   8.438606   8.669786
    24  H    6.332709   8.063087   8.553060   8.727997   8.446699
    25  H    5.613183   7.257945   7.255564   7.794191   8.241461
    26  H    6.864989   8.579567   8.758036   8.940221   9.532559
    27  H    7.627774   9.157301   8.893143   9.883531  10.068692
    28  H    7.949135   9.490223   9.280710   9.970766  10.576714
    29  H    8.934307  10.562189  10.489361  11.372361  11.223648
    30  H    9.979854  11.690561  11.754315  12.355198  12.379427
    31  H    8.304369  10.032382  10.308109  10.747473  10.512343
    32  H    8.332826  10.107522  10.418756  10.607327  10.783349
                    6          7          8          9         10
     6  H    0.000000
     7  C    3.585535   0.000000
     8  C    4.453784   1.441633   0.000000
     9  C    4.222313   2.232778   1.371003   0.000000
    10  O    3.251625   2.275727   2.268783   1.351772   0.000000
    11  C    5.761098   2.738482   1.437140   2.312495   3.535227
    12  C    6.364364   3.764007   2.323659   2.438499   3.789822
    13  S    5.671318   3.851917   2.617016   1.720623   2.809890
    14  H    3.951863   1.080990   2.279904   3.289256   3.312227
    15  H    6.415703   3.234683   2.247713   3.348450   4.488648
    16  C    7.785688   5.204205   3.778141   3.901354   5.244354
    17  N    8.725887   6.065823   4.663039   4.589740   5.858454
    18  C    8.953349   5.921803   4.662149   4.787854   5.983367
    19  C   10.168350   7.197933   6.001035   5.973265   7.056644
    20  O   11.288428   8.345494   7.073123   7.076854   8.237698
    21  C   11.126706   8.454538   7.080436   6.955070   8.159164
    22  C   10.047513   7.421237   6.008229   5.987412   7.272376
    23  H    8.192053   5.386219   4.049980   4.506850   5.854545
    24  H    7.953513   5.773359   4.355874   4.314524   5.610140
    25  H    8.120117   5.058643   3.891238   3.990755   5.095900
    26  H    9.278079   6.047815   4.851204   5.263386   6.495589
    27  H   10.041595   7.318397   6.135553   5.864914   6.840038
    28  H   10.536967   7.406069   6.343466   6.435329   7.443349
    29  H   11.037434   8.590764   7.223011   6.888648   8.002948
    30  H   12.098134   9.429328   8.043175   7.961929   9.189705
    31  H   10.112631   7.783883   6.344483   6.207444   7.474907
    32  H   10.383238   7.578389   6.206195   6.418095   7.746802
                   11         12         13         14         15
    11  C    0.000000
    12  C    1.363321   0.000000
    13  S    2.623800   1.768631   0.000000
    14  H    3.282216   4.497066   4.844976   0.000000
    15  H    1.084704   2.149288   3.665030   3.449257   0.000000
    16  C    2.565381   1.497722   2.824041   5.843479   2.866851
    17  N    3.589224   2.476546   3.297525   6.752363   3.924509
    18  C    3.647034   2.946982   3.873911   6.492145   3.823787
    19  C    5.111284   4.359322   4.958568   7.786668   5.310142
    20  O    6.017995   5.172880   5.900366   8.911532   6.100936
    21  C    5.987280   4.927294   5.552305   9.106947   6.164825
    22  C    4.814768   3.748258   4.623085   8.051495   4.957594
    23  H    2.649171   2.105033   3.737933   5.841604   2.503592
    24  H    3.263172   2.141945   3.064687   6.457941   3.613292
    25  H    3.121072   2.612708   3.336764   5.659295   3.458226
    26  H    3.672040   3.269374   4.560460   6.455015   3.524146
    27  H    5.431135   4.550292   4.743405   8.017099   5.825316
    28  H    5.523348   4.997682   5.651554   7.895901   5.619019
    29  H    6.284484   5.110874   5.376800   9.339757   6.634768
    30  H    6.880860   5.840514   6.537900  10.048546   6.968653
    31  H    5.195239   4.021307   4.717129   8.467481   5.415624
    32  H    4.878581   4.038109   5.240207   8.080970   4.776274
                   16         17         18         19         20
    16  C    0.000000
    17  N    1.464872   0.000000
    18  C    2.408390   1.465710   0.000000
    19  C    3.754069   2.450365   1.517079   0.000000
    20  O    4.195554   2.864682   2.428300   1.424616   0.000000
    21  C    3.739912   2.451518   2.806273   2.338777   1.424398
    22  C    2.384700   1.465904   2.377872   2.801785   2.424078
    23  H    1.104672   2.126763   2.657524   4.049013   4.354679
    24  H    1.096071   2.078438   3.342269   4.522092   4.756371
    25  H    2.681755   2.103201   1.094545   2.140411   3.360361
    26  H    2.631677   2.121229   1.106093   2.153816   2.715616
    27  H    4.102902   2.733860   2.160000   1.099778   2.065969
    28  H    4.554399   3.398077   2.155890   1.092138   2.029658
    29  H    4.087513   2.732938   3.225275   2.616397   2.066153
    30  H    4.534364   3.399658   3.781867   3.266066   2.030110
    31  H    2.632959   2.098810   3.334272   3.789008   3.361572
    32  H    2.615630   2.122511   2.660926   3.218060   2.701698
                   21         22         23         24         25
    21  C    0.000000
    22  C    1.516918   0.000000
    23  H    4.052415   2.659610   0.000000
    24  H    3.987060   2.557539   1.772596   0.000000
    25  H    3.789583   3.336798   3.043321   3.686913   0.000000
    26  H    3.231317   2.664437   2.396900   3.610042   1.779973
    27  H    2.616984   3.224459   4.643169   4.757661   2.463242
    28  H    3.265564   3.776031   4.701150   5.428173   2.497276
    29  H    1.099748   2.161094   4.644447   4.233720   4.017100
    30  H    1.092183   2.156612   4.706654   4.645599   4.813924
    31  H    2.146551   1.094794   3.034278   2.323234   4.174973
    32  H    2.148814   1.105595   2.406369   2.876025   3.671302
                   26         27         28         29         30
    26  H    0.000000
    27  H    3.070563   0.000000
    28  H    2.456542   1.784138   0.000000
    29  H    3.924420   2.410487   3.597989   0.000000
    30  H    4.010981   3.598365   4.050293   1.784449   0.000000
    31  H    3.668987   4.022394   4.811624   2.474250   2.503963
    32  H    2.467349   3.915873   3.994396   3.067896   2.453958
                   31         32
    31  H    0.000000
    32  H    1.780438   0.000000
 Stoichiometry    C11H13N2O4S2(1-)
 Framework group  C1[X(C11H13N2O4S2)]
 Deg. of freedom    90
 Full point group                 C1      NOp   1
 Largest Abelian subgroup         C1      NOp   1
 Largest concise Abelian subgroup C1      NOp   1
                         Standard orientation:                         
 ---------------------------------------------------------------------
 Center     Atomic      Atomic             Coordinates (Angstroms)
 Number     Number       Type             X           Y           Z
 ---------------------------------------------------------------------
      1          6           0        3.003540    0.048557    0.217944
      2         16           0        4.719764    0.423173   -0.093998
      3          8           0        4.652061    1.681079   -0.892225
      4          8           0        5.258163    0.580680    1.278525
      5          7           0        5.408830   -0.772727   -0.811756
      6          1           0        5.055980   -1.639317   -0.398190
      7          6           0        2.299576   -0.166171    1.359121
      8          6           0        0.962496   -0.492702    0.930287
      9          6           0        1.006087   -0.445745   -0.439218
     10          8           0        2.228463   -0.119082   -0.915008
     11          6           0       -0.359361   -0.820725    1.389052
     12          6           0       -1.231137   -1.000724    0.356458
     13         16           0       -0.486291   -0.771466   -1.231213
     14          1           0        2.689458   -0.095902    2.364901
     15          1           0       -0.659275   -0.920247    2.426708
     16          6           0       -2.679474   -1.372111    0.443415
     17          7           0       -3.573529   -0.371265   -0.143800
     18          6           0       -3.474231    0.897005    0.584166
     19          6           0       -4.465201    1.904320    0.032055
     20          8           0       -5.799918    1.412954    0.113403
     21          6           0       -5.918814    0.182513   -0.594259
     22          6           0       -4.954607   -0.853233   -0.047838
     23          1           0       -2.909341   -1.528150    1.512580
     24          1           0       -2.861388   -2.322549   -0.071316
     25          1           0       -2.461827    1.300506    0.482901
     26          1           0       -3.672473    0.739178    1.660843
     27          1           0       -4.228603    2.135257   -1.016850
     28          1           0       -4.433446    2.827506    0.614707
     29          1           0       -5.725148    0.359251   -1.662296
     30          1           0       -6.950441   -0.154253   -0.470982
     31          1           0       -5.053225   -1.781613   -0.619640
     32          1           0       -5.216349   -1.069997    1.004229
 ---------------------------------------------------------------------
 Rotational constants (GHZ):           1.0902086           0.1109095           0.1095830
 General basis read from cards:  (6D, 7F)
 There are   395 symmetry adapted cartesian basis functions of A   symmetry.
 There are   395 symmetry adapted basis functions of A   symmetry.
   395 basis functions,   708 primitive gaussians,   395 cartesian basis functions
    79 alpha electrons       79 beta electrons
       nuclear repulsion energy      1701.7000197341 Hartrees.
 NAtoms=   32 NActive=   32 NUniq=   32 SFac= 1.00D+00 NAtFMM=   60 NAOKFM=F Big=F
 Integral buffers will be    131072 words long.
 Raffenetti 2 integral format.
 Two-electron integral symmetry is turned on.
 ------------------------------------------------------------------------------
 Polarizable Continuum Model (PCM)
 =================================
 Model                : PCM.
 Atomic radii         : SMD-Coulomb.
 Polarization charges : Total charges.
 Charge compensation  : None.
 Solution method      : On-the-fly selection.
 Cavity type          : VdW (van der Waals Surface) (Alpha=1.000).
 Cavity algorithm     : GePol (No added spheres)
                        Default sphere list used, NSphG=   32.
                        Lebedev-Laikov grids with approx.  5.0 points / Ang**2.
                        Smoothing algorithm: York/Karplus (Gamma=1.0000).
                        Polarization charges: spherical gaussians, with
                                              point-specific exponents (IZeta= 3).
                        Self-potential: point-specific (ISelfS= 7).
                        Self-field    : sphere-specific E.n sum rule (ISelfD= 2).
 1st derivatives      : Analytical E(r).r(x)/FMM algorithm (CHGder, D1EAlg=3).
                        Cavity 1st derivative terms included.
 Solvent              : Water, Eps=  78.355300 Eps(inf)=   1.777849
 ------------------------------------------------------------------------------
 ------------------------------------------------------------------------------
 Atomic radii for non-electrostatic terms: SMD-CDS.
 ------------------------------------------------------------------------------
 Nuclear repulsion after PCM non-electrostatic terms =     1701.7040955613 Hartrees.
 One-electron integrals computed using PRISM.
 NBasis=   395 RedAO= T EigKep=  1.85D-06  NBF=   395
 NBsUse=   394 1.00D-06 EigRej=  4.63D-07 NBFU=   394
 ExpMin= 4.05D-02 ExpMax= 2.19D+04 ExpMxC= 3.30D+03 IAcc=3 IRadAn=         5 AccDes= 0.00D+00
 Harris functional with IExCor= 1009 and IRadAn=       5 diagonalized for initial guess.
 HarFok:  IExCor= 1009 AccDes= 0.00D+00 IRadAn=         5 IDoV= 1 UseB2=F ITyADJ=14
 ICtDFT=  3500011 ScaDFX=  1.000000  1.000000  1.000000  1.000000
 FoFCou: FMM=F IPFlag=           0 FMFlag=      100000 FMFlg1=           0
         NFxFlg=           0 DoJE=T BraDBF=F KetDBF=T FulRan=T
         wScrn=  0.000000 ICntrl=       500 IOpCl=  0 I1Cent=   200000004 NGrid=           0
         NMat0=    1 NMatS0=      1 NMatT0=    0 NMatD0=    1 NMtDS0=    0 NMtDT0=    0
 Petite list used in FoFCou.
 Requested convergence on RMS density matrix=1.00D-08 within 128 cycles.
 Requested convergence on MAX density matrix=1.00D-06.
 Requested convergence on             energy=1.00D-06.
 No special actions if energy rises.
 Inv3:  Mode=1 IEnd=    17963427.
 Iteration    1 A*A^-1 deviation from unit magnitude is 4.00D-15 for   2442.
 Iteration    1 A*A^-1 deviation from orthogonality  is 3.28D-15 for   2424    770.
 Iteration    1 A^-1*A deviation from unit magnitude is 4.22D-15 for   2442.
 Iteration    1 A^-1*A deviation from orthogonality  is 1.56D-14 for   1258   1219.
 Error on total polarization charges =  0.06483
 SCF Done:  E(RM062X) =  -1633.42626541     A.U. after   15 cycles
            NFock= 15  Conv=0.52D-08     -V/T= 2.0059
 SMD-CDS (non-electrostatic) energy       (kcal/mol) =       2.56
 (included in total energy above)

 **********************************************************************

            Population analysis using the SCF Density.

 **********************************************************************

 Orbital symmetries:
       Occupied  (A) (A) (A) (A) (A) (A) (A) (A) (A) (A) (A) (A)
                 (A) (A) (A) (A) (A) (A) (A) (A) (A) (A) (A) (A)
                 (A) (A) (A) (A) (A) (A) (A) (A) (A) (A) (A) (A)
                 (A) (A) (A) (A) (A) (A) (A) (A) (A) (A) (A) (A)
                 (A) (A) (A) (A) (A) (A) (A) (A) (A) (A) (A) (A)
                 (A) (A) (A) (A) (A) (A) (A) (A) (A) (A) (A) (A)
                 (A) (A) (A) (A) (A) (A) (A)
       Virtual   (A) (A) (A) (A) (A) (A) (A) (A) (A) (A) (A) (A)
                 (A) (A) (A) (A) (A) (A) (A) (A) (A) (A) (A) (A)
                 (A) (A) (A) (A) (A) (A) (A) (A) (A) (A) (A) (A)
                 (A) (A) (A) (A) (A) (A) (A) (A) (A) (A) (A) (A)
                 (A) (A) (A) (A) (A) (A) (A) (A) (A) (A) (A) (A)
                 (A) (A) (A) (A) (A) (A) (A) (A) (A) (A) (A) (A)
                 (A) (A) (A) (A) (A) (A) (A) (A) (A) (A) (A) (A)
                 (A) (A) (A) (A) (A) (A) (A) (A) (A) (A) (A) (A)
                 (A) (A) (A) (A) (A) (A) (A) (A) (A) (A) (A) (A)
                 (A) (A) (A) (A) (A) (A) (A) (A) (A) (A) (A) (A)
                 (A) (A) (A) (A) (A) (A) (A) (A) (A) (A) (A) (A)
                 (A) (A) (A) (A) (A) (A) (A) (A) (A) (A) (A) (A)
                 (A) (A) (A) (A) (A) (A) (A) (A) (A) (A) (A) (A)
                 (A) (A) (A) (A) (A) (A) (A) (A) (A) (A) (A) (A)
                 (A) (A) (A) (A) (A) (A) (A) (A) (A) (A) (A) (A)
                 (A) (A) (A) (A) (A) (A) (A) (A) (A) (A) (A) (A)
                 (A) (A) (A) (A) (A) (A) (A) (A) (A) (A) (A) (A)
                 (A) (A) (A) (A) (A) (A) (A) (A) (A) (A) (A) (A)
                 (A) (A) (A) (A) (A) (A) (A) (A) (A) (A) (A) (A)
                 (A) (A) (A) (A) (A) (A) (A) (A) (A) (A) (A) (A)
                 (A) (A) (A) (A) (A) (A) (A) (A) (A) (A) (A) (A)
                 (A) (A) (A) (A) (A) (A) (A) (A) (A) (A) (A) (A)
                 (A) (A) (A) (A) (A) (A) (A) (A) (A) (A) (A) (A)
                 (A) (A) (A) (A) (A) (A) (A) (A) (A) (A) (A) (A)
                 (A) (A) (A) (A) (A) (A) (A) (A) (A) (A) (A) (A)
                 (A) (A) (A) (A) (A) (A) (A) (A) (A) (A) (A) (A)
                 (A) (A) (A)
 The electronic state is 1-A.
 Alpha  occ. eigenvalues --  -90.14600 -89.96678 -19.73659 -19.65500 -19.63035
 Alpha  occ. eigenvalues --  -19.61964 -14.76352 -14.72024 -10.63756 -10.62598
 Alpha  occ. eigenvalues --  -10.59192 -10.58801 -10.58790 -10.58108 -10.57159
 Alpha  occ. eigenvalues --  -10.56520 -10.56513 -10.56423 -10.56405  -8.45393
 Alpha  occ. eigenvalues --   -8.31040  -6.37625  -6.37567  -6.37489  -6.23063
 Alpha  occ. eigenvalues --   -6.22850  -6.22548  -1.26105  -1.21376  -1.16607
 Alpha  occ. eigenvalues --   -1.09900  -1.04103  -0.99048  -0.96785  -0.91359
 Alpha  occ. eigenvalues --   -0.86902  -0.86378  -0.82341  -0.81124  -0.74820
 Alpha  occ. eigenvalues --   -0.73945  -0.70398  -0.68341  -0.65217  -0.64188
 Alpha  occ. eigenvalues --   -0.63107  -0.59226  -0.58085  -0.56803  -0.56402
 Alpha  occ. eigenvalues --   -0.55056  -0.54327  -0.53928  -0.53375  -0.53155
 Alpha  occ. eigenvalues --   -0.51541  -0.50939  -0.48911  -0.48666  -0.46293
 Alpha  occ. eigenvalues --   -0.46152  -0.44061  -0.43368  -0.42793  -0.41935
 Alpha  occ. eigenvalues --   -0.41502  -0.40969  -0.39980  -0.39744  -0.39122
 Alpha  occ. eigenvalues --   -0.37798  -0.37076  -0.36106  -0.34589  -0.33237
 Alpha  occ. eigenvalues --   -0.29791  -0.29428  -0.29072  -0.27145
 Alpha virt. eigenvalues --    0.01090   0.01222   0.02214   0.02838   0.03238
 Alpha virt. eigenvalues --    0.03360   0.03657   0.04236   0.04567   0.04638
 Alpha virt. eigenvalues --    0.05380   0.05882   0.06038   0.06268   0.06720
 Alpha virt. eigenvalues --    0.07196   0.07657   0.08232   0.08712   0.09287
 Alpha virt. eigenvalues --    0.09353   0.09594   0.10305   0.10636   0.11007
 Alpha virt. eigenvalues --    0.11300   0.11675   0.12029   0.12503   0.12928
 Alpha virt. eigenvalues --    0.13374   0.14143   0.14350   0.14607   0.15196
 Alpha virt. eigenvalues --    0.15766   0.16010   0.16113   0.16789   0.16923
 Alpha virt. eigenvalues --    0.17981   0.18086   0.18378   0.19077   0.19296
 Alpha virt. eigenvalues --    0.19753   0.20341   0.20471   0.20635   0.20894
 Alpha virt. eigenvalues --    0.21234   0.21596   0.22419   0.22539   0.22894
 Alpha virt. eigenvalues --    0.23218   0.23714   0.23928   0.24288   0.24964
 Alpha virt. eigenvalues --    0.25426   0.25814   0.26244   0.26382   0.26674
 Alpha virt. eigenvalues --    0.26865   0.27146   0.28026   0.28073   0.28876
 Alpha virt. eigenvalues --    0.29128   0.29446   0.29840   0.30101   0.30283
 Alpha virt. eigenvalues --    0.30786   0.31439   0.31663   0.31865   0.32175
 Alpha virt. eigenvalues --    0.32426   0.32751   0.32921   0.33713   0.34416
 Alpha virt. eigenvalues --    0.34531   0.34792   0.34953   0.35666   0.35936
 Alpha virt. eigenvalues --    0.36154   0.36509   0.37229   0.37695   0.38260
 Alpha virt. eigenvalues --    0.38653   0.38767   0.40005   0.40564   0.40732
 Alpha virt. eigenvalues --    0.41942   0.42680   0.43826   0.44318   0.45063
 Alpha virt. eigenvalues --    0.45781   0.46036   0.47232   0.49587   0.51838
 Alpha virt. eigenvalues --    0.53224   0.57603   0.58057   0.59261   0.61684
 Alpha virt. eigenvalues --    0.62911   0.67011   0.67921   0.68596   0.69811
 Alpha virt. eigenvalues --    0.70882   0.71222   0.72102   0.72573   0.73237
 Alpha virt. eigenvalues --    0.74235   0.74814   0.75963   0.76759   0.77716
 Alpha virt. eigenvalues --    0.77920   0.79100   0.79579   0.81216   0.82553
 Alpha virt. eigenvalues --    0.82973   0.84228   0.85201   0.85937   0.87309
 Alpha virt. eigenvalues --    0.87713   0.89119   0.90861   0.92802   0.93589
 Alpha virt. eigenvalues --    0.94726   0.95609   0.96167   0.98418   0.99260
 Alpha virt. eigenvalues --    1.00353   1.00961   1.01533   1.02216   1.03014
 Alpha virt. eigenvalues --    1.03302   1.05031   1.05546   1.06715   1.07443
 Alpha virt. eigenvalues --    1.08399   1.09831   1.10161   1.11334   1.11620
 Alpha virt. eigenvalues --    1.13179   1.13248   1.14279   1.15892   1.16722
 Alpha virt. eigenvalues --    1.17354   1.18526   1.19184   1.19547   1.20721
 Alpha virt. eigenvalues --    1.21752   1.22459   1.23208   1.25323   1.26064
 Alpha virt. eigenvalues --    1.26625   1.27378   1.29409   1.30771   1.32146
 Alpha virt. eigenvalues --    1.33801   1.34501   1.36087   1.36453   1.36908
 Alpha virt. eigenvalues --    1.38217   1.39296   1.39510   1.40310   1.41059
 Alpha virt. eigenvalues --    1.42025   1.43451   1.43865   1.45022   1.46859
 Alpha virt. eigenvalues --    1.48049   1.49031   1.49823   1.51674   1.52260
 Alpha virt. eigenvalues --    1.53509   1.54092   1.54518   1.57536   1.60455
 Alpha virt. eigenvalues --    1.62442   1.64082   1.64915   1.68149   1.69265
 Alpha virt. eigenvalues --    1.72046   1.72944   1.74260   1.77451   1.81298
 Alpha virt. eigenvalues --    1.81917   1.82053   1.82878   1.83613   1.84980
 Alpha virt. eigenvalues --    1.86614   1.88673   1.88994   1.90119   1.92139
 Alpha virt. eigenvalues --    1.93121   1.95142   1.95445   1.96526   1.97918
 Alpha virt. eigenvalues --    2.00031   2.00614   2.02247   2.04421   2.06156
 Alpha virt. eigenvalues --    2.06651   2.07605   2.08541   2.11005   2.12519
 Alpha virt. eigenvalues --    2.14279   2.15181   2.16259   2.17507   2.18853
 Alpha virt. eigenvalues --    2.20510   2.21434   2.22040   2.23093   2.23933
 Alpha virt. eigenvalues --    2.25332   2.28356   2.30646   2.32029   2.33916
 Alpha virt. eigenvalues --    2.34647   2.37321   2.38952   2.40763   2.41131
 Alpha virt. eigenvalues --    2.41553   2.44097   2.44771   2.46958   2.50637
 Alpha virt. eigenvalues --    2.51704   2.53472   2.55361   2.57122   2.58890
 Alpha virt. eigenvalues --    2.59950   2.61451   2.63257   2.69232   2.72802
 Alpha virt. eigenvalues --    2.75789   2.81034   2.81988   2.84062   2.86570
 Alpha virt. eigenvalues --    2.87545   2.89861   2.91662   2.92840   2.94245
 Alpha virt. eigenvalues --    2.98571   3.00428   3.04173   3.10051   3.16092
 Alpha virt. eigenvalues --    3.25908   3.99621   4.03765   4.07967   4.18959
 Alpha virt. eigenvalues --    4.23981   4.24761   4.27972   4.30114   4.34400
 Alpha virt. eigenvalues --    4.35670   4.39319   4.46912   4.47750   4.51217
 Alpha virt. eigenvalues --    4.55038   4.61424   4.68803   4.69209   4.71276
          Condensed to atoms (all electrons):
               1          2          3          4          5          6
     1  C   12.322353  -0.659303  -0.268239   0.048355   0.270068  -0.015723
     2  S   -0.659303  16.057242   0.374901  -0.173404   0.024787   0.113537
     3  O   -0.268239   0.374901   8.977793  -0.182951  -0.213973   0.014150
     4  O    0.048355  -0.173404  -0.182951   9.131244  -0.188956  -0.014211
     5  N    0.270068   0.024787  -0.213973  -0.188956   8.041384   0.199988
     6  H   -0.015723   0.113537   0.014150  -0.014211   0.199988   0.346736
     7  C   -0.588903   0.502459  -0.012169  -0.070136  -0.211743  -0.016573
     8  C    0.371053  -1.637470  -0.084766   0.206896   0.097211  -0.030372
     9  C   -1.388884  -0.153512   0.065534  -0.024324  -0.051753  -0.002481
    10  O   -0.183492  -0.136991   0.016572  -0.000314  -0.005861  -0.002921
    11  C   -1.674486  -0.386638  -0.001587  -0.040213  -0.027233  -0.004138
    12  C   -1.048760   0.002528   0.000322   0.017296   0.011943   0.000816
    13  S   -0.588254   0.015843   0.007507   0.004359  -0.000370  -0.000232
    14  H   -0.016818   0.015927   0.000149   0.001660   0.000016   0.000014
    15  H   -0.007934  -0.000412  -0.000001  -0.000001  -0.000002   0.000000
    16  C    0.616933   0.069363   0.000519   0.001601   0.001895   0.000126
    17  N    0.010763   0.000399  -0.000013   0.000001   0.000029   0.000000
    18  C    0.001551  -0.000792  -0.000034  -0.000013  -0.000017   0.000001
    19  C   -0.003984  -0.000198  -0.000004  -0.000002  -0.000002   0.000000
    20  O    0.000027   0.000000  -0.000000   0.000000   0.000000   0.000000
    21  C    0.002984   0.000136   0.000001   0.000000  -0.000000   0.000000
    22  C    0.007739   0.000462   0.000001   0.000003   0.000010   0.000000
    23  H    0.000051  -0.000001  -0.000000  -0.000000  -0.000000  -0.000000
    24  H    0.000054   0.000013   0.000000   0.000000   0.000000   0.000000
    25  H    0.000126  -0.000001  -0.000000   0.000000  -0.000000  -0.000000
    26  H   -0.000123  -0.000005  -0.000000  -0.000000   0.000000  -0.000000
    27  H   -0.000039  -0.000001   0.000000  -0.000000  -0.000000  -0.000000
    28  H    0.000017   0.000000   0.000000   0.000000   0.000000   0.000000
    29  H    0.000005   0.000000   0.000000  -0.000000   0.000000  -0.000000
    30  H    0.000001   0.000000   0.000000   0.000000   0.000000   0.000000
    31  H    0.000010   0.000000  -0.000000   0.000000   0.000000   0.000000
    32  H    0.000030   0.000000  -0.000000  -0.000000   0.000000   0.000000
               7          8          9         10         11         12
     1  C   -0.588903   0.371053  -1.388884  -0.183492  -1.674486  -1.048760
     2  S    0.502459  -1.637470  -0.153512  -0.136991  -0.386638   0.002528
     3  O   -0.012169  -0.084766   0.065534   0.016572  -0.001587   0.000322
     4  O   -0.070136   0.206896  -0.024324  -0.000314  -0.040213   0.017296
     5  N   -0.211743   0.097211  -0.051753  -0.005861  -0.027233   0.011943
     6  H   -0.016573  -0.030372  -0.002481  -0.002921  -0.004138   0.000816
     7  C   16.956532 -10.042825  -0.433323  -0.351653   3.277083  -3.266391
     8  C  -10.042825  18.887515  -0.422177   0.387472  -4.196211   0.502770
     9  C   -0.433323  -0.422177  10.966614   0.102382   1.351228  -0.898106
    10  O   -0.351653   0.387472   0.102382   8.339765  -0.075302   0.169514
    11  C    3.277083  -4.196211   1.351228  -0.075302  15.965790  -1.005103
    12  C   -3.266391   0.502770  -0.898106   0.169514  -1.005103  15.457497
    13  S    0.288986  -0.516759  -1.071098  -0.044756  -1.602306   0.708767
    14  H    0.408619  -0.076538   0.005102   0.006080  -0.036031  -0.000941
    15  H   -0.046514  -0.027216   0.039394  -0.000408   0.375829  -0.003426
    16  C   -0.158336   1.801051  -1.233833   0.026248  -5.419800  -3.853511
    17  N   -0.012319   0.061373  -0.068194   0.001220  -0.228076  -0.385942
    18  C   -0.029572  -0.071032   0.095916  -0.001306   0.117551   0.283177
    19  C   -0.002331  -0.002003  -0.022472   0.000452  -0.061882   0.000295
    20  O   -0.000227  -0.001096  -0.000897   0.000001  -0.006909  -0.012330
    21  C    0.005920   0.039702  -0.003117  -0.000013   0.002057  -0.124451
    22  C    0.005786   0.037342  -0.018601   0.000178  -0.096371  -0.207571
    23  H    0.002255   0.024849  -0.005047   0.000041  -0.067288  -0.152875
    24  H   -0.004001  -0.015499  -0.011318  -0.000014  -0.043962  -0.027244
    25  H   -0.005852  -0.009498  -0.001982  -0.000014  -0.013019   0.046856
    26  H   -0.000355  -0.000691   0.001365   0.000001  -0.009100  -0.010761
    27  H    0.000165   0.000476  -0.000223   0.000000   0.001365   0.001587
    28  H   -0.000186  -0.000185  -0.000594   0.000000  -0.003741  -0.002994
    29  H    0.000009   0.000338  -0.000129   0.000000  -0.000112  -0.003784
    30  H   -0.000002   0.000008  -0.000008  -0.000000  -0.000292  -0.003760
    31  H   -0.000052  -0.000217  -0.000593  -0.000000  -0.004252  -0.019510
    32  H   -0.000099   0.001089  -0.000103   0.000000  -0.003386  -0.034859
              13         14         15         16         17         18
     1  C   -0.588254  -0.016818  -0.007934   0.616933   0.010763   0.001551
     2  S    0.015843   0.015927  -0.000412   0.069363   0.000399  -0.000792
     3  O    0.007507   0.000149  -0.000001   0.000519  -0.000013  -0.000034
     4  O    0.004359   0.001660  -0.000001   0.001601   0.000001  -0.000013
     5  N   -0.000370   0.000016  -0.000002   0.001895   0.000029  -0.000017
     6  H   -0.000232   0.000014   0.000000   0.000126   0.000000   0.000001
     7  C    0.288986   0.408619  -0.046514  -0.158336  -0.012319  -0.029572
     8  C   -0.516759  -0.076538  -0.027216   1.801051   0.061373  -0.071032
     9  C   -1.071098   0.005102   0.039394  -1.233833  -0.068194   0.095916
    10  O   -0.044756   0.006080  -0.000408   0.026248   0.001220  -0.001306
    11  C   -1.602306  -0.036031   0.375829  -5.419800  -0.228076   0.117551
    12  C    0.708767  -0.000941  -0.003426  -3.853511  -0.385942   0.283177
    13  S   17.197840  -0.001257  -0.005192   1.050173   0.135285  -0.123383
    14  H   -0.001257   0.395919   0.000416   0.002193   0.000002   0.000039
    15  H   -0.005192   0.000416   0.422045  -0.029033   0.001053   0.003057
    16  C    1.050173   0.002193  -0.029033  12.378310   0.556392  -0.384578
    17  N    0.135285   0.000002   0.001053   0.556392   7.320205   0.161399
    18  C   -0.123383   0.000039   0.003057  -0.384578   0.161399   6.595134
    19  C    0.006442   0.000004   0.001306   0.049135  -0.002598  -0.660185
    20  O    0.003684  -0.000000   0.000001   0.014046  -0.026921  -0.073774
    21  C   -0.009722   0.000000   0.000054  -0.005703  -0.023432   0.103864
    22  C    0.029661   0.000009   0.000982  -0.062612   0.208364  -0.361250
    23  H    0.025541   0.000000   0.001192   0.507204  -0.035376  -0.025274
    24  H    0.000731   0.000000   0.000070   0.469553  -0.057375   0.015907
    25  H   -0.010929  -0.000000   0.000024  -0.011101  -0.048932   0.330217
    26  H    0.004460  -0.000000  -0.000070   0.006437  -0.045203   0.393544
    27  H    0.000741  -0.000000  -0.000000  -0.003419   0.018849  -0.155735
    28  H    0.001109   0.000000   0.000000   0.003914   0.005383  -0.075467
    29  H   -0.000044  -0.000000  -0.000000  -0.002920   0.020771  -0.015070
    30  H    0.000275   0.000000  -0.000000   0.000995   0.000242  -0.004131
    31  H    0.003335   0.000000  -0.000000  -0.008464  -0.054065   0.018675
    32  H    0.001275  -0.000000   0.000000   0.013154  -0.038262  -0.027081
              19         20         21         22         23         24
     1  C   -0.003984   0.000027   0.002984   0.007739   0.000051   0.000054
     2  S   -0.000198   0.000000   0.000136   0.000462  -0.000001   0.000013
     3  O   -0.000004  -0.000000   0.000001   0.000001  -0.000000   0.000000
     4  O   -0.000002   0.000000   0.000000   0.000003  -0.000000   0.000000
     5  N   -0.000002   0.000000  -0.000000   0.000010  -0.000000   0.000000
     6  H    0.000000   0.000000   0.000000   0.000000  -0.000000   0.000000
     7  C   -0.002331  -0.000227   0.005920   0.005786   0.002255  -0.004001
     8  C   -0.002003  -0.001096   0.039702   0.037342   0.024849  -0.015499
     9  C   -0.022472  -0.000897  -0.003117  -0.018601  -0.005047  -0.011318
    10  O    0.000452   0.000001  -0.000013   0.000178   0.000041  -0.000014
    11  C   -0.061882  -0.006909   0.002057  -0.096371  -0.067288  -0.043962
    12  C    0.000295  -0.012330  -0.124451  -0.207571  -0.152875  -0.027244
    13  S    0.006442   0.003684  -0.009722   0.029661   0.025541   0.000731
    14  H    0.000004  -0.000000   0.000000   0.000009   0.000000   0.000000
    15  H    0.001306   0.000001   0.000054   0.000982   0.001192   0.000070
    16  C    0.049135   0.014046  -0.005703  -0.062612   0.507204   0.469553
    17  N   -0.002598  -0.026921  -0.023432   0.208364  -0.035376  -0.057375
    18  C   -0.660185  -0.073774   0.103864  -0.361250  -0.025274   0.015907
    19  C    6.249148   0.141121  -0.299027   0.171499   0.002182   0.001544
    20  O    0.141121   8.498717   0.141662  -0.053688  -0.000079   0.000117
    21  C   -0.299027   0.141662   6.191513  -0.445158  -0.004899   0.002883
    22  C    0.171499  -0.053688  -0.445158   6.357005   0.003473  -0.020519
    23  H    0.002182  -0.000079  -0.004899   0.003473   0.492537  -0.033745
    24  H    0.001544   0.000117   0.002883  -0.020519  -0.033745   0.460103
    25  H    0.014057   0.006295   0.001351   0.018293  -0.001109  -0.000003
    26  H   -0.049390   0.004965  -0.013713  -0.004823   0.009051  -0.000272
    27  H    0.500288  -0.047280  -0.014681   0.000654   0.000004   0.000008
    28  H    0.440584  -0.052090   0.013174  -0.002783   0.000009   0.000002
    29  H   -0.001309  -0.047839   0.489550  -0.135513   0.000004   0.000012
    30  H    0.012692  -0.051388   0.427755  -0.057420   0.000012  -0.000009
    31  H   -0.002526   0.006735   0.019633   0.361542  -0.001276   0.004637
    32  H    0.005508   0.003571  -0.078647   0.436414   0.008596  -0.001609
              25         26         27         28         29         30
     1  C    0.000126  -0.000123  -0.000039   0.000017   0.000005   0.000001
     2  S   -0.000001  -0.000005  -0.000001   0.000000   0.000000   0.000000
     3  O   -0.000000  -0.000000   0.000000   0.000000   0.000000   0.000000
     4  O    0.000000  -0.000000  -0.000000   0.000000  -0.000000   0.000000
     5  N   -0.000000   0.000000  -0.000000   0.000000   0.000000   0.000000
     6  H   -0.000000  -0.000000  -0.000000   0.000000  -0.000000   0.000000
     7  C   -0.005852  -0.000355   0.000165  -0.000186   0.000009  -0.000002
     8  C   -0.009498  -0.000691   0.000476  -0.000185   0.000338   0.000008
     9  C   -0.001982   0.001365  -0.000223  -0.000594  -0.000129  -0.000008
    10  O   -0.000014   0.000001   0.000000   0.000000   0.000000  -0.000000
    11  C   -0.013019  -0.009100   0.001365  -0.003741  -0.000112  -0.000292
    12  C    0.046856  -0.010761   0.001587  -0.002994  -0.003784  -0.003760
    13  S   -0.010929   0.004460   0.000741   0.001109  -0.000044   0.000275
    14  H   -0.000000  -0.000000  -0.000000   0.000000  -0.000000   0.000000
    15  H    0.000024  -0.000070  -0.000000   0.000000  -0.000000  -0.000000
    16  C   -0.011101   0.006437  -0.003419   0.003914  -0.002920   0.000995
    17  N   -0.048932  -0.045203   0.018849   0.005383   0.020771   0.000242
    18  C    0.330217   0.393544  -0.155735  -0.075467  -0.015070  -0.004131
    19  C    0.014057  -0.049390   0.500288   0.440584  -0.001309   0.012692
    20  O    0.006295   0.004965  -0.047280  -0.052090  -0.047839  -0.051388
    21  C    0.001351  -0.013713  -0.014681   0.013174   0.489550   0.427755
    22  C    0.018293  -0.004823   0.000654  -0.002783  -0.135513  -0.057420
    23  H   -0.001109   0.009051   0.000004   0.000009   0.000004   0.000012
    24  H   -0.000003  -0.000272   0.000008   0.000002   0.000012  -0.000009
    25  H    0.468494  -0.034683  -0.002126  -0.001322   0.000016   0.000014
    26  H   -0.034683   0.507079   0.003510  -0.002560   0.000088   0.000021
    27  H   -0.002126   0.003510   0.491830  -0.028702   0.005908  -0.000189
    28  H   -0.001322  -0.002560  -0.028702   0.471208  -0.000186  -0.000077
    29  H    0.000016   0.000088   0.005908  -0.000186   0.491075  -0.028600
    30  H    0.000014   0.000021  -0.000189  -0.000077  -0.028600   0.472122
    31  H   -0.000067  -0.000338   0.000016   0.000014  -0.002153  -0.000966
    32  H   -0.000335   0.007660   0.000076   0.000017   0.003464  -0.002324
              31         32
     1  C    0.000010   0.000030
     2  S    0.000000   0.000000
     3  O   -0.000000  -0.000000
     4  O    0.000000  -0.000000
     5  N    0.000000   0.000000
     6  H    0.000000   0.000000
     7  C   -0.000052  -0.000099
     8  C   -0.000217   0.001089
     9  C   -0.000593  -0.000103
    10  O   -0.000000   0.000000
    11  C   -0.004252  -0.003386
    12  C   -0.019510  -0.034859
    13  S    0.003335   0.001275
    14  H    0.000000  -0.000000
    15  H   -0.000000   0.000000
    16  C   -0.008464   0.013154
    17  N   -0.054065  -0.038262
    18  C    0.018675  -0.027081
    19  C   -0.002526   0.005508
    20  O    0.006735   0.003571
    21  C    0.019633  -0.078647
    22  C    0.361542   0.436414
    23  H   -0.001276   0.008596
    24  H    0.004637  -0.001609
    25  H   -0.000067  -0.000335
    26  H   -0.000338   0.007660
    27  H    0.000016   0.000076
    28  H    0.000014   0.000017
    29  H   -0.002153   0.003464
    30  H   -0.000966  -0.002324
    31  H    0.474180  -0.034911
    32  H   -0.034911   0.505132
 Mulliken charges:
               1
     1  C   -1.207177
     2  S    1.971130
     3  O   -0.693710
     4  O   -0.716889
     5  N   -0.947420
     6  H    0.411285
     7  C   -0.194256
     8  C    0.715411
     9  C   -0.814765
    10  O   -0.246880
    11  C   -0.083464
    12  C   -0.141049
    13  S    0.488288
    14  H    0.295437
    15  H    0.274785
    16  C   -0.395933
    17  N   -0.475018
    18  C   -0.111338
    19  C   -0.488343
    20  O   -0.446425
    21  C   -0.419674
    22  C   -0.173105
    23  H    0.249968
    24  H    0.259938
    25  H    0.255229
    26  H    0.233905
    27  H    0.226920
    28  H    0.235456
    29  H    0.226419
    30  H    0.235030
    31  H    0.240612
    32  H    0.235632
 Sum of Mulliken charges =  -1.00000
 Mulliken charges with hydrogens summed into heavy atoms:
               1
     1  C   -1.207177
     2  S    1.971130
     3  O   -0.693710
     4  O   -0.716889
     5  N   -0.536135
     7  C    0.101181
     8  C    0.715411
     9  C   -0.814765
    10  O   -0.246880
    11  C    0.191321
    12  C   -0.141049
    13  S    0.488288
    16  C    0.113973
    17  N   -0.475018
    18  C    0.377797
    19  C   -0.025967
    20  O   -0.446425
    21  C    0.041775
    22  C    0.303139
 Electronic spatial extent (au):  <R**2>=           9541.2737
 Charge=             -1.0000 electrons
 Dipole moment (field-independent basis, Debye):
    X=            -27.4628    Y=             -6.5645    Z=              4.2311  Tot=             28.5517
 Quadrupole moment (field-independent basis, Debye-Ang):
   XX=           -284.3425   YY=           -133.9606   ZZ=           -135.0104
   XY=             -7.8982   XZ=             12.2272   YZ=             -1.3981
 Traceless Quadrupole moment (field-independent basis, Debye-Ang):
   XX=            -99.9046   YY=             50.4772   ZZ=             49.4274
   XY=             -7.8982   XZ=             12.2272   YZ=             -1.3981
 Octapole moment (field-independent basis, Debye-Ang**2):
  XXX=           -768.9664  YYY=             -7.2456  ZZZ=             16.3944  XYY=            -43.0224
  XXY=           -177.3972  XXZ=             17.3341  XZZ=            -60.8814  YZZ=             -3.3819
  YYZ=              4.7172  XYZ=             -0.3470
 Hexadecapole moment (field-independent basis, Debye-Ang**3):
 XXXX=         -16342.4976 YYYY=           -831.3790 ZZZZ=           -666.7504 XXXY=            174.6081
 XXXZ=            407.8603 YYYX=            -86.2494 YYYZ=             23.3510 ZZZX=             35.4986
 ZZZY=            -17.2809 XXYY=          -2212.6753 XXZZ=          -2281.2163 YYZZ=           -268.0282
 XXYZ=            -51.5098 YYXZ=             33.8669 ZZXY=            -18.3076
 N-N= 1.701704095561D+03 E-N=-7.264752335847D+03  KE= 1.623792730372D+03
 D1PCM: PCM CHGder 1st derivatives, ID1Alg=3 FixD1E=F DoIter=F DoCFld=F I1PDM=0.
 Calling FoFJK, ICntrl=      2127 FMM=F ISym2X=0 I1Cent= 0 IOpClX= 0 NMat=1 NMatS=1 NMatT=0.
 ***** Axes restored to original set *****
 -------------------------------------------------------------------
 Center     Atomic                   Forces (Hartrees/Bohr)
 Number     Number              X              Y              Z
 -------------------------------------------------------------------
      1        6           0.000848009   -0.002876392    0.001782599
      2       16          -0.005723416   -0.005979849   -0.009503077
      3        8          -0.004986812   -0.010413117    0.008929547
      4        8          -0.009007846    0.015875571   -0.003700414
      5        7           0.022732126    0.002091222    0.001121235
      6        1          -0.003703989    0.001088630    0.002336565
      7        6          -0.000087835   -0.000281762   -0.000781498
      8        6          -0.000626164    0.000356635    0.000215519
      9        6           0.000263679    0.000354013    0.001056166
     10        8           0.000643256   -0.000189923   -0.001514116
     11        6          -0.000029231    0.000019637   -0.000309347
     12        6          -0.000297826    0.000046537    0.000100481
     13       16           0.000029540    0.000040276    0.000166590
     14        1          -0.000074205   -0.000147940    0.000035876
     15        1           0.000007296    0.000017045    0.000011396
     16        6          -0.000015336    0.000005934   -0.000080614
     17        7          -0.000004247   -0.000007638    0.000071632
     18        6          -0.000000977    0.000003695    0.000022073
     19        6           0.000021241    0.000013107    0.000001442
     20        8           0.000025630    0.000008978    0.000004755
     21        6          -0.000016831   -0.000006420    0.000010564
     22        6          -0.000005690   -0.000021405   -0.000023710
     23        1          -0.000010062    0.000011009    0.000004069
     24        1          -0.000001594   -0.000013142    0.000029466
     25        1           0.000010054    0.000007333   -0.000001549
     26        1           0.000009403    0.000008421   -0.000000741
     27        1           0.000012112    0.000001422    0.000004747
     28        1           0.000007001   -0.000005962    0.000004366
     29        1          -0.000000156   -0.000005092   -0.000000274
     30        1          -0.000000474   -0.000002753    0.000000841
     31        1          -0.000006908    0.000002096   -0.000004896
     32        1          -0.000009750   -0.000000162    0.000010307
 -------------------------------------------------------------------
 Cartesian Forces:  Max     0.022732126 RMS     0.003650394

 GradGradGradGradGradGradGradGradGradGradGradGradGradGradGradGradGradGrad
 Berny optimization.
 FormGI is forming the generalized inverse of G from B-inverse, IUseBI=4.
 Internal  Forces:  Max     0.018555019 RMS     0.002925740
 Search for a local minimum.
 Step number   1 out of a maximum of  190
 All quantities printed in internal units (Hartrees-Bohrs-Radians)
 Mixed Optimization -- RFO/linear search
 Second derivative matrix not updated -- first step.
 ITU=  0
     Eigenvalues ---    0.00580   0.00796   0.00834   0.00855   0.01096
     Eigenvalues ---    0.01392   0.01485   0.01532   0.01595   0.01760
     Eigenvalues ---    0.01972   0.02055   0.02084   0.02199   0.02308
     Eigenvalues ---    0.02824   0.03205   0.03345   0.04604   0.04955
     Eigenvalues ---    0.05132   0.05202   0.05647   0.05874   0.06378
     Eigenvalues ---    0.06406   0.06545   0.08557   0.09081   0.09101
     Eigenvalues ---    0.09408   0.10152   0.10534   0.10857   0.11607
     Eigenvalues ---    0.11664   0.12189   0.13367   0.13375   0.14461
     Eigenvalues ---    0.15976   0.16000   0.16000   0.16000   0.16967
     Eigenvalues ---    0.17684   0.21161   0.21633   0.22012   0.23569
     Eigenvalues ---    0.23910   0.24966   0.24980   0.24997   0.24998
     Eigenvalues ---    0.25000   0.27409   0.28372   0.29079   0.30657
     Eigenvalues ---    0.32618   0.32641   0.33017   0.33071   0.33171
     Eigenvalues ---    0.33707   0.33710   0.34120   0.34264   0.34293
     Eigenvalues ---    0.34482   0.34562   0.34567   0.34862   0.35432
     Eigenvalues ---    0.35875   0.36361   0.37659   0.38941   0.40402
     Eigenvalues ---    0.40698   0.42328   0.43864   0.47586   0.49984
     Eigenvalues ---    0.51378   0.53775   0.60839   0.79619   0.82691
 RFO step:  Lambda=-8.55846586D-03 EMin= 5.80429295D-03
 Linear search not attempted -- first point.
 Iteration  1 RMS(Cart)=  0.02680742 RMS(Int)=  0.00105679
 Iteration  2 RMS(Cart)=  0.00108905 RMS(Int)=  0.00029715
 Iteration  3 RMS(Cart)=  0.00000211 RMS(Int)=  0.00029715
 Iteration  4 RMS(Cart)=  0.00000000 RMS(Int)=  0.00029715
 Variable       Old X    -DE/DX   Delta X   Delta X   Delta X     New X
                                 (Linear)    (Quad)   (Total)
    R1        3.37149  -0.00045   0.00000  -0.00159  -0.00159   3.36990
    R2        2.56611   0.00050   0.00000   0.00097   0.00097   2.56708
    R3        2.61331   0.00063   0.00000   0.00134   0.00134   2.61465
    R4        2.81821  -0.00853   0.00000  -0.01061  -0.01061   2.80761
    R5        2.80196   0.01213   0.00000   0.01451   0.01451   2.81648
    R6        2.93982   0.00224   0.00000   0.00363   0.00363   2.94345
    R7        1.93318  -0.00085   0.00000  -0.00190  -0.00190   1.93128
    R8        2.72429  -0.00086   0.00000  -0.00217  -0.00217   2.72212
    R9        2.04277   0.00004   0.00000   0.00012   0.00012   2.04290
   R10        2.59082   0.00044   0.00000   0.00083   0.00082   2.59164
   R11        2.71580   0.00003   0.00000   0.00009   0.00009   2.71589
   R12        2.55448  -0.00069   0.00000  -0.00126  -0.00126   2.55321
   R13        3.25151  -0.00014   0.00000  -0.00037  -0.00037   3.25114
   R14        2.57630  -0.00025   0.00000  -0.00050  -0.00050   2.57581
   R15        2.04979  -0.00002   0.00000  -0.00004  -0.00004   2.04975
   R16        3.34223   0.00020   0.00000   0.00064   0.00064   3.34287
   R17        2.83028  -0.00004   0.00000  -0.00013  -0.00013   2.83016
   R18        2.76821  -0.00003   0.00000  -0.00009  -0.00009   2.76812
   R19        2.08753  -0.00000   0.00000  -0.00000  -0.00000   2.08753
   R20        2.07127   0.00001   0.00000   0.00004   0.00004   2.07131
   R21        2.76979   0.00003   0.00000   0.00010   0.00010   2.76989
   R22        2.77016   0.00000   0.00000   0.00002   0.00002   2.77018
   R23        2.86686   0.00001   0.00000   0.00002   0.00002   2.86689
   R24        2.06839  -0.00000   0.00000  -0.00001  -0.00001   2.06838
   R25        2.09021   0.00000   0.00000   0.00000   0.00000   2.09022
   R26        2.69213  -0.00000   0.00000  -0.00001  -0.00001   2.69212
   R27        2.07828  -0.00000   0.00000  -0.00000  -0.00000   2.07828
   R28        2.06384   0.00000   0.00000   0.00000   0.00000   2.06384
   R29        2.69172   0.00001   0.00000   0.00001   0.00001   2.69173
   R30        2.86656   0.00001   0.00000   0.00003   0.00003   2.86659
   R31        2.07822  -0.00000   0.00000  -0.00001  -0.00001   2.07821
   R32        2.06393  -0.00000   0.00000  -0.00000  -0.00000   2.06392
   R33        2.06886  -0.00000   0.00000  -0.00001  -0.00001   2.06885
   R34        2.08927  -0.00000   0.00000  -0.00000  -0.00000   2.08927
    A1        2.31696  -0.00157   0.00000  -0.00597  -0.00599   2.31096
    A2        2.00573   0.00181   0.00000   0.00710   0.00708   2.01281
    A3        1.95926  -0.00023   0.00000  -0.00057  -0.00058   1.95868
    A4        1.79981   0.01327   0.00000   0.03870   0.03781   1.83763
    A5        1.78212  -0.00436   0.00000   0.00473   0.00295   1.78507
    A6        1.92339  -0.00252   0.00000  -0.00205  -0.00336   1.92004
    A7        2.00682  -0.00642   0.00000  -0.04197  -0.04082   1.96600
    A8        2.00596  -0.01755   0.00000  -0.10689  -0.10614   1.89982
    A9        1.92613   0.01856   0.00000   0.11543   0.11527   2.04141
   A10        1.88799  -0.00055   0.00000  -0.00326  -0.00326   1.88473
   A11        1.84071   0.00016   0.00000   0.00069   0.00069   1.84140
   A12        2.19526  -0.00010   0.00000  -0.00045  -0.00046   2.19480
   A13        2.24722  -0.00006   0.00000  -0.00025  -0.00026   2.24695
   A14        1.83371  -0.00005   0.00000  -0.00046  -0.00046   1.83325
   A15        2.51464  -0.00012   0.00000  -0.00040  -0.00040   2.51424
   A16        1.93471   0.00018   0.00000   0.00084   0.00084   1.93555
   A17        1.96993   0.00033   0.00000   0.00107   0.00106   1.97099
   A18        2.01057  -0.00023   0.00000  -0.00072  -0.00072   2.00985
   A19        2.30239  -0.00010   0.00000  -0.00034  -0.00034   2.30205
   A20        1.82116  -0.00020   0.00000  -0.00075  -0.00075   1.82041
   A21        1.95682  -0.00014   0.00000  -0.00069  -0.00069   1.95613
   A22        2.19030   0.00007   0.00000   0.00032   0.00032   2.19062
   A23        2.13606   0.00008   0.00000   0.00037   0.00037   2.13644
   A24        1.97523   0.00014   0.00000   0.00041   0.00041   1.97564
   A25        2.22324  -0.00010   0.00000  -0.00033  -0.00033   2.22291
   A26        2.08463  -0.00004   0.00000  -0.00007  -0.00007   2.08455
   A27        1.54741   0.00006   0.00000   0.00016   0.00016   1.54757
   A28        1.97960  -0.00011   0.00000  -0.00052  -0.00052   1.97909
   A29        1.86758   0.00003   0.00000  -0.00011  -0.00011   1.86747
   A30        1.92650   0.00001   0.00000   0.00007   0.00007   1.92657
   A31        1.93637  -0.00000   0.00000  -0.00025  -0.00025   1.93613
   A32        1.87853   0.00008   0.00000   0.00063   0.00063   1.87916
   A33        1.87287  -0.00000   0.00000   0.00020   0.00020   1.87307
   A34        1.92917  -0.00003   0.00000  -0.00045  -0.00045   1.92873
   A35        1.90089   0.00000   0.00000  -0.00019  -0.00019   1.90071
   A36        1.89211  -0.00000   0.00000  -0.00009  -0.00009   1.89202
   A37        1.92787   0.00002   0.00000   0.00025   0.00025   1.92813
   A38        1.91314   0.00001   0.00000   0.00008   0.00008   1.91322
   A39        1.92607  -0.00001   0.00000  -0.00014  -0.00014   1.92593
   A40        1.90259  -0.00001   0.00000  -0.00001  -0.00001   1.90258
   A41        1.90914  -0.00001   0.00000  -0.00016  -0.00016   1.90897
   A42        1.88435   0.00000   0.00000  -0.00002  -0.00002   1.88432
   A43        1.94142  -0.00001   0.00000  -0.00006  -0.00006   1.94136
   A44        1.92410   0.00001   0.00000   0.00010   0.00010   1.92420
   A45        1.92636  -0.00000   0.00000  -0.00010  -0.00010   1.92626
   A46        1.90545   0.00000   0.00000   0.00007   0.00007   1.90552
   A47        1.86328   0.00001   0.00000  -0.00003  -0.00003   1.86325
   A48        1.90187  -0.00000   0.00000   0.00002   0.00002   1.90189
   A49        1.92600   0.00001   0.00000   0.00001   0.00001   1.92601
   A50        1.93671   0.00001   0.00000   0.00013   0.00013   1.93684
   A51        1.90600  -0.00001   0.00000  -0.00006  -0.00006   1.90594
   A52        1.86411  -0.00001   0.00000  -0.00006  -0.00006   1.86405
   A53        1.92584   0.00001   0.00000   0.00002   0.00002   1.92586
   A54        1.92751  -0.00001   0.00000  -0.00004  -0.00004   1.92748
   A55        1.90234   0.00000   0.00000   0.00000   0.00000   1.90235
   A56        1.92920  -0.00001   0.00000  -0.00000  -0.00000   1.92920
   A57        1.90655   0.00000   0.00000   0.00003   0.00003   1.90658
   A58        1.92815  -0.00000   0.00000  -0.00010  -0.00010   1.92805
   A59        1.91093   0.00001   0.00000   0.00004   0.00004   1.91097
   A60        1.90304  -0.00000   0.00000   0.00003   0.00003   1.90307
   A61        1.88538  -0.00000   0.00000  -0.00000  -0.00000   1.88538
    D1       -2.17377  -0.00369   0.00000  -0.04087  -0.04109  -2.21486
    D2       -0.08682  -0.00738   0.00000  -0.07030  -0.07028  -0.15710
    D3        1.95982   0.01057   0.00000   0.06397   0.06417   2.02399
    D4        1.02649  -0.00400   0.00000  -0.05435  -0.05458   0.97191
    D5        3.11344  -0.00770   0.00000  -0.08379  -0.08377   3.02967
    D6       -1.12311   0.01026   0.00000   0.05049   0.05068  -1.07243
    D7       -3.08869  -0.00056   0.00000  -0.01862  -0.01858  -3.10727
    D8        0.05582  -0.00040   0.00000  -0.01297  -0.01294   0.04288
    D9       -0.00458  -0.00020   0.00000  -0.00521  -0.00520  -0.00979
   D10        3.13993  -0.00004   0.00000   0.00045   0.00044   3.14036
   D11        3.09716   0.00041   0.00000   0.01642   0.01648   3.11364
   D12        0.00211   0.00022   0.00000   0.00597   0.00597   0.00807
   D13       -0.68935  -0.00255   0.00000  -0.09582  -0.09627  -0.78562
   D14       -2.71334  -0.00653   0.00000  -0.07571  -0.07747  -2.79081
   D15        1.26578   0.00098   0.00000  -0.02814  -0.02593   1.23985
   D16        0.00514   0.00010   0.00000   0.00229   0.00229   0.00743
   D17       -3.11581   0.00011   0.00000   0.00353   0.00353  -3.11229
   D18       -3.13949  -0.00008   0.00000  -0.00359  -0.00358   3.14012
   D19        0.02275  -0.00006   0.00000  -0.00235  -0.00235   0.02040
   D20       -0.00418   0.00004   0.00000   0.00139   0.00138  -0.00279
   D21       -3.12260   0.00003   0.00000   0.00126   0.00126  -3.12134
   D22        3.12446   0.00003   0.00000   0.00060   0.00060   3.12505
   D23        0.00604   0.00002   0.00000   0.00047   0.00047   0.00651
   D24        3.11972  -0.00005   0.00000  -0.00204  -0.00204   3.11768
   D25       -0.02154  -0.00001   0.00000  -0.00072  -0.00072  -0.02226
   D26       -0.00054  -0.00003   0.00000  -0.00075  -0.00075  -0.00130
   D27        3.14139   0.00001   0.00000   0.00057   0.00057  -3.14123
   D28        0.00147  -0.00016   0.00000  -0.00439  -0.00439  -0.00292
   D29        3.11489  -0.00015   0.00000  -0.00424  -0.00424   3.11065
   D30       -0.00737  -0.00000   0.00000  -0.00007  -0.00007  -0.00744
   D31       -3.12027  -0.00002   0.00000  -0.00025  -0.00024  -3.12051
   D32       -0.00493   0.00003   0.00000   0.00071   0.00071  -0.00423
   D33        3.12256   0.00004   0.00000   0.00159   0.00159   3.12416
   D34        3.13633  -0.00001   0.00000  -0.00056  -0.00056   3.13577
   D35       -0.01936   0.00001   0.00000   0.00032   0.00032  -0.01903
   D36        0.00691  -0.00001   0.00000  -0.00037  -0.00037   0.00653
   D37       -3.12183  -0.00003   0.00000  -0.00118  -0.00118  -3.12300
   D38        2.09089  -0.00008   0.00000  -0.00315  -0.00315   2.08774
   D39       -0.05021  -0.00002   0.00000  -0.00243  -0.00243  -0.05263
   D40       -2.08272  -0.00004   0.00000  -0.00264  -0.00264  -2.08536
   D41       -1.06558  -0.00006   0.00000  -0.00221  -0.00221  -1.06779
   D42        3.07651  -0.00000   0.00000  -0.00149  -0.00149   3.07502
   D43        1.04399  -0.00002   0.00000  -0.00170  -0.00170   1.04229
   D44       -1.09883   0.00001   0.00000   0.00027   0.00027  -1.09856
   D45        3.10741   0.00003   0.00000   0.00076   0.00076   3.10816
   D46        1.00376  -0.00003   0.00000  -0.00041  -0.00041   1.00335
   D47       -1.07318  -0.00002   0.00000   0.00008   0.00008  -1.07311
   D48        3.04796   0.00001   0.00000   0.00007   0.00007   3.04802
   D49        0.97101   0.00003   0.00000   0.00055   0.00055   0.97156
   D50       -3.07778   0.00001   0.00000   0.00068   0.00068  -3.07711
   D51        1.10864   0.00001   0.00000   0.00048   0.00048   1.10913
   D52       -0.96448   0.00001   0.00000   0.00054   0.00054  -0.96394
   D53       -0.99551  -0.00000   0.00000   0.00013   0.00013  -0.99538
[...]
 0186,-0.00000277,0.00000908,0.00000035,0.00000077,-0.00000070,0.000006
 64,-0.00000159,-0.00001037,0.00000666,0.00000339,0.00002409,-0.0000147
 0,0.00000947,-0.00000646,-0.00000789,0.00000471,0.00003451,0.00002302,
 -0.00002725,-0.00001682,-0.00007527,-0.00006350,-0.00005397,-0.0000259
 5,-0.00003244,0.00000206,-0.00000107,0.00000012,0.00000096,0.00000522,
 0.00000389,0.00000028,0.00054067,0.00003219,0.00029911,0.00174324,0.00
 108685,-0.00039176,-0.02029505,0.00086035,-0.01139494,-0.23846093,-0.0
 0325879,-0.11400978,0.01188103,0.00164627,0.00473519,0.00239759,-0.001
 03425,0.00156102,-0.00009159,0.00021564,0.00006253,0.00010211,0.000210
 26,-0.00005856,-0.00000560,-0.00010022,0.00006155,0.00054223,0.0002913
 2,0.00002407,-0.00223353,-0.00368208,0.00188544,0.25328694,0.00000627,
 -0.00000111,0.00000643,0.00000090,-0.00000005,-0.00000816,0.00000087,0
 .00000091,0.00000260,-0.00000170,0.00000019,0.00000158,0.00000041,-0.0
 0000153,0.00000280,-0.00000002,0.00000023,-0.00000042,0.00000235,-0.00
 000012,-0.00000464,0.00000438,-0.00000285,0.00000907,-0.00000407,0.000
 00770,0.00000063,-0.00000446,0.00000076,0.00001081,0.00002133,-0.00001
 618,-0.00001361,-0.00002345,-0.00000410,0.00003061,0.00000185,0.000010
 61,-0.00000445,-0.00000018,0.00000018,0.00000024,0.00000230,0.00000428
 ,-0.00000359,-0.00011459,0.00003419,0.00013251,-0.00056783,0.00153908,
 -0.00098755,-0.01995386,-0.00086334,-0.01034563,-0.00093570,-0.0561536
 5,0.00023833,-0.00470814,0.00052657,-0.00950024,-0.00245494,0.00107222
 ,-0.00171005,-0.00003201,-0.00027433,0.00002133,0.00015899,-0.00008990
 ,0.00008375,0.00009534,-0.00004949,0.00003327,0.00074372,0.00062480,0.
 00002492,-0.00269553,-0.00208931,0.00153929,0.00587590,0.05224711,-0.0
 0000082,0.00000194,0.00000348,-0.00000037,-0.00000254,-0.00000658,0.00
 000129,0.00000168,0.00000194,-0.00000099,0.00000065,0.00000143,0.00000
 040,-0.00000043,0.00000180,0.00000024,0.00000009,-0.00000014,0.0000007
 9,0.00000110,0.00000058,-0.00000329,-0.00000103,-0.00000296,0.00000289
 ,-0.00000551,-0.00000644,0.00000070,0.00000124,0.00000568,0.00000344,-
 0.00001147,0.00001889,-0.00003587,-0.00002166,0.00001646,-0.00002712,-
 0.00004106,0.00001736,-0.00000027,0.00000010,0.00000036,-0.00000004,0.
 00000159,0.00000187,0.00013344,0.00001903,-0.00004378,0.00012368,-0.00
 070701,0.00014716,0.01143906,0.00136469,0.00834843,-0.11220763,-0.0026
 6265,-0.11408093,-0.02149283,-0.00876328,-0.04116176,-0.00293489,0.004
 72002,0.00066275,0.00060911,-0.00044536,-0.00020295,-0.00009269,0.0000
 5427,-0.00005561,-0.00005898,0.00001538,-0.00001951,-0.00059891,-0.000
 74345,0.00062158,0.00180896,0.00261883,-0.00017324,0.12356938,0.004692
 44,0.14382426,0.00001527,-0.00000054,0.00003089,0.00000675,-0.00000393
 ,-0.00003558,0.00000350,0.00000560,0.00001009,-0.00000910,0.00000250,0
 .00000722,0.00000047,-0.00000530,0.00001141,0.00000071,0.00000105,-0.0
 0000097,0.00000814,-0.00000016,-0.00001622,-0.00000326,0.00000787,0.00
 004118,-0.00001890,-0.00000762,-0.00000707,-0.00001840,0.00000468,0.00
 004184,0.00000379,0.00001977,0.00000797,-0.00000993,-0.00001025,-0.000
 14664,-0.00000821,0.00001000,-0.00001106,-0.00000108,0.00000032,0.0000
 0211,0.00000157,-0.00000384,0.00000097,0.00096373,-0.00101930,-0.00018
 220,-0.00309087,-0.00299410,0.00233957,0.01055541,-0.02087816,-0.00009
 269,-0.09814232,0.10171975,-0.00636474,-0.00375916,0.00907115,0.002596
 34,0.00067560,-0.00100448,0.00208431,-0.00039924,0.00028509,0.00052315
 ,-0.00006109,0.00004395,-0.00005238,-0.00029847,-0.00040764,0.00013489
 ,0.00065621,0.00091059,-0.00015517,0.00084133,0.00058372,-0.00062595,-
 0.00890912,0.02424861,-0.00138227,0.10067906,0.00002747,0.00000013,0.0
 0005738,0.00001124,-0.00001352,-0.00006671,0.00000786,0.00001363,0.000
 01903,-0.00001756,0.00000654,0.00001356,0.00000071,-0.00000766,0.00002
 127,0.00000140,0.00000154,-0.00000196,0.00001362,-0.00000295,-0.000028
 18,-0.00000628,0.00002468,0.00006769,-0.00002497,-0.00001014,-0.000021
 21,-0.00003358,0.00000980,0.00008010,0.00003562,-0.00001422,0.00000417
 ,-0.00006530,-0.00003615,-0.00017497,-0.00002317,0.00002190,-0.0000338
 3,-0.00000297,0.00000047,0.00000396,0.00000176,-0.00000746,0.00000049,
 0.00110937,-0.00064674,-0.00067163,-0.00416911,-0.00189381,0.00240108,
 0.01041067,-0.01715331,0.00120544,0.10048892,-0.28225662,0.01225725,0.
 00472046,-0.00747899,-0.00466645,-0.00083524,0.00247907,-0.00174220,0.
 00005558,0.00053067,0.00068585,-0.00015427,-0.00003786,-0.00002350,-0.
 00029541,-0.00038740,0.00013785,0.00005645,0.00043387,0.00015409,0.000
 12606,0.00072138,-0.00059451,-0.00072755,0.00310542,0.00075101,-0.1110
 0240,0.30333041,-0.00001980,0.00000052,-0.00003758,-0.00000700,0.00000
 817,0.00004297,-0.00000526,-0.00000891,-0.00001216,0.00001107,-0.00000
 411,-0.00000864,-0.00000043,0.00000525,-0.00001357,-0.00000089,-0.0000
 0107,0.00000123,-0.00000821,0.00000316,0.00001987,-0.00000011,-0.00001
 602,-0.00004552,0.00002131,0.00000358,0.00001280,0.00002255,-0.0000043
 7,-0.00005491,-0.00002134,0.00001480,-0.00000139,0.00002146,-0.0000150
 0,0.00008731,0.00000798,-0.00002281,0.00002561,0.00000169,-0.00000037,
 -0.00000249,-0.00000150,0.00000364,-0.00000015,-0.00046101,0.00065790,
 0.00076063,0.00284963,0.00297375,-0.00083426,-0.00811357,0.00906278,0.
 00077147,-0.01091558,0.02341718,-0.05038771,0.01887162,-0.03969036,-0.
 00701682,0.00041026,0.00099810,-0.00590265,0.00054853,-0.00027360,-0.0
 0082347,0.00014355,0.00009923,-0.00002279,0.00022449,0.00026722,-0.000
 12195,-0.00049722,-0.00034760,0.00024855,0.00023560,-0.00047189,0.0003
 6485,-0.00540044,0.01512651,0.00109221,0.00129732,-0.00980158,0.061470
 90,0.00000706,0.00000369,0.00001763,-0.00000089,-0.00000291,-0.0000219
 8,0.00000413,0.00000424,0.00000659,-0.00000334,0.00000097,0.00000485,0
 .00000124,-0.00000334,0.00000664,0.00000025,0.00000050,-0.00000050,0.0
 0000534,0.00000091,-0.00000804,-0.00000541,-0.00000569,0.00002311,-0.0
 0000495,-0.00000148,0.00000514,-0.00000914,0.00000543,0.00002626,0.000
 01816,-0.00000192,-0.00000431,-0.00002904,-0.00003874,0.00007966,-0.00
 002767,0.00000601,-0.00000368,-0.00000081,0.00000006,0.00000084,0.0000
 0045,0.00000108,-0.00000286,0.00041573,-0.00000772,0.00020943,0.001015
 34,0.00115777,-0.00079681,0.00003461,0.00012291,0.00024170,0.00069188,
 -0.00099154,-0.00186249,-0.01308442,0.01506803,-0.00540011,-0.23553990
 ,-0.00592691,-0.10994108,-0.01842312,-0.00227541,-0.01263102,0.0001316
 8,0.00008635,-0.00006128,-0.00001815,-0.00000802,-0.00001475,-0.000096
 79,-0.00002147,0.00008471,-0.00005962,-0.00007084,-0.00015923,-0.00032
 452,0.00012476,0.00086505,0.00019308,0.00011359,0.00035930,0.25933884,
 -0.00000140,0.00000273,0.00000397,-0.00000020,-0.00000085,-0.00000527,
 0.00000109,0.00000104,0.00000168,-0.00000099,0.00000022,0.00000142,0.0
 0000016,-0.00000065,0.00000139,-0.00000002,0.00000022,-0.00000009,0.00
 000046,0.00000286,0.00000026,-0.00001107,-0.00000841,0.00000131,0.0000
 1235,-0.00000869,0.00000588,-0.00000384,0.00000397,0.00000817,-0.00000
 294,0.00001564,0.00000682,0.00004013,-0.00001007,0.00005538,-0.0000156
 8,0.00000614,0.00001381,-0.00000034,-0.00000022,0.00000043,-0.00000085
 ,0.00000161,-0.00000194,0.00021117,-0.00004976,0.00011898,0.00110214,0
 .00069506,-0.00067827,-0.00003792,-0.00046677,-0.00062076,0.00034946,0
 .00179974,0.00558804,0.03873741,-0.01838997,0.01490982,-0.00676694,-0.
 04753606,-0.00508058,-0.02091323,0.00027850,-0.01251931,0.00012382,0.0
 0006410,0.00001436,0.00000644,0.00000082,-0.00002103,0.00006569,0.0002
 6184,-0.00009210,-0.00005414,-0.00008875,-0.00005126,-0.00118890,0.000
 42147,-0.00057975,-0.00027902,-0.00007012,-0.00018570,-0.00357476,0.06
 333286,0.00000334,0.00000189,0.00000940,0.00000090,-0.00000110,-0.0000
 1289,0.00000189,0.00000210,0.00000380,-0.00000218,0.00000034,0.0000025
 2,0.00000048,-0.00000213,0.00000432,0.00000020,0.00000033,-0.00000040,
 0.00000407,0.00000180,-0.00000392,0.00000010,0.00000525,0.00001509,-0.
 00001582,-0.00000679,-0.00000292,-0.00000316,0.00000118,0.00000609,0.0
 0000468,-0.00000441,0.00001063,-0.00009899,-0.00004901,-0.00008441,-0.
 00000311,0.00000263,-0.00001374,-0.00000040,0.00000011,0.00000026,-0.0
 0000013,-0.00000151,0.00000171,0.00026817,0.00018396,0.00020234,0.0006
 6265,0.00008461,0.00170913,0.00019075,0.00010410,-0.00011373,0.0026256
 6,-0.00074392,0.00169863,0.00028881,0.00312183,0.00282672,-0.11348542,
 -0.00316453,-0.12556100,0.01136636,0.00085804,0.00533679,-0.00003098,0
 .00004327,-0.00022727,-0.00002516,0.00001756,0.00002441,-0.00005128,0.
 00001372,-0.00003282,-0.00015650,-0.00010884,-0.00018922,-0.00077737,0
 .00050105,0.00072185,0.00002096,0.00010454,0.00020928,0.12422070,-0.00
 120319,0.12641143,0.00002474,-0.00000217,0.00005101,0.00001017,-0.0000
 0864,-0.00006043,0.00000656,0.00001006,0.00001701,-0.00001493,0.000004
 57,0.00001227,0.00000090,-0.00000936,0.00002038,0.00000118,0.00000170,
 -0.00000181,0.00001617,0.00000151,-0.00002322,-0.00001687,0.00004498,0
 .00007102,-0.00003789,-0.00001288,-0.00001293,-0.00002570,0.00001666,0
 .00007025,0.00004787,-0.00000683,0.00006730,-0.00042381,-0.00027749,0.
 00003440,-0.00001710,0.00001642,-0.00003199,-0.00000219,0.00000049,0.0
 0000323,-0.00000063,-0.00001465,-0.00000165,0.00033108,0.00067897,0.00
 105074,-0.00209154,-0.00386215,0.00085472,0.00036189,-0.00031188,-0.00
 016688,-0.00019472,0.00185046,-0.00139225,-0.00399905,0.00771272,0.015
 63061,-0.06113942,0.00652354,0.04185343,-0.00353143,0.00442284,0.02138
 956,-0.00006721,0.00003613,-0.00006579,0.00001047,-0.00000048,0.000023
 37,-0.00007197,-0.00002117,0.00006428,-0.00008523,0.00003738,-0.000057
 06,0.00015583,0.00005835,0.00047907,0.00006116,0.00022685,0.00069486,0
 .00722672,-0.00493446,-0.02590352,0.06223075,0.00003281,-0.00000294,0.
 00006012,0.00001163,-0.00001242,-0.00007062,0.00000781,0.00001247,0.00
 001965,-0.00001767,0.00000588,0.00001436,0.00000102,-0.00001038,0.0000
 2405,0.00000143,0.00000205,-0.00000218,0.00001960,0.00000314,-0.000029
 48,-0.00000970,0.00006423,0.00008387,-0.00004950,-0.00002095,-0.000014
 35,-0.00003245,0.00002056,0.00008906,0.00003933,0.00000747,0.00007642,
 -0.00045615,-0.00035739,0.00000376,-0.00001168,0.00002184,-0.00002946,
 -0.00000256,0.00000071,0.00000379,-0.00000072,-0.00002878,0.00000166,-
 0.00021019,0.00103435,0.00104563,-0.00419149,-0.00376406,0.00226612,0.
 00015107,-0.00115729,-0.00034968,0.00202292,-0.00516327,0.00296560,0.0
 1105439,-0.01584627,-0.03852456,0.00551134,-0.05630246,-0.03829833,-0.
 00144989,0.00738209,0.02115255,-0.00017058,-0.00006540,0.00000430,0.00
 005083,-0.00000412,-0.00001104,0.00006139,0.00031963,-0.00003578,-0.00
 004052,0.00018344,-0.00001032,-0.00021568,0.00003355,-0.00014914,0.000
 69537,-0.00051797,-0.00173616,-0.00079817,0.00130406,-0.00068948,-0.01
 313816,0.07160833,-0.00002260,0.00000021,-0.00004535,-0.00001017,0.000
 00653,0.00005654,-0.00000561,-0.00000900,-0.00001623,0.00001443,-0.000
 00397,-0.00001174,-0.00000069,0.00000877,-0.00001854,-0.00000109,-0.00
 000142,0.00000161,-0.00001382,-0.00000160,0.00002089,0.00001177,-0.000
 02988,-0.00005503,0.00002285,0.00001515,0.00001595,0.00002604,-0.00001
 298,-0.00006963,-0.00003536,0.00001966,-0.00005178,0.00025887,0.000153
 25,0.00002965,0.00002005,-0.00001660,0.00001882,0.00000205,-0.00000101
 ,-0.00000297,-0.00000140,0.00001323,-0.00000129,0.00002490,-0.00087569
 ,-0.00029005,0.00209625,0.00256124,0.00003477,-0.00051623,0.00046511,0
 .00012723,-0.00007704,-0.00000196,0.00261466,0.00065630,-0.00274939,0.
 00171805,0.04889722,-0.04825980,-0.31352084,-0.00082419,-0.00276230,-0
 .00955747,0.00016157,0.00007692,-0.00001935,-0.00000912,0.00000114,-0.
 00000324,0.00002974,-0.00004653,-0.00006961,0.00008203,-0.00005712,0.0
 0001886,-0.00000855,0.00006975,0.00013345,0.00016145,0.00001066,-0.000
 19081,0.00283322,-0.00189392,-0.01322215,-0.05389219,0.05321438,0.3316
 5601,-0.00000506,-0.00000011,-0.00000455,0.00000003,0.00000140,0.00000
 088,-0.00000086,-0.00000091,-0.00000115,0.00000072,-0.00000078,0.00000
 028,-0.00000009,-0.00000054,-0.00000025,-0.00000019,-0.00000003,0.0000
 0009,-0.00000263,0.00001052,0.00000245,0.00000147,0.00000039,-0.000020
 45,0.00001357,-0.00001459,-0.00001244,0.00000038,0.00000342,-0.0000007
 2,-0.00001820,0.00000046,-0.00001395,0.00005608,-0.00011447,-0.0001227
 9,-0.00002331,-0.00000124,0.00001611,0.00000013,0.00000045,0.00000047,
 -0.00000143,-0.00000928,0.00000278,0.00000452,0.00116860,-0.00000148,-
 0.00288076,0.00606321,0.00166350,0.00034174,-0.00017873,0.00248443,-0.
 00059103,0.00017145,0.00113140,-0.00167353,-0.00628700,0.00167951,0.01
 066543,-0.01776953,-0.00248903,-0.09790221,0.10263251,0.00135826,-0.00
 011902,0.00005450,-0.00015776,-0.00022136,-0.00026456,0.00042408,0.000
 13468,0.00070084,0.00009174,0.00020046,-0.00047148,-0.00003993,0.00002
 669,0.00001034,-0.00015602,0.00006268,0.00001259,-0.00019443,0.0006185
 8,0.00081006,-0.00064797,0.00062695,0.00085472,-0.00000870,0.10093736,
 -0.00001852,0.00000037,-0.00004075,-0.00000617,0.00000350,0.00004605,-
 0.00000451,-0.00000622,-0.00001288,0.00001066,-0.00000211,-0.00000925,
 -0.00000145,0.00000797,-0.00001530,-0.00000068,-0.00000134,0.00000142,
 -0.00000955,-0.00000895,0.00002882,-0.00003372,-0.00003661,-0.00006553
 ,0.00004899,0.00001981,0.00000605,0.00001996,-0.00000679,-0.00004020,-
 0.00003806,0.00005029,0.00010562,-0.00010846,0.00044877,-0.00014903,0.
 00005180,-0.00002136,-0.00006399,0.00000157,-0.00000028,-0.00000220,-0
 .00000221,0.00000454,-0.00000354,-0.00106641,0.00080633,0.00126714,0.0
 0285311,-0.00801736,-0.00317903,-0.00034019,0.00208084,-0.00174785,0.0
 0002771,0.00083053,0.00124521,-0.00322797,-0.00496653,0.00138891,0.011
 59483,-0.01633622,-0.00136851,0.10141934,-0.27354203,-0.00395721,0.000
 13974,-0.00014943,-0.00008332,0.00041377,0.00045526,0.00000695,0.00020
 604,-0.00046933,0.00016100,0.00016422,-0.00004273,0.00009781,-0.000029
 04,-0.00007236,-0.00016510,-0.00000185,-0.00012587,-0.00008208,-0.0000
 3839,0.00083859,-0.00043704,0.00005534,0.00058009,0.00019030,-0.111585
 12,0.29598023,-0.00000863,0.00000303,-0.00000962,-0.00000124,-0.000000
 70,0.00001488,-0.00000158,-0.00000181,-0.00000382,0.00000214,-0.000000
 40,-0.00000299,-0.00000018,0.00000296,-0.00000458,-0.00000019,-0.00000
 042,0.00000010,0.00000129,0.00000338,0.00001112,-0.00003303,-0.0000141
 9,0.00000550,0.00000270,0.00000548,0.00001053,0.00000863,-0.00000115,-
 0.00002850,0.00000913,-0.00001768,0.00007620,-0.00033872,-0.00001774,0
 .00015773,0.00000861,-0.00002137,0.00002470,0.00000018,-0.00000125,-0.
 00000086,0.00000099,0.00001859,-0.00000655,-0.00016024,-0.00218245,0.0
 0085213,0.01541543,-0.03489391,-0.00619771,0.00195589,0.00043649,-0.00
 607519,0.00060364,0.00008425,-0.00125080,0.00213824,0.00483014,0.00033
 149,-0.00811215,0.00782843,0.00062441,-0.00125902,0.00404573,-0.048423
 74,0.00010364,0.00029916,-0.00012562,0.00003213,0.00060607,-0.00022252
 ,0.00071246,-0.00174135,-0.00015933,0.00031969,-0.00023697,0.00015178,
 -0.00014059,0.00003271,0.00017738,-0.00011927,-0.00002256,0.00023461,0
 .00017138,-0.00043551,0.00031362,-0.00046108,-0.00040230,0.00005680,-0
 .00473300,0.00630390,0.05849687,-0.00002333,0.00000210,-0.00003138,-0.
 00001316,0.00000830,0.00004752,-0.00000312,-0.00000780,-0.00001370,0.0
 0001399,-0.00000354,-0.00000941,0.00000038,0.00000790,-0.00001614,-0.0
 0000093,-0.00000128,0.00000145,-0.00000819,-0.00001312,0.00001674,0.00
 002784,0.00000168,-0.00003364,0.00003793,-0.00001929,0.00011348,-0.000
 00035,-0.00001750,-0.00008159,-0.00000350,-0.00003157,-0.00011021,0.00
 030565,0.00012209,0.00021632,-0.00010817,0.00000749,-0.00005148,0.0000
 0217,-0.00000218,-0.00000487,-0.00000670,0.00002746,-0.00000765,0.0037
 2022,0.00027801,0.00264728,0.00603474,-0.00084402,0.00042971,0.0024167
 4,-0.00066260,0.00172300,0.00018945,0.00014248,0.00014894,0.00287840,0
 .00050811,-0.00000090,-0.02089724,0.00202055,-0.01189935,-0.21936211,0
 .00042924,-0.10632387,0.00013230,0.00094839,-0.00166883,-0.00025754,0.
 00001408,-0.00016744,0.00003956,-0.00018389,-0.00010907,-0.00023316,-0
 .00134200,-0.00073274,-0.00028375,0.00013980,-0.00004451,0.00000068,-0
 .00006240,-0.00007443,-0.00207531,-0.00367368,0.00154225,0.00060724,0.
 00027945,0.00012801,-0.01025179,-0.00049476,-0.00611725,0.23712104,-0.
 00000136,0.00000244,-0.00002401,-0.00000547,0.00000288,0.00003002,-0.0
 0000349,-0.00000515,-0.00000917,0.00000711,-0.00000252,-0.00000575,-0.
 00000066,0.00000419,-0.00000940,-0.00000074,-0.00000070,0.00000081,-0.
 00000336,-0.00000290,0.00001443,0.00000039,-0.00001400,-0.00004157,0.0
 0003480,0.00002756,0.00003375,0.00000521,0.00000634,-0.00002119,-0.000
 00997,0.00002349,0.00000844,0.00010783,-0.00008608,0.00002123,-0.00004
 311,-0.00003157,0.00000006,0.00000119,-0.00000048,-0.00000241,-0.00000
 383,-0.00000429,0.00000032,0.00041398,0.00021685,0.00112308,-0.0058664
 2,0.00008330,-0.00746399,-0.00238384,0.00109505,-0.00175560,0.00004963
 ,-0.00015180,-0.00007501,0.00042245,0.00247670,-0.00027087,-0.02049780
 ,-0.00158349,-0.01135888,0.00227678,-0.05338972,0.00049804,0.00027364,
 0.00005335,0.00003794,0.00025600,-0.00013372,-0.00016319,0.00012397,0.
 00004413,0.00006977,0.00012065,0.00046763,0.00040886,0.00012009,-0.000
 01093,0.00005541,0.00000855,-0.00001871,0.00001985,-0.00292899,-0.0024
 0115,0.00136362,0.00090135,0.00066982,-0.00008312,0.02420293,0.0016983
 7,0.01549145,0.00242248,0.05096512,-0.00001936,-0.00000693,-0.00013621
 ,-0.00002872,0.00001518,0.00017077,-0.00001702,-0.00002689,-0.00004764
 ,0.00004278,-0.00001139,-0.00003481,-0.00000293,0.00002473,-0.00005428
 ,-0.00000321,-0.00000438,0.00000515,-0.00002267,-0.00001219,0.00005817
 ,0.00003583,-0.00008750,-0.00016743,0.00008747,0.00017532,0.00013251,0
 .00005617,0.00000384,-0.00012976,-0.00001277,0.00008166,0.00000149,0.0
 0061243,0.00000741,0.00034382,0.00006320,-0.00016548,0.00022367,0.0000
 0636,-0.00000313,-0.00001069,0.00000806,0.00000843,-0.00001128,-0.0041
 6035,-0.00320206,0.00074022,-0.02167928,-0.00463868,-0.04009237,-0.002
 13653,0.00416294,0.00069186,0.00048566,-0.00019480,-0.00029859,-0.0006
 5041,-0.00110028,-0.00008613,0.01184303,0.00063975,0.00746812,-0.10919
 876,-0.00009292,-0.11630243,0.00137281,0.00038201,0.00055908,0.0001680
 0,0.00017878,-0.00005956,0.00056083,-0.00002812,0.00015192,0.00104844,
 -0.00064210,0.00093027,-0.00000723,0.00001771,-0.00004501,-0.00011945,
 -0.00012614,0.00013457,0.00175194,0.00263696,-0.00004356,-0.00031672,-
 0.00067243,0.00064278,-0.00025136,0.00057360,0.00097197,0.12048377,0.0
 0210710,0.14429341\\0.00002391,-0.00002424,-0.00000839,-0.00004687,-0.
 00002049,0.00002157,0.00004362,-0.00002459,-0.00000254,-0.00002494,-0.
 00005049,-0.00001931,0.00005539,0.00008747,0.00000498,-0.00000866,0.00
 001884,-0.00000581,0.00000172,0.00001130,-0.00000745,-0.00000645,-0.00
 000630,-0.00000467,-0.00000646,-0.00002496,0.00002177,0.00000248,0.000
 04114,0.00001369,0.00001700,0.00003558,-0.00000145,-0.00000635,-0.0000
 2696,0.00001379,-0.00000448,0.00001125,-0.00000031,-0.00000118,-0.0000
 0875,0.00000280,-0.00000069,-0.00001411,-0.00000029,0.00000167,-0.0000
 0606,0.00000396,-0.00000448,0.00000553,-0.00000853,0.00000155,0.000003
 83,-0.00000002,-0.00001017,0.00000124,-0.00000195,-0.00000633,-0.00000
 416,-0.00000287,-0.00000229,0.00000325,-0.00000742,0.00000072,0.000000
 02,0.00000614,0.00000187,-0.00001484,-0.00000039,0.00001228,0.00000398
 ,0.00000040,-0.00000617,0.00000037,-0.00000522,-0.00000788,-0.00000827
 ,-0.00000204,-0.00000931,0.00000848,-0.00000647,-0.00001217,-0.0000009
 7,-0.00000506,-0.00000348,0.00000771,-0.00000064,-0.00000129,0.0000008
 0,-0.00000148,0.00000490,-0.00000054,0.00000250,0.00000252,-0.00000507
 ,0.00000071\\\@
 The archive entry for this job was punched.


 SUCCESS IS NEVER CERTAIN,
 FAILURE IS NEVER FINAL.
 Job cpu time:       0 days  3 hours 27 minutes 32.6 seconds.
 Elapsed time:       0 days  0 hours 13 minutes  1.6 seconds.
 File lengths (MBytes):  RWF=    667 Int=      0 D2E=      0 Chk=     21 Scr=      1
 Normal termination of Gaussian 16 at Fri May 27 00:41:09 2022.
