 Entering Gaussian System, Link 0=g16
 AtFile(1): /home/561/yj5695/Basis/6-31pGd.gbs
 Initial command:
 /apps/gaussian/g16c01/g16/l1.exe "/jobfs/41479872.gadi-pbs/Gau-4174415.inp" -scrdir="/jobfs/41479872.gadi-pbs/"
 Entering Link 1 = /apps/gaussian/g16c01/g16/l1.exe PID=   4174416.
  
 Copyright (c) 1988-2019, Gaussian, Inc.  All Rights Reserved.
  
 This is part of the Gaussian(R) 16 program.  It is based on
 the Gaussian(R) 09 system (copyright 2009, Gaussian, Inc.),
 the Gaussian(R) 03 system (copyright 2003, Gaussian, Inc.),
 the Gaussian(R) 98 system (copyright 1998, Gaussian, Inc.),
 the Gaussian(R) 94 system (copyright 1995, Gaussian, Inc.),
 the Gaussian 92(TM) system (copyright 1992, Gaussian, Inc.),
 the Gaussian 90(TM) system (copyright 1990, Gaussian, Inc.),
 the Gaussian 88(TM) system (copyright 1988, Gaussian, Inc.),
 the Gaussian 86(TM) system (copyright 1986, Carnegie Mellon
 University), and the Gaussian 82(TM) system (copyright 1983,
 Carnegie Mellon University). Gaussian is a federally registered
 trademark of Gaussian, Inc.
  
 This software contains proprietary and confidential information,
 including trade secrets, belonging to Gaussian, Inc.
  
 This software is provided under written license and may be
 used, copied, transmitted, or stored only in accord with that
 written license.
  
 The following legend is applicable only to US Government
 contracts under FAR:
  
                    RESTRICTED RIGHTS LEGEND
  
 Use, reproduction and disclosure by the US Government is
 subject to restrictions as set forth in subparagraphs (a)
 and (c) of the Commercial Computer Software - Restricted
 Rights clause in FAR 52.227-19.
  
 Gaussian, Inc.
 340 Quinnipiac St., Bldg. 40, Wallingford CT 06492
  
  
 ---------------------------------------------------------------
 Warning -- This program may not be used in any manner that
 competes with the business of Gaussian, Inc. or will provide
 assistance to any competitor of Gaussian, Inc.  The licensee
 of this program is prohibited from giving any competitor of
 Gaussian, Inc. access to this program.  By using this program,
 the user acknowledges that Gaussian, Inc. is engaged in the
 business of creating and licensing software in the field of
 computational chemistry and represents and warrants to the
 licensee that it is not a competitor of Gaussian, Inc. and that
 it will not use this program in any manner prohibited above.
 ---------------------------------------------------------------
  

 Cite this work as:
 Gaussian 16, Revision C.01,
 M. J. Frisch, G. W. Trucks, H. B. Schlegel, G. E. Scuseria, 
 M. A. Robb, J. R. Cheeseman, G. Scalmani, V. Barone, 
 G. A. Petersson, H. Nakatsuji, X. Li, M. Caricato, A. V. Marenich, 
 J. Bloino, B. G. Janesko, R. Gomperts, B. Mennucci, H. P. Hratchian, 
 J. V. Ortiz, A. F. Izmaylov, J. L. Sonnenberg, D. Williams-Young, 
 F. Ding, F. Lipparini, F. Egidi, J. Goings, B. Peng, A. Petrone, 
 T. Henderson, D. Ranasinghe, V. G. Zakrzewski, J. Gao, N. Rega, 
 G. Zheng, W. Liang, M. Hada, M. Ehara, K. Toyota, R. Fukuda, 
 J. Hasegawa, M. Ishida, T. Nakajima, Y. Honda, O. Kitao, H. Nakai, 
 T. Vreven, K. Throssell, J. A. Montgomery, Jr., J. E. Peralta, 
 F. Ogliaro, M. J. Bearpark, J. J. Heyd, E. N. Brothers, K. N. Kudin, 
 V. N. Staroverov, T. A. Keith, R. Kobayashi, J. Normand, 
 K. Raghavachari, A. P. Rendell, J. C. Burant, S. S. Iyengar, 
 J. Tomasi, M. Cossi, J. M. Millam, M. Klene, C. Adamo, R. Cammi, 
 J. W. Ochterski, R. L. Martin, K. Morokuma, O. Farkas, 
 J. B. Foresman, and D. J. Fox, Gaussian, Inc., Wallingford CT, 2019.
 
 ******************************************
 Gaussian 16:  ES64L-G16RevC.01  3-Jul-2019
                27-May-2022 
 ******************************************
 %nproc=16
 Will use up to   16 processors via shared memory.
 %mem=60gb
 -----------------------------------------------------
 #m062X/gen 6D OPT Freq=noraman SCRF=(SMD,Solvent=h2o)
 -----------------------------------------------------
 1/18=20,19=15,26=3,38=1/1,3;
 2/9=110,12=2,17=6,18=5,40=1/2;
 3/5=7,8=2,11=2,25=1,30=1,70=32201,71=1,72=1,74=-55/1,2,3;
 4//1;
 5/5=2,38=5,53=1/2;
 6/7=2,8=2,9=2,10=2,28=1/1;
 7//1,2,3,16;
 1/18=20,19=15,26=3/3(2);
 2/9=110/2;
 99//99;
 2/9=110/2;
 3/5=7,6=1,8=2,11=2,25=1,30=1,70=32205,71=1,72=1,74=-55,82=7/1,2,3;
 4/5=5,16=3,69=1/1;
 5/5=2,38=5,53=1/2;
 7//1,2,3,16;
 1/18=20,19=15,26=3/3(-5);
 2/9=110/2;
 6/7=2,8=2,9=2,10=2,19=2,28=1/1;
 99/9=1/99;
 ---------------
 A.22.smd.a3.smd
 ---------------
 Symbolic Z-matrix:
 Charge = -1 Multiplicity = 1
 C                    -1.40605   1.20844  -0.42253 
 S                    -1.5468    0.68227   1.29411 
 O                    -2.56575   1.62196   1.83556 
 O                    -1.99321  -0.72824   1.18012 
 N                    -0.14887   0.73521   1.97191 
 H                     0.08294   1.71531   2.15339 
 S                    -2.77898   1.88988  -1.21907 
 C                    -1.88654   1.90125  -2.71349 
 C                    -0.59138   1.43334  -2.58377 
 C                    -0.33077   1.01939  -1.23349 
 S                    -2.52345   2.55265  -4.19303 
 N                     0.34834   1.43545  -3.58215 
 H                     0.6191    0.61014  -0.90567 
 C                    -0.99413   2.81922  -5.118 
 C                    -0.12157   1.57496  -4.95356 
 O                    -3.34774   1.55423  -4.90467 
 O                    -3.19078   3.841    -3.91589 
 C                    -1.35224   3.12531  -6.5777 
 C                    -0.35387   4.07025  -7.22254 
 O                     0.94024   3.47133  -7.20362 
 H                     1.10561   0.77191  -3.45365 
 H                    -0.53075   3.68661  -4.63085 
 H                     0.74325   1.68128  -5.60789 
 H                    -0.68829   0.68903  -5.27739 
 H                    -2.33331   3.60995  -6.64247 
 H                    -1.41263   2.1879   -7.14202 
 H                    -0.33563   5.02057  -6.67467 
 H                    -0.66488   4.2685   -8.25442 
 H                     1.56202   4.0763   -7.63745 
 

 GradGradGradGradGradGradGradGradGradGradGradGradGradGradGradGradGradGrad
 Berny optimization.
 Initialization pass.
                           ----------------------------
                           !    Initial Parameters    !
                           ! (Angstroms and Degrees)  !
 --------------------------                            --------------------------
 ! Name  Definition              Value          Derivative Info.                !
 --------------------------------------------------------------------------------
 ! R1    R(1,2)                  1.801          estimate D2E/DX2                !
 ! R2    R(1,7)                  1.7274         estimate D2E/DX2                !
 ! R3    R(1,10)                 1.36           estimate D2E/DX2                !
 ! R4    R(2,3)                  1.4881         estimate D2E/DX2                !
 ! R5    R(2,4)                  1.4839         estimate D2E/DX2                !
 ! R6    R(2,5)                  1.5545         estimate D2E/DX2                !
 ! R7    R(5,6)                  1.0234         estimate D2E/DX2                !
 ! R8    R(7,8)                  1.7406         estimate D2E/DX2                !
 ! R9    R(8,9)                  1.3832         estimate D2E/DX2                !
 ! R10   R(8,11)                 1.7375         estimate D2E/DX2                !
 ! R11   R(9,10)                 1.4361         estimate D2E/DX2                !
 ! R12   R(9,12)                 1.3711         estimate D2E/DX2                !
 ! R13   R(10,13)                1.085          estimate D2E/DX2                !
 ! R14   R(11,14)                1.8071         estimate D2E/DX2                !
 ! R15   R(11,16)                1.4774         estimate D2E/DX2                !
 ! R16   R(11,17)                1.4772         estimate D2E/DX2                !
 ! R17   R(12,15)                1.4564         estimate D2E/DX2                !
 ! R18   R(12,21)                1.015          estimate D2E/DX2                !
 ! R19   R(14,15)                1.5286         estimate D2E/DX2                !
 ! R20   R(14,18)                1.5338         estimate D2E/DX2                !
 ! R21   R(14,22)                1.0975         estimate D2E/DX2                !
 ! R22   R(15,23)                1.0897         estimate D2E/DX2                !
 ! R23   R(15,24)                1.1004         estimate D2E/DX2                !
 ! R24   R(18,19)                1.5184         estimate D2E/DX2                !
 ! R25   R(18,25)                1.0962         estimate D2E/DX2                !
 ! R26   R(18,26)                1.0958         estimate D2E/DX2                !
 ! R27   R(19,20)                1.4261         estimate D2E/DX2                !
 ! R28   R(19,27)                1.0971         estimate D2E/DX2                !
 ! R29   R(19,28)                1.0958         estimate D2E/DX2                !
 ! R30   R(20,29)                0.97           estimate D2E/DX2                !
 ! A1    A(2,1,7)              119.5167         estimate D2E/DX2                !
 ! A2    A(2,1,10)             126.1246         estimate D2E/DX2                !
 ! A3    A(7,1,10)             114.0972         estimate D2E/DX2                !
 ! A4    A(1,2,3)              102.4648         estimate D2E/DX2                !
 ! A5    A(1,2,4)              103.1795         estimate D2E/DX2                !
 ! A6    A(1,2,5)              109.5956         estimate D2E/DX2                !
 ! A7    A(3,2,4)              114.9743         estimate D2E/DX2                !
 ! A8    A(3,2,5)              115.8245         estimate D2E/DX2                !
 ! A9    A(4,2,5)              109.6586         estimate D2E/DX2                !
 ! A10   A(2,5,6)              108.2794         estimate D2E/DX2                !
 ! A11   A(1,7,8)               89.4826         estimate D2E/DX2                !
 ! A12   A(7,8,9)              113.4127         estimate D2E/DX2                !
 ! A13   A(7,8,11)             123.0637         estimate D2E/DX2                !
 ! A14   A(9,8,11)             123.3612         estimate D2E/DX2                !
 ! A15   A(8,9,10)             110.8299         estimate D2E/DX2                !
 ! A16   A(8,9,12)             124.9569         estimate D2E/DX2                !
 ! A17   A(10,9,12)            124.1047         estimate D2E/DX2                !
 ! A18   A(1,10,9)             112.154          estimate D2E/DX2                !
 ! A19   A(1,10,13)            124.3642         estimate D2E/DX2                !
 ! A20   A(9,10,13)            123.4808         estimate D2E/DX2                !
 ! A21   A(8,11,14)            100.4248         estimate D2E/DX2                !
 ! A22   A(8,11,16)            111.1815         estimate D2E/DX2                !
 ! A23   A(8,11,17)            109.4402         estimate D2E/DX2                !
 ! A24   A(14,11,16)           108.9843         estimate D2E/DX2                !
 ! A25   A(14,11,17)           110.4697         estimate D2E/DX2                !
 ! A26   A(16,11,17)           115.3237         estimate D2E/DX2                !
 ! A27   A(9,12,15)            117.6903         estimate D2E/DX2                !
 ! A28   A(9,12,21)            114.7187         estimate D2E/DX2                !
 ! A29   A(15,12,21)           114.9957         estimate D2E/DX2                !
 ! A30   A(11,14,15)           107.9357         estimate D2E/DX2                !
 ! A31   A(11,14,18)           108.6007         estimate D2E/DX2                !
 ! A32   A(11,14,22)           104.2829         estimate D2E/DX2                !
 ! A33   A(15,14,18)           113.4591         estimate D2E/DX2                !
 ! A34   A(15,14,22)           110.7679         estimate D2E/DX2                !
 ! A35   A(18,14,22)           111.3025         estimate D2E/DX2                !
 ! A36   A(12,15,14)           111.3127         estimate D2E/DX2                !
 ! A37   A(12,15,23)           108.5857         estimate D2E/DX2                !
 ! A38   A(12,15,24)           111.4791         estimate D2E/DX2                !
 ! A39   A(14,15,23)           108.0            estimate D2E/DX2                !
 ! A40   A(14,15,24)           109.2503         estimate D2E/DX2                !
 ! A41   A(23,15,24)           108.0943         estimate D2E/DX2                !
 ! A42   A(14,18,19)           112.0143         estimate D2E/DX2                !
 ! A43   A(14,18,25)           110.6968         estimate D2E/DX2                !
 ! A44   A(14,18,26)           109.4048         estimate D2E/DX2                !
 ! A45   A(19,18,25)           106.7529         estimate D2E/DX2                !
 ! A46   A(19,18,26)           110.4809         estimate D2E/DX2                !
 ! A47   A(25,18,26)           107.3651         estimate D2E/DX2                !
 ! A48   A(18,19,20)           109.2483         estimate D2E/DX2                !
 ! A49   A(18,19,27)           109.7507         estimate D2E/DX2                !
 ! A50   A(18,19,28)           109.0192         estimate D2E/DX2                !
 ! A51   A(20,19,27)           110.0037         estimate D2E/DX2                !
 ! A52   A(20,19,28)           110.244          estimate D2E/DX2                !
 ! A53   A(27,19,28)           108.5574         estimate D2E/DX2                !
 ! A54   A(19,20,29)           108.2898         estimate D2E/DX2                !
 ! D1    D(7,1,2,3)            -30.5296         estimate D2E/DX2                !
 ! D2    D(7,1,2,4)             89.1972         estimate D2E/DX2                !
 ! D3    D(7,1,2,5)           -154.0513         estimate D2E/DX2                !
 ! D4    D(10,1,2,3)           155.7087         estimate D2E/DX2                !
 ! D5    D(10,1,2,4)           -84.5644         estimate D2E/DX2                !
 ! D6    D(10,1,2,5)            32.187          estimate D2E/DX2                !
 ! D7    D(2,1,7,8)           -173.6048         estimate D2E/DX2                !
 ! D8    D(10,1,7,8)             0.8776         estimate D2E/DX2                !
 ! D9    D(2,1,10,9)           173.9184         estimate D2E/DX2                !
 ! D10   D(2,1,10,13)           -6.4498         estimate D2E/DX2                !
 ! D11   D(7,1,10,9)            -0.1358         estimate D2E/DX2                !
 ! D12   D(7,1,10,13)          179.496          estimate D2E/DX2                !
 ! D13   D(1,2,5,6)             74.8584         estimate D2E/DX2                !
 ! D14   D(3,2,5,6)            -40.4071         estimate D2E/DX2                !
 ! D15   D(4,2,5,6)           -172.5491         estimate D2E/DX2                !
 ! D16   D(1,7,8,9)             -1.4335         estimate D2E/DX2                !
 ! D17   D(1,7,8,11)          -176.9383         estimate D2E/DX2                !
 ! D18   D(7,8,9,10)             1.6143         estimate D2E/DX2                !
 ! D19   D(7,8,9,12)          -174.7211         estimate D2E/DX2                !
 ! D20   D(11,8,9,10)          177.1037         estimate D2E/DX2                !
 ! D21   D(11,8,9,12)            0.7684         estimate D2E/DX2                !
 ! D22   D(7,8,11,14)          160.2221         estimate D2E/DX2                !
 ! D23   D(7,8,11,16)          -84.5623         estimate D2E/DX2                !
 ! D24   D(7,8,11,17)           43.9896         estimate D2E/DX2                !
 ! D25   D(9,8,11,14)          -14.838          estimate D2E/DX2                !
 ! D26   D(9,8,11,16)          100.3777         estimate D2E/DX2                !
 ! D27   D(9,8,11,17)         -131.0704         estimate D2E/DX2                !
 ! D28   D(8,9,10,1)            -0.9429         estimate D2E/DX2                !
 ! D29   D(8,9,10,13)          179.4215         estimate D2E/DX2                !
 ! D30   D(12,9,10,1)          175.4298         estimate D2E/DX2                !
 ! D31   D(12,9,10,13)          -4.2058         estimate D2E/DX2                !
 ! D32   D(8,9,12,15)          -18.2814         estimate D2E/DX2                !
 ! D33   D(8,9,12,21)         -158.36           estimate D2E/DX2                !
 ! D34   D(10,9,12,15)         165.856          estimate D2E/DX2                !
 ! D35   D(10,9,12,21)          25.7774         estimate D2E/DX2                !
 ! D36   D(8,11,14,15)          44.9915         estimate D2E/DX2                !
 ! D37   D(8,11,14,18)         168.3877         estimate D2E/DX2                !
 ! D38   D(8,11,14,22)         -72.8472         estimate D2E/DX2                !
 ! D39   D(16,11,14,15)        -71.8685         estimate D2E/DX2                !
 ! D40   D(16,11,14,18)         51.5276         estimate D2E/DX2                !
 ! D41   D(16,11,14,22)        170.2927         estimate D2E/DX2                !
 ! D42   D(17,11,14,15)        160.4524         estimate D2E/DX2                !
 ! D43   D(17,11,14,18)        -76.1514         estimate D2E/DX2                !
 ! D44   D(17,11,14,22)         42.6136         estimate D2E/DX2                !
 ! D45   D(9,12,15,14)          54.3707         estimate D2E/DX2                !
 ! D46   D(9,12,15,23)         173.1305         estimate D2E/DX2                !
 ! D47   D(9,12,15,24)         -67.8937         estimate D2E/DX2                !
 ! D48   D(21,12,15,14)       -165.6583         estimate D2E/DX2                !
 ! D49   D(21,12,15,23)        -46.8984         estimate D2E/DX2                !
 ! D50   D(21,12,15,24)         72.0773         estimate D2E/DX2                !
 ! D51   D(11,14,15,12)        -67.793          estimate D2E/DX2                !
 ! D52   D(11,14,15,23)        173.0969         estimate D2E/DX2                !
 ! D53   D(11,14,15,24)         55.7501         estimate D2E/DX2                !
 ! D54   D(18,14,15,12)        171.8134         estimate D2E/DX2                !
 ! D55   D(18,14,15,23)         52.7033         estimate D2E/DX2                !
 ! D56   D(18,14,15,24)        -64.6435         estimate D2E/DX2                !
 ! D57   D(22,14,15,12)         45.7901         estimate D2E/DX2                !
 ! D58   D(22,14,15,23)        -73.32           estimate D2E/DX2                !
 ! D59   D(22,14,15,24)        169.3332         estimate D2E/DX2                !
 ! D60   D(11,14,18,19)        148.116          estimate D2E/DX2                !
 ! D61   D(11,14,18,25)         29.096          estimate D2E/DX2                !
 ! D62   D(11,14,18,26)        -89.0257         estimate D2E/DX2                !
 ! D63   D(15,14,18,19)        -91.8674         estimate D2E/DX2                !
 ! D64   D(15,14,18,25)        149.1125         estimate D2E/DX2                !
 ! D65   D(15,14,18,26)         30.9908         estimate D2E/DX2                !
 ! D66   D(22,14,18,19)         33.8717         estimate D2E/DX2                !
 ! D67   D(22,14,18,25)        -85.1484         estimate D2E/DX2                !
 ! D68   D(22,14,18,26)        156.7299         estimate D2E/DX2                !
 ! D69   D(14,18,19,20)         60.4345         estimate D2E/DX2                !
 ! D70   D(14,18,19,27)        -60.2531         estimate D2E/DX2                !
 ! D71   D(14,18,19,28)       -179.0325         estimate D2E/DX2                !
 ! D72   D(25,18,19,20)       -178.2451         estimate D2E/DX2                !
 ! D73   D(25,18,19,27)         61.0672         estimate D2E/DX2                !
 ! D74   D(25,18,19,28)        -57.7122         estimate D2E/DX2                !
 ! D75   D(26,18,19,20)        -61.8121         estimate D2E/DX2                !
 ! D76   D(26,18,19,27)        177.5003         estimate D2E/DX2                !
 ! D77   D(26,18,19,28)         58.7209         estimate D2E/DX2                !
 ! D78   D(18,19,20,29)        178.6418         estimate D2E/DX2                !
 ! D79   D(27,19,20,29)        -60.8252         estimate D2E/DX2                !
 ! D80   D(28,19,20,29)         58.8608         estimate D2E/DX2                !
 --------------------------------------------------------------------------------
 Trust Radius=3.00D-01 FncErr=1.00D-07 GrdErr=1.00D-06 EigMax=2.50D+02 EigMin=1.00D-04
 Number of steps in this run=    174 maximum allowed number of steps=    174.
 GradGradGradGradGradGradGradGradGradGradGradGradGradGradGradGradGradGrad

                          Input orientation:                          
 ---------------------------------------------------------------------
 Center     Atomic      Atomic             Coordinates (Angstroms)
 Number     Number       Type             X           Y           Z
 ---------------------------------------------------------------------
      1          6           0       -1.406051    1.208438   -0.422534
      2         16           0       -1.546798    0.682273    1.294111
      3          8           0       -2.565748    1.621964    1.835561
      4          8           0       -1.993207   -0.728238    1.180121
      5          7           0       -0.148868    0.735212    1.971908
      6          1           0        0.082944    1.715306    2.153393
      7         16           0       -2.778980    1.889880   -1.219073
      8          6           0       -1.886538    1.901252   -2.713486
      9          6           0       -0.591378    1.433342   -2.583765
     10          6           0       -0.330773    1.019390   -1.233487
     11         16           0       -2.523451    2.552652   -4.193026
     12          7           0        0.348342    1.435448   -3.582145
     13          1           0        0.619096    0.610140   -0.905670
     14          6           0       -0.994125    2.819218   -5.118003
     15          6           0       -0.121569    1.574957   -4.953557
     16          8           0       -3.347740    1.554229   -4.904669
     17          8           0       -3.190785    3.840999   -3.915887
     18          6           0       -1.352240    3.125308   -6.577698
     19          6           0       -0.353867    4.070253   -7.222540
     20          8           0        0.940237    3.471326   -7.203620
     21          1           0        1.105608    0.771912   -3.453654
     22          1           0       -0.530750    3.686610   -4.630853
     23          1           0        0.743252    1.681276   -5.607889
     24          1           0       -0.688293    0.689028   -5.277387
     25          1           0       -2.333309    3.609945   -6.642466
     26          1           0       -1.412626    2.187902   -7.142021
     27          1           0       -0.335630    5.020572   -6.674673
     28          1           0       -0.664878    4.268502   -8.254425
     29          1           0        1.562016    4.076304   -7.637452
 ---------------------------------------------------------------------
                    Distance matrix (angstroms):
                    1          2          3          4          5
     1  C    0.000000
     2  S    1.800980   0.000000
     3  O    2.571944   1.488102   0.000000
     4  O    2.581466   1.483852   2.506163   0.000000
     5  N    2.745506   1.554484   2.578028   2.483989   0.000000
     6  H    3.018182   2.112246   2.669326   3.350906   1.023356
     7  S    1.727360   3.048390   3.073766   3.637047   4.293379
     8  C    2.441172   4.202638   4.607945   4.699550   5.131478
     9  C    2.320602   4.063847   4.843982   4.561183   4.630049
    10  C    1.360002   2.825087   3.844121   3.412242   3.223105
    11  S    4.155972   5.878847   6.100150   6.317919   6.851872
    12  N    3.621128   5.285518   6.154531   5.730931   5.620058
    13  H    2.166241   3.087934   4.322195   3.600820   2.980917
    14  C    4.981137   6.781385   7.228794   7.297190   7.438036
    15  C    4.723812   6.470048   7.215840   6.813937   6.976244
    16  O    4.896862   6.513722   6.785779   6.638455   7.628295
    17  O    4.724317   6.310652   6.196285   6.948483   7.318832
    18  C    6.446963   8.244492   8.632240   8.685874   8.958595
    19  C    7.452326   9.243097   9.640318   9.814156   9.782760
    20  O    7.523886   9.283081   9.870099   9.824894   9.636534
    21  H    3.960641   5.439170   6.494401   5.772779   5.568822
    22  H    4.961596   6.720386   7.086501   7.442922   7.242447
    23  H    5.633026   7.340296   8.146039   7.705261   7.690529
    24  H    4.935034   6.627342   7.415473   6.738758   7.269483
    25  H    6.731612   8.495829   8.711087   8.951445   9.340413
    26  H    6.790501   8.570487   9.069011   8.837364   9.315100
    27  H    7.400501   9.153649   9.431227   9.873913   9.652075
    28  H    8.441081  10.237840  10.603079  10.758370  10.831818
    29  H    8.311986  10.047735  10.620744  10.652363  10.316483
                    6          7          8          9         10
     6  H    0.000000
     7  S    4.426580   0.000000
     8  C    5.253565   1.740647   0.000000
     9  C    4.793212   2.618475   1.383187   0.000000
    10  C    3.482301   2.598399   2.321310   1.436148   0.000000
    11  S    6.911691   3.057607   1.737532   2.752359   3.989687
    12  N    5.748491   3.945980   2.442587   1.371073   2.480019
    13  H    3.296470   3.644568   3.348637   2.226861   1.084989
    14  C    7.433162   4.387600   2.724108   2.916371   4.332307
    15  C    7.111277   4.594277   2.870453   2.420060   3.767140
    16  O    7.849317   3.744298   2.656467   3.605377   4.781811
    17  O    7.216095   3.353991   2.628583   3.785271   4.830778
    18  C    8.959900   5.681261   4.088511   4.403767   5.834285
    19  C    9.677019   6.832043   5.233088   5.341156   6.721388
    20  O    9.558883   7.221381   5.533271   5.276579   6.577989
    21  H    5.777094   4.618791   3.282712   2.018405   2.655857
    22  H    7.091449   4.463521   2.949909   3.044908   4.323904
    23  H    7.789394   5.631282   3.916855   3.314820   4.552693
    24  H    7.540858   4.720480   3.078777   2.796247   4.073093
    25  H    9.316387   5.707052   4.307682   4.923919   6.322830
    26  H    9.426813   6.085808   4.463035   4.692708   6.119363
    27  H    9.435822   6.747945   5.275081   5.446940   6.753961
    28  H   10.742473   7.721622   6.148035   6.340341   7.743509
    29  H   10.179519   8.051105   6.392872   6.096073   7.344259
                   11         12         13         14         15
    11  S    0.000000
    12  N    3.141419   0.000000
    13  H    4.945267   2.813887   0.000000
    14  C    1.807063   2.464933   5.022575   0.000000
    15  C    2.702468   1.456382   4.226683   1.528588   0.000000
    16  O    1.477409   3.927366   5.711312   2.680525   3.226608
    17  O    1.477152   4.292258   5.832242   2.704521   3.953706
    18  C    2.717780   3.836788   6.510310   1.533834   2.560463
    19  C    4.023452   4.548381   7.267867   2.530631   3.380643
    20  O    4.680253   4.196453   6.924860   2.918356   3.128327
    21  H    4.109474   1.015008   2.599055   3.372002   2.097750
    22  H    2.334183   2.634449   4.966266   1.097452   2.175005
    23  H    3.665035   2.078467   4.824273   2.133865   1.089665
    24  H    2.831384   2.122640   4.563705   2.157926   1.100415
    25  H    2.674655   4.613594   7.115220   2.177763   3.447518
    26  H    3.172309   4.042266   6.746058   2.161100   2.613791
    27  H    4.127440   4.783792   7.324262   2.775391   3.857502
    28  H    4.784704   5.557248   8.308815   3.470731   4.294892
    29  H    5.556674   4.989252   7.630221   3.802860   4.036643
                   16         17         18         19         20
    16  O    0.000000
    17  O    2.496326   0.000000
    18  C    3.041272   3.313261   0.000000
    19  C    4.546007   4.362868   1.518384   0.000000
    20  O    5.229453   5.292560   2.401449   1.426105   0.000000
    21  H    4.748660   5.300184   4.619431   5.216668   4.623465
    22  H    3.543650   2.758768   2.186347   2.625892   2.971410
    23  H    4.152936   4.796240   2.723388   3.085122   2.406125
    24  H    2.821374   4.248655   2.840263   3.915117   3.755485
    25  H    2.876626   2.867557   1.096159   2.113424   3.324186
    26  H    3.025219   4.037638   1.095827   2.161180   2.680846
    27  H    4.921509   4.141763   2.152888   1.097086   2.075520
    28  H    5.077981   5.038440   2.142609   1.095818   2.077517
    29  H    6.159113   6.041070   3.243510   1.960305   0.969958
                   21         22         23         24         25
    21  H    0.000000
    22  H    3.543858   0.000000
    23  H    2.366215   2.568861   0.000000
    24  H    2.559483   3.070558   1.772881   0.000000
    25  H    5.481706   2.702163   3.775625   3.619568   0.000000
    26  H    4.685145   3.054471   2.694075   2.499628   1.766188
    27  H    5.522974   2.448413   3.667821   4.564981   2.445737
    28  H    6.197432   3.672446   3.959889   4.655742   2.411591
    29  H    5.350839   3.683907   3.244327   4.701855   4.047350
                   26         27         28         29
    26  H    0.000000
    27  H    3.066326   0.000000
    28  H    2.474968   1.780345   0.000000
    29  H    3.558091   2.328013   2.318761   0.000000
 Stoichiometry    C8H11N2O5S3(1-)
 Framework group  C1[X(C8H11N2O5S3)]
 Deg. of freedom    81
 Full point group                 C1      NOp   1
 Largest Abelian subgroup         C1      NOp   1
 Largest concise Abelian subgroup C1      NOp   1
                         Standard orientation:                         
 ---------------------------------------------------------------------
 Center     Atomic      Atomic             Coordinates (Angstroms)
 Number     Number       Type             X           Y           Z
 ---------------------------------------------------------------------
      1          6           0       -2.279741    0.262689   -0.072996
      2         16           0       -4.080052    0.293574   -0.111169
      3          8           0       -4.404316   -0.900466   -0.937950
      4          8           0       -4.450770    0.183113    1.321375
      5          7           0       -4.566246    1.658834   -0.673396
      6          1           0       -4.413217    1.662106   -1.685241
      7         16           0       -1.452622   -1.251525   -0.155457
      8          6           0        0.053592   -0.426258    0.127574
      9          6           0       -0.084550    0.945050    0.244357
     10          6           0       -1.463778    1.330442    0.136085
     11         16           0        1.590852   -1.236039    0.137773
     12          7           0        0.954145    1.831697    0.366055
     13          1           0       -1.805606    2.357684    0.207707
     14          6           0        2.700075    0.164675   -0.132605
     15          6           0        2.248091    1.305766    0.778549
     16          8           0        1.874981   -1.825386    1.462416
     17          8           0        1.658952   -2.175972   -0.999710
     18          6           0        4.139945   -0.293483    0.131045
     19          6           0        5.140196    0.441277   -0.743664
     20          8           0        5.066458    1.838942   -0.470034
     21          1           0        0.703511    2.725212    0.777220
     22          1           0        2.552179    0.427402   -1.187831
     23          1           0        2.985879    2.104638    0.708963
     24          1           0        2.225475    0.951198    1.820030
     25          1           0        4.252976   -1.361494   -0.088366
     26          1           0        4.379341   -0.150174    1.190757
     27          1           0        4.916160    0.253550   -1.801097
     28          1           0        6.146738    0.065338   -0.528350
     29          1           0        5.724975    2.291868   -1.019608
 ---------------------------------------------------------------------
 Rotational constants (GHZ):           0.8322350           0.1582770           0.1432423
 General basis read from cards:  (6D, 7F)
 There are   376 symmetry adapted cartesian basis functions of A   symmetry.
 There are   376 symmetry adapted basis functions of A   symmetry.
   376 basis functions,   692 primitive gaussians,   376 cartesian basis functions
    81 alpha electrons       81 beta electrons
       nuclear repulsion energy      1877.6735735098 Hartrees.
 NAtoms=   29 NActive=   29 NUniq=   29 SFac= 1.00D+00 NAtFMM=   60 NAOKFM=F Big=F
 Integral buffers will be    131072 words long.
 Raffenetti 2 integral format.
 Two-electron integral symmetry is turned on.
 ------------------------------------------------------------------------------
 Polarizable Continuum Model (PCM)
 =================================
 Model                : PCM.
 Atomic radii         : SMD-Coulomb.
 Polarization charges : Total charges.
 Charge compensation  : None.
 Solution method      : On-the-fly selection.
 Cavity type          : VdW (van der Waals Surface) (Alpha=1.000).
 Cavity algorithm     : GePol (No added spheres)
                        Default sphere list used, NSphG=   29.
                        Lebedev-Laikov grids with approx.  5.0 points / Ang**2.
                        Smoothing algorithm: York/Karplus (Gamma=1.0000).
                        Polarization charges: spherical gaussians, with
                                              point-specific exponents (IZeta= 3).
                        Self-potential: point-specific (ISelfS= 7).
                        Self-field    : sphere-specific E.n sum rule (ISelfD= 2).
 1st derivatives      : Analytical E(r).r(x)/FMM algorithm (CHGder, D1EAlg=3).
                        Cavity 1st derivative terms included.
 Solvent              : Water, Eps=  78.355300 Eps(inf)=   1.777849
 ------------------------------------------------------------------------------
 ------------------------------------------------------------------------------
 Atomic radii for non-electrostatic terms: SMD-CDS.
 ------------------------------------------------------------------------------
 Nuclear repulsion after PCM non-electrostatic terms =     1877.6782806897 Hartrees.
 One-electron integrals computed using PRISM.
 NBasis=   376 RedAO= T EigKep=  3.68D-06  NBF=   376
 NBsUse=   375 1.00D-06 EigRej=  9.51D-07 NBFU=   375
 ExpMin= 4.05D-02 ExpMax= 2.19D+04 ExpMxC= 3.30D+03 IAcc=3 IRadAn=         5 AccDes= 0.00D+00
 Harris functional with IExCor= 1009 and IRadAn=       5 diagonalized for initial guess.
 HarFok:  IExCor= 1009 AccDes= 0.00D+00 IRadAn=         5 IDoV= 1 UseB2=F ITyADJ=14
 ICtDFT=  3500011 ScaDFX=  1.000000  1.000000  1.000000  1.000000
 FoFCou: FMM=F IPFlag=           0 FMFlag=      100000 FMFlg1=           0
         NFxFlg=           0 DoJE=T BraDBF=F KetDBF=T FulRan=T
         wScrn=  0.000000 ICntrl=       500 IOpCl=  0 I1Cent=   200000004 NGrid=           0
         NMat0=    1 NMatS0=      1 NMatT0=    0 NMatD0=    1 NMtDS0=    0 NMtDT0=    0
 Petite list used in FoFCou.
 Requested convergence on RMS density matrix=1.00D-08 within 128 cycles.
 Requested convergence on MAX density matrix=1.00D-06.
 Requested convergence on             energy=1.00D-06.
 No special actions if energy rises.
 Inv3:  Mode=1 IEnd=    14388300.
 Iteration    1 A*A^-1 deviation from unit magnitude is 5.33D-15 for   2166.
 Iteration    1 A*A^-1 deviation from orthogonality  is 1.75D-15 for   1408   1272.
 Iteration    1 A^-1*A deviation from unit magnitude is 5.33D-15 for   2166.
 Iteration    1 A^-1*A deviation from orthogonality  is 1.47D-15 for   2179   2177.
 Error on total polarization charges =  0.05751
 SCF Done:  E(RM062X) =  -1991.29785818     A.U. after   16 cycles
            NFock= 16  Conv=0.36D-08     -V/T= 2.0054
 SMD-CDS (non-electrostatic) energy       (kcal/mol) =       2.95
 (included in total energy above)

 **********************************************************************

            Population analysis using the SCF Density.

 **********************************************************************

 Orbital symmetries:
       Occupied  (A) (A) (A) (A) (A) (A) (A) (A) (A) (A) (A) (A)
                 (A) (A) (A) (A) (A) (A) (A) (A) (A) (A) (A) (A)
                 (A) (A) (A) (A) (A) (A) (A) (A) (A) (A) (A) (A)
                 (A) (A) (A) (A) (A) (A) (A) (A) (A) (A) (A) (A)
                 (A) (A) (A) (A) (A) (A) (A) (A) (A) (A) (A) (A)
                 (A) (A) (A) (A) (A) (A) (A) (A) (A) (A) (A) (A)
                 (A) (A) (A) (A) (A) (A) (A) (A) (A)
       Virtual   (A) (A) (A) (A) (A) (A) (A) (A) (A) (A) (A) (A)
                 (A) (A) (A) (A) (A) (A) (A) (A) (A) (A) (A) (A)
                 (A) (A) (A) (A) (A) (A) (A) (A) (A) (A) (A) (A)
                 (A) (A) (A) (A) (A) (A) (A) (A) (A) (A) (A) (A)
                 (A) (A) (A) (A) (A) (A) (A) (A) (A) (A) (A) (A)
                 (A) (A) (A) (A) (A) (A) (A) (A) (A) (A) (A) (A)
                 (A) (A) (A) (A) (A) (A) (A) (A) (A) (A) (A) (A)
                 (A) (A) (A) (A) (A) (A) (A) (A) (A) (A) (A) (A)
                 (A) (A) (A) (A) (A) (A) (A) (A) (A) (A) (A) (A)
                 (A) (A) (A) (A) (A) (A) (A) (A) (A) (A) (A) (A)
                 (A) (A) (A) (A) (A) (A) (A) (A) (A) (A) (A) (A)
                 (A) (A) (A) (A) (A) (A) (A) (A) (A) (A) (A) (A)
                 (A) (A) (A) (A) (A) (A) (A) (A) (A) (A) (A) (A)
                 (A) (A) (A) (A) (A) (A) (A) (A) (A) (A) (A) (A)
                 (A) (A) (A) (A) (A) (A) (A) (A) (A) (A) (A) (A)
                 (A) (A) (A) (A) (A) (A) (A) (A) (A) (A) (A) (A)
                 (A) (A) (A) (A) (A) (A) (A) (A) (A) (A) (A) (A)
                 (A) (A) (A) (A) (A) (A) (A) (A) (A) (A) (A) (A)
                 (A) (A) (A) (A) (A) (A) (A) (A) (A) (A) (A) (A)
                 (A) (A) (A) (A) (A) (A) (A) (A) (A) (A) (A) (A)
                 (A) (A) (A) (A) (A) (A) (A) (A) (A) (A) (A) (A)
                 (A) (A) (A) (A) (A) (A) (A) (A) (A) (A) (A) (A)
                 (A) (A) (A) (A) (A) (A) (A) (A) (A) (A) (A) (A)
                 (A) (A) (A) (A) (A) (A) (A) (A) (A) (A) (A) (A)
                 (A) (A) (A) (A) (A) (A)
 The electronic state is 1-A.
 Alpha  occ. eigenvalues --  -90.15723 -90.14764 -89.97844 -19.65542 -19.65317
 Alpha  occ. eigenvalues --  -19.65209 -19.62832 -19.62708 -14.79238 -14.72601
 Alpha  occ. eigenvalues --  -10.62844 -10.61283 -10.60352 -10.60040 -10.59548
 Alpha  occ. eigenvalues --  -10.59502 -10.57623 -10.56122  -8.47138  -8.45556
 Alpha  occ. eigenvalues --   -8.32141  -6.39301  -6.39245  -6.39178  -6.37787
 Alpha  occ. eigenvalues --   -6.37721  -6.37654  -6.24169  -6.23938  -6.23635
 Alpha  occ. eigenvalues --   -1.24012  -1.21850  -1.14826  -1.12896  -1.10192
 Alpha  occ. eigenvalues --   -1.07682  -0.99676  -0.96968  -0.93582  -0.87770
 Alpha  occ. eigenvalues --   -0.85170  -0.82837  -0.76947  -0.74395  -0.71396
 Alpha  occ. eigenvalues --   -0.68491  -0.64626  -0.62991  -0.62351  -0.60460
 Alpha  occ. eigenvalues --   -0.58686  -0.58530  -0.56158  -0.55825  -0.55287
 Alpha  occ. eigenvalues --   -0.53865  -0.53371  -0.52772  -0.50692  -0.49033
 Alpha  occ. eigenvalues --   -0.48673  -0.46894  -0.46686  -0.44976  -0.43811
 Alpha  occ. eigenvalues --   -0.43405  -0.42649  -0.41788  -0.41392  -0.40814
 Alpha  occ. eigenvalues --   -0.40192  -0.39740  -0.39061  -0.37255  -0.36639
 Alpha  occ. eigenvalues --   -0.36543  -0.35293  -0.33887  -0.32031  -0.30287
 Alpha  occ. eigenvalues --   -0.27250
 Alpha virt. eigenvalues --   -0.02044   0.01246   0.02364   0.02399   0.03012
 Alpha virt. eigenvalues --    0.03257   0.04077   0.04403   0.04843   0.05108
 Alpha virt. eigenvalues --    0.05656   0.05830   0.06172   0.06304   0.06696
 Alpha virt. eigenvalues --    0.07009   0.07662   0.08441   0.08813   0.09651
 Alpha virt. eigenvalues --    0.09985   0.10592   0.11080   0.11220   0.11932
 Alpha virt. eigenvalues --    0.12317   0.12684   0.12951   0.13281   0.13923
 Alpha virt. eigenvalues --    0.14227   0.14666   0.15068   0.15375   0.15760
 Alpha virt. eigenvalues --    0.16947   0.17072   0.17442   0.17660   0.17948
 Alpha virt. eigenvalues --    0.18647   0.19173   0.19711   0.19779   0.20023
 Alpha virt. eigenvalues --    0.20500   0.21347   0.21680   0.21840   0.22170
 Alpha virt. eigenvalues --    0.22279   0.22580   0.22855   0.23260   0.23610
 Alpha virt. eigenvalues --    0.24285   0.24596   0.25213   0.25587   0.25974
 Alpha virt. eigenvalues --    0.26433   0.26726   0.27270   0.27880   0.28264
 Alpha virt. eigenvalues --    0.28752   0.28905   0.29301   0.29637   0.29711
 Alpha virt. eigenvalues --    0.30192   0.31099   0.31218   0.31506   0.31857
 Alpha virt. eigenvalues --    0.32244   0.33031   0.33223   0.33595   0.34135
 Alpha virt. eigenvalues --    0.34541   0.34774   0.35073   0.35262   0.36030
 Alpha virt. eigenvalues --    0.36524   0.37504   0.37743   0.38359   0.38922
 Alpha virt. eigenvalues --    0.39153   0.40406   0.41424   0.41829   0.42720
 Alpha virt. eigenvalues --    0.43021   0.44528   0.45405   0.46206   0.46636
 Alpha virt. eigenvalues --    0.48248   0.48487   0.52480   0.53739   0.55764
 Alpha virt. eigenvalues --    0.57987   0.59030   0.63218   0.63722   0.64895
 Alpha virt. eigenvalues --    0.65328   0.66392   0.67700   0.68258   0.68991
 Alpha virt. eigenvalues --    0.69972   0.71033   0.71961   0.72577   0.72974
 Alpha virt. eigenvalues --    0.73692   0.75697   0.76624   0.77083   0.77397
 Alpha virt. eigenvalues --    0.79129   0.79946   0.80789   0.82388   0.84852
 Alpha virt. eigenvalues --    0.86102   0.89775   0.90403   0.91340   0.92321
 Alpha virt. eigenvalues --    0.95697   0.96065   0.96882   0.99107   0.99577
 Alpha virt. eigenvalues --    1.00764   1.02110   1.02458   1.03821   1.04301
 Alpha virt. eigenvalues --    1.05353   1.05824   1.07374   1.08398   1.08490
 Alpha virt. eigenvalues --    1.09123   1.10235   1.11186   1.11899   1.12721
 Alpha virt. eigenvalues --    1.13435   1.14681   1.16391   1.16859   1.18189
 Alpha virt. eigenvalues --    1.18725   1.19190   1.20106   1.20635   1.21252
 Alpha virt. eigenvalues --    1.22120   1.22879   1.23588   1.24122   1.25508
 Alpha virt. eigenvalues --    1.27069   1.28580   1.31731   1.32461   1.33644
 Alpha virt. eigenvalues --    1.34048   1.36212   1.36629   1.37350   1.37622
 Alpha virt. eigenvalues --    1.38655   1.38868   1.39273   1.40609   1.41400
 Alpha virt. eigenvalues --    1.42584   1.42781   1.44440   1.44504   1.45665
 Alpha virt. eigenvalues --    1.47884   1.51172   1.52081   1.53303   1.54993
 Alpha virt. eigenvalues --    1.55819   1.58999   1.61783   1.64409   1.65361
 Alpha virt. eigenvalues --    1.68441   1.70153   1.72299   1.74737   1.76317
 Alpha virt. eigenvalues --    1.77255   1.77949   1.79796   1.80800   1.81501
 Alpha virt. eigenvalues --    1.82671   1.83183   1.85198   1.86442   1.86804
 Alpha virt. eigenvalues --    1.87374   1.88145   1.89097   1.89269   1.89963
 Alpha virt. eigenvalues --    1.90872   1.92021   1.93079   1.95699   1.96064
 Alpha virt. eigenvalues --    1.97822   1.99764   2.01226   2.03182   2.04881
 Alpha virt. eigenvalues --    2.05849   2.06573   2.08500   2.09580   2.10977
 Alpha virt. eigenvalues --    2.13344   2.14966   2.15809   2.16819   2.17889
 Alpha virt. eigenvalues --    2.21372   2.21785   2.25426   2.26902   2.29199
 Alpha virt. eigenvalues --    2.31043   2.32948   2.33846   2.35359   2.36134
 Alpha virt. eigenvalues --    2.38237   2.40304   2.42846   2.43842   2.46185
 Alpha virt. eigenvalues --    2.46961   2.48677   2.50861   2.53440   2.55722
 Alpha virt. eigenvalues --    2.59873   2.62765   2.66635   2.69422   2.70686
 Alpha virt. eigenvalues --    2.76231   2.79447   2.82454   2.85502   2.87551
 Alpha virt. eigenvalues --    2.91654   2.94180   2.95708   2.98119   3.07619
 Alpha virt. eigenvalues --    3.11391   3.96986   4.01438   4.04821   4.07284
 Alpha virt. eigenvalues --    4.16258   4.17008   4.21064   4.23363   4.30327
 Alpha virt. eigenvalues --    4.30576   4.32293   4.34627   4.39830   4.45329
 Alpha virt. eigenvalues --    4.49048   4.58470   4.62909   4.67039
          Condensed to atoms (all electrons):
               1          2          3          4          5          6
     1  C   13.429952  -0.642686  -0.033662  -0.239419  -0.017039   0.020384
     2  S   -0.642686  15.341759   0.027076   0.540351   0.159754   0.088799
     3  O   -0.033662   0.027076   8.998760  -0.135987  -0.176571  -0.008077
     4  O   -0.239419   0.540351  -0.135987   8.930634  -0.216215   0.015677
     5  N   -0.017039   0.159754  -0.176571  -0.216215   8.056979   0.187976
     6  H    0.020384   0.088799  -0.008077   0.015677   0.187976   0.350828
     7  S    0.094374  -0.133709   0.019517  -0.011875  -0.005534   0.008454
     8  C   -1.710870  -0.800242   0.010775  -0.158009  -0.074632  -0.001122
     9  C   -1.366751  -0.296944  -0.023178  -0.039415   0.004700  -0.013430
    10  C   -0.153156   0.181030   0.030784   0.008115   0.036591  -0.060802
    11  S   -1.061927  -0.169825   0.001371  -0.011962  -0.003904  -0.000205
    12  N    0.043151   0.011949   0.000212   0.000542  -0.000436   0.000026
    13  H   -0.020145  -0.005869   0.000469   0.000103   0.003271  -0.000112
    14  C   -0.312478  -0.029547   0.000110  -0.001305  -0.001016   0.000068
    15  C   -0.327879  -0.029125  -0.000346  -0.000701  -0.002744   0.000055
    16  O   -0.109120  -0.005479  -0.000125  -0.000206  -0.000096   0.000000
    17  O   -0.021452  -0.005000   0.000068  -0.000024  -0.000114   0.000000
    18  C   -0.057012  -0.001851   0.000055   0.000047  -0.000012   0.000001
    19  C    0.005613  -0.000157   0.000010   0.000005   0.000004  -0.000000
    20  O    0.000239   0.000005  -0.000000   0.000000   0.000000  -0.000000
    21  H   -0.008369   0.000525  -0.000002  -0.000017   0.000022  -0.000000
    22  H   -0.001125   0.000135   0.000000  -0.000000  -0.000004   0.000000
    23  H    0.003373   0.000024   0.000000   0.000000   0.000001  -0.000000
    24  H   -0.005033  -0.000050   0.000000  -0.000001  -0.000006   0.000000
    25  H    0.001304   0.000018   0.000000   0.000000   0.000000   0.000000
    26  H   -0.000696  -0.000005   0.000000   0.000000  -0.000000   0.000000
    27  H   -0.000173  -0.000003   0.000000  -0.000000  -0.000000  -0.000000
    28  H    0.000034   0.000000  -0.000000   0.000000   0.000000   0.000000
    29  H   -0.000032  -0.000000  -0.000000  -0.000000  -0.000000  -0.000000
               7          8          9         10         11         12
     1  C    0.094374  -1.710870  -1.366751  -0.153156  -1.061927   0.043151
     2  S   -0.133709  -0.800242  -0.296944   0.181030  -0.169825   0.011949
     3  O    0.019517   0.010775  -0.023178   0.030784   0.001371   0.000212
     4  O   -0.011875  -0.158009  -0.039415   0.008115  -0.011962   0.000542
     5  N   -0.005534  -0.074632   0.004700   0.036591  -0.003904  -0.000436
     6  H    0.008454  -0.001122  -0.013430  -0.060802  -0.000205   0.000026
     7  S   17.355662  -0.197386  -0.703670  -1.087640   0.071607   0.000434
     8  C   -0.197386  19.833589  -5.052502  -3.319065  -1.821603  -0.026161
     9  C   -0.703670  -5.052502  12.140901   2.383101  -0.179334   0.042516
    10  C   -1.087640  -3.319065   2.383101   8.610079  -0.637716  -0.107115
    11  S    0.071607  -1.821603  -0.179334  -0.637716  17.843675   0.094468
    12  N    0.000434  -0.026161   0.042516  -0.107115   0.094468   7.367490
    13  H    0.011672   0.024872  -0.061089   0.343878  -0.000829  -0.005168
    14  C    0.230491  -1.282655   0.728181   0.099536   0.009963  -0.195814
    15  C   -0.044633   1.078964  -1.141820  -0.006409  -0.801957   0.032848
    16  O   -0.008632  -0.072802  -0.258525  -0.045608   0.753976   0.049694
    17  O    0.027365  -0.304087   0.071734  -0.023698   0.607799  -0.000220
    18  C    0.007408   0.200578  -0.266925  -0.007926  -0.089859   0.009177
    19  C    0.010857  -0.126903   0.064474   0.008817  -0.031124  -0.009895
    20  O   -0.000800  -0.008089   0.018408   0.002018   0.007178   0.002629
    21  H    0.001887   0.081075  -0.052858  -0.055290   0.002648   0.288529
    22  H    0.005229   0.063610  -0.086503  -0.018977   0.013368   0.024445
    23  H    0.000581  -0.022285   0.038328   0.010218  -0.005626  -0.043757
    24  H   -0.000382   0.037242  -0.061850  -0.015880  -0.004527  -0.061115
    25  H   -0.001404   0.044901  -0.001987   0.000463  -0.039770   0.000665
    26  H    0.000572  -0.019706  -0.006793  -0.000877   0.014123   0.001711
    27  H    0.000128  -0.004944   0.001148   0.000213  -0.002685   0.000208
    28  H   -0.000035   0.001568   0.000654  -0.000015   0.000617   0.000056
    29  H    0.000008  -0.000458  -0.000700  -0.000092   0.000499  -0.000243
              13         14         15         16         17         18
     1  C   -0.020145  -0.312478  -0.327879  -0.109120  -0.021452  -0.057012
     2  S   -0.005869  -0.029547  -0.029125  -0.005479  -0.005000  -0.001851
     3  O    0.000469   0.000110  -0.000346  -0.000125   0.000068   0.000055
     4  O    0.000103  -0.001305  -0.000701  -0.000206  -0.000024   0.000047
     5  N    0.003271  -0.001016  -0.002744  -0.000096  -0.000114  -0.000012
     6  H   -0.000112   0.000068   0.000055   0.000000   0.000000   0.000001
     7  S    0.011672   0.230491  -0.044633  -0.008632   0.027365   0.007408
     8  C    0.024872  -1.282655   1.078964  -0.072802  -0.304087   0.200578
     9  C   -0.061089   0.728181  -1.141820  -0.258525   0.071734  -0.266925
    10  C    0.343878   0.099536  -0.006409  -0.045608  -0.023698  -0.007926
    11  S   -0.000829   0.009963  -0.801957   0.753976   0.607799  -0.089859
    12  N   -0.005168  -0.195814   0.032848   0.049694  -0.000220   0.009177
    13  H    0.408414   0.000667   0.005437   0.000004   0.000003   0.000095
    14  C    0.000667  10.091110  -1.624019  -0.255801  -0.098287  -0.931695
    15  C    0.005437  -1.624019   8.209188  -0.008791  -0.026612   0.166532
    16  O    0.000004  -0.255801  -0.008791   8.728690  -0.210111  -0.024345
    17  O    0.000003  -0.098287  -0.026612  -0.210111   8.728035  -0.150074
    18  C    0.000095  -0.931695   0.166532  -0.024345  -0.150074   7.668382
    19  C    0.000008   0.049239  -0.020774  -0.017060   0.029685  -0.637723
    20  O    0.000000   0.102753  -0.059701   0.000258  -0.000173  -0.064953
    21  H    0.001878   0.041116  -0.059546   0.000124   0.000016  -0.000720
    22  H   -0.000002   0.374232  -0.050678   0.008484  -0.002865  -0.061979
    23  H    0.000004  -0.056787   0.392750  -0.000744  -0.000599   0.020074
    24  H   -0.000006   0.010274   0.440183  -0.000440   0.000708  -0.063058
    25  H   -0.000000  -0.083871   0.018708  -0.006471   0.004018   0.390856
    26  H    0.000000  -0.044790  -0.009724   0.001811  -0.000146   0.406877
    27  H    0.000000   0.010414   0.004456   0.000104   0.000210  -0.096013
    28  H   -0.000000   0.036138  -0.011668  -0.000107   0.000029  -0.125859
    29  H    0.000000  -0.009070   0.001693   0.000002  -0.000009   0.049759
              19         20         21         22         23         24
     1  C    0.005613   0.000239  -0.008369  -0.001125   0.003373  -0.005033
     2  S   -0.000157   0.000005   0.000525   0.000135   0.000024  -0.000050
     3  O    0.000010  -0.000000  -0.000002   0.000000   0.000000   0.000000
     4  O    0.000005   0.000000  -0.000017  -0.000000   0.000000  -0.000001
     5  N    0.000004   0.000000   0.000022  -0.000004   0.000001  -0.000006
     6  H   -0.000000  -0.000000  -0.000000   0.000000  -0.000000   0.000000
     7  S    0.010857  -0.000800   0.001887   0.005229   0.000581  -0.000382
     8  C   -0.126903  -0.008089   0.081075   0.063610  -0.022285   0.037242
     9  C    0.064474   0.018408  -0.052858  -0.086503   0.038328  -0.061850
    10  C    0.008817   0.002018  -0.055290  -0.018977   0.010218  -0.015880
    11  S   -0.031124   0.007178   0.002648   0.013368  -0.005626  -0.004527
    12  N   -0.009895   0.002629   0.288529   0.024445  -0.043757  -0.061115
    13  H    0.000008   0.000000   0.001878  -0.000002   0.000004  -0.000006
    14  C    0.049239   0.102753   0.041116   0.374232  -0.056787   0.010274
    15  C   -0.020774  -0.059701  -0.059546  -0.050678   0.392750   0.440183
    16  O   -0.017060   0.000258   0.000124   0.008484  -0.000744  -0.000440
    17  O    0.029685  -0.000173   0.000016  -0.002865  -0.000599   0.000708
    18  C   -0.637723  -0.064953  -0.000720  -0.061979   0.020074  -0.063058
    19  C    6.018410   0.002345  -0.000094   0.006771  -0.011878   0.014921
    20  O    0.002345   8.718644  -0.000004  -0.000813   0.001770  -0.001190
    21  H   -0.000094  -0.000004   0.271514  -0.000044  -0.002938  -0.000405
    22  H    0.006771  -0.000813  -0.000044   0.383142  -0.002794   0.002683
    23  H   -0.011878   0.001770  -0.002938  -0.002794   0.413119  -0.026167
    24  H    0.014921  -0.001190  -0.000405   0.002683  -0.026167   0.438884
    25  H   -0.022900   0.007804   0.000001  -0.000046  -0.000012  -0.000062
    26  H   -0.034412   0.000842  -0.000007   0.002276  -0.000786   0.001433
    27  H    0.445427  -0.051335  -0.000000   0.002168   0.000042  -0.000006
    28  H    0.471098  -0.052048  -0.000000   0.000040  -0.000080   0.000008
    29  H   -0.048731   0.192360  -0.000000  -0.000144   0.000460  -0.000011
              25         26         27         28         29
     1  C    0.001304  -0.000696  -0.000173   0.000034  -0.000032
     2  S    0.000018  -0.000005  -0.000003   0.000000  -0.000000
     3  O    0.000000   0.000000   0.000000  -0.000000  -0.000000
     4  O    0.000000   0.000000  -0.000000   0.000000  -0.000000
     5  N    0.000000  -0.000000  -0.000000   0.000000  -0.000000
     6  H    0.000000   0.000000  -0.000000   0.000000  -0.000000
     7  S   -0.001404   0.000572   0.000128  -0.000035   0.000008
     8  C    0.044901  -0.019706  -0.004944   0.001568  -0.000458
     9  C   -0.001987  -0.006793   0.001148   0.000654  -0.000700
    10  C    0.000463  -0.000877   0.000213  -0.000015  -0.000092
    11  S   -0.039770   0.014123  -0.002685   0.000617   0.000499
    12  N    0.000665   0.001711   0.000208   0.000056  -0.000243
    13  H   -0.000000   0.000000   0.000000  -0.000000   0.000000
    14  C   -0.083871  -0.044790   0.010414   0.036138  -0.009070
    15  C    0.018708  -0.009724   0.004456  -0.011668   0.001693
    16  O   -0.006471   0.001811   0.000104  -0.000107   0.000002
    17  O    0.004018  -0.000146   0.000210   0.000029  -0.000009
    18  C    0.390856   0.406877  -0.096013  -0.125859   0.049759
    19  C   -0.022900  -0.034412   0.445427   0.471098  -0.048731
    20  O    0.007804   0.000842  -0.051335  -0.052048   0.192360
    21  H    0.000001  -0.000007  -0.000000  -0.000000  -0.000000
    22  H   -0.000046   0.002276   0.002168   0.000040  -0.000144
    23  H   -0.000012  -0.000786   0.000042  -0.000080   0.000460
    24  H   -0.000062   0.001433  -0.000006   0.000008  -0.000011
    25  H    0.443397  -0.021313  -0.001564  -0.001665  -0.000159
    26  H   -0.021313   0.429931   0.003397  -0.004628  -0.000118
    27  H   -0.001564   0.003397   0.505444  -0.039146  -0.003188
    28  H   -0.001665  -0.004628  -0.039146   0.504473  -0.003080
    29  H   -0.000159  -0.000118  -0.003188  -0.003080   0.251935
 Mulliken charges:
               1
     1  C   -1.509399
     2  S    1.769066
     3  O   -0.711261
     4  O   -0.680338
     5  N   -0.950976
     6  H    0.411478
     7  S    0.349454
     8  C   -0.373658
     9  C    0.120130
    10  C   -0.174575
    11  S    1.441560
    12  N   -0.520825
    13  H    0.292446
    14  C   -0.857161
    15  C   -0.123687
    16  O   -0.518685
    17  O   -0.626201
    18  C   -0.339837
    19  C   -0.166034
    20  O   -0.818148
    21  H    0.490959
    22  H    0.339391
    23  H    0.293706
    24  H    0.293850
    25  H    0.269090
    26  H    0.281025
    27  H    0.225697
    28  H    0.223613
    29  H    0.569320
 Sum of Mulliken charges =  -1.00000
 Mulliken charges with hydrogens summed into heavy atoms:
               1
     1  C   -1.509399
     2  S    1.769066
     3  O   -0.711261
     4  O   -0.680338
     5  N   -0.539498
     7  S    0.349454
     8  C   -0.373658
     9  C    0.120130
    10  C    0.117871
    11  S    1.441560
    12  N   -0.029866
    14  C   -0.517770
    15  C    0.463869
    16  O   -0.518685
    17  O   -0.626201
    18  C    0.210279
    19  C    0.283276
    20  O   -0.248828
 Electronic spatial extent (au):  <R**2>=           7302.1444
 Charge=             -1.0000 electrons
 Dipole moment (field-independent basis, Debye):
    X=             25.2040    Y=              8.6842    Z=             -2.7344  Tot=             26.7981
 Quadrupole moment (field-independent basis, Debye-Ang):
   XX=           -208.1104   YY=           -144.0890   ZZ=           -138.9113
   XY=             18.7364   XZ=             -2.6954   YZ=             -1.1173
 Traceless Quadrupole moment (field-independent basis, Debye-Ang):
   XX=            -44.4069   YY=             19.6146   ZZ=             24.7923
   XY=             18.7364   XZ=             -2.6954   YZ=             -1.1173
 Octapole moment (field-independent basis, Debye-Ang**2):
  XXX=            760.0953  YYY=             50.5247  ZZZ=            -20.4573  XYY=             37.7959
  XXY=              8.9925  XXZ=            -94.5105  XZZ=             38.4104  YZZ=             29.6949
  YYZ=              7.0425  XYZ=              5.5982
 Hexadecapole moment (field-independent basis, Debye-Ang**3):
 XXXX=          -9026.8309 YYYY=          -1306.4837 ZZZZ=           -492.9536 XXXY=            483.1647
 XXXZ=           -256.2779 YYYX=            209.8680 YYYZ=             10.4112 ZZZX=             15.2612
 ZZZY=            -10.4577 XXYY=          -1689.7997 XXZZ=          -1423.1739 YYZZ=           -312.8853
 XXYZ=           -169.3678 YYXZ=            -48.9365 ZZXY=             42.4837
 N-N= 1.877678280690D+03 E-N=-8.472714285865D+03  KE= 1.980588630397D+03
 D1PCM: PCM CHGder 1st derivatives, ID1Alg=3 FixD1E=F DoIter=F DoCFld=F I1PDM=0.
 Calling FoFJK, ICntrl=      2127 FMM=F ISym2X=0 I1Cent= 0 IOpClX= 0 NMat=1 NMatS=1 NMatT=0.
 ***** Axes restored to original set *****
 -------------------------------------------------------------------
 Center     Atomic                   Forces (Hartrees/Bohr)
 Number     Number              X              Y              Z
 -------------------------------------------------------------------
      1        6          -0.000911139   -0.000492052   -0.000516202
      2       16           0.007545122    0.000384037    0.001008010
      3        8          -0.003248691   -0.000557667   -0.000896963
      4        8          -0.002370400   -0.000165497    0.001588238
      5        7          -0.000838336   -0.000333250   -0.001544641
      6        1          -0.000038521   -0.000090524    0.000172305
      7       16           0.000162816    0.000396741   -0.000741808
      8        6          -0.000307801   -0.000009780    0.000641965
      9        6           0.000044414    0.000285123    0.000009792
     10        6          -0.000054796    0.000617194    0.000442020
     11       16          -0.000150637    0.000162773   -0.000518545
     12        7           0.000117660    0.000004818   -0.000033072
     13        1          -0.000127686   -0.000165969    0.000245049
     14        6          -0.000004681    0.000003954   -0.000022735
     15        6          -0.000030602   -0.000040072    0.000003831
     16        8           0.000106200    0.000015236    0.000111479
     17        8           0.000045444   -0.000000330    0.000072532
     18        6           0.000016005    0.000019545   -0.000013916
     19        6           0.000014585   -0.000034584    0.000007139
     20        8           0.000005185   -0.000013874    0.000004123
     21        1          -0.000005642   -0.000019391    0.000002868
     22        1           0.000005691    0.000009631   -0.000016753
     23        1           0.000012407    0.000007168   -0.000006474
     24        1           0.000008093    0.000001798   -0.000011442
     25        1           0.000001621   -0.000002441   -0.000005089
     26        1           0.000007483   -0.000008531    0.000011574
     27        1           0.000004394    0.000003980   -0.000006518
     28        1           0.000005016   -0.000002121   -0.000000602
     29        1          -0.000013200    0.000024085    0.000013836
 -------------------------------------------------------------------
 Cartesian Forces:  Max     0.007545122 RMS     0.000987792

 GradGradGradGradGradGradGradGradGradGradGradGradGradGradGradGradGradGrad
 Berny optimization.
 FormGI is forming the generalized inverse of G from B-inverse, IUseBI=4.
 Internal  Forces:  Max     0.002836979 RMS     0.000536974
 Search for a local minimum.
 Step number   1 out of a maximum of  174
 All quantities printed in internal units (Hartrees-Bohrs-Radians)
 Mixed Optimization -- En-DIIS/RFO-DIIS
 Second derivative matrix not updated -- first step.
 ITU=  0
     Eigenvalues ---    0.00318   0.00357   0.00523   0.00721   0.01121
     Eigenvalues ---    0.01278   0.01346   0.01526   0.01709   0.01779
     Eigenvalues ---    0.02066   0.02122   0.02216   0.03221   0.03433
     Eigenvalues ---    0.03654   0.04170   0.04237   0.04900   0.05293
     Eigenvalues ---    0.05560   0.06034   0.06183   0.06875   0.08238
     Eigenvalues ---    0.09178   0.09210   0.09920   0.10569   0.11201
     Eigenvalues ---    0.11291   0.11929   0.12103   0.12119   0.13207
     Eigenvalues ---    0.13712   0.15390   0.16000   0.16000   0.16000
     Eigenvalues ---    0.16829   0.17993   0.20024   0.21548   0.21918
     Eigenvalues ---    0.22033   0.23619   0.24637   0.24879   0.24905
     Eigenvalues ---    0.25000   0.25436   0.26040   0.28365   0.29072
     Eigenvalues ---    0.30523   0.30697   0.31056   0.31999   0.33636
     Eigenvalues ---    0.33965   0.34006   0.34110   0.34148   0.34149
     Eigenvalues ---    0.34851   0.35398   0.36301   0.39068   0.41554
     Eigenvalues ---    0.43705   0.43807   0.45144   0.49319   0.51219
     Eigenvalues ---    0.53386   0.61133   0.80756   0.82283   0.84673
     Eigenvalues ---    0.84770
 RFO step:  Lambda=-3.52511548D-04 EMin= 3.18387730D-03
 Linear search not attempted -- first point.
 Iteration  1 RMS(Cart)=  0.01803816 RMS(Int)=  0.00021178
 Iteration  2 RMS(Cart)=  0.00030222 RMS(Int)=  0.00004038
 Iteration  3 RMS(Cart)=  0.00000005 RMS(Int)=  0.00004038
 Variable       Old X    -DE/DX   Delta X   Delta X   Delta X     New X
                                 (Linear)    (Quad)   (Total)
    R1        3.40336   0.00045   0.00000   0.00174   0.00174   3.40510
    R2        3.26424   0.00047   0.00000   0.00122   0.00126   3.26549
    R3        2.57003  -0.00059   0.00000  -0.00128  -0.00124   2.56879
    R4        2.81210   0.00154   0.00000   0.00191   0.00191   2.81401
    R5        2.80407   0.00075   0.00000   0.00091   0.00091   2.80498
    R6        2.93755  -0.00138   0.00000  -0.00226  -0.00226   2.93528
    R7        1.93386  -0.00007   0.00000  -0.00017  -0.00017   1.93370
    R8        3.28935  -0.00035   0.00000  -0.00091  -0.00094   3.28841
    R9        2.61384   0.00007   0.00000   0.00039   0.00034   2.61419
   R10        3.28346   0.00034   0.00000   0.00122   0.00122   3.28468
   R11        2.71393   0.00010   0.00000   0.00026   0.00025   2.71418
   R12        2.59095   0.00010   0.00000   0.00018   0.00018   2.59113
   R13        2.05033   0.00003   0.00000   0.00008   0.00008   2.05041
   R14        3.41485   0.00002   0.00000   0.00011   0.00011   3.41496
   R15        2.79190  -0.00013   0.00000  -0.00015  -0.00015   2.79174
   R16        2.79141   0.00000   0.00000   0.00000   0.00000   2.79141
   R17        2.75216   0.00005   0.00000   0.00001   0.00001   2.75218
   R18        1.91809   0.00001   0.00000   0.00002   0.00002   1.91811
   R19        2.88861   0.00002   0.00000  -0.00002  -0.00002   2.88859
   R20        2.89853  -0.00002   0.00000  -0.00006  -0.00006   2.89846
   R21        2.07388   0.00000   0.00000   0.00001   0.00001   2.07390
   R22        2.05917   0.00001   0.00000   0.00003   0.00003   2.05920
   R23        2.07948   0.00000   0.00000   0.00001   0.00001   2.07949
   R24        2.86933  -0.00002   0.00000  -0.00005  -0.00005   2.86928
   R25        2.07144   0.00000   0.00000   0.00001   0.00001   2.07145
   R26        2.07081  -0.00000   0.00000  -0.00001  -0.00001   2.07080
   R27        2.69495  -0.00001   0.00000  -0.00003  -0.00003   2.69492
   R28        2.07319   0.00000   0.00000   0.00001   0.00001   2.07320
   R29        2.07080  -0.00000   0.00000  -0.00000  -0.00000   2.07079
   R30        1.83295  -0.00000   0.00000  -0.00001  -0.00001   1.83295
    A1        2.08596   0.00113   0.00000   0.00596   0.00565   2.09161
    A2        2.20129  -0.00093   0.00000  -0.00213  -0.00244   2.19885
    A3        1.99137  -0.00016   0.00000  -0.00011  -0.00025   1.99112
    A4        1.78835  -0.00178   0.00000  -0.00941  -0.00941   1.77894
    A5        1.80082   0.00240   0.00000   0.01121   0.01119   1.81201
    A6        1.91280  -0.00100   0.00000  -0.00015  -0.00017   1.91264
    A7        2.00668  -0.00284   0.00000  -0.02119  -0.02117   1.98551
    A8        2.02152   0.00279   0.00000   0.01445   0.01446   2.03598
    A9        1.91390   0.00029   0.00000   0.00473   0.00470   1.91860
   A10        1.88983   0.00014   0.00000   0.00090   0.00090   1.89073
   A11        1.56177   0.00008   0.00000   0.00001   0.00009   1.56185
   A12        1.97942  -0.00006   0.00000  -0.00006  -0.00009   1.97934
   A13        2.14787   0.00019   0.00000   0.00036   0.00038   2.14824
   A14        2.15306  -0.00013   0.00000  -0.00049  -0.00048   2.15258
   A15        1.93435  -0.00001   0.00000   0.00005   0.00004   1.93439
   A16        2.18091   0.00004   0.00000   0.00010   0.00010   2.18101
   A17        2.16603  -0.00003   0.00000  -0.00029  -0.00029   2.16575
   A18        1.95746   0.00016   0.00000   0.00012   0.00020   1.95765
   A19        2.17056  -0.00037   0.00000  -0.00188  -0.00192   2.16864
   A20        2.15515   0.00021   0.00000   0.00173   0.00169   2.15683
   A21        1.75274   0.00005   0.00000   0.00037   0.00037   1.75311
   A22        1.94048  -0.00007   0.00000  -0.00063  -0.00063   1.93985
   A23        1.91009  -0.00006   0.00000  -0.00057  -0.00056   1.90953
   A24        1.90213   0.00000   0.00000   0.00011   0.00011   1.90225
   A25        1.92806   0.00001   0.00000   0.00017   0.00017   1.92823
   A26        2.01278   0.00006   0.00000   0.00052   0.00052   2.01330
   A27        2.05408   0.00002   0.00000  -0.00024  -0.00024   2.05384
   A28        2.00222  -0.00002   0.00000  -0.00020  -0.00020   2.00202
   A29        2.00705  -0.00000   0.00000   0.00003   0.00003   2.00708
   A30        1.88383  -0.00000   0.00000  -0.00001  -0.00001   1.88382
   A31        1.89544   0.00002   0.00000   0.00028   0.00029   1.89572
   A32        1.82008   0.00001   0.00000   0.00018   0.00018   1.82026
   A33        1.98023  -0.00001   0.00000  -0.00005  -0.00005   1.98019
   A34        1.93326  -0.00000   0.00000  -0.00016  -0.00016   1.93310
   A35        1.94259  -0.00001   0.00000  -0.00020  -0.00020   1.94239
   A36        1.94277   0.00001   0.00000  -0.00034  -0.00034   1.94243
   A37        1.89518  -0.00001   0.00000  -0.00003  -0.00003   1.89514
   A38        1.94568   0.00002   0.00000   0.00032   0.00032   1.94600
   A39        1.88496  -0.00002   0.00000  -0.00017  -0.00017   1.88478
   A40        1.90678   0.00000   0.00000   0.00021   0.00021   1.90699
   A41        1.88660  -0.00000   0.00000   0.00000   0.00000   1.88660
   A42        1.95502  -0.00004   0.00000  -0.00019  -0.00019   1.95483
   A43        1.93202   0.00001   0.00000   0.00013   0.00013   1.93215
   A44        1.90947   0.00000   0.00000  -0.00012  -0.00012   1.90935
   A45        1.86319   0.00001   0.00000   0.00014   0.00014   1.86333
   A46        1.92826   0.00001   0.00000  -0.00000  -0.00000   1.92825
   A47        1.87387  -0.00000   0.00000   0.00007   0.00007   1.87394
   A48        1.90674   0.00001   0.00000   0.00003   0.00003   1.90678
   A49        1.91551   0.00000   0.00000   0.00002   0.00002   1.91553
   A50        1.90274   0.00000   0.00000   0.00007   0.00007   1.90281
   A51        1.91993  -0.00001   0.00000  -0.00011  -0.00011   1.91982
   A52        1.92412  -0.00000   0.00000   0.00003   0.00003   1.92415
   A53        1.89468  -0.00000   0.00000  -0.00004  -0.00004   1.89465
   A54        1.89001  -0.00004   0.00000  -0.00025  -0.00025   1.88976
    D1       -0.53284   0.00186   0.00000   0.03943   0.03946  -0.49338
    D2        1.55679  -0.00102   0.00000   0.01679   0.01679   1.57358
    D3       -2.68870   0.00011   0.00000   0.02794   0.02798  -2.66072
    D4        2.71763   0.00128   0.00000  -0.00482  -0.00483   2.71280
    D5       -1.47593  -0.00161   0.00000  -0.02746  -0.02750  -1.50343
    D6        0.56177  -0.00048   0.00000  -0.01630  -0.01631   0.54546
    D7       -3.02997  -0.00048   0.00000  -0.03476  -0.03487  -3.06484
    D8        0.01532  -0.00002   0.00000   0.00419   0.00419   0.01951
    D9        3.03545   0.00064   0.00000   0.03635   0.03625   3.07170
   D10       -0.11257   0.00055   0.00000   0.03150   0.03143  -0.08114
   D11       -0.00237   0.00000   0.00000  -0.00617  -0.00616  -0.00853
   D12        3.13280  -0.00008   0.00000  -0.01101  -0.01098   3.12182
   D13        1.30652  -0.00113   0.00000  -0.00310  -0.00311   1.30341
   D14       -0.70524   0.00010   0.00000   0.00000  -0.00000  -0.70524
   D15       -3.01155   0.00134   0.00000   0.01266   0.01267  -2.99888
   D16       -0.02502   0.00004   0.00000  -0.00106  -0.00106  -0.02608
   D17       -3.08816   0.00008   0.00000   0.00148   0.00148  -3.08668
   D18        0.02817  -0.00005   0.00000  -0.00208  -0.00207   0.02611
   D19       -3.04946  -0.00002   0.00000   0.00027   0.00027  -3.04919
   D20        3.09104  -0.00007   0.00000  -0.00458  -0.00458   3.08647
   D21        0.01341  -0.00005   0.00000  -0.00223  -0.00224   0.01118
   D22        2.79640   0.00001   0.00000  -0.00006  -0.00007   2.79633
   D23       -1.47589   0.00001   0.00000   0.00001   0.00001  -1.47588
   D24        0.76776  -0.00001   0.00000  -0.00022  -0.00022   0.76754
   D25       -0.25897   0.00004   0.00000   0.00270   0.00270  -0.25627
   D26        1.75192   0.00004   0.00000   0.00278   0.00278   1.75470
   D27       -2.28761   0.00003   0.00000   0.00254   0.00255  -2.28506
   D28       -0.01646   0.00003   0.00000   0.00521   0.00520  -0.01126
   D29        3.13150   0.00012   0.00000   0.01002   0.00999   3.14149
   D30        3.06183   0.00001   0.00000   0.00290   0.00290   3.06473
   D31       -0.07340   0.00010   0.00000   0.00771   0.00770  -0.06571
   D32       -0.31907   0.00001   0.00000  -0.00023  -0.00023  -0.31930
   D33       -2.76390   0.00002   0.00000   0.00031   0.00032  -2.76359
   D34        2.89473   0.00003   0.00000   0.00240   0.00239   2.89713
   D35        0.44990   0.00004   0.00000   0.00295   0.00294   0.45284
   D36        0.78525  -0.00001   0.00000  -0.00125  -0.00126   0.78399
   D37        2.93892  -0.00001   0.00000  -0.00115  -0.00115   2.93777
   D38       -1.27142  -0.00001   0.00000  -0.00115  -0.00115  -1.27258
   D39       -1.25434   0.00005   0.00000  -0.00076  -0.00076  -1.25511
   D40        0.89933   0.00004   0.00000  -0.00066  -0.00066   0.89867
   D41        2.97217   0.00004   0.00000  -0.00066  -0.00066   2.97150
   D42        2.80042  -0.00005   0.00000  -0.00164  -0.00165   2.79878
   D43       -1.32909  -0.00005   0.00000  -0.00154  -0.00154  -1.33063
   D44        0.74375  -0.00005   0.00000  -0.00155  -0.00155   0.74220
   D45        0.94895   0.00004   0.00000   0.00170   0.00170   0.95064
   D46        3.02170   0.00001   0.00000   0.00126   0.00126   3.02296
   D47       -1.18497   0.00001   0.00000   0.00143   0.00143  -1.18354
   D48       -2.89128   0.00002   0.00000   0.00106   0.00106  -2.89022
   D49       -0.81853  -0.00001   0.00000   0.00062   0.00062  -0.81791
   D50        1.25799  -0.00000   0.00000   0.00080   0.00080   1.25878
   D51       -1.18321  -0.00002   0.00000  -0.00063  -0.00063  -1.18384
   D52        3.02111  -0.00000   0.00000  -0.00028  -0.00028   3.02083
   D53        0.97302   0.00001   0.00000  -0.00030  -0.00030   0.97272
   D54        2.99871  -0.00003   0.00000  -0.00095  -0.00095   2.99776
   D55        0.91985  -0.00002   0.00000  -0.00060  -0.00060   0.91924
   D56       -1.12824  -0.00001   0.00000  -0.00062  -0.00062  -1.12886
   D57        0.79919  -0.00001   0.00000  -0.00051  -0.00051   0.79868
   D58       -1.27968   0.00001   0.00000  -0.00016  -0.00016  -1.27983
   D59        2.95542   0.00002   0.00000  -0.00018  -0.00018   2.95524
   D60        2.58511   0.00001   0.00000   0.00199   0.00199   2.58710
   D61        0.50782   0.00001   0.00000   0.00185   0.00185   0.50967
   D62       -1.55379   0.00001   0.00000   0.00177   0.00177  -1.55202
   D63       -1.60339   0.00002   0.00000   0.00214   0.00214  -1.60125
   D64        2.60250   0.00001   0.00000   0.00200   0.00200   2.60451
   D65        0.54089   0.00001   0.00000   0.00192   0.00192   0.54281
   D66        0.59117  -0.00000   0.00000   0.00172   0.00172   0.59289
   D67       -1.48612  -0.00000   0.00000   0.00158   0.00158  -1.48454
   D68        2.73545  -0.00001   0.00000   0.00150   0.00150   2.73695
   D69        1.05478  -0.00001   0.00000  -0.00043  -0.00043   1.05435
   D70       -1.05162  -0.00001   0.00000  -0.00032  -0.00032  -1.05194
   D71       -3.12471  -0.00001   0.00000  -0.00033  -0.00033  -3.12503
   D72       -3.11096  -0.00001   0.00000  -0.00029  -0.00029  -3.11126
   D73        1.06582  -0.00000   0.00000  -0.00019  -0.00019   1.06564
   D74       -1.00727  -0.00000   0.00000  -0.00019  -0.00019  -1.00746
   D75       -1.07882   0.00000   0.00000  -0.00014  -0.00014  -1.07896
   D76        3.09796   0.00001   0.00000  -0.00003  -0.00003   3.09793
   D77        1.02487   0.00001   0.00000  -0.00003  -0.00003   1.02484
   D78        3.11789   0.00001   0.00000   0.00061   0.00061   3.11850
   D79       -1.06160   0.00001   0.00000   0.00058   0.00058  -1.06102
   D80        1.02731   0.00000   0.00000   0.00049   0.00049   1.02780
         Item               Value     Threshold  Converged?
 Maximum Force            0.002837     0.000450     NO 
 RMS     Force            0.000537     0.000300     NO 
 Maximum Displacement     0.109446     0.001800     NO 
 RMS     Displacement     0.018032     0.001200     NO 
 Predicted change in Energy=-1.783379D-04
 GradGradGradGradGradGradGradGradGradGradGradGradGradGradGradGradGradGrad

                          Input orientation:                          
 ---------------------------------------------------------------------
 Center     Atomic      Atomic             Coordinates (Angstroms)
 Number     Number       Type             X           Y           Z
 ---------------------------------------------------------------------
      1          6           0       -1.416464    1.179169   -0.430634
      2         16           0       -1.534974    0.689679    1.299452
      3          8           0       -2.573353    1.625095    1.813468
      4          8           0       -1.981649   -0.724519    1.238037
      5          7           0       -0.132389    0.773590    1.961578
      6          1           0        0.091855    1.759888    2.116524
      7         16           0       -2.788084    1.866753   -1.225592
      8          6           0       -1.893736    1.886017   -2.718203
      9          6           0       -0.598608    1.417355   -2.588946
     10          6           0       -0.339122    0.998819   -1.239724
     11         16           0       -2.526792    2.548622   -4.195176
     12          7           0        0.342888    1.424912   -3.585756
     13          1           0        0.612638    0.596426   -0.908782
     14          6           0       -0.995527    2.818032   -5.116221
     15          6           0       -0.125025    1.571656   -4.957105
     16          8           0       -3.351870    1.556110   -4.913967
     17          8           0       -3.191787    3.836437   -3.910054
     18          6           0       -1.350385    3.132738   -6.574843
     19          6           0       -0.347682    4.077496   -7.213143
     20          8           0        0.944402    3.474249   -7.194717
     21          1           0        1.099700    0.760399   -3.459575
     22          1           0       -0.531516    3.682034   -4.623667
     23          1           0        0.740824    1.680322   -5.609717
     24          1           0       -0.692406    0.688132   -5.286325
     25          1           0       -2.329744    3.620947   -6.638761
     26          1           0       -1.412882    2.198370   -7.143940
     27          1           0       -0.327268    5.025029   -6.660542
     28          1           0       -0.656056    4.281940   -8.244608
     29          1           0        1.568902    4.079702   -7.623946
 ---------------------------------------------------------------------
                    Distance matrix (angstroms):
                    1          2          3          4          5
     1  C    0.000000
     2  S    1.801899   0.000000
     3  O    2.563832   1.489110   0.000000
     4  O    2.593824   1.484333   2.490365   0.000000
     5  N    2.745182   1.553286   2.589461   2.487489   0.000000
     6  H    3.016667   2.111760   2.685768   3.353123   1.023269
     7  S    1.728025   3.054772   3.056205   3.665310   4.290195
     8  C    2.441392   4.207313   4.589771   4.740724   5.122518
     9  C    2.320331   4.065210   4.829495   4.598503   4.619423
    10  C    1.359345   2.823658   3.834839   3.436144   3.215867
    11  S    4.156923   5.884752   6.079381   6.366352   6.840287
    12  N    3.620843   5.285091   6.139720   5.769966   5.605625
    13  H    2.164594   3.081757   4.315014   3.617188   2.970761
    14  C    4.981746   6.780985   7.206471   7.341574   7.417547
    15  C    4.723431   6.473820   7.199848   6.862890   6.964563
    16  O    4.897771   6.531339   6.772683   6.702681   7.632203
    17  O    4.724321   6.307619   6.166943   6.983523   7.294999
    18  C    6.447644   8.246644   8.610018   8.736019   8.939776
    19  C    7.452853   9.238573   9.614966   9.856553   9.753853
    20  O    7.522892   9.276424   9.845880   9.864216   9.606809
    21  H    3.959916   5.440114   6.484134   5.810959   5.559417
    22  H    4.962760   6.711516   7.059518   7.475304   7.209980
    23  H    5.632757   7.341474   8.129606   7.751571   7.675231
    24  H    4.933875   6.639457   7.404251   6.798900   7.270009
    25  H    6.733290   8.499365   8.688092   9.002677   9.322105
    26  H    6.790232   8.577990   9.050441   8.895185   9.304844
    27  H    7.401942   9.144141   9.402834   9.908675   9.615283
    28  H    8.441778  10.235523  10.578268  10.804740  10.805045
    29  H    8.310791  10.037596  10.594723  10.687455  10.281393
                    6          7          8          9         10
     6  H    0.000000
     7  S    4.413073   0.000000
     8  C    5.228104   1.740149   0.000000
     9  C    4.768178   2.618110   1.383368   0.000000
    10  C    3.468338   2.598254   2.321604   1.436282   0.000000
    11  S    6.878734   3.058047   1.738176   2.752750   3.990299
    12  N    5.717625   3.945705   2.442898   1.371168   2.480032
    13  H    3.282886   3.644037   3.349471   2.228002   1.085029
    14  C    7.390175   4.388074   2.725055   2.916601   4.332163
    15  C    7.079456   4.593817   2.870512   2.419972   3.767347
    16  O    7.831257   3.744125   2.656384   3.606304   4.784066
[...]
 00018411,-0.00144564,0.00058147,0.00096641,0.00046919,-0.00010916,0.00
 038458,-0.00044199,0.00048818,-0.00031598,-0.00125419,-0.00204798,0.00
 182044,0.00040409,-0.00030074,0.00064871,0.00065236,-0.00025175,-0.000
 15933,0.25257577,0.00002778,-0.00004064,-0.00004441,-0.00003094,-0.000
 04972,0.00007305,0.00001166,0.00000341,-0.00003008,0.00000669,0.000013
 65,-0.00000652,-0.00002025,0.00000786,-0.00003380,0.00000385,0.0000019
 9,0.00000274,-0.00014650,0.00005796,0.00006404,-0.00001577,0.00023504,
 -0.00001371,0.00068078,0.00041406,0.00018175,-0.00012080,0.00023900,0.
 00000915,-0.00079912,-0.00568612,0.00196044,-0.00167125,0.00000155,0.0
 0221850,0.00000355,-0.00000941,-0.00002063,0.02428707,0.00103388,-0.01
 485513,-0.02661261,-0.04987772,0.01713758,0.00065212,0.00168107,0.0002
 2142,0.00297523,-0.00115475,-0.00188726,-0.00076245,0.00119801,-0.0006
 2753,0.00063340,-0.00055392,0.00036148,-0.00075434,-0.00096573,0.00081
 621,-0.00010719,0.00019163,0.00010533,-0.00091649,0.00106410,-0.000176
 95,0.02479497,0.05329997,-0.00026509,0.00015242,-0.00040417,0.00008020
 ,-0.00012974,0.00037761,0.00007348,-0.00004411,-0.00017310,0.00002680,
 0.00013358,-0.00008196,-0.00006070,0.00000948,-0.00009037,0.00000607,0
 .00000661,0.00000722,0.00041685,-0.00010068,-0.00021615,0.00016461,-0.
 00042027,0.00066516,-0.00425067,0.00257773,-0.00350849,0.00122810,-0.0
 0044002,-0.00075642,-0.00081486,0.00151478,-0.00105526,0.02616489,0.00
 141684,-0.02750033,-0.00000646,0.00002460,-0.00000264,-0.00136884,-0.0
 0209494,0.00178316,0.12972573,0.01649015,-0.14482377,-0.00038844,-0.00
 019568,0.00031161,-0.00109767,0.00045117,0.00085504,-0.00070626,-0.000
 08432,0.00084065,-0.00015674,0.00003466,0.00000803,0.00124250,0.001956
 35,-0.00189534,0.00016057,-0.00004614,0.00125027,0.00014192,0.00005606
 ,0.00003323,-0.14319391,-0.02066087,0.16757960,-0.00005630,0.00004651,
 -0.00001239,0.00003138,-0.00018153,0.00047007,0.00003964,-0.00000187,-
 0.00018770,0.00003481,0.00015482,-0.00009591,-0.00009450,0.00001899,-0
 .00013917,0.00000858,0.00001006,0.00001165,0.00049682,-0.00030669,-0.0
 0066464,0.00086139,-0.00105054,0.00029251,-0.00192338,0.00125318,0.003
 65849,0.00024559,0.00008759,-0.00068083,-0.00076369,0.00152849,-0.0007
 3262,-0.00446083,-0.00526918,-0.01401861,0.00000527,-0.00000750,-0.000
 00214,0.00849565,0.01843460,0.00511309,-0.11741848,-0.10885960,-0.0306
 5179,-0.00029491,0.00047230,0.00048392,0.00068336,-0.00052553,-0.00001
 726,0.00051277,-0.00002070,0.00135252,-0.00009628,0.00020950,0.0001030
 8,-0.00013814,-0.00049599,0.00042802,0.00015456,-0.00030927,-0.0003098
 9,-0.00211906,0.00314470,-0.00027396,-0.01094178,-0.02143222,-0.007402
 19,0.12660170,0.00032664,-0.00017493,-0.00001093,0.00000944,-0.0000075
 3,-0.00008836,-0.00001643,0.00001573,0.00000550,-0.00001151,-0.0000118
 9,0.00002831,0.00000859,0.00000144,0.00001102,-0.00000125,-0.00000112,
 -0.00000290,-0.00015632,0.00005048,-0.00017274,0.00017993,-0.00041517,
 -0.00087311,0.00192785,0.00110563,-0.00067512,-0.00004640,-0.00028941,
 0.00018923,-0.00224477,-0.00238102,-0.00052963,0.00157489,0.00962032,0
 .00129495,0.00001225,0.00003566,0.00003007,-0.01182320,-0.02461673,-0.
 00684733,-0.10593868,-0.22117166,-0.05474055,-0.00072190,0.00147509,0.
 00053450,0.00014002,0.00043715,-0.00008955,0.00000180,0.00047840,-0.00
 129886,-0.00005636,0.00025461,-0.00009751,-0.00016825,-0.00018531,0.00
 015194,0.00023261,0.00019898,-0.00032594,0.00365483,-0.00283361,0.0007
 8518,-0.00100725,-0.00138777,-0.00031781,0.11391707,0.23944612,-0.0010
 3764,0.00044030,0.00039560,-0.00003114,-0.00018099,0.00033028,0.000047
 34,-0.00001774,-0.00013738,0.00003508,0.00008733,-0.00005529,-0.000070
 61,0.00002897,-0.00012091,0.00000860,0.00000953,0.00001557,0.00126528,
 -0.00030919,-0.00054266,0.00113909,-0.00006868,0.00217220,-0.00800324,
 -0.00163490,0.00638900,0.00085529,0.00109818,-0.00173067,-0.00020884,-
 0.00038396,-0.00191042,-0.01830572,-0.02319968,-0.02865628,-0.00002365
 ,-0.00010946,0.00000447,0.00276461,0.00042841,0.00079841,-0.03026457,-
 0.05421311,-0.06667376,0.00013375,-0.00018060,0.00052514,0.00016913,-0
 .00006396,0.00043755,0.00052062,0.00061512,0.00080951,0.00011152,0.000
 09984,0.00011336,0.00008150,0.00034735,-0.00033166,0.00032571,-0.00050
 137,0.00001952,-0.00085333,0.00043809,0.00046612,0.00799141,0.01528924
 ,0.00684187,0.04339098,0.06209429,0.08108811,-0.00003028,0.00000105,-0
 .00005361,-0.00000128,-0.00001902,0.00007695,0.00000824,-0.00000342,-0
 .00002598,0.00000722,0.00002367,-0.00001717,-0.00001413,0.00000285,-0.
 00002197,0.00000120,0.00000154,0.00000168,-0.00000241,-0.00001855,-0.0
 0003973,0.00018249,0.00012779,-0.00017600,-0.00012181,0.00005844,0.000
 13198,0.00000203,-0.00001274,-0.00005257,-0.00118423,-0.00012868,0.001
 38648,-0.00005269,0.00021040,0.00000469,0.00000353,0.00000185,-0.00000
 451,-0.00287756,0.00145590,-0.00099947,0.00045748,-0.00075210,-0.00039
 955,0.00018187,0.00013624,0.00053252,0.00005547,-0.00063220,0.00017062
 ,-0.26367368,0.10756324,-0.01278247,-0.01899397,0.01221867,-0.00195953
 ,-0.00403825,-0.00439110,0.00297535,0.00005495,-0.00000376,-0.00005366
 ,0.00004512,0.00013246,-0.00036165,0.00007089,-0.00012488,0.00009187,-
 0.00003568,0.00006890,-0.00004180,0.28636756,0.00004257,-0.00000979,-0
 .00002599,-0.00000465,0.00001064,0.00000614,-0.00000192,0.00000020,0.0
 0000249,0.00000121,0.00000194,-0.00000248,-0.00000316,-0.00000210,-0.0
 0000149,0.00000004,0.00000038,-0.00000082,-0.00008822,0.00003355,0.000
 03479,-0.00004864,-0.00001409,-0.00015958,0.00033052,-0.00006264,-0.00
 023546,-0.00007189,-0.00000895,0.00006321,0.00167633,0.00006707,0.0021
 9381,0.00034934,-0.00055296,0.00031476,-0.00000184,0.00000355,-0.00000
 572,0.00337932,-0.00454547,0.00188002,0.00023420,0.00075744,0.00162353
 ,0.00008772,0.00032765,-0.00072718,-0.00030175,-0.00000099,-0.00031024
 ,0.10858113,-0.10102402,0.00541389,-0.01784598,0.00975352,-0.00225040,
 -0.00467176,-0.00273511,0.00253851,0.00000279,0.00000136,0.00022115,0.
 00008607,-0.00012618,0.00017436,-0.00017076,0.00010674,-0.00003814,-0.
 00014555,0.00014189,-0.00009321,-0.11585348,0.10674995,-0.00010778,0.0
 0001220,0.00007431,0.00002274,0.00001694,-0.00001007,-0.00000332,-0.00
 000197,-0.00000293,-0.00000052,-0.00000099,0.00000099,0.00000771,-0.00
 000383,0.00001247,-0.00000049,-0.00000073,-0.00000164,0.00022367,-0.00
 011301,-0.00008968,-0.00009382,-0.00043327,0.00051320,-0.00089431,0.00
 004161,0.00077041,0.00012173,-0.00001705,-0.00017211,-0.00146417,0.003
 63218,-0.00346453,-0.00117476,0.00202190,-0.00108782,0.00000595,0.0000
 0153,0.00001017,-0.02767227,0.01612069,-0.00224514,0.00034654,-0.00195
 616,-0.00467082,0.00068122,-0.00021592,0.00048540,0.00026038,-0.000418
 40,0.00079536,-0.01198884,0.00565801,-0.04925233,0.01020823,-0.0084403
 9,0.00048436,0.00378130,0.00269040,-0.00118962,0.00008905,0.00016854,-
 0.00057262,0.00016402,-0.00018880,-0.00031483,0.00006495,-0.00026211,-
 0.00007552,-0.00000251,0.00021649,-0.00003640,0.01158232,-0.01195655,0
 .05833976,0.00000062,-0.00000988,-0.00001213,0.00000048,-0.00000186,0.
 00000728,0.00000012,0.00000051,-0.00000074,0.00000014,0.00000106,-0.00
 000196,-0.00000089,0.00000011,-0.00000069,0.00000021,-0.00000006,0.000
 00013,-0.00001821,0.00000963,0.00002085,-0.00003224,0.00004485,-0.0000
 4637,0.00010750,-0.00004551,-0.00006643,-0.00000399,0.00001854,0.00002
 664,-0.00051673,0.00078484,-0.00017572,0.00010076,-0.00008469,0.000211
 43,-0.00000013,0.00000099,-0.00000064,-0.00153532,-0.00667769,-0.00571
 337,0.00021380,-0.00044517,-0.00069684,-0.00001548,0.00008763,-0.00000
 688,0.00004575,-0.00025550,0.00047347,-0.04910951,-0.00961214,-0.00540
 209,-0.00224959,-0.02052664,-0.01163474,0.00224648,0.00077120,-0.00084
 140,0.00000614,0.00002026,0.00005631,0.00004395,0.00023236,-0.00180551
 ,-0.00002928,-0.00011495,0.00004004,0.00001534,0.00006884,0.00003097,0
 .00278581,0.02444592,0.01548699,0.04931566,0.00002877,-0.00000603,0.00
 001972,0.00000344,0.00000833,-0.00001064,-0.00000433,0.00000151,0.0000
 0353,-0.00000084,-0.00000107,0.00000257,0.00000347,-0.00000118,0.00000
 542,-0.00000042,-0.00000049,-0.00000091,-0.00001306,-0.00000081,-0.000
 00854,0.00003297,-0.00003893,0.00002755,-0.00000592,-0.00004422,0.0000
 1148,-0.00001608,-0.00001884,-0.00000466,0.00033796,-0.00001079,0.0000
 0005,0.00000216,-0.00006101,-0.00012999,-0.00000002,0.00000071,0.00000
 086,-0.00009162,0.00684229,0.00485383,0.00085846,0.00072822,0.00135080
 ,-0.00025985,0.00008799,0.00042092,-0.00005309,0.00005611,-0.00003934,
 -0.01079605,-0.24666127,-0.12051559,0.00040978,-0.01919394,-0.01006133
 ,0.00030404,0.00196906,-0.00007758,0.00004766,0.00004647,-0.00000220,0
 .00034785,0.00007063,0.00144337,-0.00006778,0.00010754,-0.00033895,-0.
 00052404,0.00015723,-0.00008359,-0.00123054,-0.01073557,-0.00601486,0.
 01301243,0.26709689,0.00006922,0.00001259,-0.00021528,-0.00003215,-0.0
 0010326,0.00023860,0.00003395,-0.00000852,-0.00007451,0.00001973,0.000
 06987,-0.00004945,-0.00005038,0.00001617,-0.00008123,0.00000461,0.0000
 0531,0.00000963,-0.00015709,0.00017792,0.00000214,0.00046876,0.0003494
 6,-0.00056676,0.00042822,-0.00015004,-0.00011862,-0.00003178,0.0000132
 4,0.00006465,-0.00355699,-0.00187637,-0.00010367,0.00009317,-0.0001283
 4,0.00057769,-0.00000208,0.00000271,-0.00001580,-0.00261136,-0.0243151
 6,-0.02023962,0.00070099,-0.00152319,0.00056063,0.00054677,0.00056164,
 0.00047711,0.00062641,-0.00009446,-0.00023216,-0.00620016,-0.11946418,
 -0.12070160,0.00010010,0.01433286,0.00808901,-0.00120651,-0.00097500,0
 .00008938,0.00006930,0.00004928,0.00006652,0.00000237,0.00178358,-0.00
 447845,-0.00029299,0.00017853,0.00020203,-0.00009792,0.00063685,-0.000
 00488,0.00071677,0.00183905,0.00080766,0.00837577,0.12684257,0.1352877
 5,0.00000159,-0.00000623,0.00001605,0.00000250,0.00001047,-0.00002790,
 -0.00000413,0.00000126,0.00000912,-0.00000223,-0.00000763,0.00000628,0
 .00000519,-0.00000141,0.00000856,-0.00000048,-0.00000062,-0.00000102,0
 .00000303,-0.00000770,-0.00000151,-0.00001129,-0.00001082,0.00002469,0
 .00001929,0.00000582,-0.00003598,-0.00000343,-0.00000292,0.00000979,0.
 00013691,0.00005450,-0.00039459,0.00009472,-0.00002877,0.00006987,0.00
 000009,0.,0.00000119,0.00015592,0.00067546,-0.00119958,-0.00002487,0.0
 0001881,-0.00013372,-0.00006571,-0.00000640,0.00015125,-0.00005219,0.0
 0009773,0.00005247,-0.00132864,-0.02071656,-0.01121447,-0.04865947,-0.
 01590447,-0.00867748,-0.01589263,0.03857076,0.01744241,-0.00000908,-0.
 00000487,0.00002005,0.00016825,0.00034909,0.00032436,-0.00000722,-0.00
 007220,0.00008639,0.00002529,0.00005973,0.00006414,0.00078015,0.000596
 32,-0.00038252,-0.00233118,-0.00301252,0.00288103,0.06321606,0.0000011
 8,-0.00000521,0.00002651,0.00000259,0.00000719,-0.00003983,-0.00000589
 ,0.00000379,0.00001266,-0.00000246,-0.00000799,0.00000865,0.00000736,-
 0.00000058,0.00001153,-0.00000062,-0.00000077,-0.00000087,0.00000428,-
 0.00001429,-0.00000465,-0.00002416,-0.00000357,0.00002590,0.00004253,0
 .00000865,-0.00002817,-0.00000786,0.00000019,0.00001437,0.00010885,0.0
 0004350,-0.00030470,0.00005719,-0.00006480,0.00011253,-0.00000034,-0.0
 0000201,0.00000175,0.00044406,0.00057910,-0.00145703,0.00000124,0.0001
 4970,-0.00006198,-0.00002630,-0.00000846,0.00017398,-0.00007131,0.0000
 8402,0.00009138,-0.00307946,-0.01835526,-0.01026640,-0.01229194,-0.241
 40970,-0.11235479,0.01287913,-0.01257205,-0.00647318,-0.00000874,-0.00
 000350,0.00002256,0.00015019,-0.00012131,0.00079354,-0.00004646,0.0000
 4651,-0.00002360,-0.00004128,0.00005764,0.00002063,0.00009841,0.000598
 99,0.00013856,-0.00285151,-0.00137654,0.00196250,0.00559389,0.26566968
 ,-0.00000750,0.00000185,0.00002833,0.00000310,0.00001020,-0.00002888,-
 0.00000415,0.00000214,0.00000950,-0.00000170,-0.00000740,0.00000614,0.
 00000665,-0.00000268,0.00001013,-0.00000045,-0.00000064,-0.00000109,0.
 00002262,-0.00002615,0.00000265,-0.00007915,-0.00001746,0.00006677,-0.
 00005075,0.00000830,0.00001847,0.00000021,-0.00000287,-0.00000542,0.00
 029440,0.00003559,0.00019150,0.00000114,-0.00002887,-0.00006162,0.0000
 0060,0.00000055,0.00000099,0.00006223,0.00115269,0.00205882,0.00007034
 ,0.00027080,0.00000466,0.00000214,-0.00004831,-0.00012808,-0.00006159,
 -0.00001613,0.00002871,0.00137940,0.01395199,0.00599589,-0.00879546,-0
 .11587098,-0.12594669,0.00395359,0.00214189,0.00540260,0.00000041,-0.0
 0000022,0.00000059,-0.00022163,-0.00044647,0.00004371,-0.00001297,-0.0
 0000166,0.00001016,-0.00010994,-0.00000337,-0.00010330,-0.00059401,-0.
 00062530,0.00038976,0.00183141,0.00215656,-0.00040293,0.00475987,0.124
 22080,0.12674869,-0.00005498,-0.00001133,0.00018069,0.00002252,0.00007
 990,-0.00020636,-0.00002524,0.00000693,0.00006759,-0.00001691,-0.00006
 016,0.00004208,0.00004638,-0.00001186,0.00006954,-0.00000432,-0.000004
 88,-0.00000668,0.00014315,-0.00011746,0.00004431,-0.00055541,-0.000098
 55,0.00043417,-0.00012388,0.00008151,-0.00003132,0.00000914,-0.0000121
 0,-0.00000051,0.00188513,-0.00037324,0.00030254,0.00036440,-0.00021826
 ,-0.00000855,0.00000122,-0.00000260,0.00000958,-0.00273346,-0.00347122
 ,0.00199554,-0.00044308,0.00050883,0.00039086,-0.00043481,-0.00028660,
 -0.00013374,-0.00038626,0.00039189,0.00013462,0.00590573,-0.00335212,0
 .02135885,-0.06422115,0.00752326,-0.06062556,-0.02718118,0.01499719,-0
 .03096657,-0.00003236,-0.00001290,0.00008210,-0.00021751,-0.00001994,-
 0.00022464,0.00013225,-0.00007335,-0.00002629,0.00003986,-0.00003348,-
 0.00004579,0.00090249,0.00056596,-0.00017970,0.00062027,0.00043951,-0.
 00068290,0.00196940,-0.00053987,-0.00283397,0.08249387,-0.00004718,-0.
 00001261,0.00015921,0.00002270,0.00007159,-0.00018199,-0.00002368,0.00
 000729,0.00005902,-0.00001502,-0.00005255,0.00003680,0.00003952,-0.000
 01121,0.00006145,-0.00000361,-0.00000426,-0.00000626,0.00012420,-0.000
 11913,0.00002387,-0.00047844,-0.00010114,0.00037616,-0.00011180,0.0000
 7476,0.00000622,0.00000447,-0.00000533,0.00000246,0.00161145,-0.000194
 31,0.00038937,0.00017909,-0.00011076,0.00001542,0.00000132,-0.00000205
 ,0.00000850,-0.00343032,-0.00149027,0.00120494,-0.00007301,0.00035331,
 -0.00009926,-0.00030811,-0.00020952,-0.00009160,-0.00035286,0.00035441
 ,0.00009650,0.00361473,-0.00442049,0.02146489,0.00904543,-0.06146912,0
 .03605640,0.01323727,-0.00293183,0.01548501,-0.00002243,-0.00000050,0.
 00003601,0.00002440,0.00008758,0.00012128,-0.00002489,0.00000432,-0.00
 003910,-0.00003247,0.00000629,-0.00000760,0.00031238,0.00065445,-0.000
 54101,0.00108135,0.00078854,-0.00025295,-0.00670599,0.00640781,-0.0265
 9763,-0.01653090,0.06242655,0.00002791,0.00001132,-0.00013344,-0.00001
 847,-0.00006098,0.00016263,0.00002165,-0.00000582,-0.00005264,0.000014
 62,0.00004871,-0.00003407,-0.00003271,0.00000923,-0.00005230,0.0000027
 5,0.00000349,0.00000554,-0.00010737,0.00007453,-0.00000378,0.00036164,
 0.00005932,-0.00028930,0.00006519,-0.00006255,0.00002888,0.00000248,0.
 00001082,-0.00001566,-0.00138912,0.00030886,0.00002770,-0.00017926,0.0
 0014904,-0.00004410,-0.00000115,0.00000128,-0.00000769,0.00213687,0.00
 157068,0.00026585,0.00025054,-0.00018117,-0.00014236,0.00044270,0.0002
 7992,0.00003057,0.00033768,-0.00031357,-0.00014953,-0.00290526,0.00075
 297,-0.01228073,-0.06293409,0.04081595,-0.29489438,-0.00392902,0.00102
 538,0.00798453,0.00002968,0.00000363,-0.00005166,0.00015934,0.00013128
 ,0.00034580,0.00002270,-0.00002916,0.00001895,-0.00001026,0.00006075,-
 0.00000703,0.00007875,-0.00010151,0.00010265,-0.00021002,0.00007722,0.
 00082220,-0.00320722,0.00244319,-0.01445795,0.07128088,-0.04737853,0.3
 1206724,-0.00001021,0.00000579,-0.00001790,0.00000349,-0.00000731,0.00
 002704,0.00000228,-0.00000094,-0.00000925,0.00000144,0.00000758,-0.000
 00635,-0.00000601,0.00000074,-0.00000733,0.00000083,0.00000067,0.00000
 059,0.00001073,-0.00000409,-0.00001006,0.00003190,0.00000094,0.0000042
 9,-0.00009482,0.00002053,0.00000008,0.00002208,-0.00000836,-0.00002502
 ,-0.00018041,0.00005401,-0.00010057,0.00017683,0.00002993,-0.00017466,
 0.00000041,0.00000068,-0.00000044,-0.00003200,0.00034643,-0.00012368,-
 0.00002874,0.00027285,-0.00011733,0.00005292,0.00001811,0.00005668,0.0
 0005271,-0.00005958,0.00000385,-0.00556985,0.00450023,-0.00095171,-0.0
 2802666,-0.02449738,0.01706089,-0.22181414,-0.16153999,0.12507893,0.00
 000517,-0.00001051,-0.00000948,0.00001376,-0.00004055,0.00008639,0.000
 23064,-0.00030181,0.00008809,0.00009103,0.00004242,-0.00004868,-0.0008
 8052,-0.00116981,0.00091820,0.00033954,0.00024767,-0.00021483,0.001814
 17,-0.00039271,0.00038517,0.00189471,-0.00113762,-0.00031143,0.2518987
 1,0.00001319,-0.00000833,-0.00001790,-0.00000418,-0.00000055,0.0000140
 9,0.00000228,-0.00000128,-0.00000375,0.00000100,0.00000189,-0.00000315
 ,-0.00000397,0.00000031,-0.00000501,0.00000033,0.00000054,0.00000059,-
 0.00002928,0.00001661,0.00000398,0.00004299,0.00003434,-0.00005644,0.0
 0009584,-0.00003830,-0.00000274,-0.00001725,0.00000885,0.00001930,-0.0
 0017890,-0.00000725,0.00021045,-0.00020506,0.00001032,0.00012590,-0.00
 000028,0.00000041,-0.00000105,0.00014379,-0.00016285,0.00015445,0.0004
 0107,-0.00016581,-0.00014078,0.00005585,0.00006659,-0.00009835,0.00002
 630,-0.00002910,-0.00004130,0.00291758,-0.00105028,-0.00018445,0.01892
 155,0.00952665,-0.00980534,-0.20725582,-0.23017545,0.15484675,0.000003
 88,0.00001755,-0.00000618,-0.00004768,0.00003046,0.00001632,-0.0003243
 6,0.00001750,0.00014993,-0.00007386,-0.00000650,0.00005076,0.00075669,
 0.00060854,-0.00015398,0.00004508,0.00018918,0.00005736,0.00045527,0.0
 0028924,-0.00025722,0.00063587,-0.00010182,0.00029576,0.18362207,0.220
 92852,-0.00001240,0.00000225,-0.00000271,0.00000728,0.00000503,0.00000
 622,-0.00000053,-0.00000161,-0.00000211,-0.00000151,-0.00000131,-0.000
 00155,-0.00000344,-0.00000165,-0.00000089,0.00000090,0.00000024,-0.000
 00075,0.00001862,-0.00000468,-0.00000212,-0.00002642,-0.00000612,0.000
 02366,-0.00007648,0.00001326,0.00000241,0.00001490,-0.00000365,-0.0000
 1614,-0.00004197,-0.00001695,0.00012236,0.00009986,0.00001427,-0.00010
 001,-0.00000022,0.00000130,-0.00000065,-0.00024700,0.00003703,0.000172
 01,-0.00012459,0.00023605,0.00011785,0.00002097,-0.00000628,-0.0000105
 1,0.00002212,-0.00002456,-0.00001485,-0.00044596,-0.00019445,0.0004666
 7,-0.00421925,-0.00091561,-0.00107953,0.14738618,0.14513198,-0.1040626
 8,0.00000236,-0.00000555,-0.00000857,-0.00008118,0.00001733,0.00008102
 ,0.00036823,0.00003034,-0.00020107,0.00010541,0.00003465,-0.00009607,-
 0.00016632,0.00022835,0.00039955,0.00005425,0.00007174,-0.00001005,-0.
 00065153,0.00093415,0.00011785,-0.00042077,-0.00040755,0.00075407,-0.1
 4158148,-0.14516800,0.10334659\\-0.00004494,0.00001075,0.00000094,0.00
 004407,0.00000819,0.00000638,0.00002150,-0.00001110,-0.00000274,-0.000
 00180,0.00000814,-0.00000935,-0.00001623,0.00000464,0.00000173,0.00001
 045,-0.00001983,-0.00000246,0.00001572,-0.00000036,0.00000329,0.000002
 48,0.00000494,-0.00000812,-0.00000193,-0.00000596,0.00000914,0.0000085
 3,-0.00002377,0.00000053,-0.00000255,0.00000324,0.00000361,-0.00000250
 ,0.00000049,-0.00000583,0.00000176,-0.00000045,-0.00000270,0.00000279,
 -0.00000224,-0.00000341,-0.00000663,-0.00000031,-0.00000504,-0.0000069
 6,0.00001272,0.00000922,0.00000671,0.00001100,0.00000460,-0.00000349,0
 .00000394,0.00000468,0.00000058,0.00000040,-0.00000114,-0.00000263,-0.
 00000308,-0.00000277,-0.00000316,-0.00000710,-0.00000326,0.00000167,0.
 00000048,0.00000188,-0.00000649,-0.00000681,-0.00000399,-0.00000921,0.
 00000005,-0.00000042,-0.00000110,0.00001002,0.00000517,-0.00000700,0.0
 0000520,0.00000103,0.00000440,0.00000004,0.00000171,-0.00000249,0.0000
 0285,0.00000137,-0.00000153,-0.00000609,-0.00000405\\\@
 The archive entry for this job was punched.


 We find comfort among those who agree with us -- growth among those who don't.
 -- Frank A. Clark
 Job cpu time:       0 days  3 hours 32 minutes 33.2 seconds.
 Elapsed time:       0 days  0 hours 13 minutes 53.7 seconds.
 File lengths (MBytes):  RWF=    569 Int=      0 D2E=      0 Chk=     21 Scr=      1
 Normal termination of Gaussian 16 at Fri May 27 15:18:19 2022.
