 Entering Gaussian System, Link 0=g16
 AtFile(1): /home/561/yj5695/Basis/6-31pGd.gbs
 Initial command:
 /apps/gaussian/g16c01/g16/l1.exe "/jobfs/45185335.gadi-pbs/Gau-3563755.inp" -scrdir="/jobfs/45185335.gadi-pbs/"
 Entering Link 1 = /apps/gaussian/g16c01/g16/l1.exe PID=   3563824.
  
 Copyright (c) 1988-2019, Gaussian, Inc.  All Rights Reserved.
  
 This is part of the Gaussian(R) 16 program.  It is based on
 the Gaussian(R) 09 system (copyright 2009, Gaussian, Inc.),
 the Gaussian(R) 03 system (copyright 2003, Gaussian, Inc.),
 the Gaussian(R) 98 system (copyright 1998, Gaussian, Inc.),
 the Gaussian(R) 94 system (copyright 1995, Gaussian, Inc.),
 the Gaussian 92(TM) system (copyright 1992, Gaussian, Inc.),
 the Gaussian 90(TM) system (copyright 1990, Gaussian, Inc.),
 the Gaussian 88(TM) system (copyright 1988, Gaussian, Inc.),
 the Gaussian 86(TM) system (copyright 1986, Carnegie Mellon
 University), and the Gaussian 82(TM) system (copyright 1983,
 Carnegie Mellon University). Gaussian is a federally registered
 trademark of Gaussian, Inc.
  
 This software contains proprietary and confidential information,
 including trade secrets, belonging to Gaussian, Inc.
  
 This software is provided under written license and may be
 used, copied, transmitted, or stored only in accord with that
 written license.
  
 The following legend is applicable only to US Government
 contracts under FAR:
  
                    RESTRICTED RIGHTS LEGEND
  
 Use, reproduction and disclosure by the US Government is
 subject to restrictions as set forth in subparagraphs (a)
 and (c) of the Commercial Computer Software - Restricted
 Rights clause in FAR 52.227-19.
  
 Gaussian, Inc.
 340 Quinnipiac St., Bldg. 40, Wallingford CT 06492
  
  
 ---------------------------------------------------------------
 Warning -- This program may not be used in any manner that
 competes with the business of Gaussian, Inc. or will provide
 assistance to any competitor of Gaussian, Inc.  The licensee
 of this program is prohibited from giving any competitor of
 Gaussian, Inc. access to this program.  By using this program,
 the user acknowledges that Gaussian, Inc. is engaged in the
 business of creating and licensing software in the field of
 computational chemistry and represents and warrants to the
 licensee that it is not a competitor of Gaussian, Inc. and that
 it will not use this program in any manner prohibited above.
 ---------------------------------------------------------------
  

 Cite this work as:
 Gaussian 16, Revision C.01,
 M. J. Frisch, G. W. Trucks, H. B. Schlegel, G. E. Scuseria, 
 M. A. Robb, J. R. Cheeseman, G. Scalmani, V. Barone, 
 G. A. Petersson, H. Nakatsuji, X. Li, M. Caricato, A. V. Marenich, 
 J. Bloino, B. G. Janesko, R. Gomperts, B. Mennucci, H. P. Hratchian, 
 J. V. Ortiz, A. F. Izmaylov, J. L. Sonnenberg, D. Williams-Young, 
 F. Ding, F. Lipparini, F. Egidi, J. Goings, B. Peng, A. Petrone, 
 T. Henderson, D. Ranasinghe, V. G. Zakrzewski, J. Gao, N. Rega, 
 G. Zheng, W. Liang, M. Hada, M. Ehara, K. Toyota, R. Fukuda, 
 J. Hasegawa, M. Ishida, T. Nakajima, Y. Honda, O. Kitao, H. Nakai, 
 T. Vreven, K. Throssell, J. A. Montgomery, Jr., J. E. Peralta, 
 F. Ogliaro, M. J. Bearpark, J. J. Heyd, E. N. Brothers, K. N. Kudin, 
 V. N. Staroverov, T. A. Keith, R. Kobayashi, J. Normand, 
 K. Raghavachari, A. P. Rendell, J. C. Burant, S. S. Iyengar, 
 J. Tomasi, M. Cossi, J. M. Millam, M. Klene, C. Adamo, R. Cammi, 
 J. W. Ochterski, R. L. Martin, K. Morokuma, O. Farkas, 
 J. B. Foresman, and D. J. Fox, Gaussian, Inc., Wallingford CT, 2019.
 
 ******************************************
 Gaussian 16:  ES64L-G16RevC.01  3-Jul-2019
                23-Jun-2022 
 ******************************************
 %nproc=16
 Will use up to   16 processors via shared memory.
 %mem=50gb
 -----------------------------------------------------
 #m062X/gen 6D OPT Freq=noraman SCRF=(SMD,Solvent=h2o)
 -----------------------------------------------------
 1/18=20,19=15,26=3,38=1/1,3;
 2/9=110,12=2,17=6,18=5,40=1/2;
 3/5=7,8=2,11=2,25=1,30=1,70=32201,71=1,72=1,74=-55/1,2,3;
 4//1;
 5/5=2,38=5,53=1/2;
 6/7=2,8=2,9=2,10=2,28=1/1;
 7//1,2,3,16;
 1/18=20,19=15,26=3/3(2);
 2/9=110/2;
 99//99;
 2/9=110/2;
 3/5=7,6=1,8=2,11=2,25=1,30=1,70=32205,71=1,72=1,74=-55,82=7/1,2,3;
 4/5=5,16=3,69=1/1;
 5/5=2,38=5,53=1/2;
 7//1,2,3,16;
 1/18=20,19=15,26=3/3(-5);
 2/9=110/2;
 6/7=2,8=2,9=2,10=2,19=2,28=1/1;
 99/9=1/99;
 -----------------
 A.23.smd.a1b2.smd
 -----------------
 Symbolic Z-matrix:
 Charge = -1 Multiplicity = 1
 C                     1.09492   0.4235    0.1452 
 C                    -1.24758   0.82356   0.09874 
 N                    -2.60247   0.80419  -0.00424 
 S                    -0.24106  -0.44294  -0.55652 
 S                     2.79605  -0.19213   0.08155 
 O                     2.8736   -1.01163   1.32247 
 O                     2.79181  -0.9844   -1.17148 
 N                     3.78327   0.99476  -0.0178 
 H                     3.89868   1.40645   0.9114 
 N                     0.76243   1.49977   0.76692 
 N                    -0.58359   1.74847   0.7489 
 H                    -3.06037   0.15032   0.62481 
 H                    -3.08054   1.6957   -0.08101 
 

 GradGradGradGradGradGradGradGradGradGradGradGradGradGradGradGradGradGrad
 Berny optimization.
 Initialization pass.
                           ----------------------------
                           !    Initial Parameters    !
                           ! (Angstroms and Degrees)  !
 --------------------------                            --------------------------
 ! Name  Definition              Value          Derivative Info.                !
 --------------------------------------------------------------------------------
 ! R1    R(1,4)                  1.7401         estimate D2E/DX2                !
 ! R2    R(1,5)                  1.8102         estimate D2E/DX2                !
 ! R3    R(1,10)                 1.2866         estimate D2E/DX2                !
 ! R4    R(2,3)                  1.3589         estimate D2E/DX2                !
 ! R5    R(2,4)                  1.7454         estimate D2E/DX2                !
 ! R6    R(2,11)                 1.3111         estimate D2E/DX2                !
 ! R7    R(3,12)                 1.0163         estimate D2E/DX2                !
 ! R8    R(3,13)                 1.0145         estimate D2E/DX2                !
 ! R9    R(5,6)                  1.4891         estimate D2E/DX2                !
 ! R10   R(5,7)                  1.4825         estimate D2E/DX2                !
 ! R11   R(5,8)                  1.547          estimate D2E/DX2                !
 ! R12   R(8,9)                  1.0228         estimate D2E/DX2                !
 ! R13   R(10,11)                1.3689         estimate D2E/DX2                !
 ! A1    A(4,1,5)              122.5457         estimate D2E/DX2                !
 ! A2    A(4,1,10)             114.3919         estimate D2E/DX2                !
 ! A3    A(5,1,10)             122.9777         estimate D2E/DX2                !
 ! A4    A(3,2,4)              122.4222         estimate D2E/DX2                !
 ! A5    A(3,2,11)             123.5426         estimate D2E/DX2                !
 ! A6    A(4,2,11)             113.9534         estimate D2E/DX2                !
 ! A7    A(2,3,12)             114.297          estimate D2E/DX2                !
 ! A8    A(2,3,13)             117.5834         estimate D2E/DX2                !
 ! A9    A(12,3,13)            113.5708         estimate D2E/DX2                !
 ! A10   A(1,4,2)               85.9886         estimate D2E/DX2                !
 ! A11   A(1,5,6)              101.9347         estimate D2E/DX2                !
 ! A12   A(1,5,7)              102.0511         estimate D2E/DX2                !
 ! A13   A(1,5,8)              109.9399         estimate D2E/DX2                !
 ! A14   A(6,5,7)              114.2291         estimate D2E/DX2                !
 ! A15   A(6,5,8)              116.2635         estimate D2E/DX2                !
 ! A16   A(7,5,8)              110.9506         estimate D2E/DX2                !
 ! A17   A(5,8,9)              108.8125         estimate D2E/DX2                !
 ! A18   A(1,10,11)            113.5595         estimate D2E/DX2                !
 ! A19   A(2,11,10)            112.1062         estimate D2E/DX2                !
 ! D1    D(5,1,4,2)            176.7201         estimate D2E/DX2                !
 ! D2    D(10,1,4,2)            -0.0236         estimate D2E/DX2                !
 ! D3    D(4,1,5,6)            -89.3583         estimate D2E/DX2                !
 ! D4    D(4,1,5,7)             28.9379         estimate D2E/DX2                !
 ! D5    D(4,1,5,8)            146.738          estimate D2E/DX2                !
 ! D6    D(10,1,5,6)            87.1061         estimate D2E/DX2                !
 ! D7    D(10,1,5,7)          -154.5976         estimate D2E/DX2                !
 ! D8    D(10,1,5,8)           -36.7976         estimate D2E/DX2                !
 ! D9    D(4,1,10,11)           -0.0943         estimate D2E/DX2                !
 ! D10   D(5,1,10,11)         -176.8221         estimate D2E/DX2                !
 ! D11   D(4,2,3,12)            75.2971         estimate D2E/DX2                !
 ! D12   D(4,2,3,13)          -147.7448         estimate D2E/DX2                !
 ! D13   D(11,2,3,12)         -101.2143         estimate D2E/DX2                !
 ! D14   D(11,2,3,13)           35.7437         estimate D2E/DX2                !
 ! D15   D(3,2,4,1)           -176.6768         estimate D2E/DX2                !
 ! D16   D(11,2,4,1)             0.1419         estimate D2E/DX2                !
 ! D17   D(3,2,11,10)          176.5555         estimate D2E/DX2                !
 ! D18   D(4,2,11,10)           -0.2225         estimate D2E/DX2                !
 ! D19   D(1,5,8,9)             78.8045         estimate D2E/DX2                !
 ! D20   D(6,5,8,9)            -36.303          estimate D2E/DX2                !
 ! D21   D(7,5,8,9)           -169.0647         estimate D2E/DX2                !
 ! D22   D(1,10,11,2)            0.2041         estimate D2E/DX2                !
 --------------------------------------------------------------------------------
 Trust Radius=3.00D-01 FncErr=1.00D-07 GrdErr=1.00D-06 EigMax=2.50D+02 EigMin=1.00D-04
 Number of steps in this run=     64 maximum allowed number of steps=    100.
 GradGradGradGradGradGradGradGradGradGradGradGradGradGradGradGradGradGrad

                          Input orientation:                          
 ---------------------------------------------------------------------
 Center     Atomic      Atomic             Coordinates (Angstroms)
 Number     Number       Type             X           Y           Z
 ---------------------------------------------------------------------
      1          6           0        1.094917    0.423503    0.145198
      2          6           0       -1.247579    0.823559    0.098743
      3          7           0       -2.602469    0.804188   -0.004242
      4         16           0       -0.241062   -0.442936   -0.556521
      5         16           0        2.796048   -0.192130    0.081545
      6          8           0        2.873601   -1.011631    1.322470
      7          8           0        2.791813   -0.984395   -1.171476
      8          7           0        3.783272    0.994760   -0.017797
      9          1           0        3.898683    1.406450    0.911401
     10          7           0        0.762434    1.499767    0.766920
     11          7           0       -0.583585    1.748467    0.748903
     12          1           0       -3.060366    0.150323    0.624805
     13          1           0       -3.080545    1.695703   -0.081005
 ---------------------------------------------------------------------
                    Distance matrix (angstroms):
                    1          2          3          4          5
     1  C    0.000000
     2  C    2.376866   0.000000
     3  N    3.719935   1.358936   0.000000
     4  S    1.740105   1.745410   2.727008   0.000000
     5  S    1.810222   4.169273   5.490355   3.113530   0.000000
     6  O    2.570855   4.674351   5.919857   3.681731   1.489124
     7  O    2.568124   4.604220   5.801702   3.141604   1.482486
     8  N    2.753208   5.035112   6.388598   4.307256   1.546993
     9  H    3.068282   5.242536   6.592882   4.765765   2.111853
    10  N    1.286634   2.223482   3.521519   2.555894   2.732735
    11  N    2.222017   1.311126   2.352612   2.573655   3.953884
    12  H    4.191781   2.004042   1.016321   3.113834   5.891519
    13  H    4.370829   2.037820   1.014519   3.586441   6.174519
                    6          7          8          9         10
     6  O    0.000000
     7  O    2.495435   0.000000
     8  N    2.578647   2.496201   0.000000
     9  H    2.658362   3.358523   1.022848   0.000000
    10  N    3.327579   3.747909   3.161689   3.140962   0.000000
    11  N    4.460858   4.748653   4.497260   4.498234   1.368921
    12  H    6.086776   6.225930   6.925416   7.077313   4.056476
    13  H    6.689638   6.546498   6.899804   7.055364   3.940286
                   11         12         13
    11  N    0.000000
    12  H    2.950239   0.000000
    13  H    2.631794   1.699051   0.000000
 Stoichiometry    C2H3N4O2S2(1-)
 Framework group  C1[X(C2H3N4O2S2)]
 Deg. of freedom    33
 Full point group                 C1      NOp   1
 Largest Abelian subgroup         C1      NOp   1
 Largest concise Abelian subgroup C1      NOp   1
                         Standard orientation:                         
 ---------------------------------------------------------------------
 Center     Atomic      Atomic             Coordinates (Angstroms)
 Number     Number       Type             X           Y           Z
 ---------------------------------------------------------------------
      1          6           0        0.034749    0.220237   -0.053006
      2          6           0       -2.340295    0.128193   -0.039435
      3          7           0       -3.663235   -0.174709    0.029769
      4         16           0       -1.099676   -1.099126   -0.071179
      5         16           0        1.825353   -0.035941    0.017794
      6          8           0        2.073839   -0.069459    1.485657
      7          8           0        1.977128   -1.348184   -0.655069
      8          7           0        2.549466    1.078615   -0.773796
      9          1           0        2.582666    1.923572   -0.198329
     10          7           0       -0.507369    1.386805   -0.027434
     11          7           0       -1.875889    1.354188   -0.021704
     12          1           0       -3.975435   -0.477422    0.948357
     13          1           0       -4.313334    0.451191   -0.433770
 ---------------------------------------------------------------------
 Rotational constants (GHZ):           2.6055759           0.6586894           0.5894535
 General basis read from cards:  (6D, 7F)
 There are   204 symmetry adapted cartesian basis functions of A   symmetry.
 There are   204 symmetry adapted basis functions of A   symmetry.
   204 basis functions,   380 primitive gaussians,   204 cartesian basis functions
    46 alpha electrons       46 beta electrons
       nuclear repulsion energy       745.5412813893 Hartrees.
 NAtoms=   13 NActive=   13 NUniq=   13 SFac= 1.00D+00 NAtFMM=   60 NAOKFM=F Big=F
 Integral buffers will be    131072 words long.
 Raffenetti 2 integral format.
 Two-electron integral symmetry is turned on.
 ------------------------------------------------------------------------------
 Polarizable Continuum Model (PCM)
 =================================
 Model                : PCM.
 Atomic radii         : SMD-Coulomb.
 Polarization charges : Total charges.
 Charge compensation  : None.
 Solution method      : On-the-fly selection.
 Cavity type          : VdW (van der Waals Surface) (Alpha=1.000).
 Cavity algorithm     : GePol (No added spheres)
                        Default sphere list used, NSphG=   13.
                        Lebedev-Laikov grids with approx.  5.0 points / Ang**2.
                        Smoothing algorithm: York/Karplus (Gamma=1.0000).
                        Polarization charges: spherical gaussians, with
                                              point-specific exponents (IZeta= 3).
                        Self-potential: point-specific (ISelfS= 7).
                        Self-field    : sphere-specific E.n sum rule (ISelfD= 2).
 1st derivatives      : Analytical E(r).r(x)/FMM algorithm (CHGder, D1EAlg=3).
                        Cavity 1st derivative terms included.
 Solvent              : Water, Eps=  78.355300 Eps(inf)=   1.777849
 ------------------------------------------------------------------------------
 Spheres list:
 ISph  on   Nord     Re0    Alpha      Xe            Ye            Ze
    1   C      1    1.8500  1.000      0.034749      0.220237     -0.053006
    2   C      2    1.8500  1.000     -2.340295      0.128193     -0.039435
    3   N      3    1.8900  1.000     -3.663235     -0.174709      0.029769
    4   S      4    2.4900  1.000     -1.099676     -1.099126     -0.071179
    5   S      5    2.4900  1.000      1.825353     -0.035941      0.017794
    6   O      6    1.5200  1.000      2.073839     -0.069459      1.485657
    7   O      7    1.5200  1.000      1.977128     -1.348184     -0.655069
    8   N      8    1.8900  1.000      2.549466      1.078615     -0.773796
    9   H      9    1.2000  1.000      2.582666      1.923572     -0.198329
   10   N     10    1.8900  1.000     -0.507369      1.386805     -0.027434
   11   N     11    1.8900  1.000     -1.875889      1.354188     -0.021704
   12   H     12    1.2000  1.000     -3.975435     -0.477422      0.948357
   13   H     13    1.2000  1.000     -4.313334      0.451191     -0.433770
 ------------------------------------------------------------------------------
 ------------------------------------------------------------------------------
 Atomic radii for non-electrostatic terms: SMD-CDS.
 ------------------------------------------------------------------------------
 Nuclear repulsion after PCM non-electrostatic terms =      745.5424382842 Hartrees.
 One-electron integrals computed using PRISM.
 NBasis=   204 RedAO= T EigKep=  2.67D-05  NBF=   204
 NBsUse=   204 1.00D-06 EigRej= -1.00D+00 NBFU=   204
 ExpMin= 4.05D-02 ExpMax= 2.19D+04 ExpMxC= 3.30D+03 IAcc=3 IRadAn=         5 AccDes= 0.00D+00
 Harris functional with IExCor= 1009 and IRadAn=       5 diagonalized for initial guess.
 HarFok:  IExCor= 1009 AccDes= 0.00D+00 IRadAn=         5 IDoV= 1 UseB2=F ITyADJ=14
 ICtDFT=  3500011 ScaDFX=  1.000000  1.000000  1.000000  1.000000
 FoFCou: FMM=F IPFlag=           0 FMFlag=      100000 FMFlg1=           0
         NFxFlg=           0 DoJE=T BraDBF=F KetDBF=T FulRan=T
         wScrn=  0.000000 ICntrl=       500 IOpCl=  0 I1Cent=   200000004 NGrid=           0
         NMat0=    1 NMatS0=      1 NMatT0=    0 NMatD0=    1 NMtDS0=    0 NMtDT0=    0
 Petite list used in FoFCou.
 Requested convergence on RMS density matrix=1.00D-08 within 128 cycles.
 Requested convergence on MAX density matrix=1.00D-06.
 Requested convergence on             energy=1.00D-06.
 No special actions if energy rises.
 Inv3:  Mode=1 IEnd=     5354688.
 Iteration    1 A*A^-1 deviation from unit magnitude is 3.77D-15 for   1321.
 Iteration    1 A*A^-1 deviation from orthogonality  is 2.69D-15 for   1335    326.
 Iteration    1 A^-1*A deviation from unit magnitude is 3.55D-15 for   1321.
 Iteration    1 A^-1*A deviation from orthogonality  is 1.55D-15 for    314    115.
 Error on total polarization charges =  0.03399
 SCF Done:  E(RM062X) =  -1243.68199715     A.U. after   14 cycles
            NFock= 14  Conv=0.95D-08     -V/T= 2.0051
 SMD-CDS (non-electrostatic) energy       (kcal/mol) =       0.73
 (included in total energy above)

 **********************************************************************

            Population analysis using the SCF Density.

 **********************************************************************

 Orbital symmetries:
       Occupied  (A) (A) (A) (A) (A) (A) (A) (A) (A) (A) (A) (A)
                 (A) (A) (A) (A) (A) (A) (A) (A) (A) (A) (A) (A)
                 (A) (A) (A) (A) (A) (A) (A) (A) (A) (A) (A) (A)
                 (A) (A) (A) (A) (A) (A) (A) (A) (A) (A)
       Virtual   (A) (A) (A) (A) (A) (A) (A) (A) (A) (A) (A) (A)
                 (A) (A) (A) (A) (A) (A) (A) (A) (A) (A) (A) (A)
                 (A) (A) (A) (A) (A) (A) (A) (A) (A) (A) (A) (A)
                 (A) (A) (A) (A) (A) (A) (A) (A) (A) (A) (A) (A)
                 (A) (A) (A) (A) (A) (A) (A) (A) (A) (A) (A) (A)
                 (A) (A) (A) (A) (A) (A) (A) (A) (A) (A) (A) (A)
                 (A) (A) (A) (A) (A) (A) (A) (A) (A) (A) (A) (A)
                 (A) (A) (A) (A) (A) (A) (A) (A) (A) (A) (A) (A)
                 (A) (A) (A) (A) (A) (A) (A) (A) (A) (A) (A) (A)
                 (A) (A) (A) (A) (A) (A) (A) (A) (A) (A) (A) (A)
                 (A) (A) (A) (A) (A) (A) (A) (A) (A) (A) (A) (A)
                 (A) (A) (A) (A) (A) (A) (A) (A) (A) (A) (A) (A)
                 (A) (A) (A) (A) (A) (A) (A) (A) (A) (A) (A) (A)
                 (A) (A)
 The electronic state is 1-A.
 Alpha  occ. eigenvalues --  -90.15018 -89.98093 -19.63056 -19.63006 -14.81465
 Alpha  occ. eigenvalues --  -14.80472 -14.77683 -14.73005 -10.66578 -10.63651
 Alpha  occ. eigenvalues --   -8.45830  -8.32639  -6.38057  -6.37995  -6.37925
 Alpha  occ. eigenvalues --   -6.24601  -6.24409  -6.24162  -1.22227  -1.16362
 Alpha  occ. eigenvalues --   -1.10372  -1.04370  -0.97691  -0.92784  -0.89758
 Alpha  occ. eigenvalues --   -0.75010  -0.69267  -0.65766  -0.61276  -0.59730
 Alpha  occ. eigenvalues --   -0.56628  -0.54230  -0.53427  -0.51619  -0.50985
 Alpha  occ. eigenvalues --   -0.43239  -0.41239  -0.40703  -0.39596  -0.38165
 Alpha  occ. eigenvalues --   -0.36546  -0.35744  -0.35441  -0.33870  -0.31504
 Alpha  occ. eigenvalues --   -0.30664
 Alpha virt. eigenvalues --   -0.01263   0.01250   0.02103   0.03751   0.04309
 Alpha virt. eigenvalues --    0.04391   0.05296   0.05431   0.06679   0.07596
 Alpha virt. eigenvalues --    0.07921   0.08874   0.09521   0.09929   0.10831
 Alpha virt. eigenvalues --    0.12023   0.12129   0.13832   0.14724   0.15219
 Alpha virt. eigenvalues --    0.16210   0.16475   0.17401   0.18160   0.18893
 Alpha virt. eigenvalues --    0.19952   0.20865   0.21334   0.21666   0.22745
 Alpha virt. eigenvalues --    0.22998   0.23342   0.24075   0.24444   0.25272
 Alpha virt. eigenvalues --    0.26270   0.27777   0.27896   0.29662   0.30099
 Alpha virt. eigenvalues --    0.30520   0.31150   0.31846   0.32009   0.33075
 Alpha virt. eigenvalues --    0.34185   0.34532   0.35346   0.36434   0.36947
 Alpha virt. eigenvalues --    0.38327   0.41132   0.41627   0.44386   0.52060
 Alpha virt. eigenvalues --    0.52803   0.53373   0.56438   0.57783   0.60512
 Alpha virt. eigenvalues --    0.64419   0.65026   0.68078   0.69821   0.70623
 Alpha virt. eigenvalues --    0.72120   0.74385   0.78918   0.85819   0.88685
 Alpha virt. eigenvalues --    0.92222   0.94311   0.95284   0.98846   0.99436
 Alpha virt. eigenvalues --    0.99716   1.01091   1.02672   1.03917   1.05143
 Alpha virt. eigenvalues --    1.05540   1.06456   1.07586   1.08849   1.10652
 Alpha virt. eigenvalues --    1.11178   1.12266   1.12751   1.14373   1.16911
 Alpha virt. eigenvalues --    1.17924   1.18242   1.20138   1.22686   1.24583
 Alpha virt. eigenvalues --    1.28628   1.34559   1.35248   1.36341   1.38762
 Alpha virt. eigenvalues --    1.39969   1.42935   1.43628   1.45826   1.48242
 Alpha virt. eigenvalues --    1.50407   1.54881   1.57582   1.62216   1.65556
 Alpha virt. eigenvalues --    1.67481   1.74254   1.79408   1.79983   1.81456
 Alpha virt. eigenvalues --    1.82783   1.86897   1.88290   1.88727   1.89860
 Alpha virt. eigenvalues --    1.95431   1.96947   2.00291   2.04222   2.08207
 Alpha virt. eigenvalues --    2.11141   2.15531   2.17727   2.21729   2.24938
 Alpha virt. eigenvalues --    2.30110   2.33310   2.34957   2.40161   2.40816
 Alpha virt. eigenvalues --    2.42746   2.43813   2.50334   2.56307   2.62835
 Alpha virt. eigenvalues --    2.65322   2.73842   2.80080   2.87530   2.87794
 Alpha virt. eigenvalues --    2.92822   3.07526   3.10821   3.96123   3.99586
 Alpha virt. eigenvalues --    4.00888   4.06879   4.08043   4.14334   4.25440
 Alpha virt. eigenvalues --    4.31563   4.36636   4.42057
          Condensed to atoms (all electrons):
               1          2          3          4          5          6
     1  C    8.807677  -0.228280   0.047307  -0.695642  -1.089580  -0.197582
     2  C   -0.228280   7.285156   0.273216  -0.901148  -0.519729  -0.041470
     3  N    0.047307   0.273216   7.192232  -0.095698   0.026559   0.001116
     4  S   -0.695642  -0.901148  -0.095698  17.174609  -0.007425   0.001907
     5  S   -1.089580  -0.519729   0.026559  -0.007425  15.505792   0.270636
     6  O   -0.197582  -0.041470   0.001116   0.001907   0.270636   8.987813
     7  O   -0.079686   0.024946  -0.000621   0.041321   0.121847  -0.139415
     8  N    0.029345  -0.013188   0.000203   0.034273   0.077624  -0.190544
     9  H   -0.078059  -0.004225   0.000005  -0.002799   0.115214  -0.007411
    10  N   -0.137149   1.172669  -0.119505  -0.431268  -0.502480  -0.010296
    11  N    0.358531  -0.750038  -0.114797   0.209863   0.467703   0.025478
    12  H    0.005110   0.001874   0.301637  -0.023143   0.000382  -0.000005
    13  H    0.005661  -0.044902   0.308405   0.012833   0.000180   0.000000
               7          8          9         10         11         12
     1  C   -0.079686   0.029345  -0.078059  -0.137149   0.358531   0.005110
     2  C    0.024946  -0.013188  -0.004225   1.172669  -0.750038   0.001874
     3  N   -0.000621   0.000203   0.000005  -0.119505  -0.114797   0.301637
     4  S    0.041321   0.034273  -0.002799  -0.431268   0.209863  -0.023143
     5  S    0.121847   0.077624   0.115214  -0.502480   0.467703   0.000382
     6  O   -0.139415  -0.190544  -0.007411  -0.010296   0.025478  -0.000005
     7  O    8.996576  -0.210891   0.015871   0.015104  -0.027445  -0.000002
     8  N   -0.210891   8.018217   0.196471  -0.024276   0.029756  -0.000002
     9  H    0.015871   0.196471   0.344776   0.005010   0.001865   0.000000
    10  N    0.015104  -0.024276   0.005010   8.683251  -1.534634  -0.004759
    11  N   -0.027445   0.029756   0.001865  -1.534634   8.551012  -0.001363
    12  H   -0.000002  -0.000002   0.000000  -0.004759  -0.001363   0.264676
    13  H    0.000000   0.000004  -0.000000   0.002459   0.003556  -0.014858
              13
     1  C    0.005661
     2  C   -0.044902
     3  N    0.308405
     4  S    0.012833
     5  S    0.000180
     6  O    0.000000
     7  O    0.000000
     8  N    0.000004
     9  H   -0.000000
    10  N    0.002459
    11  N    0.003556
    12  H   -0.014858
    13  H    0.264964
 Mulliken charges:
               1
     1  C   -0.747654
     2  C   -0.254882
     3  N   -0.820060
     4  S    0.682318
     5  S    1.533277
     6  O   -0.700226
     7  O   -0.757605
     8  N   -0.946990
     9  H    0.413282
    10  N   -0.114124
    11  N   -0.219486
    12  H    0.470454
    13  H    0.461698
 Sum of Mulliken charges =  -1.00000
 Mulliken charges with hydrogens summed into heavy atoms:
               1
     1  C   -0.747654
     2  C   -0.254882
     3  N    0.112092
     4  S    0.682318
     5  S    1.533277
     6  O   -0.700226
     7  O   -0.757605
     8  N   -0.533709
    10  N   -0.114124
    11  N   -0.219486
 Electronic spatial extent (au):  <R**2>=           1895.5535
 Charge=             -1.0000 electrons
 Dipole moment (field-independent basis, Debye):
    X=            -13.8967    Y=             -0.7746    Z=              1.4590  Tot=             13.9945
 Quadrupole moment (field-independent basis, Debye-Ang):
   XX=            -84.8698   YY=            -85.7252   ZZ=            -84.0308
   XY=              7.9589   XZ=             -0.8684   YZ=             -0.7406
 Traceless Quadrupole moment (field-independent basis, Debye-Ang):
   XX=              0.0055   YY=             -0.8500   ZZ=              0.8445
   XY=              7.9589   XZ=             -0.8684   YZ=             -0.7406
 Octapole moment (field-independent basis, Debye-Ang**2):
  XXX=           -158.1972  YYY=             -8.6289  ZZZ=              0.2359  XYY=              4.0572
  XXY=              8.7324  XXZ=             23.7934  XZZ=            -33.6273  YZZ=             -4.2477
  YYZ=              8.9097  XYZ=             10.4355
 Hexadecapole moment (field-independent basis, Debye-Ang**3):
 XXXX=          -1663.9961 YYYY=           -465.6802 ZZZZ=           -234.0186 XXXY=            -26.3935
 XXXZ=             -7.8400 YYYX=             51.4663 YYYZ=              1.1093 ZZZX=             -9.6860
 ZZZY=              5.8558 XXYY=           -422.4152 XXZZ=           -383.3345 YYZZ=           -118.5593
 XXYZ=            -15.9974 YYXZ=             15.2760 ZZXY=             -4.6563
 N-N= 7.455424382842D+02 E-N=-4.443435443999D+03  KE= 1.237422621158D+03
 D1PCM: PCM CHGder 1st derivatives, ID1Alg=3 FixD1E=F DoIter=F DoCFld=F I1PDM=0.
 Calling FoFJK, ICntrl=      2127 FMM=F ISym2X=0 I1Cent= 0 IOpClX= 0 NMat=1 NMatS=1 NMatT=0.
 ***** Axes restored to original set *****
 -------------------------------------------------------------------
 Center     Atomic                   Forces (Hartrees/Bohr)
 Number     Number              X              Y              Z
 -------------------------------------------------------------------
      1        6          -0.004264764   -0.006648054   -0.003106558
      2        6           0.011290956    0.006340849    0.016663777
      3        7          -0.017954815   -0.009126763   -0.013977703
      4       16           0.001952751    0.004804547    0.001863511
      5       16           0.002126420   -0.001442527    0.000883505
      6        8          -0.000218349    0.000213824    0.000106551
      7        8          -0.000289164    0.000554804    0.000373930
      8        7          -0.000486023   -0.000099446   -0.000250420
      9        1          -0.000047276    0.000057665    0.000008424
     10        7           0.000222064    0.008293111   -0.002527399
     11        7           0.005428257   -0.005142048   -0.004112376
     12        1          -0.001893131   -0.000345690   -0.001855658
     13        1           0.004133076    0.002539728    0.005930415
 -------------------------------------------------------------------
 Cartesian Forces:  Max     0.017954815 RMS     0.005929158

 GradGradGradGradGradGradGradGradGradGradGradGradGradGradGradGradGradGrad
 Berny optimization.
 FormGI is forming the generalized inverse of G from B-inverse, IUseBI=4.
 Internal  Forces:  Max     0.016520954 RMS     0.003635898
 Search for a local minimum.
 Step number   1 out of a maximum of   64
 All quantities printed in internal units (Hartrees-Bohrs-Radians)
 Mixed Optimization -- RFO/linear search
 Second derivative matrix not updated -- first step.
 ITU=  0
     Eigenvalues ---    0.00235   0.00979   0.01843   0.02086   0.02235
     Eigenvalues ---    0.02521   0.03320   0.04255   0.10479   0.12074
     Eigenvalues ---    0.16000   0.16000   0.16000   0.16825   0.21574
     Eigenvalues ---    0.24970   0.24971   0.24988   0.24993   0.25000
     Eigenvalues ---    0.25328   0.30438   0.30982   0.43887   0.44930
     Eigenvalues ---    0.45224   0.49628   0.53163   0.60519   0.63004
     Eigenvalues ---    0.68498   0.80394   0.82782
 RFO step:  Lambda=-6.09538091D-03 EMin= 2.35088834D-03
 Linear search not attempted -- first point.
 Iteration  1 RMS(Cart)=  0.05792407 RMS(Int)=  0.00658052
 Iteration  2 RMS(Cart)=  0.00614185 RMS(Int)=  0.00123899
 Iteration  3 RMS(Cart)=  0.00006997 RMS(Int)=  0.00123674
 Iteration  4 RMS(Cart)=  0.00000008 RMS(Int)=  0.00123674
 Variable       Old X    -DE/DX   Delta X   Delta X   Delta X     New X
                                 (Linear)    (Quad)   (Total)
    R1        3.28832  -0.00467   0.00000  -0.01409  -0.01461   3.27372
    R2        3.42082   0.00122   0.00000   0.00469   0.00469   3.42551
    R3        2.43139   0.00320   0.00000   0.00486   0.00402   2.43541
    R4        2.56802   0.01652   0.00000   0.03072   0.03072   2.59874
    R5        3.29835  -0.00147   0.00000  -0.00548  -0.00481   3.29354
    R6        2.47767  -0.00115   0.00000  -0.00213  -0.00140   2.47627
    R7        1.92057  -0.00007   0.00000  -0.00014  -0.00014   1.92042
    R8        1.91716  -0.00017   0.00000  -0.00037  -0.00037   1.91679
    R9        2.81404  -0.00006   0.00000  -0.00008  -0.00008   2.81396
   R10        2.80149  -0.00060   0.00000  -0.00072  -0.00072   2.80077
   R11        2.92339  -0.00035   0.00000  -0.00055  -0.00055   2.92284
   R12        1.93290   0.00005   0.00000   0.00011   0.00011   1.93301
   R13        2.58688  -0.00095   0.00000  -0.00167  -0.00179   2.58510
    A1        2.13883   0.00100   0.00000   0.00368   0.00410   2.14293
    A2        1.99651  -0.00050   0.00000  -0.00049  -0.00151   1.99500
    A3        2.14637  -0.00048   0.00000  -0.00223  -0.00180   2.14457
    A4        2.13667  -0.00623   0.00000  -0.02099  -0.02536   2.11131
    A5        2.15623   0.00960   0.00000   0.04120   0.03641   2.19263
    A6        1.98886  -0.00316   0.00000  -0.01210  -0.01439   1.97447
    A7        1.99486   0.00488   0.00000   0.01678   0.01573   2.01059
    A8        2.05222  -0.00926   0.00000  -0.06808  -0.06914   1.98308
    A9        1.98218   0.00071   0.00000  -0.01246  -0.01400   1.96818
   A10        1.50078   0.00266   0.00000   0.00889   0.00946   1.51024
   A11        1.77910  -0.00008   0.00000  -0.00060  -0.00060   1.77850
   A12        1.78113  -0.00031   0.00000  -0.00233  -0.00233   1.77880
   A13        1.91881  -0.00062   0.00000  -0.00334  -0.00335   1.91547
   A14        1.99367   0.00031   0.00000   0.00282   0.00281   1.99649
   A15        2.02918   0.00038   0.00000   0.00221   0.00221   2.03139
   A16        1.93645   0.00012   0.00000   0.00006   0.00005   1.93650
   A17        1.89914  -0.00002   0.00000  -0.00012  -0.00012   1.89901
   A18        1.98199  -0.00245   0.00000  -0.00825  -0.00921   1.97278
   A19        1.95662   0.00345   0.00000   0.01201   0.01315   1.96977
    D1        3.08435  -0.00139   0.00000  -0.04273  -0.04272   3.04162
    D2       -0.00041  -0.00175   0.00000  -0.06098  -0.06075  -0.06117
    D3       -1.55960  -0.00029   0.00000  -0.01715  -0.01700  -1.57659
    D4        0.50506  -0.00010   0.00000  -0.01514  -0.01499   0.49007
    D5        2.56106  -0.00038   0.00000  -0.01774  -0.01758   2.54348
    D6        1.52029   0.00011   0.00000   0.00275   0.00260   1.52289
    D7       -2.69824   0.00030   0.00000   0.00476   0.00461  -2.69363
    D8       -0.64224   0.00002   0.00000   0.00216   0.00201  -0.64022
    D9       -0.00165   0.00226   0.00000   0.07361   0.07285   0.07120
   D10       -3.08613   0.00185   0.00000   0.05505   0.05458  -3.03155
   D11        1.31418   0.00122   0.00000   0.01972   0.01957   1.33376
   D12       -2.57863  -0.00281   0.00000  -0.06315  -0.06227  -2.64090
   D13       -1.76652  -0.00333   0.00000  -0.15266  -0.15354  -1.92006
   D14        0.62385  -0.00736   0.00000  -0.23553  -0.23538   0.38846
   D15       -3.08359  -0.00375   0.00000  -0.12471  -0.12078   3.07881
   D16        0.00248   0.00082   0.00000   0.03427   0.03389   0.03636
   D17        3.08148   0.00425   0.00000   0.15603   0.15855  -3.04316
   D18       -0.00388   0.00019   0.00000  -0.00271  -0.00229  -0.00618
   D19        1.37540   0.00008   0.00000  -0.00006  -0.00007   1.37533
   D20       -0.63361   0.00038   0.00000   0.00170   0.00170  -0.63190
   D21       -2.95074  -0.00058   0.00000  -0.00471  -0.00471  -2.95544
   D22        0.00356  -0.00157   0.00000  -0.04544  -0.04520  -0.04163
         Item               Value     Threshold  Converged?
 Maximum Force            0.016521     0.000450     NO 
 RMS     Force            0.003636     0.000300     NO 
 Maximum Displacement     0.252521     0.001800     NO 
 RMS     Displacement     0.058516     0.001200     NO 
 Predicted change in Energy=-3.487319D-03
 GradGradGradGradGradGradGradGradGradGradGradGradGradGradGradGradGradGrad

                          Input orientation:                          
 ---------------------------------------------------------------------
 Center     Atomic      Atomic             Coordinates (Angstroms)
 Number     Number       Type             X           Y           Z
 ---------------------------------------------------------------------
      1          6           0        1.098441    0.427471    0.150103
      2          6           0       -1.254405    0.797575    0.170548
      3          7           0       -2.612965    0.802961   -0.042629
      4         16           0       -0.240362   -0.430482   -0.537393
      5         16           0        2.799917   -0.194420    0.085870
      6          8           0        2.885258   -0.985941    1.344275
      7          8           0        2.780795   -1.011126   -1.150760
      8          7           0        3.784718    0.990587   -0.049063
      9          1           0        3.907702    1.423366    0.869583
     10          7           0        0.775747    1.521730    0.749583
     11          7           0       -0.575573    1.730223    0.792208
     12          1           0       -3.137422    0.115393    0.491177
     13          1           0       -3.026687    1.728290   -0.004559
 ---------------------------------------------------------------------
                    Distance matrix (angstroms):
                    1          2          3          4          5
     1  C    0.000000
     2  C    2.381864   0.000000
     3  N    3.735328   1.375195   0.000000
     4  S    1.732376   1.742867   2.719452   0.000000
     5  S    1.812704   4.174775   5.505504   3.112472   0.000000
     6  O    2.572255   4.657829   5.945934   3.690354   1.489084
     7  O    2.567512   4.615201   5.797544   3.136998   1.482102
     8  N    2.751882   5.047598   6.400438   4.296415   1.546701
     9  H    3.066171   5.246676   6.613330   4.756340   2.111546
    10  N    1.288763   2.231859   3.553533   2.549493   2.735498
    11  N    2.216254   1.310384   2.389086   2.559072   3.949316
    12  H    4.261016   2.028283   1.016245   3.122321   5.959216
    13  H    4.328133   2.009447   1.014322   3.564802   6.136311
                    6          7          8          9         10
     6  O    0.000000
     7  O    2.497347   0.000000
     8  N    2.580133   2.495687   0.000000
     9  H    2.659978   3.358341   1.022905   0.000000
    10  N    3.330482   3.747916   3.158142   3.135796   0.000000
    11  N    4.433923   4.749244   4.501882   4.494430   1.367973
    12  H    6.181697   6.244220   6.998132   7.175497   4.166227
    13  H    6.643606   6.522654   6.851382   6.995917   3.881997
                   11         12         13
    11  N    0.000000
    12  H    3.043249   0.000000
    13  H    2.577363   1.690992   0.000000
 Stoichiometry    C2H3N4O2S2(1-)
 Framework group  C1[X(C2H3N4O2S2)]
 Deg. of freedom    33
 Full point group                 C1      NOp   1
 Largest Abelian subgroup         C1      NOp   1
 Largest concise Abelian subgroup C1      NOp   1
                         Standard orientation:                         
 ---------------------------------------------------------------------
 Center     Atomic      Atomic             Coordinates (Angstroms)
 Number     Number       Type             X           Y           Z
 ---------------------------------------------------------------------
      1          6           0        0.036421    0.221854   -0.057911
      2          6           0       -2.342607    0.140500    0.025059
      3          7           0       -3.675057   -0.197365   -0.014755
      4         16           0       -1.104133   -1.082023   -0.070880
      5         16           0        1.828162   -0.042234    0.018367
      6          8           0        2.076134   -0.043425    1.486659
      7          8           0        1.969775   -1.368752   -0.627328
      8          7           0        2.552973    1.051659   -0.800370
      9          1           0        2.589421    1.909670   -0.244653
     10          7           0       -0.498330    1.394432   -0.061507
     11          7           0       -1.863752    1.360211    0.014661
     12          1           0       -4.047960   -0.589194    0.845574
     13          1           0       -4.266913    0.528369   -0.404452
 ---------------------------------------------------------------------
 Rotational constants (GHZ):           2.6109774           0.6575914           0.5887065
 Basis read from rwf:  (6D, 7F)
 There are   204 symmetry adapted cartesian basis functions of A   symmetry.
 There are   204 symmetry adapted basis functions of A   symmetry.
   204 basis functions,   380 primitive gaussians,   204 cartesian basis functions
    46 alpha electrons       46 beta electrons
       nuclear repulsion energy       745.4146962817 Hartrees.
 NAtoms=   13 NActive=   13 NUniq=   13 SFac= 1.00D+00 NAtFMM=   60 NAOKFM=F Big=F
 Integral buffers will be    131072 words long.
 Raffenetti 2 integral format.
 Two-electron integral symmetry is turned on.
 ------------------------------------------------------------------------------
 Polarizable Continuum Model (PCM)
 =================================
 Model                : PCM.
 Atomic radii         : SMD-Coulomb.
 Polarization charges : Total charges.
 Charge compensation  : None.
 Solution method      : On-the-fly selection.
 Cavity type          : VdW (van der Waals Surface) (Alpha=1.000).
 Cavity algorithm     : GePol (No added spheres)
                        Default sphere list used, NSphG=   13.
                        Lebedev-Laikov grids with approx.  5.0 points / Ang**2.
                        Smoothing algorithm: York/Karplus (Gamma=1.0000).
                        Polarization charges: spherical gaussians, with
                                              point-specific exponents (IZeta= 3).
                        Self-potential: point-specific (ISelfS= 7).
                        Self-field    : sphere-specific E.n sum rule (ISelfD= 2).
 1st derivatives      : Analytical E(r).r(x)/FMM algorithm (CHGder, D1EAlg=3).
                        Cavity 1st derivative terms included.
 Solvent              : Water, Eps=  78.355300 Eps(inf)=   1.777849
 ------------------------------------------------------------------------------
 Spheres list:
 ISph  on   Nord     Re0    Alpha      Xe            Ye            Ze
    1   C      1    1.8500  1.000      0.036421      0.221854     -0.057911
    2   C      2    1.8500  1.000     -2.342607      0.140500      0.025059
    3   N      3    1.8900  1.000     -3.675057     -0.197365     -0.014755
    4   S      4    2.4900  1.000     -1.104133     -1.082023     -0.070880
    5   S      5    2.4900  1.000      1.828162     -0.042234      0.018367
    6   O      6    1.5200  1.000      2.076134     -0.043425      1.486659
    7   O      7    1.5200  1.000      1.969775     -1.368752     -0.627328
    8   N      8    1.8900  1.000      2.552973      1.051659     -0.800370
    9   H      9    1.2000  1.000      2.589421      1.909670     -0.244653
   10   N     10    1.8900  1.000     -0.498330      1.394432     -0.061507
   11   N     11    1.8900  1.000     -1.863752      1.360211      0.014661
   12   H     12    1.2000  1.000     -4.047960     -0.589194      0.845574
   13   H     13    1.2000  1.000     -4.266913      0.528369     -0.404452
 ------------------------------------------------------------------------------
 ------------------------------------------------------------------------------
 Atomic radii for non-electrostatic terms: SMD-CDS.
 ------------------------------------------------------------------------------
 Nuclear repulsion after PCM non-electrostatic terms =      745.4158582930 Hartrees.
 One-electron integrals computed using PRISM.
 NBasis=   204 RedAO= T EigKep=  2.76D-05  NBF=   204
 NBsUse=   204 1.00D-06 EigRej= -1.00D+00 NBFU=   204
 Initial guess from the checkpoint file:  "/jobfs/45185335.gadi-pbs/Gau-3563824.chk"
 B after Tr=    -0.000000    0.000000   -0.000000
         Rot=    0.999991    0.004101    0.000095    0.001051 Ang=   0.49 deg.
 ExpMin= 4.05D-02 ExpMax= 2.19D+04 ExpMxC= 3.30D+03 IAcc=3 IRadAn=         5 AccDes= 0.00D+00
 Harris functional with IExCor= 1009 and IRadAn=       5 diagonalized for initial guess.
 HarFok:  IExCor= 1009 AccDes= 0.00D+00 IRadAn=         5 IDoV= 1 UseB2=F ITyADJ=14
 ICtDFT=  3500011 ScaDFX=  1.000000  1.000000  1.000000  1.000000
 FoFCou: FMM=F IPFlag=           0 FMFlag=      100000 FMFlg1=           0
         NFxFlg=           0 DoJE=T BraDBF=F KetDBF=T FulRan=T
         wScrn=  0.000000 ICntrl=       500 IOpCl=  0 I1Cent=   200000004 NGrid=           0
         NMat0=    1 NMatS0=      1 NMatT0=    0 NMatD0=    1 NMtDS0=    0 NMtDT0=    0
 Petite list used in FoFCou.
 Requested convergence on RMS density matrix=1.00D-08 within 128 cycles.
 Requested convergence on MAX density matrix=1.00D-06.
 Requested convergence on             energy=1.00D-06.
 No special actions if energy rises.
 Inv3:  Mode=1 IEnd=     5298723.
 Iteration    1 A*A^-1 deviation from unit magnitude is 5.55D-15 for   1301.
 Iteration    1 A*A^-1 deviation from orthogonality  is 1.94D-15 for   1326   1110.
 Iteration    1 A^-1*A deviation from unit magnitude is 5.33D-15 for   1295.
 Iteration    1 A^-1*A deviation from orthogonality  is 1.56D-15 for   1325   1109.
 Error on total polarization charges =  0.03399
 SCF Done:  E(RM062X) =  -1243.68556523     A.U. after   13 cycles
            NFock= 13  Conv=0.43D-08     -V/T= 2.0051
 SMD-CDS (non-electrostatic) energy       (kcal/mol) =       0.73
 (included in total energy above)
 D1PCM: PCM CHGder 1st derivatives, ID1Alg=3 FixD1E=F DoIter=F DoCFld=F I1PDM=0.
 Calling FoFJK, ICntrl=      2127 FMM=F ISym2X=0 I1Cent= 0 IOpClX= 0 NMat=1 NMatS=1 NMatT=0.
 ***** Axes restored to original set *****
 -------------------------------------------------------------------
 Center     Atomic                   Forces (Hartrees/Bohr)
 Number     Number              X              Y              Z
 -------------------------------------------------------------------
      1        6          -0.001158966   -0.002412770   -0.004692071
      2        6           0.005264203    0.004191597    0.002160918
      3        7           0.000438680   -0.000606384   -0.004770767
      4       16           0.001165597   -0.003246038    0.003294742
      5       16           0.000251600    0.000427567   -0.000187247
      6        8          -0.000400123    0.000375799   -0.000642216
      7        8           0.000246447   -0.000291066    0.000247751
      8        7          -0.000039134   -0.000123780    0.000186845
      9        1           0.000056984    0.000019632   -0.000009991
     10        7          -0.002069404    0.000166030    0.004379799
     11        7          -0.003207061    0.001282724   -0.004529626
     12        1          -0.000518592   -0.001328095   -0.000999650
     13        1          -0.000030230    0.001544785    0.005561512
 -------------------------------------------------------------------
 Cartesian Forces:  Max     0.005561512 RMS     0.002368327

 GradGradGradGradGradGradGradGradGradGradGradGradGradGradGradGradGradGrad
 Berny optimization.
 Using GEDIIS/GDIIS optimizer.
 FormGI is forming the generalized inverse of G from B-inverse, IUseBI=4.
 Internal  Forces:  Max     0.005106487 RMS     0.001563396
 Search for a local minimum.
 Step number   2 out of a maximum of   64
 All quantities printed in internal units (Hartrees-Bohrs-Radians)
 Mixed Optimization -- RFO/linear search
 Update second derivatives using D2CorX and points    1    2
 DE= -3.57D-03 DEPred=-3.49D-03 R= 1.02D+00
 TightC=F SS=  1.41D+00  RLast= 3.87D-01 DXNew= 5.0454D-01 1.1614D+00
 Trust test= 1.02D+00 RLast= 3.87D-01 DXMaxT set to 5.05D-01
 ITU=  1  0
 Use linear search instead of GDIIS.
     Eigenvalues ---    0.00235   0.00966   0.01390   0.01870   0.02310
     Eigenvalues ---    0.03320   0.03652   0.04505   0.10532   0.12119
     Eigenvalues ---    0.15201   0.16000   0.16011   0.16770   0.21548
     Eigenvalues ---    0.24730   0.24967   0.24984   0.25000   0.25324
     Eigenvalues ---    0.27586   0.30587   0.30815   0.43887   0.44937
     Eigenvalues ---    0.45271   0.49560   0.53267   0.61062   0.63004
     Eigenvalues ---    0.68404   0.80409   0.82782
 RFO step:  Lambda=-2.93796354D-03 EMin= 2.35232765D-03
 Quartic linear search produced a step of  0.18360.
 Iteration  1 RMS(Cart)=  0.05327069 RMS(Int)=  0.00889216
 Iteration  2 RMS(Cart)=  0.00878026 RMS(Int)=  0.00068733
 Iteration  3 RMS(Cart)=  0.00016974 RMS(Int)=  0.00066371
 Iteration  4 RMS(Cart)=  0.00000031 RMS(Int)=  0.00066371
 Variable       Old X    -DE/DX   Delta X   Delta X   Delta X     New X
                                 (Linear)    (Quad)   (Total)
    R1        3.27372  -0.00232  -0.00268  -0.01145  -0.01425   3.25947
    R2        3.42551  -0.00003   0.00086   0.00126   0.00212   3.42764
    R3        2.43541   0.00314   0.00074   0.00679   0.00736   2.44277
    R4        2.59874   0.00014   0.00564   0.00953   0.01517   2.61391
    R5        3.29354   0.00149  -0.00088   0.00303   0.00228   3.29582
    R6        2.47627  -0.00407  -0.00026  -0.00833  -0.00843   2.46783
    R7        1.92042   0.00065  -0.00003   0.00161   0.00158   1.92201
    R8        1.91679   0.00162  -0.00007   0.00395   0.00388   1.92067
    R9        2.81396  -0.00078  -0.00001  -0.00113  -0.00114   2.81282
   R10        2.80077  -0.00005  -0.00013  -0.00029  -0.00042   2.80035
   R11        2.92284  -0.00006  -0.00010  -0.00028  -0.00038   2.92246
   R12        1.93301   0.00001   0.00002   0.00007   0.00009   1.93310
   R13        2.58510  -0.00102  -0.00033  -0.00294  -0.00328   2.58182
    A1        2.14293   0.00060   0.00075   0.00123   0.00168   2.14461
    A2        1.99500   0.00009  -0.00028   0.00308   0.00190   1.99690
    A3        2.14457  -0.00071  -0.00033  -0.00641  -0.00701   2.13756
    A4        2.11131  -0.00014  -0.00466  -0.00675  -0.01217   2.09914
    A5        2.19263  -0.00284   0.00668  -0.00049   0.00533   2.19796
    A6        1.97447   0.00305  -0.00264   0.00800   0.00471   1.97917
    A7        2.01059   0.00063   0.00289  -0.00216  -0.00097   2.00962
    A8        1.98308  -0.00326  -0.01269  -0.05427  -0.06879   1.91429
    A9        1.96818  -0.00026  -0.00257  -0.02214  -0.02765   1.94053
   A10        1.51024  -0.00168   0.00174  -0.00282  -0.00129   1.50895
   A11        1.77850  -0.00071  -0.00011  -0.00471  -0.00482   1.77368
   A12        1.77880   0.00057  -0.00043   0.00327   0.00284   1.78164
   A13        1.91547   0.00022  -0.00061   0.00037  -0.00025   1.91522
   A14        1.99649  -0.00020   0.00052  -0.00115  -0.00063   1.99586
   A15        2.03139   0.00018   0.00041   0.00059   0.00099   2.03238
   A16        1.93650  -0.00002   0.00001   0.00152   0.00153   1.93803
   A17        1.89901   0.00011  -0.00002   0.00074   0.00072   1.89973
   A18        1.97278   0.00047  -0.00169   0.00299   0.00082   1.97360
   A19        1.96977  -0.00183   0.00241  -0.00609  -0.00371   1.96606
    D1        3.04162   0.00071  -0.00784   0.00480  -0.00335   3.03828
    D2       -0.06117   0.00141  -0.01115   0.06429   0.05308  -0.00808
    D3       -1.57659   0.00044  -0.00312   0.03382   0.03069  -1.54590
    D4        0.49007   0.00016  -0.00275   0.03207   0.02930   0.51937
    D5        2.54348   0.00053  -0.00323   0.03566   0.03242   2.57589
    D6        1.52289  -0.00031   0.00048  -0.03051  -0.03001   1.49287
    D7       -2.69363  -0.00058   0.00085  -0.03226  -0.03140  -2.72504
    D8       -0.64022  -0.00021   0.00037  -0.02867  -0.02829  -0.66851
    D9        0.07120  -0.00157   0.01337  -0.07041  -0.05729   0.01391
   D10       -3.03155  -0.00090   0.01002  -0.01106  -0.00133  -3.03288
   D11        1.33376  -0.00199   0.00359  -0.11929  -0.11676   1.21699
   D12       -2.64090  -0.00511  -0.01143  -0.21085  -0.22118  -2.86208
   D13       -1.92006  -0.00093  -0.02819  -0.10991  -0.13920  -2.05926
   D14        0.38846  -0.00404  -0.04322  -0.20146  -0.24361   0.14485
   D15        3.07881  -0.00008  -0.02218  -0.03435  -0.05580   3.02301
   D16        0.03636  -0.00068   0.00622  -0.04226  -0.03622   0.00014
   D17       -3.04316  -0.00082   0.02911   0.00590   0.03555  -3.00761
   D18       -0.00618   0.00003  -0.00042   0.01386   0.01348   0.00730
   D19        1.37533  -0.00047  -0.00001  -0.00333  -0.00334   1.37199
   D20       -0.63190   0.00018   0.00031   0.00207   0.00239  -0.62952
   D21       -2.95544   0.00033  -0.00086   0.00162   0.00075  -2.95469
   D22       -0.04163   0.00104  -0.00830   0.03633   0.02801  -0.01363
         Item               Value     Threshold  Converged?
 Maximum Force            0.005106     0.000450     NO 
 RMS     Force            0.001563     0.000300     NO 
 Maximum Displacement     0.281794     0.001800     NO 
 RMS     Displacement     0.058142     0.001200     NO 
 Predicted change in Energy=-1.767927D-03
 GradGradGradGradGradGradGradGradGradGradGradGradGradGradGradGradGradGrad

                          Input orientation:                          
 ---------------------------------------------------------------------
 Center     Atomic      Atomic             Coordinates (Angstroms)
 Number     Number       Type             X           Y           Z
 ---------------------------------------------------------------------
      1          6           0        1.094109    0.428590    0.138708
      2          6           0       -1.251655    0.804066    0.175964
      3          7           0       -2.610034    0.823172   -0.084323
      4         16           0       -0.246477   -0.456025   -0.490054
      5         16           0        2.796618   -0.194922    0.087030
      6          8           0        2.874447   -0.960481    1.361172
      7          8           0        2.781525   -1.037272   -1.132061
      8          7           0        3.781313    0.987543   -0.067264
      9          1           0        3.901269    1.438604    0.843003
     10          7           0        0.773692    1.522094    0.749074
     11          7           0       -0.574447    1.741088    0.783260
     12          1           0       -3.145618    0.081352    0.359874
     13          1           0       -2.989580    1.737819    0.144561
 ---------------------------------------------------------------------
                    Distance matrix (angstroms):
                    1          2          3          4          5
     1  C    0.000000
     2  C    2.375916   0.000000
     3  N    3.731771   1.383224   0.000000
     4  S    1.724836   1.744074   2.717971   0.000000
     5  S    1.813828   4.170659   5.504340   3.108316   0.000000
     6  O    2.567789   4.641450   5.945621   3.663561   1.488481
     7  O    2.571182   4.622552   5.798958   3.149415   1.481879
     8  N    2.752438   5.042180   6.393483   4.299504   1.546497
     9  H    3.065339   5.234520   6.605737   4.750838   2.111908
    10  N    1.292658   2.223971   3.554243   2.547379   2.734716
    11  N    2.218598   1.305920   2.395596   2.560508   3.949297
    12  H    4.259669   2.035494   1.017083   3.068578   5.954909
    13  H    4.288430   1.973136   1.016377   3.569356   6.100728
                    6          7          8          9         10
     6  O    0.000000
     7  O    2.496146   0.000000
     8  N    2.580239   2.496647   0.000000
     9  H    2.660540   3.359266   1.022953   0.000000
    10  N    3.309232   3.757714   3.161951   3.130101   0.000000
    11  N    4.418974   4.759232   4.501541   4.486324   1.366239
    12  H    6.191058   6.213551   6.999000   7.192647   4.193830
    13  H    6.568697   6.529666   6.815627   6.932615   3.817616
                   11         12         13
    11  N    0.000000
    12  H    3.089482   0.000000
    13  H    2.498162   1.677675   0.000000
 Stoichiometry    C2H3N4O2S2(1-)
 Framework group  C1[X(C2H3N4O2S2)]
 Deg. of freedom    33
 Full point group                 C1      NOp   1
 Largest Abelian subgroup         C1      NOp   1
 Largest concise Abelian subgroup C1      NOp   1
                         Standard orientation:                         
 ---------------------------------------------------------------------
 Center     Atomic      Atomic             Coordinates (Angstroms)
 Number     Number       Type             X           Y           Z
 ---------------------------------------------------------------------
      1          6           0        0.033746    0.216868   -0.069522
      2          6           0       -2.339252    0.146539    0.024884
      3          7           0       -3.674339   -0.202919   -0.068559
      4         16           0       -1.102178   -1.080875   -0.045098
      5         16           0        1.827090   -0.042684    0.011248
      6          8           0        2.063725   -0.046279    1.480795
      7          8           0        1.978137   -1.367504   -0.635282
      8          7           0        2.550933    1.056941   -0.800251
      9          1           0        2.580650    1.913843   -0.242337
     10          7           0       -0.499246    1.394113   -0.038241
     11          7           0       -1.863635    1.362769    0.025541
     12          1           0       -4.046568   -0.705729    0.733367
     13          1           0       -4.230521    0.622319   -0.275118
 ---------------------------------------------------------------------
 Rotational constants (GHZ):           2.6112992           0.6591026           0.5893327
 Basis read from rwf:  (6D, 7F)
 There are   204 symmetry adapted cartesian basis functions of A   symmetry.
 There are   204 symmetry adapted basis functions of A   symmetry.
   204 basis functions,   380 primitive gaussians,   204 cartesian basis functions
    46 alpha electrons       46 beta electrons
       nuclear repulsion energy       745.8181229057 Hartrees.
 NAtoms=   13 NActive=   13 NUniq=   13 SFac= 1.00D+00 NAtFMM=   60 NAOKFM=F Big=F
 Integral buffers will be    131072 words long.
 Raffenetti 2 integral format.
 Two-electron integral symmetry is turned on.
 ------------------------------------------------------------------------------
 Polarizable Continuum Model (PCM)
 =================================
 Model                : PCM.
 Atomic radii         : SMD-Coulomb.
 Polarization charges : Total charges.
 Charge compensation  : None.
 Solution method      : On-the-fly selection.
 Cavity type          : VdW (van der Waals Surface) (Alpha=1.000).
 Cavity algorithm     : GePol (No added spheres)
                        Default sphere list used, NSphG=   13.
                        Lebedev-Laikov grids with approx.  5.0 points / Ang**2.
                        Smoothing algorithm: York/Karplus (Gamma=1.0000).
                        Polarization charges: spherical gaussians, with
                                              point-specific exponents (IZeta= 3).
                        Self-potential: point-specific (ISelfS= 7).
                        Self-field    : sphere-specific E.n sum rule (ISelfD= 2).
 1st derivatives      : Analytical E(r).r(x)/FMM algorithm (CHGder, D1EAlg=3).
                        Cavity 1st derivative terms included.
 Solvent              : Water, Eps=  78.355300 Eps(inf)=   1.777849
 ------------------------------------------------------------------------------
 Spheres list:
 ISph  on   Nord     Re0    Alpha      Xe            Ye            Ze
    1   C      1    1.8500  1.000      0.033746      0.216868     -0.069522
    2   C      2    1.8500  1.000     -2.339252      0.146539      0.024884
    3   N      3    1.8900  1.000     -3.674339     -0.202919     -0.068559
    4   S      4    2.4900  1.000     -1.102178     -1.080875     -0.045098
    5   S      5    2.4900  1.000      1.827090     -0.042684      0.011248
    6   O      6    1.5200  1.000      2.063725     -0.046279      1.480795
    7   O      7    1.5200  1.000      1.978137     -1.367504     -0.635282
    8   N      8    1.8900  1.000      2.550933      1.056941     -0.800251
    9   H      9    1.2000  1.000      2.580650      1.913843     -0.242337
   10   N     10    1.8900  1.000     -0.499246      1.394113     -0.038241
   11   N     11    1.8900  1.000     -1.863635      1.362769      0.025541
   12   H     12    1.2000  1.000     -4.046568     -0.705729      0.733367
   13   H     13    1.2000  1.000     -4.230521      0.622319     -0.275118
 ------------------------------------------------------------------------------
 ------------------------------------------------------------------------------
 Atomic radii for non-electrostatic terms: SMD-CDS.
 ------------------------------------------------------------------------------
 Nuclear repulsion after PCM non-electrostatic terms =      745.8192339659 Hartrees.
 One-electron integrals computed using PRISM.
 NBasis=   204 RedAO= T EigKep=  2.88D-05  NBF=   204
 NBsUse=   204 1.00D-06 EigRej= -1.00D+00 NBFU=   204
 Initial guess from the checkpoint file:  "/jobfs/45185335.gadi-pbs/Gau-3563824.chk"
 B after Tr=     0.000000   -0.000000    0.000000
         Rot=    0.999998   -0.001922    0.000464   -0.000313 Ang=  -0.23 deg.
 ExpMin= 4.05D-02 ExpMax= 2.19D+04 ExpMxC= 3.30D+03 IAcc=3 IRadAn=         5 AccDes= 0.00D+00
 Harris functional with IExCor= 1009 and IRadAn=       5 diagonalized for initial guess.
 HarFok:  IExCor= 1009 AccDes= 0.00D+00 IRadAn=         5 IDoV= 1 UseB2=F ITyADJ=14
 ICtDFT=  3500011 ScaDFX=  1.000000  1.000000  1.000000  1.000000
 FoFCou: FMM=F IPFlag=           0 FMFlag=      100000 FMFlg1=           0
         NFxFlg=           0 DoJE=T BraDBF=F KetDBF=T FulRan=T
         wScrn=  0.000000 ICntrl=       500 IOpCl=  0 I1Cent=   200000004 NGrid=           0
         NMat0=    1 NMatS0=      1 NMatT0=    0 NMatD0=    1 NMtDS0=    0 NMtDT0=    0
 Petite list used in FoFCou.
 Requested convergence on RMS density matrix=1.00D-08 within 128 cycles.
 Requested convergence on MAX density matrix=1.00D-06.
 Requested convergence on             energy=1.00D-06.
 No special actions if energy rises.
 Inv3:  Mode=1 IEnd=     5306700.
 Iteration    1 A*A^-1 deviation from unit magnitude is 5.66D-15 for   1321.
 Iteration    1 A*A^-1 deviation from orthogonality  is 1.49D-15 for    375    115.
 Iteration    1 A^-1*A deviation from unit magnitude is 5.88D-15 for   1321.
 Iteration    1 A^-1*A deviation from orthogonality  is 1.71D-15 for    610    476.
 Error on total polarization charges =  0.03395
 SCF Done:  E(RM062X) =  -1243.68761615     A.U. after   13 cycles
            NFock= 13  Conv=0.37D-08     -V/T= 2.0051
 SMD-CDS (non-electrostatic) energy       (kcal/mol) =       0.70
 (included in total energy above)
 D1PCM: PCM CHGder 1st derivatives, ID1Alg=3 FixD1E=F DoIter=F DoCFld=F I1PDM=0.
 Calling FoFJK, ICntrl=      2127 FMM=F ISym2X=0 I1Cent= 0 IOpClX= 0 NMat=1 NMatS=1 NMatT=0.
 ***** Axes restored to original set *****
 -------------------------------------------------------------------
 Center     Atomic                   Forces (Hartrees/Bohr)
 Number     Number              X              Y              Z
 -------------------------------------------------------------------
      1        6           0.000998615    0.001053774    0.003731696
      2        6          -0.002015416   -0.005434185   -0.002993293
      3        7           0.007411021    0.007092049    0.002116275
      4       16          -0.001234814   -0.002488562   -0.001148994
      5       16          -0.000955288    0.000972036    0.000121925
      6        8           0.000340346   -0.000237862   -0.000003365
      7        8           0.000227912   -0.000116541    0.000008226
      8        7           0.000084997   -0.000198501   -0.000016662
      9        1          -0.000027533   -0.000066526   -0.000057567
     10        7           0.001807617   -0.001290919   -0.001046989
     11        7          -0.003844955    0.002793083   -0.002565850
     12        1           0.000744349   -0.002054948   -0.000837747
     13        1          -0.003536849   -0.000022896    0.002692345
 -------------------------------------------------------------------
 Cartesian Forces:  Max     0.007411021 RMS     0.002480301

 GradGradGradGradGradGradGradGradGradGradGradGradGradGradGradGradGradGrad
 Berny optimization.
 Using GEDIIS/GDIIS optimizer.
 FormGI is forming the generalized inverse of G from B-inverse, IUseBI=4.
 Internal  Forces:  Max     0.005354277 RMS     0.001660976
 Search for a local minimum.
 Step number   3 out of a maximum of   64
 All quantities printed in internal units (Hartrees-Bohrs-Radians)
 Mixed Optimization -- RFO/linear search
 Update second derivatives using D2CorX and points    2    3
 DE= -2.05D-03 DEPred=-1.77D-03 R= 1.16D+00
 TightC=F SS=  1.41D+00  RLast= 4.07D-01 DXNew= 8.4853D-01 1.2223D+00
 Trust test= 1.16D+00 RLast= 4.07D-01 DXMaxT set to 8.49D-01
 ITU=  1  1  0
 Use linear search instead of GDIIS.
     Eigenvalues ---    0.00235   0.00626   0.01121   0.02199   0.02423
     Eigenvalues ---    0.03320   0.03615   0.05369   0.10577   0.12100
     Eigenvalues ---    0.15998   0.16006   0.16723   0.17507   0.21577
     Eigenvalues ---    0.24845   0.24955   0.24999   0.25322   0.25638
     Eigenvalues ---    0.27034   0.30532   0.31765   0.43887   0.44919
     Eigenvalues ---    0.45170   0.49769   0.54925   0.60656   0.63005
     Eigenvalues ---    0.68880   0.80422   0.82782
 RFO step:  Lambda=-2.40852676D-03 EMin= 2.35090847D-03
 Quartic linear search produced a step of  0.37565.
 Iteration  1 RMS(Cart)=  0.06992881 RMS(Int)=  0.01727154
 Iteration  2 RMS(Cart)=  0.01919281 RMS(Int)=  0.00093353
 Iteration  3 RMS(Cart)=  0.00068120 RMS(Int)=  0.00056267
 Iteration  4 RMS(Cart)=  0.00000121 RMS(Int)=  0.00056267
 Iteration  5 RMS(Cart)=  0.00000000 RMS(Int)=  0.00056267
 Variable       Old X    -DE/DX   Delta X   Delta X   Delta X     New X
                                 (Linear)    (Quad)   (Total)
    R1        3.25947   0.00258  -0.00535   0.00308  -0.00227   3.25720
    R2        3.42764  -0.00044   0.00080  -0.00071   0.00008   3.42772
    R3        2.44277  -0.00127   0.00276   0.00066   0.00348   2.44625
    R4        2.61391  -0.00521   0.00570  -0.00223   0.00347   2.61739
    R5        3.29582   0.00079   0.00086   0.00333   0.00413   3.29995
    R6        2.46783  -0.00112  -0.00317  -0.00498  -0.00817   2.45966
    R7        1.92201   0.00075   0.00060   0.00255   0.00314   1.92515
    R8        1.92067   0.00190   0.00146   0.00639   0.00785   1.92853
    R9        2.81282   0.00012  -0.00043  -0.00018  -0.00061   2.81221
   R10        2.80035   0.00006  -0.00016  -0.00017  -0.00033   2.80001
   R11        2.92246  -0.00015  -0.00014  -0.00051  -0.00065   2.92180
   R12        1.93310  -0.00006   0.00003  -0.00013  -0.00009   1.93301
   R13        2.58182   0.00105  -0.00123   0.00119  -0.00000   2.58182
    A1        2.14461   0.00023   0.00063   0.00487   0.00517   2.14978
    A2        1.99690   0.00053   0.00071   0.00414   0.00415   2.00105
    A3        2.13756  -0.00070  -0.00263  -0.00348  -0.00645   2.13112
    A4        2.09914   0.00387  -0.00457   0.01157   0.00716   2.10630
    A5        2.19796  -0.00535   0.00200  -0.01825  -0.01609   2.18187
    A6        1.97917   0.00157   0.00177   0.00740   0.00877   1.98794
    A7        2.00962  -0.00263  -0.00037  -0.01913  -0.02086   1.98876
    A8        1.91429   0.00402  -0.02584  -0.00296  -0.03030   1.88399
    A9        1.94053  -0.00118  -0.01039  -0.02173  -0.03477   1.90576
   A10        1.50895  -0.00149  -0.00049  -0.00689  -0.00794   1.50101
   A11        1.77368   0.00051  -0.00181   0.00217   0.00035   1.77403
   A12        1.78164   0.00023   0.00107   0.00202   0.00309   1.78472
   A13        1.91522   0.00006  -0.00009   0.00043   0.00034   1.91556
   A14        1.99586  -0.00020  -0.00024  -0.00167  -0.00191   1.99395
   A15        2.03238  -0.00024   0.00037  -0.00057  -0.00020   2.03218
   A16        1.93803  -0.00020   0.00057  -0.00147  -0.00090   1.93713
   A17        1.89973  -0.00009   0.00027  -0.00051  -0.00024   1.89949
   A18        1.97360   0.00016   0.00031  -0.00196  -0.00197   1.97163
   A19        1.96606  -0.00077  -0.00140  -0.00321  -0.00502   1.96103
    D1        3.03828  -0.00031  -0.00126  -0.00521  -0.00625   3.03203
    D2       -0.00808  -0.00090   0.01994  -0.06896  -0.04893  -0.05701
    D3       -1.54590  -0.00031   0.01153  -0.02477  -0.01321  -1.55911
    D4        0.51937  -0.00027   0.01101  -0.02510  -0.01407   0.50531
    D5        2.57589  -0.00035   0.01218  -0.02555  -0.01334   2.56255
    D6        1.49287   0.00039  -0.01127   0.04451   0.03321   1.52609
    D7       -2.72504   0.00044  -0.01180   0.04418   0.03236  -2.69268
    D8       -0.66851   0.00035  -0.01063   0.04374   0.03308  -0.63543
    D9        0.01391   0.00069  -0.02152   0.05993   0.03845   0.05236
   D10       -3.03288   0.00005  -0.00050  -0.00404  -0.00443  -3.03730
   D11        1.21699  -0.00267  -0.04386  -0.15640  -0.20128   1.01572
   D12       -2.86208  -0.00295  -0.08309  -0.20347  -0.28549   3.13562
   D13       -2.05926  -0.00167  -0.05229  -0.14877  -0.20213  -2.26139
   D14        0.14485  -0.00195  -0.09151  -0.19584  -0.28634  -0.14149
   D15        3.02301   0.00125  -0.02096   0.06758   0.04666   3.06967
   D16        0.00014   0.00092  -0.01361   0.06282   0.04927   0.04941
   D17       -3.00761  -0.00190   0.01335  -0.05199  -0.03862  -3.04624
   D18        0.00730  -0.00075   0.00506  -0.04437  -0.03937  -0.03207
   D19        1.37199   0.00012  -0.00126   0.00019  -0.00107   1.37092
   D20       -0.62952  -0.00043   0.00090  -0.00254  -0.00164  -0.63116
   D21       -2.95469   0.00032   0.00028   0.00206   0.00234  -2.95234
   D22       -0.01363   0.00005   0.01052  -0.00934   0.00114  -0.01249
         Item               Value     Threshold  Converged?
 Maximum Force            0.005354     0.000450     NO 
 RMS     Force            0.001661     0.000300     NO 
 Maximum Displacement     0.460007     0.001800     NO 
 RMS     Displacement     0.085116     0.001200     NO 
 Predicted change in Energy=-1.666591D-03
 GradGradGradGradGradGradGradGradGradGradGradGradGradGradGradGradGradGrad

                          Input orientation:                          
 ---------------------------------------------------------------------
 Center     Atomic      Atomic             Coordinates (Angstroms)
 Number     Number       Type             X           Y           Z
 ---------------------------------------------------------------------
      1          6           0        1.086905    0.431000    0.123790
      2          6           0       -1.244358    0.837928    0.137225
      3          7           0       -2.611498    0.857332   -0.084011
      4         16           0       -0.253268   -0.440421   -0.520789
      5         16           0        2.785378   -0.205423    0.106827
      6          8           0        2.841008   -0.947391    1.395628
      7          8           0        2.784475   -1.072350   -1.094791
      8          7           0        3.780861    0.966315   -0.056367
      9          1           0        3.891138    1.434097    0.846600
     10          7           0        0.780192    1.558386    0.681155
     11          7           0       -0.565225    1.795272    0.699745
     12          1           0       -3.095655    0.023925    0.245947
     13          1           0       -2.994791    1.676960    0.387986
 ---------------------------------------------------------------------
                    Distance matrix (angstroms):
                    1          2          3          4          5
     1  C    0.000000
     2  C    2.366550   0.000000
     3  N    3.728689   1.385061   0.000000
     4  S    1.723636   1.746258   2.726937   0.000000
     5  S    1.813873   4.162725   5.503830   3.111671   0.000000
     6  O    2.567959   4.632619   5.930951   3.674809   1.488159
     7  O    2.574246   4.625853   5.819096   3.155423   1.481704
     8  N    2.752530   5.030585   6.393348   4.297533   1.546152
     9  H    3.064699   5.218424   6.594162   4.749702   2.111397
    10  N    1.294499   2.216692   3.546903   2.551067   2.731601
    11  N    2.218669   1.301598   2.383535   2.566192   3.947262
    12  H    4.204097   2.025270   1.018747   2.980380   5.887148
    13  H    4.275798   1.957261   1.020532   3.581218   6.085456
                    6          7          8          9         10
     6  O    0.000000
     7  O    2.494192   0.000000
     8  N    2.579512   2.495448   0.000000
     9  H    2.660016   3.357972   1.022903   0.000000
    10  N    3.322100   3.753918   3.146188   3.117820   0.000000
    11  N    4.428191   4.760683   4.488578   4.473386   1.366238
    12  H    6.124475   6.129872   6.947371   7.152946   4.191201
    13  H    6.477585   6.569417   6.827292   6.905456   3.788206
                   11         12         13
    11  N    0.000000
    12  H    3.121967   0.000000
    13  H    2.452342   1.662189   0.000000
 Stoichiometry    C2H3N4O2S2(1-)
 Framework group  C1[X(C2H3N4O2S2)]
 Deg. of freedom    33
 Full point group                 C1      NOp   1
 Largest Abelian subgroup         C1      NOp   1
 Largest concise Abelian subgroup C1      NOp   1
                         Standard orientation:                         
 ---------------------------------------------------------------------
 Center     Atomic      Atomic             Coordinates (Angstroms)
 Number     Number       Type             X           Y           Z
 ---------------------------------------------------------------------
      1          6           0        0.030585    0.210079   -0.067961
      2          6           0       -2.333621    0.148411    0.017407
      3          7           0       -3.676851   -0.185816   -0.031761
      4         16           0       -1.103762   -1.087644   -0.077632
      5         16           0        1.824806   -0.040678    0.021633
      6          8           0        2.053438   -0.052120    1.492081
      7          8           0        1.990857   -1.360884   -0.630233
      8          7           0        2.547869    1.067064   -0.778788
      9          1           0        2.569018    1.920886   -0.215875
     10          7           0       -0.499878    1.390899   -0.068247
     11          7           0       -1.864591    1.362247   -0.010413
     12          1           0       -3.969428   -0.831264    0.700115
     13          1           0       -4.218273    0.675865    0.044744
 ---------------------------------------------------------------------
 Rotational constants (GHZ):           2.6053809           0.6600300           0.5896835
 Basis read from rwf:  (6D, 7F)
 There are   204 symmetry adapted cartesian basis functions of A   symmetry.
 There are   204 symmetry adapted basis functions of A   symmetry.
   204 basis functions,   380 primitive gaussians,   204 cartesian basis functions
    46 alpha electrons       46 beta electrons
       nuclear repulsion energy       745.9404832588 Hartrees.
 NAtoms=   13 NActive=   13 NUniq=   13 SFac= 1.00D+00 NAtFMM=   60 NAOKFM=F Big=F
 Integral buffers will be    131072 words long.
 Raffenetti 2 integral format.
 Two-electron integral symmetry is turned on.
 ------------------------------------------------------------------------------
 Polarizable Continuum Model (PCM)
 =================================
 Model                : PCM.
 Atomic radii         : SMD-Coulomb.
 Polarization charges : Total charges.
 Charge compensation  : None.
 Solution method      : On-the-fly selection.
 Cavity type          : VdW (van der Waals Surface) (Alpha=1.000).
 Cavity algorithm     : GePol (No added spheres)
                        Default sphere list used, NSphG=   13.
                        Lebedev-Laikov grids with approx.  5.0 points / Ang**2.
                        Smoothing algorithm: York/Karplus (Gamma=1.0000).
                        Polarization charges: spherical gaussians, with
                                              point-specific exponents (IZeta= 3).
                        Self-potential: point-specific (ISelfS= 7).
                        Self-field    : sphere-specific E.n sum rule (ISelfD= 2).
 1st derivatives      : Analytical E(r).r(x)/FMM algorithm (CHGder, D1EAlg=3).
                        Cavity 1st derivative terms included.
 Solvent              : Water, Eps=  78.355300 Eps(inf)=   1.777849
 ------------------------------------------------------------------------------
 Spheres list:
 ISph  on   Nord     Re0    Alpha      Xe            Ye            Ze
    1   C      1    1.8500  1.000      0.030585      0.210079     -0.067961
    2   C      2    1.8500  1.000     -2.333621      0.148411      0.017407
    3   N      3    1.8900  1.000     -3.676851     -0.185816     -0.031761
    4   S      4    2.4900  1.000     -1.103762     -1.087644     -0.077632
    5   S      5    2.4900  1.000      1.824806     -0.040678      0.021633
    6   O      6    1.5200  1.000      2.053438     -0.052120      1.492081
    7   O      7    1.5200  1.000      1.990857     -1.360884     -0.630233
    8   N      8    1.8900  1.000      2.547869      1.067064     -0.778788
    9   H      9    1.2000  1.000      2.569018      1.920886     -0.215875
   10   N     10    1.8900  1.000     -0.499878      1.390899     -0.068247
   11   N     11    1.8900  1.000     -1.864591      1.362247     -0.010413
   12   H     12    1.2000  1.000     -3.969428     -0.831264      0.700115
   13   H     13    1.2000  1.000     -4.218273      0.675865      0.044744
 ------------------------------------------------------------------------------
 ------------------------------------------------------------------------------
 Atomic radii for non-electrostatic terms: SMD-CDS.
 ------------------------------------------------------------------------------
 Nuclear repulsion after PCM non-electrostatic terms =      745.9415268222 Hartrees.
 One-electron integrals computed using PRISM.
 NBasis=   204 RedAO= T EigKep=  2.81D-05  NBF=   204
 NBsUse=   204 1.00D-06 EigRej= -1.00D+00 NBFU=   204
 Initial guess from the checkpoint file:  "/jobfs/45185335.gadi-pbs/Gau-3563824.chk"
 B after Tr=    -0.000000    0.000000    0.000000
         Rot=    0.999997   -0.002526    0.000271   -0.000472 Ang=  -0.30 deg.
 ExpMin= 4.05D-02 ExpMax= 2.19D+04 ExpMxC= 3.30D+03 IAcc=3 IRadAn=         5 AccDes= 0.00D+00
 Harris functional with IExCor= 1009 and IRadAn=       5 diagonalized for initial guess.
 HarFok:  IExCor= 1009 AccDes= 0.00D+00 IRadAn=         5 IDoV= 1 UseB2=F ITyADJ=14
 ICtDFT=  3500011 ScaDFX=  1.000000  1.000000  1.000000  1.000000
 FoFCou: FMM=F IPFlag=           0 FMFlag=      100000 FMFlg1=           0
         NFxFlg=           0 DoJE=T BraDBF=F KetDBF=T FulRan=T
         wScrn=  0.000000 ICntrl=       500 IOpCl=  0 I1Cent=   200000004 NGrid=           0
         NMat0=    1 NMatS0=      1 NMatT0=    0 NMatD0=    1 NMtDS0=    0 NMtDT0=    0
 Petite list used in FoFCou.
 Requested convergence on RMS density matrix=1.00D-08 within 128 cycles.
 Requested convergence on MAX density matrix=1.00D-06.
 Requested convergence on             energy=1.00D-06.
 No special actions if energy rises.
[...]
 ! R7    R(3,12)                 1.0146         -DE/DX =    0.0                 !
 ! R8    R(3,13)                 1.0164         -DE/DX =    0.0                 !
 ! R9    R(5,6)                  1.4892         -DE/DX =    0.0                 !
 ! R10   R(5,7)                  1.4825         -DE/DX =    0.0                 !
 ! R11   R(5,8)                  1.547          -DE/DX =    0.0                 !
 ! R12   R(8,9)                  1.0228         -DE/DX =    0.0                 !
 ! R13   R(10,11)                1.3689         -DE/DX =    0.0                 !
 ! A1    A(4,1,5)              122.5896         -DE/DX =    0.0002              !
 ! A2    A(4,1,10)             114.3846         -DE/DX =    0.0                 !
 ! A3    A(5,1,10)             122.8923         -DE/DX =   -0.0002              !
 ! A4    A(3,2,4)              122.3379         -DE/DX =    0.0                 !
 ! A5    A(3,2,11)             123.5661         -DE/DX =    0.0001              !
 ! A6    A(4,2,11)             113.9319         -DE/DX =   -0.0001              !
 ! A7    A(2,3,12)             117.485          -DE/DX =    0.0                 !
 ! A8    A(2,3,13)             114.1553         -DE/DX =    0.0                 !
 ! A9    A(12,3,13)            113.4642         -DE/DX =    0.0                 !
 ! A10   A(1,4,2)               85.9949         -DE/DX =    0.0                 !
 ! A11   A(1,5,6)              101.8769         -DE/DX =    0.0                 !
 ! A12   A(1,5,7)              102.1911         -DE/DX =    0.0001              !
 ! A13   A(1,5,8)              109.8641         -DE/DX =    0.0                 !
 ! A14   A(6,5,7)              114.2304         -DE/DX =    0.0                 !
 ! A15   A(6,5,8)              116.2638         -DE/DX =    0.0                 !
 ! A16   A(7,5,8)              110.9506         -DE/DX =    0.0                 !
 ! A17   A(5,8,9)              108.7978         -DE/DX =    0.0                 !
 ! A18   A(1,10,11)            113.5508         -DE/DX =   -0.0001              !
 ! A19   A(2,11,10)            112.1347         -DE/DX =    0.0001              !
 ! D1    D(5,1,4,2)            175.3811         -DE/DX =    0.0                 !
 ! D2    D(10,1,4,2)            -0.5282         -DE/DX =    0.0                 !
 ! D3    D(4,1,5,6)            -86.6412         -DE/DX =    0.0                 !
 ! D4    D(4,1,5,7)             31.6855         -DE/DX =    0.0                 !
 ! D5    D(4,1,5,8)            149.5258         -DE/DX =    0.0                 !
 ! D6    D(10,1,5,6)            88.9211         -DE/DX =    0.0                 !
 ! D7    D(10,1,5,7)          -152.7522         -DE/DX =    0.0                 !
 ! D8    D(10,1,5,8)           -34.9119         -DE/DX =    0.0                 !
 ! D9    D(4,1,10,11)            0.4951         -DE/DX =    0.0                 !
 ! D10   D(5,1,10,11)         -175.4002         -DE/DX =    0.0                 !
 ! D11   D(4,2,3,12)            30.6201         -DE/DX =    0.0                 !
 ! D12   D(4,2,3,13)           167.1075         -DE/DX =    0.0001              !
 ! D13   D(11,2,3,12)         -154.3208         -DE/DX =    0.0                 !
 ! D14   D(11,2,3,13)          -17.8334         -DE/DX =    0.0                 !
 ! D15   D(3,2,4,1)            175.9429         -DE/DX =    0.0                 !
 ! D16   D(11,2,4,1)             0.4461         -DE/DX =    0.0                 !
 ! D17   D(3,2,11,10)         -175.7138         -DE/DX =    0.0                 !
 ! D18   D(4,2,11,10)           -0.2802         -DE/DX =    0.0                 !
 ! D19   D(1,5,8,9)             78.7604         -DE/DX =    0.0                 !
 ! D20   D(6,5,8,9)            -36.2193         -DE/DX =    0.0                 !
 ! D21   D(7,5,8,9)           -168.9831         -DE/DX =    0.0001              !
 ! D22   D(1,10,11,2)           -0.1366         -DE/DX =    0.0                 !
 --------------------------------------------------------------------------------
 GradGradGradGradGradGradGradGradGradGradGradGradGradGradGradGradGradGrad


 ----------------------------------------------------------------------

 Electric dipole moment (input orientation):
 (Debye = 10**-18 statcoulomb cm , SI units = C m)
                  (au)            (Debye)         (10**-30 SI)
   Tot        0.581050D+01      0.147688D+02      0.492634D+02
   x         -0.579649D+01     -0.147332D+02     -0.491447D+02
   y          0.240823D+00      0.612112D+00      0.204179D+01
   z          0.323328D+00      0.821818D+00      0.274129D+01

 Dipole polarizability, Alpha (input orientation).
 (esu units = cm**3 , SI units = C**2 m**2 J**-1)
 Alpha(0;0):
               (au)            (10**-24 esu)      (10**-40 SI)
   iso        0.139690D+03      0.206999D+02      0.230317D+02
   aniso      0.681611D+02      0.101004D+02      0.112383D+02
   xx         0.178428D+03      0.264403D+02      0.294188D+02
   yx        -0.408857D+01     -0.605864D+00     -0.674115D+00
   yy         0.134131D+03      0.198762D+02      0.221153D+02
   zx         0.332330D+01      0.492462D+00      0.547938D+00
   zy         0.143049D+02      0.211976D+01      0.235855D+01
   zz         0.106509D+03      0.157830D+02      0.175610D+02

 ----------------------------------------------------------------------

 Dipole orientation:
     6          0.43989684          0.90131312         -2.01340007
     6          0.22516244          1.50772843          2.43196018
     7         -0.25958048          1.51000283          4.95474355
    16         -0.84748673         -0.88393828          0.43076026
    16          0.49935692         -0.19417213         -5.25322855
     8          2.90987309         -1.64414555         -5.33142533
     8         -1.80390549         -1.78387007         -5.37859126
     7          0.29950208          2.08221343         -7.07627832
     1          2.03000640          2.93428109         -7.20120582
     7          1.47530740          2.98175487         -1.29888686
     7          1.37414131          3.36278142          1.25773456
     1         -0.43330243         -0.19112150          5.82220640
     1          0.78898828          2.77165560          5.95367555

 Electric dipole moment (dipole orientation):
 (Debye = 10**-18 statcoulomb cm , SI units = C m)
                  (au)            (Debye)         (10**-30 SI)
   Tot        0.581050D+01      0.147688D+02      0.492634D+02
   x          0.000000D+00      0.000000D+00      0.000000D+00
   y          0.000000D+00      0.000000D+00      0.000000D+00
   z          0.581050D+01      0.147688D+02      0.492634D+02

 Dipole polarizability, Alpha (dipole orientation).
 (esu units = cm**3 , SI units = C**2 m**2 J**-1)
 Alpha(0;0):
               (au)            (10**-24 esu)      (10**-40 SI)
   iso        0.139690D+03      0.206999D+02      0.230317D+02
   aniso      0.681611D+02      0.101004D+02      0.112383D+02
   xx         0.108267D+03      0.160435D+02      0.178508D+02
   yx         0.153473D+02      0.227424D+01      0.253043D+01
   yy         0.132637D+03      0.196548D+02      0.218690D+02
   zx        -0.658827D+01     -0.976280D+00     -0.108626D+01
   zy         0.331314D+01      0.490957D+00      0.546263D+00
   zz         0.178165D+03      0.264013D+02      0.293754D+02

 ----------------------------------------------------------------------
 Unable to Open any file for archive entry.
 1\1\GINC-GADI-CPU-CLX-1295\Freq\RM062X\Gen\C2H3N4O2S2(1-)\YJ5695\23-Ju
 n-2022\0\\#N Geom=AllCheck Guess=TCheck SCRF=Check GenChk RM062X/ChkBa
 s Freq\\A.23.smd.a1b2.smd\\-1,1\C,1.094890673,0.4411369197,0.153167145
 9\C,-1.2457627347,0.8545627575,0.157407858\N,-2.5921890143,0.901048201
 5,-0.0242520097\S,-0.2714050182,-0.4751164328,-0.4153186315\S,2.784299
 0363,-0.2074504791,0.1131818082\O,2.8685833306,-0.9252489058,1.4151966
 605\O,2.747723817,-1.0978009849,-1.07154032\N,3.7878142728,0.951074560
 3,-0.0959307067\H,3.9238710379,1.4343625177,0.7952392281\N,0.792198167
 5,1.5773989779,0.6751730109\N,-0.5526159434,1.8326775381,0.6886935354\
 H,-3.0906472645,0.0177417666,-0.0531067867\H,-3.0615983601,1.611241563
 2,0.5310332076\\Version=ES64L-G16RevC.01\State=1-A\HF=-1243.6911332\RM
 SD=4.509e-09\RMSF=1.322e-04\ZeroPoint=0.0744714\Thermal=0.0840044\ETot
 =-1243.6071288\HTot=-1243.6061846\GTot=-1243.652799\Dipole=-5.7964928,
 0.2408234,0.323328\DipoleDeriv=-0.1818221,0.4119943,0.2428442,0.350713
 2,0.1934083,0.242728,0.3380869,0.2060979,-0.114664,2.5710125,-0.275209
 5,0.2199556,0.0746806,0.7742562,0.3319275,0.3650029,0.2859399,0.414250
 5,-2.2917763,0.087688,-0.2349962,0.3413654,-0.4772104,0.082986,-0.5328
 678,0.0597976,-0.7106686,-0.4083378,-0.1092092,-0.1191964,0.3289674,-0
 .2480097,-0.1693306,0.0749804,-0.2035409,0.1220901,3.7532506,0.1768504
 ,-0.0813034,0.0606855,3.1891725,-0.0863904,-0.0247254,-0.038321,3.2255
 314,-1.2425012,0.0176322,-0.0087604,0.2257849,-1.3723318,0.4977464,-0.
 3193241,0.6588689,-1.7470848,-1.1370358,0.0478036,0.0420373,0.2255292,
 -1.3463561,-0.4674644,0.2043436,-0.584002,-1.5265834,-1.8094864,-0.364
 1427,-0.0146646,-0.6482589,-1.4984863,0.086888,-0.0231836,0.0485269,-0
 .8018574,0.3805934,-0.0059663,0.0674225,-0.0002883,0.3380389,-0.054497
 ,0.0584998,-0.0569054,0.1154378,0.0391673,-0.3372115,-0.1561062,-0.176
 2384,-0.5426863,-0.1384656,-0.0889498,-0.1869012,-0.3136815,-1.3521664
 ,0.3205741,0.0174344,-0.6790238,-0.6214939,-0.2544754,-0.3764956,-0.12
 15699,-0.4491589,0.3836649,0.0871592,0.0364932,0.1033036,0.2660078,-0.
 0205801,0.2544883,0.0065071,0.4197297,0.2954371,-0.0579626,-0.0111602,
 -0.2072204,0.3456908,-0.0510722,0.0701444,-0.0744979,0.366659\Polar=17
 8.4282207,-4.0885739,134.1313202,3.3232999,14.3048697,106.5092027\Quad
 rupole=5.1100634,-3.9574523,-1.1526112,7.9640317,2.2822424,0.6753803\P
 G=C01 [X(C2H3N4O2S2)]\NImag=0\\0.50891210,-0.13782514,0.58210856,-0.01
 658575,0.20815165,0.21374128,-0.03330515,-0.00140723,-0.00618679,0.779
 44869,0.04004941,0.00859920,-0.00114121,0.07074647,0.48624030,0.017002
 37,0.00218134,0.00868817,0.08940282,0.16713755,0.22553052,-0.01598848,
 -0.00974944,-0.00437564,-0.35794458,0.02153829,-0.04132396,0.71970451,
 0.00152863,-0.00571113,-0.00167312,0.00569461,-0.11274456,-0.02723839,
 0.05692255,0.71260945,-0.00518044,-0.00844835,-0.00281890,0.00550306,-
 0.02278929,-0.04618677,-0.08802524,0.22994357,0.18627110,-0.11534776,-
 0.05281751,-0.03352250,-0.07992504,0.04760211,0.01768888,-0.01754367,0
 .02724212,0.01340948,0.24130870,-0.03649731,-0.06143409,-0.01555701,0.
 03133810,-0.10795063,-0.02985083,0.01842544,-0.00218939,0.00477839,0.0
 0489699,0.26853080,-0.02621221,-0.01732891,-0.04568682,0.01312196,-0.0
 2753974,-0.05759211,0.00521522,0.00036358,0.00719180,0.02259927,0.1141
 4057,0.09316378,-0.15699802,0.01900999,-0.00900568,-0.01381844,-0.0113
 2389,-0.00774127,0.01559606,-0.00164759,0.00422704,-0.00933204,-0.0026
 8791,-0.00253524,0.49102166,0.03873067,-0.05732924,-0.00246497,0.00055
 802,0.00102730,0.00006737,-0.00612053,0.00169091,-0.00134236,-0.015329
 05,0.00574036,0.00067065,0.11696678,0.68097390,-0.00323413,-0.00247373
 ,-0.04217180,-0.00074710,0.00034527,-0.00015655,-0.00103591,0.00021147
 ,0.00037430,-0.00756561,0.00107075,0.00046146,0.01728711,0.03197306,0.
 79497129,-0.00092147,0.01974999,-0.01944532,0.00397008,0.00393967,0.00
 295998,-0.00418580,0.00024990,-0.00114477,-0.00011245,0.00108733,-0.00
 010972,-0.07453780,0.01183284,-0.02616833,0.05982522,0.00305288,-0.003
 33867,0.01545663,-0.00237370,-0.00230321,-0.00170829,0.00370982,-0.000
 50607,0.00074917,0.00189598,-0.00248045,-0.00000734,0.00848860,-0.1596
 5818,0.16184216,-0.01068348,0.16368332,0.00344661,0.00924913,-0.007742
 33,0.00265995,0.00192270,0.00183376,-0.00331073,0.00055033,-0.00069242
 ,-0.00100891,0.00188516,0.00036638,-0.01976980,0.15221521,-0.35024847,
 0.02772283,-0.19176166,0.40487405,0.00342731,0.02137324,0.02133276,0.0
 0411759,-0.00027840,0.00146206,-0.00296385,0.00062223,-0.00052931,0.00
 245649,0.00122035,-0.00026450,-0.07548229,-0.00054105,-0.00285775,0.01
 421093,-0.00259378,-0.00266394,0.06201402,-0.00535130,-0.01004761,-0.0
 2032860,-0.00231466,-0.00346719,-0.00187582,0.00310204,0.00013734,0.00
 102023,0.00113734,-0.00062723,0.00032879,-0.00079489,-0.20639830,-0.18
 700083,-0.00146529,0.01104327,0.01302179,0.00920711,0.23775188,-0.0076
 1998,-0.01284119,-0.00776880,-0.00191012,-0.00264097,-0.00087294,0.002
 57059,0.00004303,0.00083596,0.00071763,0.00038075,-0.00036395,-0.00610
 622,-0.18430591,-0.31459008,-0.00264067,-0.02071085,-0.03977318,0.0057
 3443,0.22881965,0.36319488,-0.01160163,-0.02186186,0.00045149,0.001570
 91,0.00008299,0.00064907,-0.00458768,0.00149834,-0.00088831,-0.0042077
 1,0.00464646,0.00293823,-0.18010681,-0.13846610,0.03297543,0.00748862,
 -0.00937876,0.00192418,-0.00111335,-0.00996379,-0.00073575,0.21643075,
 0.00124270,-0.00021017,0.00125734,0.00149930,0.00065317,0.00034383,-0.
 00139433,0.00036745,-0.00007225,0.00002424,0.00155812,0.00052432,-0.14
 104962,-0.22541063,0.02991904,-0.02294478,-0.01675898,0.01364478,-0.02
 351603,-0.02698004,-0.00708205,0.21420827,0.36910005,0.00090692,0.0021
 6423,0.00818579,0.00053872,0.00037122,0.00011171,0.00001998,-0.0001584
 7,-0.00020227,0.00077191,-0.00080649,-0.00012153,0.00345948,-0.0063049
 1,-0.08328844,0.02121240,0.03283044,-0.00785219,-0.02353270,-0.0355569
 0,-0.00448371,0.02746315,0.15055157,0.41752407,-0.00052758,0.00035488,
 0.00225101,0.00028115,0.00033053,0.00009343,0.00023092,-0.00011524,-0.
 00004825,0.00031035,-0.00045189,-0.00015492,-0.01447489,-0.02130496,-0
 .02085277,-0.00014996,0.00358712,-0.00105924,0.00261243,-0.00390310,0.
 00034309,-0.01956694,-0.02704799,-0.02977412,0.03145963,0.00014080,-0.
 00007130,0.00006073,-0.00022732,-0.00038312,-0.00015954,0.00032653,0.0
 0000296,0.00011765,0.00014919,-0.00000082,0.00000094,-0.00738483,-0.02
 514556,-0.02761109,0.00297316,0.00673277,-0.00015627,-0.00647317,-0.00
 241859,-0.00150612,-0.03786186,-0.10379976,-0.14357045,0.04811985,0.12
 471386,0.00008584,0.00068553,-0.00006593,0.00001703,0.00004099,0.00003
 117,0.00023673,-0.00007045,0.00003964,0.00030885,-0.00020734,-0.000073
 83,0.01061261,0.01298031,-0.00405896,0.00087363,0.00151324,-0.00022563
 ,0.00150329,0.00122082,0.00340716,-0.06325476,-0.18889945,-0.33031280,
 0.04897287,0.17266456,0.33136206,-0.10205075,0.09246699,0.03363751,-0.
 08242221,-0.06058761,-0.03609610,-0.00169804,0.00028979,0.00084634,-0.
 01470072,0.01053617,0.00275451,-0.01426523,0.02176059,0.01238136,0.003
 06406,-0.00157988,-0.00153928,-0.00377932,0.00466846,0.00563412,0.0016
 0508,0.00206080,-0.00101916,-0.00014215,-0.00031595,0.00044266,0.44907
 055,0.06842289,-0.40690557,-0.16090738,-0.02349870,-0.00209111,-0.0065
 2686,0.00858990,-0.00123778,0.00075723,-0.04544370,-0.05725868,-0.0425
 7218,0.01742975,-0.01167883,-0.00152686,-0.00163876,0.00075306,0.00086
 862,-0.00185984,0.00058136,-0.00095317,-0.00157555,0.00049288,-0.00008
 323,0.00001033,0.00010128,-0.00013672,-0.08100967,0.54787364,0.0290977
 6,-0.16300961,-0.12876851,-0.01852324,-0.00637650,-0.00403369,0.004451
 44,-0.00616307,0.00770313,-0.02586133,-0.03827649,0.00104339,0.0084429
 1,0.00157687,-0.00742528,-0.00473392,0.00229568,-0.00145581,0.00050509
 ,-0.00192142,0.00046121,-0.00040657,0.00044401,0.00101491,0.00022258,-
 0.00000194,-0.00020823,-0.00512931,0.21419148,0.19431603,-0.07577331,0
 .07061477,0.03194351,-0.17858472,-0.10637042,-0.06172146,-0.04550840,-
 0.04596566,-0.02993501,0.00189005,-0.03016939,-0.01667823,0.03329362,-
 0.00846958,-0.00009893,-0.00890634,0.00605672,-0.00659769,-0.00567470,
 0.00590521,0.00419708,-0.00620741,-0.00315044,-0.00006876,-0.00004044,
 0.00057669,0.00020847,-0.23418596,0.06119444,0.01352484,0.51896349,0.0
 2766376,-0.04467076,-0.02182889,-0.09528818,-0.28004759,-0.10858011,-0
 .03119328,0.00864472,-0.01202204,0.02995760,-0.04691339,-0.02885725,0.
 00225491,-0.00382081,-0.00625625,-0.00278188,0.00255662,-0.00122824,0.
 00294450,0.00036493,0.00068920,-0.00124849,0.00105042,0.00049320,0.000
 39799,0.00025559,0.00020842,0.01063162,-0.07103816,-0.00443286,0.05122
 127,0.43529742,0.00620473,-0.02045406,0.00331034,-0.05606012,-0.113130
 19,-0.11868701,-0.02173796,-0.00338662,-0.00609981,0.01346107,-0.03396
 374,0.00149383,0.00311020,-0.00568598,0.00590826,0.00095171,-0.0000907
 4,0.00064799,-0.00097247,0.00264379,0.00025716,-0.00143032,-0.00076310
 ,-0.00060662,0.00000665,0.00020571,0.00012226,-0.01137537,-0.00071198,
 -0.06279868,0.06461610,0.17593646,0.17288793,0.00015333,-0.00113282,-0
 .00090652,-0.01959412,-0.03311065,-0.00315538,-0.14723490,-0.15701783,
 0.00376467,-0.00175498,-0.00053140,0.00034139,-0.00081397,0.00056857,-
 0.00005042,0.00017061,-0.00016946,0.00018736,0.00019362,-0.00012429,-0
 .00009255,0.00043660,0.00010822,-0.00001645,-0.00001529,-0.00001381,-0
 .00001543,-0.00057488,-0.00019076,-0.00081510,-0.00332447,0.00337459,0
 .00230579,0.15991132,0.00067857,-0.00002733,-0.00022963,0.00342887,0.0
 0974669,0.00283246,-0.16902842,-0.36611062,-0.03106771,0.00172133,0.00
 046969,-0.00025605,-0.00097337,0.00047114,0.00002603,0.00025091,-0.000
 23351,0.00023490,0.00019234,-0.00020683,-0.00016975,0.00035460,0.00009
 360,0.00000535,-0.00001578,-0.00001852,-0.00002131,0.00118602,0.000698
 87,-0.00029253,0.00252742,0.00015749,0.00130237,0.17190789,0.36889643,
 0.00224560,0.00158698,0.00011506,-0.01595409,-0.00472225,-0.01111811,0
 .02672354,-0.00454233,-0.00463040,0.00052943,-0.00254074,0.00015948,-0
 .00172452,0.00087957,-0.00040556,0.00031430,-0.00024116,0.00019574,0.0
 0032434,-0.00040049,-0.00025647,0.00052926,0.00017479,0.00008853,0.000
 01393,-0.00004242,-0.00002672,-0.00094977,-0.00258943,0.00164544,0.000
 36420,0.00375838,0.00319727,0.00022588,0.02301097,0.01279386,0.0000214
 2,0.00122413,0.00041191,-0.02379415,0.02738150,0.02077956,-0.13787607,
 0.11069815,0.09800075,-0.00304121,-0.00181295,-0.00101576,-0.00008186,
 -0.00018619,-0.00003298,0.00008429,-0.00001207,0.00000866,-0.00001889,
 -0.00010283,-0.00009164,-0.00014042,-0.00004032,0.00003862,0.00002277,
 -0.00000929,0.00000821,0.00007958,-0.00043033,-0.00077514,0.00405861,0
 .00206559,0.00091998,0.01244713,-0.01223038,-0.01264209,0.14823880,-0.
 00183657,-0.00096189,-0.00079553,0.01184445,0.00272076,0.00337729,0.10
 487143,-0.23495329,-0.16162424,-0.00103664,0.00255571,0.00053263,0.001
 71208,-0.00046207,-0.00051903,-0.00056960,0.00051003,-0.00044645,-0.00
 029751,0.00026700,0.00027739,-0.00043425,-0.00015610,0.00006445,0.0000
 3826,0.00003120,0.00002140,-0.00010734,-0.00029096,0.00196638,-0.00397
 103,-0.00183647,-0.00190192,0.01633174,-0.01393711,-0.01433185,-0.1265
 4500,0.24651320,-0.00015732,0.00053698,0.00098246,-0.01186208,0.008522
 42,0.00245186,0.12059194,-0.18787955,-0.14178536,-0.00152817,-0.001052
 99,-0.00004190,-0.00025663,-0.00025889,0.00062983,0.00020789,-0.000167
 26,0.00007211,-0.00004130,0.00002898,-0.00004726,-0.00021512,-0.000042
 82,-0.00005744,-0.00001426,-0.00000176,0.00000981,0.00041248,0.0001904
 8,-0.00149390,0.00024588,0.00212000,0.00036707,-0.00177324,0.00462492,
 -0.00175813,-0.10561007,0.17337948,0.14067085\\0.00016467,0.00037526,0
 .00019867,0.00011601,-0.00032657,-0.00024424,-0.00000502,0.00006191,-0
 .00003181,-0.00016613,-0.00000898,-0.00004974,0.00008368,-0.00011550,-
 0.00003808,0.00001106,-0.00002022,-0.00000329,-0.00005213,0.00005672,-
 0.00007017,-0.00003043,-0.00003459,0.00004063,-0.00001545,0.00002931,0
 .00004544,-0.00011202,-0.00020332,-0.00015885,0.00001450,0.00024801,0.
 00026855,-0.00000799,0.00000515,0.00000179,-0.00000075,-0.00006719,0.0
 0004110\\\@
 The archive entry for this job was punched.


 If fifty million people say a stupid thing,
 it is still a stupid thing.
                   -- Anatole France
 Job cpu time:       0 days  0 hours 30 minutes 27.9 seconds.
 Elapsed time:       0 days  0 hours  1 minutes 55.1 seconds.
 File lengths (MBytes):  RWF=    108 Int=      0 D2E=      0 Chk=      9 Scr=      1
 Normal termination of Gaussian 16 at Thu Jun 23 14:31:57 2022.
