 Entering Gaussian System, Link 0=g16
 AtFile(1): /home/561/yj5695/Basis/6-31pGd.gbs
 Initial command:
 /apps/gaussian/g16c01/g16/l1.exe "/jobfs/40775329.gadi-pbs/Gau-3446018.inp" -scrdir="/jobfs/40775329.gadi-pbs/"
 Entering Link 1 = /apps/gaussian/g16c01/g16/l1.exe PID=   3446027.
  
 Copyright (c) 1988-2019, Gaussian, Inc.  All Rights Reserved.
  
 This is part of the Gaussian(R) 16 program.  It is based on
 the Gaussian(R) 09 system (copyright 2009, Gaussian, Inc.),
 the Gaussian(R) 03 system (copyright 2003, Gaussian, Inc.),
 the Gaussian(R) 98 system (copyright 1998, Gaussian, Inc.),
 the Gaussian(R) 94 system (copyright 1995, Gaussian, Inc.),
 the Gaussian 92(TM) system (copyright 1992, Gaussian, Inc.),
 the Gaussian 90(TM) system (copyright 1990, Gaussian, Inc.),
 the Gaussian 88(TM) system (copyright 1988, Gaussian, Inc.),
 the Gaussian 86(TM) system (copyright 1986, Carnegie Mellon
 University), and the Gaussian 82(TM) system (copyright 1983,
 Carnegie Mellon University). Gaussian is a federally registered
 trademark of Gaussian, Inc.
  
 This software contains proprietary and confidential information,
 including trade secrets, belonging to Gaussian, Inc.
  
 This software is provided under written license and may be
 used, copied, transmitted, or stored only in accord with that
 written license.
  
 The following legend is applicable only to US Government
 contracts under FAR:
  
                    RESTRICTED RIGHTS LEGEND
  
 Use, reproduction and disclosure by the US Government is
 subject to restrictions as set forth in subparagraphs (a)
 and (c) of the Commercial Computer Software - Restricted
 Rights clause in FAR 52.227-19.
  
 Gaussian, Inc.
 340 Quinnipiac St., Bldg. 40, Wallingford CT 06492
  
  
 ---------------------------------------------------------------
 Warning -- This program may not be used in any manner that
 competes with the business of Gaussian, Inc. or will provide
 assistance to any competitor of Gaussian, Inc.  The licensee
 of this program is prohibited from giving any competitor of
 Gaussian, Inc. access to this program.  By using this program,
 the user acknowledges that Gaussian, Inc. is engaged in the
 business of creating and licensing software in the field of
 computational chemistry and represents and warrants to the
 licensee that it is not a competitor of Gaussian, Inc. and that
 it will not use this program in any manner prohibited above.
 ---------------------------------------------------------------
  

 Cite this work as:
 Gaussian 16, Revision C.01,
 M. J. Frisch, G. W. Trucks, H. B. Schlegel, G. E. Scuseria, 
 M. A. Robb, J. R. Cheeseman, G. Scalmani, V. Barone, 
 G. A. Petersson, H. Nakatsuji, X. Li, M. Caricato, A. V. Marenich, 
 J. Bloino, B. G. Janesko, R. Gomperts, B. Mennucci, H. P. Hratchian, 
 J. V. Ortiz, A. F. Izmaylov, J. L. Sonnenberg, D. Williams-Young, 
 F. Ding, F. Lipparini, F. Egidi, J. Goings, B. Peng, A. Petrone, 
 T. Henderson, D. Ranasinghe, V. G. Zakrzewski, J. Gao, N. Rega, 
 G. Zheng, W. Liang, M. Hada, M. Ehara, K. Toyota, R. Fukuda, 
 J. Hasegawa, M. Ishida, T. Nakajima, Y. Honda, O. Kitao, H. Nakai, 
 T. Vreven, K. Throssell, J. A. Montgomery, Jr., J. E. Peralta, 
 F. Ogliaro, M. J. Bearpark, J. J. Heyd, E. N. Brothers, K. N. Kudin, 
 V. N. Staroverov, T. A. Keith, R. Kobayashi, J. Normand, 
 K. Raghavachari, A. P. Rendell, J. C. Burant, S. S. Iyengar, 
 J. Tomasi, M. Cossi, J. M. Millam, M. Klene, C. Adamo, R. Cammi, 
 J. W. Ochterski, R. L. Martin, K. Morokuma, O. Farkas, 
 J. B. Foresman, and D. J. Fox, Gaussian, Inc., Wallingford CT, 2019.
 
 ******************************************
 Gaussian 16:  ES64L-G16RevC.01  3-Jul-2019
                20-May-2022 
 ******************************************
 %nproc=16
 Will use up to   16 processors via shared memory.
 %mem=20gb
 -----------------------------------------------------
 #m062X/gen 6D OPT Freq=noraman SCRF=(SMD,Solvent=h2o)
 -----------------------------------------------------
 1/18=20,19=15,26=3,38=1/1,3;
 2/9=110,12=2,17=6,18=5,40=1/2;
 3/5=7,8=2,11=2,25=1,30=1,70=32201,71=1,72=1,74=-55/1,2,3;
 4//1;
 5/5=2,38=5,53=1/2;
 6/7=2,8=2,9=2,10=2,28=1/1;
 7//1,2,3,16;
 1/18=20,19=15,26=3/3(2);
 2/9=110/2;
 99//99;
 2/9=110/2;
 3/5=7,6=1,8=2,11=2,25=1,30=1,70=32205,71=1,72=1,74=-55,82=7/1,2,3;
 4/5=5,16=3,69=1/1;
 5/5=2,38=5,53=1/2;
 7//1,2,3,16;
 1/18=20,19=15,26=3/3(-5);
 2/9=110/2;
 6/7=2,8=2,9=2,10=2,19=2,28=1/1;
 99/9=1/99;
 ----------------
 A.25.smd.a2d3.smd
 ----------------
 Symbolic Z-matrix:
 Charge = -1 Multiplicity = 1
 C                     1.06387   0.45565   0.04181 
 C                    -1.27917   0.78837  -0.03006 
 N                    -2.65468   0.84546  -0.00941 
 S                    -0.28741  -0.62377   0.17716 
 S                     2.77263  -0.15833   0.03701 
 O                     3.43792   0.9008    0.8434 
 O                     2.6577   -1.46642   0.7226 
 N                     3.26105  -0.34864  -1.41625 
 H                     3.45925   0.5696   -1.82168 
 C                    -3.62165  -0.13804  -0.05771 
 O                    -3.624    -0.89175  -1.02588 
 C                    -4.6193   -0.24524   1.05441 
 N                     0.74593   1.69383  -0.12382 
 N                    -0.60055   1.90019  -0.16344 
 H                    -3.02419   1.79644  -0.02185 
 H                    -4.12169  -0.38466   2.01934 
 H                    -5.25366  -1.10881   0.85508 
 H                    -5.25048   0.64867   1.09784 
 

 GradGradGradGradGradGradGradGradGradGradGradGradGradGradGradGradGradGrad
 Berny optimization.
 Initialization pass.
                           ----------------------------
                           !    Initial Parameters    !
                           ! (Angstroms and Degrees)  !
 --------------------------                            --------------------------
 ! Name  Definition              Value          Derivative Info.                !
 --------------------------------------------------------------------------------
 ! R1    R(1,4)                  1.7348         estimate D2E/DX2                !
 ! R2    R(1,5)                  1.8157         estimate D2E/DX2                !
 ! R3    R(1,13)                 1.289          estimate D2E/DX2                !
 ! R4    R(2,3)                  1.3768         estimate D2E/DX2                !
 ! R5    R(2,4)                  1.738          estimate D2E/DX2                !
 ! R6    R(2,14)                 1.3094         estimate D2E/DX2                !
 ! R7    R(3,10)                 1.3801         estimate D2E/DX2                !
 ! R8    R(3,15)                 1.0203         estimate D2E/DX2                !
 ! R9    R(5,6)                  1.4882         estimate D2E/DX2                !
 ! R10   R(5,7)                  1.4813         estimate D2E/DX2                !
 ! R11   R(5,8)                  1.5449         estimate D2E/DX2                !
 ! R12   R(8,9)                  1.0231         estimate D2E/DX2                !
 ! R13   R(10,11)                1.227          estimate D2E/DX2                !
 ! R14   R(10,12)                1.4979         estimate D2E/DX2                !
 ! R15   R(12,16)                1.0946         estimate D2E/DX2                !
 ! R16   R(12,17)                1.0899         estimate D2E/DX2                !
 ! R17   R(12,18)                1.0951         estimate D2E/DX2                !
 ! R18   R(13,14)                1.3628         estimate D2E/DX2                !
 ! A1    A(4,1,5)              121.5239         estimate D2E/DX2                !
 ! A2    A(4,1,13)             114.5558         estimate D2E/DX2                !
 ! A3    A(5,1,13)             123.82           estimate D2E/DX2                !
 ! A4    A(3,2,4)              127.0117         estimate D2E/DX2                !
 ! A5    A(3,2,14)             118.9529         estimate D2E/DX2                !
 ! A6    A(4,2,14)             113.9738         estimate D2E/DX2                !
 ! A7    A(2,3,10)             132.0598         estimate D2E/DX2                !
 ! A8    A(2,3,15)             113.595          estimate D2E/DX2                !
 ! A9    A(10,3,15)            114.2065         estimate D2E/DX2                !
 ! A10   A(1,4,2)               85.9643         estimate D2E/DX2                !
 ! A11   A(1,5,6)              100.2896         estimate D2E/DX2                !
 ! A12   A(1,5,7)              102.9656         estimate D2E/DX2                !
 ! A13   A(1,5,8)              109.9786         estimate D2E/DX2                !
 ! A14   A(6,5,7)              114.3538         estimate D2E/DX2                !
 ! A15   A(6,5,8)              117.1329         estimate D2E/DX2                !
 ! A16   A(7,5,8)              110.5553         estimate D2E/DX2                !
 ! A17   A(5,8,9)              108.8712         estimate D2E/DX2                !
 ! A18   A(3,10,11)            117.822          estimate D2E/DX2                !
 ! A19   A(3,10,12)            119.4516         estimate D2E/DX2                !
 ! A20   A(11,10,12)           122.7262         estimate D2E/DX2                !
 ! A21   A(10,12,16)           111.1521         estimate D2E/DX2                !
 ! A22   A(10,12,17)           107.9737         estimate D2E/DX2                !
 ! A23   A(10,12,18)           110.7871         estimate D2E/DX2                !
 ! A24   A(16,12,17)           108.9589         estimate D2E/DX2                !
 ! A25   A(16,12,18)           109.3305         estimate D2E/DX2                !
 ! A26   A(17,12,18)           108.5747         estimate D2E/DX2                !
 ! A27   A(1,13,14)            113.1341         estimate D2E/DX2                !
 ! A28   A(2,14,13)            112.3672         estimate D2E/DX2                !
 ! D1    D(5,1,4,2)           -176.0057         estimate D2E/DX2                !
 ! D2    D(13,1,4,2)             0.4855         estimate D2E/DX2                !
 ! D3    D(4,1,5,6)           -141.3922         estimate D2E/DX2                !
 ! D4    D(4,1,5,7)            -23.2362         estimate D2E/DX2                !
 ! D5    D(4,1,5,8)             94.608          estimate D2E/DX2                !
 ! D6    D(13,1,5,6)            42.4498         estimate D2E/DX2                !
 ! D7    D(13,1,5,7)           160.6058         estimate D2E/DX2                !
 ! D8    D(13,1,5,8)           -81.55           estimate D2E/DX2                !
 ! D9    D(4,1,13,14)           -0.2189         estimate D2E/DX2                !
 ! D10   D(5,1,13,14)          176.1808         estimate D2E/DX2                !
 ! D11   D(4,2,3,10)           -12.7228         estimate D2E/DX2                !
 ! D12   D(4,2,3,15)           171.8944         estimate D2E/DX2                !
 ! D13   D(14,2,3,10)          170.3134         estimate D2E/DX2                !
 ! D14   D(14,2,3,15)           -5.0695         estimate D2E/DX2                !
 ! D15   D(3,2,4,1)           -177.748          estimate D2E/DX2                !
 ! D16   D(14,2,4,1)            -0.6554         estimate D2E/DX2                !
 ! D17   D(3,2,14,13)          178.0303         estimate D2E/DX2                !
 ! D18   D(4,2,14,13)            0.6833         estimate D2E/DX2                !
 ! D19   D(2,3,10,11)          -57.9895         estimate D2E/DX2                !
 ! D20   D(2,3,10,12)          122.1662         estimate D2E/DX2                !
 ! D21   D(15,3,10,11)         117.3714         estimate D2E/DX2                !
 ! D22   D(15,3,10,12)         -62.4729         estimate D2E/DX2                !
 ! D23   D(1,5,8,9)             74.9689         estimate D2E/DX2                !
 ! D24   D(6,5,8,9)            -38.6008         estimate D2E/DX2                !
 ! D25   D(7,5,8,9)           -171.9963         estimate D2E/DX2                !
 ! D26   D(3,10,12,16)         -57.526          estimate D2E/DX2                !
 ! D27   D(3,10,12,17)        -176.9819         estimate D2E/DX2                !
 ! D28   D(3,10,12,18)          64.2445         estimate D2E/DX2                !
 ! D29   D(11,10,12,16)        122.6377         estimate D2E/DX2                !
 ! D30   D(11,10,12,17)          3.1818         estimate D2E/DX2                !
 ! D31   D(11,10,12,18)       -115.5918         estimate D2E/DX2                !
 ! D32   D(1,13,14,2)           -0.2997         estimate D2E/DX2                !
 --------------------------------------------------------------------------------
 Trust Radius=3.00D-01 FncErr=1.00D-07 GrdErr=1.00D-06 EigMax=2.50D+02 EigMin=1.00D-04
 Number of steps in this run=     88 maximum allowed number of steps=    108.
 GradGradGradGradGradGradGradGradGradGradGradGradGradGradGradGradGradGrad

                          Input orientation:                          
 ---------------------------------------------------------------------
 Center     Atomic      Atomic             Coordinates (Angstroms)
 Number     Number       Type             X           Y           Z
 ---------------------------------------------------------------------
      1          6           0        1.063866    0.455651    0.041814
      2          6           0       -1.279167    0.788369   -0.030057
      3          7           0       -2.654677    0.845463   -0.009406
      4         16           0       -0.287414   -0.623766    0.177156
      5         16           0        2.772626   -0.158332    0.037012
      6          8           0        3.437916    0.900799    0.843399
      7          8           0        2.657701   -1.466423    0.722595
      8          7           0        3.261052   -0.348640   -1.416250
      9          1           0        3.459252    0.569599   -1.821679
     10          6           0       -3.621654   -0.138035   -0.057711
     11          8           0       -3.624003   -0.891754   -1.025882
     12          6           0       -4.619303   -0.245236    1.054409
     13          7           0        0.745927    1.693834   -0.123816
     14          7           0       -0.600548    1.900189   -0.163438
     15          1           0       -3.024192    1.796444   -0.021850
     16          1           0       -4.121694   -0.384658    2.019345
     17          1           0       -5.253665   -1.108812    0.855081
     18          1           0       -5.250484    0.648670    1.097837
 ---------------------------------------------------------------------
                    Distance matrix (angstroms):
                    1          2          3          4          5
     1  C    0.000000
     2  C    2.367630   0.000000
     3  N    3.739270   1.376849   0.000000
     4  S    1.734767   1.737998   2.792378   0.000000
     5  S    1.815725   4.161462   5.519545   3.098405   0.000000
     6  O    2.544957   4.798587   6.152238   4.079983   1.488163
     7  O    2.588077   4.598859   5.839692   3.111475   1.481328
     8  N    2.756893   4.881384   6.196849   3.899519   1.544910
     9  H    3.037016   5.070541   6.382833   4.411005   2.110941
    10  C    4.724031   2.519173   1.380089   3.377611   6.395014
    11  O    4.993154   3.051678   2.233996   3.556957   6.525681
    12  C    5.815067   3.660726   2.486178   4.436003   7.462122
    13  N    1.289037   2.220285   3.506698   2.555318   2.750253
    14  N    2.213389   1.309373   2.314221   2.566010   3.956765
    15  H    4.302789   2.015290   1.020324   3.658821   6.117819
    16  H    5.613090   3.695403   2.789474   4.260579   7.177222
    17  H    6.558974   4.492149   3.364709   5.035722   8.123669
    18  H    6.404956   4.130741   2.828945   5.205652   8.133074
                    6          7          8          9         10
     6  O    0.000000
     7  O    2.495410   0.000000
     8  N    2.588125   2.487595   0.000000
     9  H    2.685664   3.355771   1.023142   0.000000
    10  C    7.192267   6.465585   7.018663   7.331545   0.000000
    11  O    7.521845   6.545779   6.917466   7.276080   1.226969
    12  C    8.141050   7.386216   8.259228   8.613878   1.497867
    13  N    2.968369   3.789263   3.488257   3.392459   4.736653
    14  N    4.280385   4.768157   4.640983   4.582817   3.645904
    15  H    6.581009   6.594271   6.786017   6.839560   2.024958
    16  H    7.757767   6.986557   8.143068   8.551890   2.150587
    17  H    8.920889   7.920552   8.845180   9.268065   2.106907
    18  H    8.695781   8.194743   8.930930   9.186366   2.146458
                   11         12         13         14         15
    11  O    0.000000
    12  C    2.395040   0.000000
    13  N    5.157061   5.825281   0.000000
    14  N    4.204763   4.715548   1.362772   0.000000
    15  H    2.931597   2.805561   3.772893   2.429992   0.000000
    16  H    3.127019   1.094603   5.710254   4.731124   3.182482
    17  H    2.498186   1.089913   6.693890   5.634090   3.765643
    18  H    3.086832   1.095145   6.208200   4.977853   2.743622
                   16         17         18
    16  H    0.000000
    17  H    1.777996   0.000000
    18  H    1.786368   1.774171   0.000000
 Stoichiometry    C4H5N4O3S2(1-)
 Framework group  C1[X(C4H5N4O3S2)]
 Deg. of freedom    48
 Full point group                 C1      NOp   1
 Largest Abelian subgroup         C1      NOp   1
 Largest concise Abelian subgroup C1      NOp   1
                         Standard orientation:                         
 ---------------------------------------------------------------------
 Center     Atomic      Atomic             Coordinates (Angstroms)
 Number     Number       Type             X           Y           Z
 ---------------------------------------------------------------------
      1          6           0       -1.064533    0.356612   -0.036614
      2          6           0        1.276770    0.691204    0.073010
      3          7           0        2.652443    0.747898    0.077943
      4         16           0        0.288719   -0.725678   -0.118916
      5         16           0       -2.773299   -0.257222   -0.050265
      6          8           0       -3.422236    0.781751   -0.895277
      7          8           0       -2.645465   -1.581725   -0.701174
      8          7           0       -3.290199   -0.411869    1.397369
      9          1           0       -3.495951    0.516020    1.776191
     10          6           0        3.617902   -0.234033    0.169309
     11          8           0        3.600973   -0.963777    1.155534
     12          6           0        4.637123   -0.368391   -0.920069
     13          7           0       -0.749418    1.598514    0.104802
     14          7           0        0.596102    1.805900    0.165749
     15          1           0        3.022015    1.698931    0.074304
     16          1           0        4.158474   -0.531484   -1.890868
     17          1           0        5.267117   -1.226761   -0.687219
     18          1           0        5.269384    0.524238   -0.973022
 ---------------------------------------------------------------------
 Rotational constants (GHZ):           1.8111556           0.3063396           0.2886375
 General basis read from cards:  (6D, 7F)
 There are   265 symmetry adapted cartesian basis functions of A   symmetry.
 There are   265 symmetry adapted basis functions of A   symmetry.
   265 basis functions,   484 primitive gaussians,   265 cartesian basis functions
    57 alpha electrons       57 beta electrons
       nuclear repulsion energy      1032.9391786950 Hartrees.
 NAtoms=   18 NActive=   18 NUniq=   18 SFac= 1.00D+00 NAtFMM=   60 NAOKFM=F Big=F
 Integral buffers will be    131072 words long.
 Raffenetti 2 integral format.
 Two-electron integral symmetry is turned on.
 ------------------------------------------------------------------------------
 Polarizable Continuum Model (PCM)
 =================================
 Model                : PCM.
 Atomic radii         : SMD-Coulomb.
 Polarization charges : Total charges.
 Charge compensation  : None.
 Solution method      : On-the-fly selection.
 Cavity type          : VdW (van der Waals Surface) (Alpha=1.000).
 Cavity algorithm     : GePol (No added spheres)
                        Default sphere list used, NSphG=   18.
                        Lebedev-Laikov grids with approx.  5.0 points / Ang**2.
                        Smoothing algorithm: York/Karplus (Gamma=1.0000).
                        Polarization charges: spherical gaussians, with
                                              point-specific exponents (IZeta= 3).
                        Self-potential: point-specific (ISelfS= 7).
                        Self-field    : sphere-specific E.n sum rule (ISelfD= 2).
 1st derivatives      : Analytical E(r).r(x)/FMM algorithm (CHGder, D1EAlg=3).
                        Cavity 1st derivative terms included.
 Solvent              : Water, Eps=  78.355300 Eps(inf)=   1.777849
 ------------------------------------------------------------------------------
 Spheres list:
 ISph  on   Nord     Re0    Alpha      Xe            Ye            Ze
    1   C      1    1.8500  1.000     -1.064533      0.356612     -0.036614
    2   C      2    1.8500  1.000      1.276770      0.691204      0.073010
    3   N      3    1.8900  1.000      2.652443      0.747898      0.077943
    4   S      4    2.4900  1.000      0.288719     -0.725678     -0.118916
    5   S      5    2.4900  1.000     -2.773299     -0.257222     -0.050265
    6   O      6    1.5200  1.000     -3.422236      0.781751     -0.895277
    7   O      7    1.5200  1.000     -2.645465     -1.581725     -0.701174
    8   N      8    1.8900  1.000     -3.290199     -0.411869      1.397369
    9   H      9    1.2000  1.000     -3.495951      0.516020      1.776191
   10   C     10    1.8500  1.000      3.617902     -0.234033      0.169309
   11   O     11    1.5200  1.000      3.600973     -0.963777      1.155534
   12   C     12    1.8500  1.000      4.637123     -0.368391     -0.920069
   13   N     13    1.8900  1.000     -0.749418      1.598514      0.104802
   14   N     14    1.8900  1.000      0.596102      1.805900      0.165749
   15   H     15    1.2000  1.000      3.022015      1.698931      0.074304
   16   H     16    1.2000  1.000      4.158474     -0.531484     -1.890868
   17   H     17    1.2000  1.000      5.267117     -1.226761     -0.687219
   18   H     18    1.2000  1.000      5.269384      0.524238     -0.973022
 ------------------------------------------------------------------------------
 ------------------------------------------------------------------------------
 Atomic radii for non-electrostatic terms: SMD-CDS.
 ------------------------------------------------------------------------------
 Nuclear repulsion after PCM non-electrostatic terms =     1032.9436067953 Hartrees.
 One-electron integrals computed using PRISM.
 NBasis=   265 RedAO= T EigKep=  1.37D-05  NBF=   265
 NBsUse=   265 1.00D-06 EigRej= -1.00D+00 NBFU=   265
 ExpMin= 4.05D-02 ExpMax= 2.19D+04 ExpMxC= 3.30D+03 IAcc=3 IRadAn=         5 AccDes= 0.00D+00
 Harris functional with IExCor= 1009 and IRadAn=       5 diagonalized for initial guess.
 HarFok:  IExCor= 1009 AccDes= 0.00D+00 IRadAn=         5 IDoV= 1 UseB2=F ITyADJ=14
 ICtDFT=  3500011 ScaDFX=  1.000000  1.000000  1.000000  1.000000
 FoFCou: FMM=F IPFlag=           0 FMFlag=      100000 FMFlg1=           0
         NFxFlg=           0 DoJE=T BraDBF=F KetDBF=T FulRan=T
         wScrn=  0.000000 ICntrl=       500 IOpCl=  0 I1Cent=   200000004 NGrid=           0
         NMat0=    1 NMatS0=      1 NMatT0=    0 NMatD0=    1 NMtDS0=    0 NMtDT0=    0
 Petite list used in FoFCou.
 Requested convergence on RMS density matrix=1.00D-08 within 128 cycles.
 Requested convergence on MAX density matrix=1.00D-06.
 Requested convergence on             energy=1.00D-06.
 No special actions if energy rises.
 Inv3:  Mode=1 IEnd=     8477283.
 Iteration    1 A*A^-1 deviation from unit magnitude is 4.55D-15 for   1667.
 Iteration    1 A*A^-1 deviation from orthogonality  is 2.66D-15 for   1681    625.
 Iteration    1 A^-1*A deviation from unit magnitude is 4.55D-15 for   1667.
 Iteration    1 A^-1*A deviation from orthogonality  is 1.89D-15 for   1680   1569.
 Error on total polarization charges =  0.04555
 SCF Done:  E(RM062X) =  -1396.26770587     A.U. after   15 cycles
            NFock= 15  Conv=0.65D-08     -V/T= 2.0054
 SMD-CDS (non-electrostatic) energy       (kcal/mol) =       2.78
 (included in total energy above)

 **********************************************************************

            Population analysis using the SCF Density.

 **********************************************************************

 Orbital symmetries:
       Occupied  (A) (A) (A) (A) (A) (A) (A) (A) (A) (A) (A) (A)
                 (A) (A) (A) (A) (A) (A) (A) (A) (A) (A) (A) (A)
                 (A) (A) (A) (A) (A) (A) (A) (A) (A) (A) (A) (A)
                 (A) (A) (A) (A) (A) (A) (A) (A) (A) (A) (A) (A)
                 (A) (A) (A) (A) (A) (A) (A) (A) (A)
       Virtual   (A) (A) (A) (A) (A) (A) (A) (A) (A) (A) (A) (A)
                 (A) (A) (A) (A) (A) (A) (A) (A) (A) (A) (A) (A)
                 (A) (A) (A) (A) (A) (A) (A) (A) (A) (A) (A) (A)
                 (A) (A) (A) (A) (A) (A) (A) (A) (A) (A) (A) (A)
                 (A) (A) (A) (A) (A) (A) (A) (A) (A) (A) (A) (A)
                 (A) (A) (A) (A) (A) (A) (A) (A) (A) (A) (A) (A)
                 (A) (A) (A) (A) (A) (A) (A) (A) (A) (A) (A) (A)
                 (A) (A) (A) (A) (A) (A) (A) (A) (A) (A) (A) (A)
                 (A) (A) (A) (A) (A) (A) (A) (A) (A) (A) (A) (A)
                 (A) (A) (A) (A) (A) (A) (A) (A) (A) (A) (A) (A)
                 (A) (A) (A) (A) (A) (A) (A) (A) (A) (A) (A) (A)
                 (A) (A) (A) (A) (A) (A) (A) (A) (A) (A) (A) (A)
                 (A) (A) (A) (A) (A) (A) (A) (A) (A) (A) (A) (A)
                 (A) (A) (A) (A) (A) (A) (A) (A) (A) (A) (A) (A)
                 (A) (A) (A) (A) (A) (A) (A) (A) (A) (A) (A) (A)
                 (A) (A) (A) (A) (A) (A) (A) (A) (A) (A) (A) (A)
                 (A) (A) (A) (A) (A) (A) (A) (A) (A) (A) (A) (A)
                 (A) (A) (A) (A)
 The electronic state is 1-A.
 Alpha  occ. eigenvalues --  -90.15234 -89.98929 -19.66384 -19.63266 -19.62973
 Alpha  occ. eigenvalues --  -14.81805 -14.81339 -14.80279 -14.73196 -10.69699
 Alpha  occ. eigenvalues --  -10.68273 -10.63637 -10.55213  -8.46021  -8.33430
 Alpha  occ. eigenvalues --   -6.38248  -6.38201  -6.38109  -6.25417  -6.25211
 Alpha  occ. eigenvalues --   -6.24930  -1.22388  -1.20395  -1.16899  -1.10525
 Alpha  occ. eigenvalues --   -1.07102  -0.97949  -0.93839  -0.91936  -0.84812
 Alpha  occ. eigenvalues --   -0.76316  -0.72901  -0.67687  -0.65951  -0.62020
 Alpha  occ. eigenvalues --   -0.58512  -0.57391  -0.55896  -0.55340  -0.53296
 Alpha  occ. eigenvalues --   -0.52918  -0.51315  -0.50454  -0.47001  -0.44558
 Alpha  occ. eigenvalues --   -0.43391  -0.42445  -0.41516  -0.40264  -0.38378
 Alpha  occ. eigenvalues --   -0.37548  -0.36951  -0.35966  -0.35722  -0.34046
 Alpha  occ. eigenvalues --   -0.32226  -0.29243
 Alpha virt. eigenvalues --   -0.01999   0.00681   0.01263   0.02175   0.03353
 Alpha virt. eigenvalues --    0.04038   0.04158   0.04644   0.05428   0.05863
 Alpha virt. eigenvalues --    0.06174   0.06770   0.07328   0.07846   0.07919
 Alpha virt. eigenvalues --    0.08680   0.09257   0.10279   0.10770   0.11152
 Alpha virt. eigenvalues --    0.11382   0.12636   0.13683   0.14112   0.14820
 Alpha virt. eigenvalues --    0.15329   0.15912   0.16534   0.16886   0.17508
 Alpha virt. eigenvalues --    0.18637   0.18838   0.20351   0.20917   0.21267
 Alpha virt. eigenvalues --    0.21864   0.22678   0.22844   0.23181   0.24096
 Alpha virt. eigenvalues --    0.24808   0.25320   0.26167   0.26491   0.26551
 Alpha virt. eigenvalues --    0.26984   0.27712   0.28580   0.29460   0.29677
 Alpha virt. eigenvalues --    0.29852   0.30704   0.31106   0.31716   0.32216
 Alpha virt. eigenvalues --    0.32609   0.32662   0.33780   0.34418   0.35189
 Alpha virt. eigenvalues --    0.36242   0.36677   0.37617   0.38188   0.39232
 Alpha virt. eigenvalues --    0.40441   0.40957   0.42111   0.43773   0.45973
 Alpha virt. eigenvalues --    0.46734   0.50811   0.52362   0.54506   0.55087
 Alpha virt. eigenvalues --    0.58317   0.59986   0.60805   0.62415   0.65288
 Alpha virt. eigenvalues --    0.66265   0.68186   0.70366   0.72462   0.73181
 Alpha virt. eigenvalues --    0.75221   0.75787   0.76943   0.78521   0.83875
 Alpha virt. eigenvalues --    0.84372   0.87333   0.88977   0.90896   0.93390
 Alpha virt. eigenvalues --    0.95370   0.97138   0.99194   1.01220   1.02234
 Alpha virt. eigenvalues --    1.02675   1.03356   1.05451   1.05849   1.06211
 Alpha virt. eigenvalues --    1.07139   1.08159   1.08938   1.09667   1.11137
 Alpha virt. eigenvalues --    1.12282   1.13819   1.14441   1.15343   1.17240
 Alpha virt. eigenvalues --    1.18202   1.19812   1.20660   1.22774   1.23201
 Alpha virt. eigenvalues --    1.24668   1.27566   1.28655   1.33211   1.34266
 Alpha virt. eigenvalues --    1.36344   1.37841   1.38403   1.39025   1.39777
 Alpha virt. eigenvalues --    1.40883   1.41593   1.42562   1.43470   1.46785
 Alpha virt. eigenvalues --    1.47122   1.48519   1.52276   1.57457   1.59414
 Alpha virt. eigenvalues --    1.63039   1.66608   1.70578   1.71781   1.72931
 Alpha virt. eigenvalues --    1.78136   1.79354   1.79983   1.81382   1.82234
 Alpha virt. eigenvalues --    1.82508   1.84409   1.87806   1.88130   1.89950
 Alpha virt. eigenvalues --    1.91132   1.93137   1.96104   1.99012   2.00640
 Alpha virt. eigenvalues --    2.01920   2.02978   2.05819   2.08648   2.10778
 Alpha virt. eigenvalues --    2.15972   2.17008   2.17396   2.23001   2.27012
 Alpha virt. eigenvalues --    2.30740   2.31872   2.33428   2.36420   2.37793
 Alpha virt. eigenvalues --    2.38346   2.40601   2.42123   2.43865   2.50835
 Alpha virt. eigenvalues --    2.53708   2.57384   2.61605   2.63537   2.66103
 Alpha virt. eigenvalues --    2.78408   2.80013   2.85720   2.88106   2.89847
 Alpha virt. eigenvalues --    2.92552   3.05411   3.09728   3.12685   3.20677
 Alpha virt. eigenvalues --    3.96748   3.97178   4.05396   4.11421   4.15461
 Alpha virt. eigenvalues --    4.21458   4.24817   4.28128   4.33052   4.34047
 Alpha virt. eigenvalues --    4.41672   4.45241   4.57458
          Condensed to atoms (all electrons):
               1          2          3          4          5          6
     1  C    9.799084  -1.388834   0.053526  -1.200818  -0.228611  -0.058410
     2  C   -1.388834   7.819898   0.245836  -0.169255  -0.538443  -0.015089
     3  N    0.053526   0.245836   7.506119  -0.153912   0.006576   0.000192
     4  S   -1.200818  -0.169255  -0.153912  17.390585  -0.582487   0.030762
     5  S   -0.228611  -0.538443   0.006576  -0.582487  15.443401   0.084215
     6  O   -0.058410  -0.015089   0.000192   0.030762   0.084215   8.974961
     7  O   -0.117603   0.033094  -0.001213   0.065687   0.128446  -0.132237
     8  N   -0.010658   0.001271   0.000263   0.062028   0.088087  -0.175720
     9  H   -0.049333  -0.000382   0.000006   0.004287   0.076984  -0.009499
    10  C   -0.327326   0.156530   0.072347   0.013863  -0.041154  -0.000128
    11  O   -0.014270   0.006023  -0.190821  -0.018892  -0.001006  -0.000001
    12  C    0.038293  -0.183621  -0.192982   0.012171   0.004354  -0.000048
    13  N   -0.714366   1.041328  -0.060405  -0.146760  -0.235091   0.001290
    14  N    0.891004  -0.566114  -0.038878  -0.048527   0.191263   0.004309
    15  H    0.009694  -0.004116   0.241724  -0.003784   0.000366   0.000000
    16  H    0.000501  -0.005064   0.004201   0.006662   0.000083  -0.000000
    17  H    0.000923   0.003673   0.013820   0.001435   0.000028   0.000000
    18  H   -0.000740  -0.002959  -0.001173  -0.003043  -0.000029  -0.000000
               7          8          9         10         11         12
     1  C   -0.117603  -0.010658  -0.049333  -0.327326  -0.014270   0.038293
     2  C    0.033094   0.001271  -0.000382   0.156530   0.006023  -0.183621
     3  N   -0.001213   0.000263   0.000006   0.072347  -0.190821  -0.192982
     4  S    0.065687   0.062028   0.004287   0.013863  -0.018892   0.012171
     5  S    0.128446   0.088087   0.076984  -0.041154  -0.001006   0.004354
     6  O   -0.132237  -0.175720  -0.009499  -0.000128  -0.000001  -0.000048
     7  O    8.982355  -0.214293   0.016046   0.000039  -0.000003  -0.000235
     8  N   -0.214293   7.964315   0.201630  -0.000196   0.000087  -0.000026
     9  H    0.016046   0.201630   0.342900  -0.000007  -0.000000  -0.000002
    10  C    0.000039  -0.000196  -0.000007   5.542247   0.579715  -0.341366
    11  O   -0.000003   0.000087  -0.000000   0.579715   8.245716  -0.100640
    12  C   -0.000235  -0.000026  -0.000002  -0.341366  -0.100640   6.414197
    13  N    0.025717  -0.033597   0.002808   0.050160   0.000882  -0.004798
    14  N   -0.028174   0.024480  -0.002276  -0.051309  -0.005955  -0.000366
    15  H    0.000000   0.000005  -0.000000  -0.010995   0.004059  -0.007784
    16  H   -0.000000  -0.000000   0.000000  -0.032101   0.001468   0.366353
    17  H    0.000000   0.000000   0.000000  -0.104013  -0.001306   0.429867
    18  H   -0.000000   0.000000  -0.000000  -0.010302   0.001640   0.358469
              13         14         15         16         17         18
     1  C   -0.714366   0.891004   0.009694   0.000501   0.000923  -0.000740
     2  C    1.041328  -0.566114  -0.004116  -0.005064   0.003673  -0.002959
     3  N   -0.060405  -0.038878   0.241724   0.004201   0.013820  -0.001173
     4  S   -0.146760  -0.048527  -0.003784   0.006662   0.001435  -0.003043
     5  S   -0.235091   0.191263   0.000366   0.000083   0.000028  -0.000029
     6  O    0.001290   0.004309   0.000000  -0.000000   0.000000  -0.000000
     7  O    0.025717  -0.028174   0.000000  -0.000000   0.000000  -0.000000
     8  N   -0.033597   0.024480   0.000005  -0.000000   0.000000   0.000000
     9  H    0.002808  -0.002276  -0.000000   0.000000   0.000000  -0.000000
    10  C    0.050160  -0.051309  -0.010995  -0.032101  -0.104013  -0.010302
    11  O    0.000882  -0.005955   0.004059   0.001468  -0.001306   0.001640
    12  C   -0.004798  -0.000366  -0.007784   0.366353   0.429867   0.358469
    13  N    8.578208  -1.394447   0.000545   0.000145  -0.000030  -0.000035
    14  N   -1.394447   8.228935   0.015073  -0.000288   0.000058   0.000333
    15  H    0.000545   0.015073   0.229255   0.000024  -0.000024   0.000115
    16  H    0.000145  -0.000288   0.000024   0.416259  -0.020816  -0.017549
    17  H   -0.000030   0.000058  -0.000024  -0.020816   0.430973  -0.019312
    18  H   -0.000035   0.000333   0.000115  -0.017549  -0.019312   0.408955
 Mulliken charges:
               1
     1  C   -0.682058
     2  C   -0.433778
     3  N   -0.505226
     4  S    0.739998
     5  S    1.603014
     6  O   -0.704598
     7  O   -0.757626
     8  N   -0.907676
     9  H    0.416838
    10  C    0.503996
    11  O   -0.506695
    12  C   -0.791836
    13  N   -0.111554
    14  N   -0.219120
    15  H    0.525843
    16  H    0.280121
    17  H    0.264726
    18  H    0.285631
 Sum of Mulliken charges =  -1.00000
 Mulliken charges with hydrogens summed into heavy atoms:
               1
     1  C   -0.682058
     2  C   -0.433778
     3  N    0.020617
     4  S    0.739998
     5  S    1.603014
     6  O   -0.704598
     7  O   -0.757626
     8  N   -0.490838
    10  C    0.503996
    11  O   -0.506695
    12  C    0.038641
    13  N   -0.111554
    14  N   -0.219120
 Electronic spatial extent (au):  <R**2>=           3725.6758
 Charge=             -1.0000 electrons
 Dipole moment (field-independent basis, Debye):
    X=             19.0097    Y=              2.6250    Z=             -2.0264  Tot=             19.2968
 Quadrupole moment (field-independent basis, Debye-Ang):
   XX=           -123.0557   YY=           -109.3471   ZZ=           -100.9682
   XY=              1.4882   XZ=            -19.1943   YZ=              6.5418
 Traceless Quadrupole moment (field-independent basis, Debye-Ang):
   XX=            -11.9320   YY=              1.7766   ZZ=             10.1554
   XY=              1.4882   XZ=            -19.1943   YZ=              6.5418
 Octapole moment (field-independent basis, Debye-Ang**2):
  XXX=            273.9277  YYY=             -8.8484  ZZZ=            -10.8168  XYY=             38.6297
  XXY=             63.9743  XXZ=            -33.2024  XZZ=             16.1190  YZZ=              9.6259
  YYZ=             -0.8201  XYZ=             -2.1879
 Hexadecapole moment (field-independent basis, Debye-Ang**3):
 XXXX=          -4144.1633 YYYY=           -642.9503 ZZZZ=           -346.2674 XXXY=             60.1912
 XXXZ=           -248.2445 YYYX=             -6.5930 YYYZ=             -2.3165 ZZZX=             -7.5030
 ZZZY=             22.1552 XXYY=           -832.1699 XXZZ=           -817.9308 YYZZ=           -165.5155
 XXYZ=            107.3254 YYXZ=            -22.9074 ZZXY=            -19.7008
 N-N= 1.032943606795D+03 E-N=-5.375419811547D+03  KE= 1.388716172612D+03
 D1PCM: PCM CHGder 1st derivatives, ID1Alg=3 FixD1E=F DoIter=F DoCFld=F I1PDM=0.
 Calling FoFJK, ICntrl=      2127 FMM=F ISym2X=0 I1Cent= 0 IOpClX= 0 NMat=1 NMatS=1 NMatT=0.
 ***** Axes restored to original set *****
 -------------------------------------------------------------------
 Center     Atomic                   Forces (Hartrees/Bohr)
 Number     Number              X              Y              Z
 -------------------------------------------------------------------
      1        6           0.001068595   -0.001814105    0.000300879
      2        6          -0.013384646    0.001863021   -0.008414319
      3        7           0.020234836    0.029718063    0.013357406
      4       16          -0.007074993   -0.003820181   -0.001227621
      5       16          -0.000162168    0.007205560    0.008699138
      6        8           0.002987673   -0.001990425   -0.003109302
      7        8          -0.002607862   -0.000388708   -0.002397594
      8        7           0.000596037   -0.000686648   -0.002277635
      9        1          -0.000126937    0.000195109    0.000115448
     10        6          -0.007390663   -0.033420224   -0.021214679
     11        8           0.000958907   -0.004115972    0.012968863
     12        6          -0.003324635    0.000375396   -0.003534291
     13        7           0.001428096   -0.002594933    0.000341583
     14        7           0.001613323    0.002554782   -0.001144986
     15        1           0.001915103    0.001468642    0.008326899
     16        1           0.002072856    0.003331847   -0.001569722
     17        1          -0.001104069    0.000166045   -0.000499111
     18        1           0.002300546    0.001952731    0.001279043
 -------------------------------------------------------------------
 Cartesian Forces:  Max     0.033420224 RMS     0.008520147

 GradGradGradGradGradGradGradGradGradGradGradGradGradGradGradGradGradGrad
 Berny optimization.
 FormGI is forming the generalized inverse of G from B-inverse, IUseBI=4.
 Internal  Forces:  Max     0.027558967 RMS     0.006211435
 Search for a local minimum.
 Step number   1 out of a maximum of   88
 All quantities printed in internal units (Hartrees-Bohrs-Radians)
 Mixed Optimization -- RFO/linear search
 Second derivative matrix not updated -- first step.
 ITU=  0
     Eigenvalues ---    0.00230   0.00794   0.00999   0.01231   0.01895
     Eigenvalues ---    0.01954   0.01955   0.01986   0.01998   0.02544
     Eigenvalues ---    0.03348   0.07251   0.07644   0.10551   0.12042
     Eigenvalues ---    0.15982   0.16000   0.16000   0.16000   0.16000
     Eigenvalues ---    0.16779   0.21544   0.22009   0.24916   0.24965
     Eigenvalues ---    0.24977   0.24986   0.24995   0.25000   0.25000
     Eigenvalues ---    0.25000   0.31096   0.31503   0.32602   0.34225
     Eigenvalues ---    0.34286   0.34823   0.43841   0.44286   0.49086
     Eigenvalues ---    0.49683   0.50757   0.60799   0.63538   0.67968
     Eigenvalues ---    0.80734   0.83208   0.92361
 RFO step:  Lambda=-1.62528971D-02 EMin= 2.30000000D-03
 Linear search not attempted -- first point.
 Iteration  1 RMS(Cart)=  0.12835490 RMS(Int)=  0.01087308
 Iteration  2 RMS(Cart)=  0.01995606 RMS(Int)=  0.00025635
 Iteration  3 RMS(Cart)=  0.00032546 RMS(Int)=  0.00017842
 Iteration  4 RMS(Cart)=  0.00000009 RMS(Int)=  0.00017842
 Variable       Old X    -DE/DX   Delta X   Delta X   Delta X     New X
                                 (Linear)    (Quad)   (Total)
    R1        3.27823   0.00222   0.00000   0.00631   0.00633   3.28456
    R2        3.43122  -0.00081   0.00000  -0.00306  -0.00306   3.42816
    R3        2.43593  -0.00053   0.00000  -0.00078  -0.00076   2.43517
    R4        2.60187  -0.01553   0.00000  -0.03027  -0.03027   2.57160
    R5        3.28434  -0.00159   0.00000  -0.00478  -0.00480   3.27954
    R6        2.47436   0.00229   0.00000   0.00358   0.00357   2.47792
    R7        2.60799   0.02756   0.00000   0.05434   0.05434   2.66234
    R8        1.92813   0.00058   0.00000   0.00125   0.00125   1.92939
    R9        2.81222  -0.00177   0.00000  -0.00215  -0.00215   2.81007
   R10        2.79931  -0.00056   0.00000  -0.00066  -0.00066   2.79865
   R11        2.91946   0.00225   0.00000   0.00345   0.00345   2.92291
   R12        1.93346   0.00010   0.00000   0.00021   0.00021   1.93367
   R13        2.31864  -0.00771   0.00000  -0.00820  -0.00820   2.31043
   R14        2.83056  -0.00359   0.00000  -0.01048  -0.01048   2.82008
   R15        2.06850  -0.00087   0.00000  -0.00241  -0.00241   2.06609
   R16        2.05964   0.00060   0.00000   0.00164   0.00164   2.06127
   R17        2.06952   0.00032   0.00000   0.00091   0.00091   2.07043
   R18        2.57527   0.00198   0.00000   0.00380   0.00381   2.57907
    A1        2.12099  -0.00004   0.00000  -0.00040  -0.00051   2.12048
    A2        1.99938   0.00019   0.00000  -0.00010  -0.00020   1.99917
    A3        2.16107  -0.00019   0.00000  -0.00101  -0.00112   2.15994
    A4        2.21677  -0.01483   0.00000  -0.05588  -0.05585   2.16092
    A5        2.07612   0.01203   0.00000   0.04507   0.04510   2.12122
    A6        1.98922   0.00281   0.00000   0.01097   0.01091   2.00013
    A7        2.30488  -0.02055   0.00000  -0.08680  -0.08680   2.21808
    A8        1.98261   0.00762   0.00000   0.02866   0.02866   2.01127
    A9        1.99328   0.01290   0.00000   0.05866   0.05867   2.05195
   A10        1.50036  -0.00099   0.00000  -0.00436  -0.00441   1.49595
   A11        1.75038   0.00774   0.00000   0.03857   0.03862   1.78900
   A12        1.79709  -0.00386   0.00000  -0.02105  -0.02123   1.77586
   A13        1.91949  -0.00231   0.00000  -0.01074  -0.01087   1.90862
   A14        1.99585   0.00193   0.00000   0.01536   0.01546   2.01131
   A15        2.04435  -0.00329   0.00000  -0.01079  -0.01079   2.03356
   A16        1.92955   0.00007   0.00000  -0.00994  -0.01025   1.91930
   A17        1.90016  -0.00041   0.00000  -0.00234  -0.00234   1.89783
   A18        2.05638   0.01457   0.00000   0.05475   0.05452   2.11090
   A19        2.08482  -0.01498   0.00000  -0.05622  -0.05644   2.02838
   A20        2.14198   0.00041   0.00000   0.00156   0.00135   2.14333
   A21        1.93997  -0.00431   0.00000  -0.02833  -0.02863   1.91134
   A22        1.88450   0.00236   0.00000   0.02129   0.02134   1.90584
   A23        1.93360  -0.00144   0.00000  -0.01250  -0.01287   1.92073
   A24        1.90169   0.00272   0.00000   0.02361   0.02374   1.92543
   A25        1.90818  -0.00027   0.00000  -0.01601  -0.01673   1.89145
   A26        1.89499   0.00118   0.00000   0.01410   0.01407   1.90906
   A27        1.97456   0.00120   0.00000   0.00489   0.00490   1.97946
   A28        1.96118  -0.00321   0.00000  -0.01111  -0.01115   1.95002
    D1       -3.07188   0.00028   0.00000   0.01095   0.01098  -3.06090
    D2        0.00847  -0.00044   0.00000  -0.01551  -0.01546  -0.00698
    D3       -2.46776  -0.00159   0.00000  -0.01162  -0.01155  -2.47931
    D4       -0.40555   0.00199   0.00000   0.01182   0.01167  -0.39388
    D5        1.65122  -0.00104   0.00000  -0.01575  -0.01562   1.63560
    D6        0.74089  -0.00082   0.00000   0.01731   0.01735   0.75823
    D7        2.80310   0.00276   0.00000   0.04075   0.04057   2.84367
    D8       -1.42332  -0.00026   0.00000   0.01318   0.01328  -1.41004
    D9       -0.00382   0.00018   0.00000   0.00842   0.00838   0.00456
   D10        3.07494  -0.00056   0.00000  -0.01870  -0.01872   3.05622
   D11       -0.22205   0.00141   0.00000   0.03869   0.03866  -0.18339
   D12        3.00012   0.00096   0.00000   0.02620   0.02621   3.02633
   D13        2.97253   0.00122   0.00000   0.03401   0.03401   3.00654
   D14       -0.08848   0.00077   0.00000   0.02153   0.02155  -0.06693
   D15       -3.10229   0.00015   0.00000   0.01387   0.01402  -3.08827
   D16       -0.01144   0.00060   0.00000   0.01937   0.01946   0.00802
   D17        3.10721  -0.00107   0.00000  -0.01730  -0.01712   3.09010
   D18        0.01193  -0.00066   0.00000  -0.01920  -0.01925  -0.00733
   D19       -1.01211   0.00814   0.00000   0.22907   0.22940  -0.78271
   D20        2.13220   0.00708   0.00000   0.19156   0.19120   2.32340
   D21        2.04852   0.00839   0.00000   0.24049   0.24085   2.28937
   D22       -1.09036   0.00733   0.00000   0.20298   0.20265  -0.88771
   D23        1.30845   0.00399   0.00000   0.02284   0.02274   1.33119
   D24       -0.67371  -0.00224   0.00000  -0.01226  -0.01225  -0.68596
   D25       -3.00190  -0.00192   0.00000  -0.01404  -0.01395  -3.01586
   D26       -1.00402   0.00242   0.00000   0.03061   0.03004  -0.97398
   D27       -3.08892   0.00016   0.00000   0.00509   0.00492  -3.08399
   D28        1.12128  -0.00188   0.00000  -0.01784  -0.01778   1.10350
   D29        2.14043   0.00129   0.00000  -0.00890  -0.00902   2.13141
   D30        0.05553  -0.00097   0.00000  -0.03443  -0.03414   0.02139
   D31       -2.01746  -0.00302   0.00000  -0.05735  -0.05684  -2.07430
   D32       -0.00523   0.00033   0.00000   0.00704   0.00699   0.00176
         Item               Value     Threshold  Converged?
 Maximum Force            0.027559     0.000450     NO 
 RMS     Force            0.006211     0.000300     NO 
 Maximum Displacement     0.521970     0.001800     NO 
 RMS     Displacement     0.139727     0.001200     NO 
 Predicted change in Energy=-1.003574D-02
 GradGradGradGradGradGradGradGradGradGradGradGradGradGradGradGradGradGrad

                          Input orientation:                          
 ---------------------------------------------------------------------
 Center     Atomic      Atomic             Coordinates (Angstroms)
 Number     Number       Type             X           Y           Z
 ---------------------------------------------------------------------
      1          6           0        1.038320    0.469090    0.056063
      2          6           0       -1.289525    0.868109   -0.004372
      3          7           0       -2.649479    0.891999    0.038277
      4         16           0       -0.344508   -0.581479    0.127708
      5         16           0        2.727690   -0.190047    0.005658
      6          8           0        3.475728    0.776415    0.852790
      7          8           0        2.543904   -1.536152    0.595171
      8          7           0        3.185080   -0.316092   -1.466516
      9          1           0        3.421971    0.615245   -1.818005
     10          6           0       -3.520668   -0.213950   -0.014235
     11          8           0       -3.347788   -1.112524   -0.825096
     12          6           0       -4.617674   -0.237681    0.997220
     13          7           0        0.754277    1.720662   -0.059997
     14          7           0       -0.586780    1.971197   -0.097918
     15          1           0       -3.068225    1.823029    0.054117
     16          1           0       -4.190469   -0.165478    2.001037
     17          1           0       -5.182703   -1.164737    0.891824
     18          1           0       -5.287614    0.615755    0.844834
 ---------------------------------------------------------------------
                    Distance matrix (angstroms):
                    1          2          3          4          5
     1  C    0.000000
     2  C    2.362569   0.000000
     3  N    3.712012   1.360833   0.000000
     4  S    1.738115   1.735456   2.737157   0.000000
     5  S    1.814104   4.154252   5.485056   3.099438   0.000000
     6  O    2.582669   4.842600   6.180207   4.118716   1.487025
     7  O    2.564843   4.564548   5.759972   3.077799   1.480980
     8  N    2.746514   4.854100   6.145403   3.882006   1.546735
     9  H    3.035668   5.054839   6.354910   4.405032   2.110987
    10  C    4.610408   2.479707   1.408847   3.200503   6.248436
    11  O    4.745092   2.972027   2.291541   3.195237   6.201012
    12  C    5.777159   3.647263   2.463643   4.374265   7.412141
    13  N    1.288636   2.215191   3.504554   2.557814   2.747631
    14  N    2.218330   1.311261   2.331940   2.574055   3.958209
    15  H    4.323987   2.019670   1.020988   3.633966   6.135752
    16  H    5.614788   3.674975   2.710228   4.298120   7.200213
    17  H    6.486063   4.482462   3.372822   4.932767   8.019328
    18  H    6.376606   4.095064   2.772471   5.136335   8.099298
                    6          7          8          9         10
     6  O    0.000000
     7  O    2.506518   0.000000
     8  N    2.580160   2.479961   0.000000
     9  H    2.676193   3.350064   1.023255   0.000000
    10  C    7.119138   6.236877   6.861969   7.220900   0.000000
    11  O    7.276247   6.075250   6.612420   7.056961   1.222628
    12  C    8.157966   7.289436   8.182855   8.560891   1.492323
    13  N    3.021767   3.773440   3.469217   3.380699   4.692545
    14  N    4.339968   4.752163   4.618624   4.568084   3.659176
    15  H    6.675073   6.562990   6.781740   6.861940   2.087741
    16  H    7.808727   7.014770   8.151401   8.552418   2.124219
    17  H    8.873445   7.741215   8.735088   9.195212   2.118325
    18  H    8.764818   8.125621   8.831604   9.107556   2.132723
                   11         12         13         14         15
    11  O    0.000000
    12  C    2.387215   0.000000
    13  N    5.043735   5.814695   0.000000
    14  N    4.202534   4.725100   1.364786   0.000000
    15  H    3.077116   2.745316   3.825575   2.490509   0.000000
    16  H    3.097424   1.093327   5.679428   4.685891   3.000682
    17  H    2.513455   1.090779   6.669275   5.651210   3.754933
    18  H    3.088452   1.095625   6.208380   4.982353   2.647344
                   16         17         18
    16  H    0.000000
    17  H    1.792595   0.000000
    18  H    1.775065   1.784199   0.000000
 Stoichiometry    C4H5N4O3S2(1-)
 Framework group  C1[X(C4H5N4O3S2)]
 Deg. of freedom    48
 Full point group                 C1      NOp   1
 Largest Abelian subgroup         C1      NOp   1
 Largest concise Abelian subgroup C1      NOp   1
                         Standard orientation:                         
 ---------------------------------------------------------------------
 Center     Atomic      Atomic             Coordinates (Angstroms)
 Number     Number       Type             X           Y           Z
 ---------------------------------------------------------------------
      1          6           0       -1.038743    0.386338   -0.042992
      2          6           0        1.285705    0.779372    0.112561
      3          7           0        2.646329    0.802433    0.118708
      4         16           0        0.345259   -0.663568   -0.100255
      5         16           0       -2.729148   -0.271346   -0.073851
      6          8           0       -3.446361    0.723576   -0.914672
      7          8           0       -2.525299   -1.597705   -0.700364
      8          7           0       -3.238283   -0.444826    1.376347
      9          1           0       -3.486997    0.474876    1.749630
     10          6           0        3.514601   -0.306060    0.165597
     11          8           0        3.312781   -1.230443    0.939938
     12          6           0        4.646617   -0.298415   -0.806774
     13          7           0       -0.758386    1.632970    0.124015
     14          7           0        0.580615    1.879944    0.217408
     15          1           0        3.065810    1.732799    0.148202
     16          1           0        4.255150   -0.192658   -1.822123
     17          1           0        5.207138   -1.229346   -0.711990
     18          1           0        5.311161    0.548477   -0.602936
 ---------------------------------------------------------------------
 Rotational constants (GHZ):           1.7816435           0.3196302           0.2960206
 Basis read from rwf:  (6D, 7F)
 There are   265 symmetry adapted cartesian basis functions of A   symmetry.
 There are   265 symmetry adapted basis functions of A   symmetry.
   265 basis functions,   484 primitive gaussians,   265 cartesian basis functions
    57 alpha electrons       57 beta electrons
       nuclear repulsion energy      1039.1635947970 Hartrees.
 NAtoms=   18 NActive=   18 NUniq=   18 SFac= 1.00D+00 NAtFMM=   60 NAOKFM=F Big=F
 Integral buffers will be    131072 words long.
 Raffenetti 2 integral format.
 Two-electron integral symmetry is turned on.
 ------------------------------------------------------------------------------
 Polarizable Continuum Model (PCM)
 =================================
 Model                : PCM.
 Atomic radii         : SMD-Coulomb.
 Polarization charges : Total charges.
 Charge compensation  : None.
 Solution method      : On-the-fly selection.
 Cavity type          : VdW (van der Waals Surface) (Alpha=1.000).
 Cavity algorithm     : GePol (No added spheres)
                        Default sphere list used, NSphG=   18.
                        Lebedev-Laikov grids with approx.  5.0 points / Ang**2.
                        Smoothing algorithm: York/Karplus (Gamma=1.0000).
                        Polarization charges: spherical gaussians, with
                                              point-specific exponents (IZeta= 3).
                        Self-potential: point-specific (ISelfS= 7).
                        Self-field    : sphere-specific E.n sum rule (ISelfD= 2).
 1st derivatives      : Analytical E(r).r(x)/FMM algorithm (CHGder, D1EAlg=3).
                        Cavity 1st derivative terms included.
 Solvent              : Water, Eps=  78.355300 Eps(inf)=   1.777849
 ------------------------------------------------------------------------------
 Spheres list:
 ISph  on   Nord     Re0    Alpha      Xe            Ye            Ze
    1   C      1    1.8500  1.000     -1.038743      0.386338     -0.042992
    2   C      2    1.8500  1.000      1.285705      0.779372      0.112561
    3   N      3    1.8900  1.000      2.646329      0.802433      0.118708
    4   S      4    2.4900  1.000      0.345259     -0.663568     -0.100255
    5   S      5    2.4900  1.000     -2.729148     -0.271346     -0.073851
    6   O      6    1.5200  1.000     -3.446361      0.723576     -0.914672
    7   O      7    1.5200  1.000     -2.525299     -1.597705     -0.700364
    8   N      8    1.8900  1.000     -3.238283     -0.444826      1.376347
    9   H      9    1.2000  1.000     -3.486997      0.474876      1.749630
   10   C     10    1.8500  1.000      3.514601     -0.306060      0.165597
   11   O     11    1.5200  1.000      3.312781     -1.230443      0.939938
   12   C     12    1.8500  1.000      4.646617     -0.298415     -0.806774
   13   N     13    1.8900  1.000     -0.758386      1.632970      0.124015
   14   N     14    1.8900  1.000      0.580615      1.879944      0.217408
   15   H     15    1.2000  1.000      3.065810      1.732799      0.148202
   16   H     16    1.2000  1.000      4.255150     -0.192658     -1.822123
   17   H     17    1.2000  1.000      5.207138     -1.229346     -0.711990
   18   H     18    1.2000  1.000      5.311161      0.548477     -0.602936
 ------------------------------------------------------------------------------
 ------------------------------------------------------------------------------
 Atomic radii for non-electrostatic terms: SMD-CDS.
 ------------------------------------------------------------------------------
 Nuclear repulsion after PCM non-electrostatic terms =     1039.1678569016 Hartrees.
 One-electron integrals computed using PRISM.
 NBasis=   265 RedAO= T EigKep=  1.53D-05  NBF=   265
 NBsUse=   265 1.00D-06 EigRej= -1.00D+00 NBFU=   265
 Initial guess from the checkpoint file:  "/jobfs/40775329.gadi-pbs/Gau-3446027.chk"
 B after Tr=    -0.000000   -0.000000   -0.000000
         Rot=    0.999773   -0.021048    0.003375   -0.000064 Ang=  -2.44 deg.
 ExpMin= 4.05D-02 ExpMax= 2.19D+04 ExpMxC= 3.30D+03 IAcc=3 IRadAn=         5 AccDes= 0.00D+00
 Harris functional with IExCor= 1009 and IRadAn=       5 diagonalized for initial guess.
 HarFok:  IExCor= 1009 AccDes= 0.00D+00 IRadAn=         5 IDoV= 1 UseB2=F ITyADJ=14
 ICtDFT=  3500011 ScaDFX=  1.000000  1.000000  1.000000  1.000000
 FoFCou: FMM=F IPFlag=           0 FMFlag=      100000 FMFlg1=           0
         NFxFlg=           0 DoJE=T BraDBF=F KetDBF=T FulRan=T
         wScrn=  0.000000 ICntrl=       500 IOpCl=  0 I1Cent=   200000004 NGrid=           0
         NMat0=    1 NMatS0=      1 NMatT0=    0 NMatD0=    1 NMtDS0=    0 NMtDT0=    0
 Petite list used in FoFCou.
 Requested convergence on RMS density matrix=1.00D-08 within 128 cycles.
 Requested convergence on MAX density matrix=1.00D-06.
 Requested convergence on             energy=1.00D-06.
 No special actions if energy rises.
 Inv3:  Mode=1 IEnd=     8326668.
 Iteration    1 A*A^-1 deviation from unit magnitude is 4.88D-15 for   1642.
 Iteration    1 A*A^-1 deviation from orthogonality  is 1.51D-15 for    976    212.
 Iteration    1 A^-1*A deviation from unit magnitude is 4.88D-15 for   1642.
 Iteration    1 A^-1*A deviation from orthogonality  is 2.33D-15 for    474    467.
 Error on total polarization charges =  0.04510
 SCF Done:  E(RM062X) =  -1396.28015486     A.U. after   14 cycles
            NFock= 14  Conv=0.55D-08     -V/T= 2.0055
 SMD-CDS (non-electrostatic) energy       (kcal/mol) =       2.67
 (included in total energy above)
 D1PCM: PCM CHGder 1st derivatives, ID1Alg=3 FixD1E=F DoIter=F DoCFld=F I1PDM=0.
 Calling FoFJK, ICntrl=      2127 FMM=F ISym2X=0 I1Cent= 0 IOpClX= 0 NMat=1 NMatS=1 NMatT=0.
 ***** Axes restored to original set *****
 -------------------------------------------------------------------
 Center     Atomic                   Forces (Hartrees/Bohr)
 Number     Number              X              Y              Z
 -------------------------------------------------------------------
      1        6           0.001036662    0.000745483    0.001065491
      2        6           0.000990647    0.000416512   -0.009404302
      3        7          -0.006280886    0.005040441    0.001086031
      4       16           0.000025820   -0.002295090   -0.000851721
      5       16          -0.000209961    0.002592902    0.003398295
      6        8          -0.001417454   -0.001676512   -0.001634092
      7        8          -0.000272579   -0.000744446    0.000820908
      8        7           0.000560353    0.000407113   -0.002865343
      9        1           0.000207955    0.000099498    0.000040164
     10        6           0.000924543   -0.010233274   -0.007158415
     11        8           0.008188178    0.003705148    0.008581118
     12        6          -0.004574084    0.003616206   -0.002481110
     13        7           0.002556584   -0.000974692   -0.000118294
     14        7          -0.001709986   -0.001552826    0.000933780
     15        1          -0.000587245   -0.001824567    0.007763931
     16        1           0.000133353    0.000691511   -0.000016907
     17        1          -0.000030170    0.000902748   -0.000341845
     18        1           0.000458269    0.001083844    0.001182311
 -------------------------------------------------------------------
 Cartesian Forces:  Max     0.010233274 RMS     0.003425117

 GradGradGradGradGradGradGradGradGradGradGradGradGradGradGradGradGradGrad
 Berny optimization.
 Using GEDIIS/GDIIS optimizer.
 FormGI is forming the generalized inverse of G from B-inverse, IUseBI=4.
 Internal  Forces:  Max     0.008448664 RMS     0.002719031
 Search for a local minimum.
 Step number   2 out of a maximum of   88
 All quantities printed in internal units (Hartrees-Bohrs-Radians)
 Mixed Optimization -- RFO/linear search
 Update second derivatives using D2CorX and points    1    2
 DE= -1.24D-02 DEPred=-1.00D-02 R= 1.24D+00
 TightC=F SS=  1.41D+00  RLast= 4.86D-01 DXNew= 5.0454D-01 1.4572D+00
 Trust test= 1.24D+00 RLast= 4.86D-01 DXMaxT set to 5.05D-01
 ITU=  1  0
 Use linear search instead of GDIIS.
     Eigenvalues ---    0.00230   0.00775   0.00960   0.01020   0.01272
     Eigenvalues ---    0.01892   0.01987   0.01990   0.01997   0.02548
     Eigenvalues ---    0.03348   0.07522   0.07543   0.10651   0.12308
     Eigenvalues ---    0.15970   0.15998   0.16000   0.16000   0.16150
     Eigenvalues ---    0.16787   0.19772   0.21606   0.24299   0.24917
     Eigenvalues ---    0.24929   0.24973   0.24990   0.24995   0.25000
     Eigenvalues ---    0.29085   0.31293   0.31507   0.33015   0.34225
     Eigenvalues ---    0.34295   0.34850   0.43840   0.44296   0.49522
     Eigenvalues ---    0.50707   0.58724   0.61396   0.63777   0.68096
     Eigenvalues ---    0.80783   0.83264   0.92076
 RFO step:  Lambda=-9.99167195D-03 EMin= 2.30128588D-03
 Quartic linear search produced a step of  0.80732.
 Iteration  1 RMS(Cart)=  0.13529592 RMS(Int)=  0.05601853
 Iteration  2 RMS(Cart)=  0.12679684 RMS(Int)=  0.01200723
 Iteration  3 RMS(Cart)=  0.02891325 RMS(Int)=  0.00041565
 Iteration  4 RMS(Cart)=  0.00065156 RMS(Int)=  0.00021262
 Iteration  5 RMS(Cart)=  0.00000025 RMS(Int)=  0.00021262
 Variable       Old X    -DE/DX   Delta X   Delta X   Delta X     New X
                                 (Linear)    (Quad)   (Total)
    R1        3.28456   0.00060   0.00511   0.00116   0.00628   3.29084
    R2        3.42816  -0.00127  -0.00247  -0.00663  -0.00910   3.41906
    R3        2.43517  -0.00091  -0.00061  -0.00176  -0.00234   2.43283
    R4        2.57160   0.00210  -0.02444   0.01345  -0.01098   2.56062
    R5        3.27954   0.00176  -0.00388   0.00936   0.00546   3.28500
    R6        2.47792  -0.00132   0.00288  -0.00390  -0.00104   2.47688
    R7        2.66234  -0.00302   0.04387  -0.02203   0.02184   2.68418
    R8        1.92939  -0.00129   0.00101  -0.00465  -0.00364   1.92575
    R9        2.81007  -0.00275  -0.00174  -0.00464  -0.00638   2.80369
   R10        2.79865   0.00106  -0.00053   0.00206   0.00153   2.80017
   R11        2.92291   0.00288   0.00278   0.00599   0.00877   2.93168
   R12        1.93367   0.00012   0.00017   0.00034   0.00051   1.93419
   R13        2.31043  -0.00727  -0.00662  -0.01002  -0.01664   2.29379
   R14        2.82008   0.00172  -0.00846   0.01041   0.00195   2.82203
   R15        2.06609   0.00008  -0.00195   0.00093  -0.00102   2.06507
   R16        2.06127  -0.00073   0.00132  -0.00350  -0.00218   2.05909
   R17        2.07043   0.00041   0.00073   0.00157   0.00230   2.07273
   R18        2.57907   0.00203   0.00307   0.00491   0.00799   2.58706
    A1        2.12048   0.00012  -0.00041   0.00060  -0.00001   2.12047
    A2        1.99917   0.00027  -0.00017   0.00151   0.00119   2.00036
    A3        2.15994  -0.00041  -0.00091  -0.00238  -0.00348   2.15647
    A4        2.16092  -0.00206  -0.04509   0.00237  -0.04273   2.11819
    A5        2.12122   0.00231   0.03641   0.00150   0.03789   2.15912
    A6        2.00013  -0.00027   0.00881  -0.00460   0.00412   2.00426
    A7        2.21808  -0.00845  -0.07007  -0.03268  -0.10276   2.11532
    A8        2.01127   0.00510   0.02314   0.02818   0.05131   2.06258
    A9        2.05195   0.00333   0.04736   0.00362   0.05098   2.10292
   A10        1.49595  -0.00009  -0.00356   0.00061  -0.00298   1.49297
   A11        1.78900   0.00011   0.03118  -0.01195   0.01929   1.80829
   A12        1.77586  -0.00024  -0.01714   0.00498  -0.01232   1.76353
   A13        1.90862  -0.00051  -0.00877  -0.00050  -0.00939   1.89923
   A14        2.01131  -0.00011   0.01248  -0.00515   0.00745   2.01875
   A15        2.03356  -0.00019  -0.00871  -0.00001  -0.00869   2.02488
   A16        1.91930   0.00081  -0.00827   0.01143   0.00282   1.92213
   A17        1.89783  -0.00005  -0.00189   0.00021  -0.00167   1.89615
   A18        2.11090  -0.00440   0.04401  -0.03969   0.00411   2.11501
   A19        2.02838  -0.00344  -0.04557  -0.00501  -0.05077   1.97761
   A20        2.14333   0.00785   0.00109   0.04594   0.04686   2.19019
   A21        1.91134  -0.00050  -0.02311   0.00238  -0.02111   1.89023
   A22        1.90584   0.00038   0.01723  -0.00020   0.01705   1.92289
   A23        1.92073   0.00031  -0.01039   0.00515  -0.00574   1.91499
   A24        1.92543   0.00054   0.01916   0.00032   0.01963   1.94505
   A25        1.89145  -0.00089  -0.01351  -0.00771  -0.02219   1.86926
   A26        1.90906   0.00016   0.01136   0.00007   0.01133   1.92039
   A27        1.97946  -0.00025   0.00395  -0.00251   0.00147   1.98093
   A28        1.95002   0.00034  -0.00901   0.00504  -0.00401   1.94601
    D1       -3.06090   0.00024   0.00887   0.00527   0.01420  -3.04669
    D2       -0.00698  -0.00015  -0.01248   0.00191  -0.01054  -0.01753
    D3       -2.47931  -0.00017  -0.00933  -0.00051  -0.00979  -2.48910
    D4       -0.39388  -0.00034   0.00942  -0.00860   0.00065  -0.39323
    D5        1.63560   0.00026  -0.01261   0.00663  -0.00583   1.62977
    D6        0.75823   0.00021   0.01400   0.00294   0.01696   0.77520
    D7        2.84367   0.00004   0.03275  -0.00515   0.02740   2.87107
    D8       -1.41004   0.00064   0.01072   0.01008   0.02093  -1.38911
    D9        0.00456   0.00010   0.00676   0.00099   0.00778   0.01234
   D10        3.05622  -0.00026  -0.01511  -0.00228  -0.01734   3.03888
   D11       -0.18339   0.00096   0.03121   0.02415   0.05535  -0.12804
   D12        3.02633   0.00115   0.02116   0.03964   0.06080   3.08713
   D13        3.00654   0.00130   0.02746   0.04392   0.07137   3.07790
   D14       -0.06693   0.00149   0.01740   0.05941   0.07682   0.00989
   D15       -3.08827   0.00041   0.01132   0.01382   0.02490  -3.06336
   D16        0.00802   0.00016   0.01571  -0.00457   0.01123   0.01925
   D17        3.09010  -0.00051  -0.01382  -0.01184  -0.02588   3.06421
   D18       -0.00733  -0.00015  -0.01554   0.00605  -0.00950  -0.01683
   D19       -0.78271   0.00787   0.18520   0.24888   0.43442  -0.34829
   D20        2.32340   0.00814   0.15436   0.28795   0.44195   2.76535
   D21        2.28937   0.00772   0.19444   0.23387   0.42867   2.71803
   D22       -0.88771   0.00799   0.16360   0.27293   0.43620  -0.45151
   D23        1.33119   0.00005   0.01836  -0.00414   0.01415   1.34534
   D24       -0.68596   0.00040  -0.00989   0.01154   0.00166  -0.68430
   D25       -3.01586  -0.00008  -0.01127   0.00738  -0.00381  -3.01967
   D26       -0.97398   0.00009   0.02425  -0.04670  -0.02314  -0.99712
   D27       -3.08399  -0.00049   0.00397  -0.04843  -0.04458  -3.12858
   D28        1.10350  -0.00112  -0.01435  -0.05156  -0.06577   1.03773
   D29        2.13141   0.00008  -0.00728  -0.00877  -0.01630   2.11511
   D30        0.02139  -0.00051  -0.02756  -0.01051  -0.03775  -0.01636
   D31       -2.07430  -0.00113  -0.04589  -0.01363  -0.05893  -2.13323
   D32        0.00176   0.00003   0.00565  -0.00447   0.00107   0.00284
         Item               Value     Threshold  Converged?
 Maximum Force            0.008449     0.000450     NO 
 RMS     Force            0.002719     0.000300     NO 
 Maximum Displacement     1.068995     0.001800     NO 
 RMS     Displacement     0.263786     0.001200     NO 
 Predicted change in Energy=-1.229177D-02
 GradGradGradGradGradGradGradGradGradGradGradGradGradGradGradGradGradGrad

                          Input orientation:                          
 ---------------------------------------------------------------------
 Center     Atomic      Atomic             Coordinates (Angstroms)
 Number     Number       Type             X           Y           Z
 ---------------------------------------------------------------------
      1          6           0        1.045040    0.462399    0.066933
      2          6           0       -1.275054    0.909105    0.103938
      3          7           0       -2.624937    0.902196    0.221619
      4         16           0       -0.358161   -0.567709    0.117042
      5         16           0        2.712753   -0.219492   -0.098225
      6          8           0        3.536758    0.660070    0.766995
      7          8           0        2.505937   -1.599285    0.400870
      8          7           0        3.095453   -0.247210   -1.601404
      9          1           0        3.346320    0.701383   -1.892682
     10          6           0       -3.358682   -0.313911    0.205688
     11          8           0       -2.882691   -1.329036   -0.259408
     12          6           0       -4.706609   -0.199085    0.838152
     13          7           0        0.784002    1.722347    0.024776
     14          7           0       -0.555777    2.003143    0.043279
     15          1           0       -3.109500    1.798000    0.256631
     16          1           0       -4.575373    0.153697    1.864070
     17          1           0       -5.218075   -1.160797    0.809973
     18          1           0       -5.299865    0.557547    0.310313
 ---------------------------------------------------------------------
                    Distance matrix (angstroms):
                    1          2          3          4          5
     1  C    0.000000
     2  C    2.362996   0.000000
     3  N    3.699471   1.355021   0.000000
     4  S    1.741439   1.738345   2.703670   0.000000
     5  S    1.809287   4.149362   5.463646   3.098082   0.000000
     6  O    2.595731   4.863661   6.190521   4.135248   1.483650
     7  O    2.548779   4.547095   5.710990   3.057411   1.481788
     8  N    2.736984   4.831830   6.112889   3.870817   1.551378
     9  H    3.032011   5.038525   6.337705   4.401451   2.114118
    10  C    4.473778   2.418188   1.420406   3.012540   6.079771
    11  O    4.329297   2.779531   2.297003   2.663566   5.706668
    12  C    5.840703   3.680045   2.434398   4.423221   7.478246
    13  N    1.287396   2.215252   3.511732   2.560744   2.739699
    14  N    2.221951   1.310709   2.350599   2.579492   3.955177
    15  H    4.368068   2.044173   1.019064   3.631244   6.172101
    16  H    5.908811   3.815864   2.657461   4.621408   7.556895
    17  H    6.512564   4.508924   3.365482   4.944762   8.037967
    18  H    6.350285   4.045404   2.698498   5.071883   8.060567
                    6          7          8          9         10
     6  O    0.000000
     7  O    2.510244   0.000000
     8  N    2.574339   2.486912   0.000000
     9  H    2.666807   3.355548   1.023527   0.000000
    10  C    6.986473   6.006999   6.702678   7.098665   0.000000
    11  O    6.798483   5.435652   6.221696   6.752093   1.213821
    12  C    8.288324   7.360204   8.174712   8.550905   1.493353
    13  N    3.042530   3.760285   3.444767   3.359239   4.619623
    14  N    4.367660   4.741250   4.593533   4.546304   3.640247
    15  H    6.762256   6.564715   6.792394   6.892004   2.127171
    16  H    8.201626   7.440353   8.426851   8.784439   2.109319
    17  H    8.942288   7.747257   8.704259   9.171746   2.130661
    18  H    8.849010   8.098807   8.647755   8.923586   2.130394
                   11         12         13         14         15
    11  O    0.000000
    12  C    2.410001   0.000000
    13  N    4.778738   5.873695   0.000000
    14  N    4.075484   4.765611   1.369013   0.000000
    15  H    3.177435   2.622456   3.901133   2.570818   0.000000
    16  H    3.093999   1.092788   5.879334   4.784652   2.726973
    17  H    2.574082   1.089625   6.704773   5.686419   3.675154
    18  H    3.118735   1.096841   6.200946   4.966632   2.517798
                   16         17         18
    16  H    0.000000
    17  H    1.803353   0.000000
    18  H    1.761291   1.791385   0.000000
 Stoichiometry    C4H5N4O3S2(1-)
 Framework group  C1[X(C4H5N4O3S2)]
 Deg. of freedom    48
 Full point group                 C1      NOp   1
 Largest Abelian subgroup         C1      NOp   1
 Largest concise Abelian subgroup C1      NOp   1
                         Standard orientation:                         
 ---------------------------------------------------------------------
 Center     Atomic      Atomic             Coordinates (Angstroms)
 Number     Number       Type             X           Y           Z
 ---------------------------------------------------------------------
      1          6           0       -1.011461    0.406765   -0.066579
      2          6           0        1.306236    0.837346    0.096618
      3          7           0        2.661148    0.825441    0.084216
      4         16           0        0.387157   -0.630667   -0.051953
      5         16           0       -2.689745   -0.269146   -0.061546
      6          8           0       -3.440052    0.652898   -0.949292
      7          8           0       -2.450199   -1.627721   -0.602460
      8          7           0       -3.188807   -0.358578    1.404644
      9          1           0       -3.457792    0.578467    1.716417
     10          6           0        3.386443   -0.395662    0.104414
     11          8           0        2.871441   -1.426259    0.486517
     12          6           0        4.780114   -0.263813   -0.415587
     13          7           0       -0.749379    1.661758    0.050444
     14          7           0        0.588885    1.933098    0.148532
     15          1           0        3.150613    1.718286    0.125972
     16          1           0        4.730859    0.133696   -1.432320
     17          1           0        5.283890   -1.229632   -0.389452
     18          1           0        5.333403    0.464998    0.189198
 ---------------------------------------------------------------------
 Rotational constants (GHZ):           1.8241570           0.3341513           0.3026286
 Basis read from rwf:  (6D, 7F)
 There are   265 symmetry adapted cartesian basis functions of A   symmetry.
 There are   265 symmetry adapted basis functions of A   symmetry.
   265 basis functions,   484 primitive gaussians,   265 cartesian basis functions
    57 alpha electrons       57 beta electrons
       nuclear repulsion energy      1048.8439739977 Hartrees.
 NAtoms=   18 NActive=   18 NUniq=   18 SFac= 1.00D+00 NAtFMM=   60 NAOKFM=F Big=F
 Integral buffers will be    131072 words long.
 Raffenetti 2 integral format.
 Two-electron integral symmetry is turned on.
 ------------------------------------------------------------------------------
 Polarizable Continuum Model (PCM)
 =================================
 Model                : PCM.
 Atomic radii         : SMD-Coulomb.
 Polarization charges : Total charges.
 Charge compensation  : None.
 Solution method      : On-the-fly selection.
 Cavity type          : VdW (van der Waals Surface) (Alpha=1.000).
 Cavity algorithm     : GePol (No added spheres)
                        Default sphere list used, NSphG=   18.
                        Lebedev-Laikov grids with approx.  5.0 points / Ang**2.
                        Smoothing algorithm: York/Karplus (Gamma=1.0000).
                        Polarization charges: spherical gaussians, with
                                              point-specific exponents (IZeta= 3).
                        Self-potential: point-specific (ISelfS= 7).
                        Self-field    : sphere-specific E.n sum rule (ISelfD= 2).
 1st derivatives      : Analytical E(r).r(x)/FMM algorithm (CHGder, D1EAlg=3).
                        Cavity 1st derivative terms included.
 Solvent              : Water, Eps=  78.355300 Eps(inf)=   1.777849
 ------------------------------------------------------------------------------
 Spheres list:
 ISph  on   Nord     Re0    Alpha      Xe            Ye            Ze
    1   C      1    1.8500  1.000     -1.011461      0.406765     -0.066579
    2   C      2    1.8500  1.000      1.306236      0.837346      0.096618
    3   N      3    1.8900  1.000      2.661148      0.825441      0.084216
    4   S      4    2.4900  1.000      0.387157     -0.630667     -0.051953
    5   S      5    2.4900  1.000     -2.689745     -0.269146     -0.061546
    6   O      6    1.5200  1.000     -3.440052      0.652898     -0.949292
    7   O      7    1.5200  1.000     -2.450199     -1.627721     -0.602460
    8   N      8    1.8900  1.000     -3.188807     -0.358578      1.404644
    9   H      9    1.2000  1.000     -3.457792      0.578467      1.716417
   10   C     10    1.8500  1.000      3.386443     -0.395662      0.104414
   11   O     11    1.5200  1.000      2.871441     -1.426259      0.486517
   12   C     12    1.8500  1.000      4.780114     -0.263813     -0.415587
   13   N     13    1.8900  1.000     -0.749379      1.661758      0.050444
   14   N     14    1.8900  1.000      0.588885      1.933098      0.148532
   15   H     15    1.2000  1.000      3.150613      1.718286      0.125972
   16   H     16    1.2000  1.000      4.730859      0.133696     -1.432320
   17   H     17    1.2000  1.000      5.283890     -1.229632     -0.389452
   18   H     18    1.2000  1.000      5.333403      0.464998      0.189198
 ------------------------------------------------------------------------------
 ------------------------------------------------------------------------------
 Atomic radii for non-electrostatic terms: SMD-CDS.
 ------------------------------------------------------------------------------
 Nuclear repulsion after PCM non-electrostatic terms =     1048.8480309370 Hartrees.
 One-electron integrals computed using PRISM.
 NBasis=   265 RedAO= T EigKep=  1.64D-05  NBF=   265
 NBsUse=   265 1.00D-06 EigRej= -1.00D+00 NBFU=   265
 Initial guess from the checkpoint file:  "/jobfs/40775329.gadi-pbs/Gau-3446027.chk"
 B after Tr=    -0.000000    0.000000    0.000000
         Rot=    0.999981   -0.000331    0.004726    0.004006 Ang=  -0.71 deg.
 ExpMin= 4.05D-02 ExpMax= 2.19D+04 ExpMxC= 3.30D+03 IAcc=3 IRadAn=         5 AccDes= 0.00D+00
 Harris functional with IExCor= 1009 and IRadAn=       5 diagonalized for initial guess.
 HarFok:  IExCor= 1009 AccDes= 0.00D+00 IRadAn=         5 IDoV= 1 UseB2=F ITyADJ=14
 ICtDFT=  3500011 ScaDFX=  1.000000  1.000000  1.000000  1.000000
 FoFCou: FMM=F IPFlag=           0 FMFlag=      100000 FMFlg1=           0
         NFxFlg=           0 DoJE=T BraDBF=F KetDBF=T FulRan=T
         wScrn=  0.000000 ICntrl=       500 IOpCl=  0 I1Cent=   200000004 NGrid=           0
         NMat0=    1 NMatS0=      1 NMatT0=    0 NMatD0=    1 NMtDS0=    0 NMtDT0=    0
 Petite list used in FoFCou.
 Requested convergence on RMS density matrix=1.00D-08 within 128 cycles.
 Requested convergence on MAX density matrix=1.00D-06.
 Requested convergence on             energy=1.00D-06.
 No special actions if energy rises.
 Inv3:  Mode=1 IEnd=     8157603.
 Iteration    1 A*A^-1 deviation from unit magnitude is 4.88D-15 for   1648.
 Iteration    1 A*A^-1 deviation from orthogonality  is 2.23D-15 for    504    129.
 Iteration    1 A^-1*A deviation from unit magnitude is 4.66D-15 for   1648.
[...]
 02138,-0.5960028,-0.3460701,-1.6410857,-1.1107343,-0.0203771,0.0807048
 ,0.2498927,-1.8799177,0.2112715,-0.0098407,0.1934032,-0.9648736,-1.517
 292,0.0275486,0.3447444,-0.0302379,-0.8406376,0.2687045,0.6264353,0.16
 31695,-1.8204506,0.4038228,-0.0237824,0.0072907,-0.016692,0.1060059,-0
 .0568779,-0.017514,-0.0667113,0.3307495,2.0000392,0.089436,-0.2539246,
 1.2027296,2.5737692,-0.5751254,-0.4653111,-0.4264026,0.5505214,-1.1160
 247,0.3978401,0.003638,-0.3978156,-1.8003264,0.2938093,0.1552525,0.191
 4444,-0.5974464,-0.4608198,0.0366294,0.0645782,-0.0877718,0.0010762,-0
 .0075203,0.153176,-0.0315538,-0.0732203,-0.2845392,-0.2607205,0.062652
 7,0.0742365,-0.544731,0.0289803,0.0235151,0.0871565,-0.2595819,-0.9658
 086,0.1856146,0.0731069,-0.5565849,-0.7445088,0.165629,0.1758883,0.066
 6753,-0.33104,0.2513198,-0.0914497,0.0406445,-0.1293466,0.4054426,0.02
 19615,0.0409387,0.0159452,0.4170303,0.0561764,0.0145698,0.0027531,0.03
 35953,0.1285949,0.0337953,0.0113375,0.0354033,-0.0020204,0.0420766,-0.
 0111305,-0.0094132,-0.0070224,0.0344097,-0.073361,-0.0568363,-0.067788
 7,0.098842,0.0446864,-0.0128716,0.0168524,0.0622506,-0.048706,0.049654
 5,-0.0196327,0.0638337,0.1142463\Polar=224.1717511,6.1314907,176.23518
 52,-19.6392535,-10.7822496,129.6949795\Quadrupole=-3.3473378,-2.305465
 5,5.6528033,-2.6724785,0.5487195,-0.6444509\PG=C01 [X(C4H5N4O3S2)]\NIm
 ag=0\\0.52560277,-0.12850344,0.65308736,-0.02409787,-0.08722957,0.1430
 2061,-0.03894099,-0.00611335,0.00658020,0.74839951,0.03708147,0.001649
 11,-0.00313268,0.08501226,0.57912666,-0.00182229,0.00168602,0.00690632
 ,-0.09092109,-0.09737508,0.16278928,-0.01373460,-0.01379718,0.00459374
 ,-0.30403745,0.01326426,0.02935093,0.72604719,-0.00264346,-0.01306365,
 0.00298096,0.04336078,-0.12595754,0.01135536,-0.05793295,0.81518770,0.
 00231999,0.00434941,-0.00001700,0.02368998,0.01510193,-0.04578208,-0.0
 7125820,-0.14025379,0.09310601,-0.12372099,-0.06472666,0.02278398,-0.0
 8855663,0.05791658,-0.00566565,-0.01485693,0.02454296,-0.00308981,0.25
 734008,-0.04647023,-0.07858148,0.01210289,0.04728228,-0.12239357,0.009
 88273,0.01836128,0.00316597,-0.00271056,0.00308706,0.33559216,0.019199
 66,0.01486301,-0.04679000,-0.00364009,0.00839716,-0.04427686,-0.001726
 24,-0.00343809,0.00106606,-0.02625166,-0.05743441,0.05975251,-0.156757
 15,0.02014929,0.01630317,-0.00840211,-0.00977567,0.00298058,0.01410644
 ,0.00280577,-0.00220103,-0.01437730,-0.00532437,0.00299030,0.48787076,
 0.03260036,-0.05821750,-0.00155762,-0.00166376,0.00142169,-0.00003196,
 -0.00449696,-0.00048424,0.00093733,-0.01440329,0.00756808,0.00055380,0
 .13070831,0.77834360,0.00792935,0.00283432,-0.04348481,0.00129526,0.00
 118106,0.00058228,-0.00068556,0.00005976,0.00146685,0.00499718,-0.0004
 1741,-0.00013784,0.00820478,0.00408282,0.70893598,-0.01463251,-0.01552
 464,-0.02375723,0.00184220,0.00272733,-0.00054574,-0.00486289,-0.00047
 771,0.00142797,-0.00098200,0.00454127,-0.00194224,-0.15940970,-0.09887
 731,-0.12793776,0.16299288,0.00276791,0.00336008,-0.00391452,0.0008974
 0,0.00054445,0.00012887,-0.00081416,0.00004601,-0.00009447,0.00080262,
 0.00055509,-0.00007022,-0.09301115,-0.17521473,-0.13541210,0.12030966,
 0.18637224,-0.00258905,-0.01010353,-0.00006346,0.00027568,0.00002639,-
 0.00021280,-0.00191720,0.00012245,0.00031551,-0.00113039,0.00315356,-0
 .00101881,-0.12476690,-0.14163779,-0.25618722,0.15154402,0.17092956,0.
 28352914,0.00363375,0.02832486,-0.00593731,0.00330695,-0.00135226,0.00
 006743,-0.00257515,0.00016099,0.00030339,0.00285403,0.00148407,-0.0007
 6921,-0.08155457,-0.03473541,0.00911820,0.00816012,-0.02387968,-0.0011
 3641,0.06722382,-0.01051091,-0.02646428,0.00998172,-0.00185966,-0.0036
 3811,0.00110703,0.00368276,0.00147130,-0.00074695,0.00031073,-0.001358
 81,0.00000650,-0.03766129,-0.43665114,0.07883189,-0.00990503,-0.027607
 52,0.00263409,0.04706109,0.51367781,0.00356161,0.00217341,0.00561363,0
 .00004037,0.00083265,0.00051847,-0.00035462,-0.00028702,0.00003540,-0.
 00046161,-0.00011940,-0.00081356,0.00848379,0.07937251,-0.08705439,-0.
 00790706,-0.02714699,0.00659015,-0.01443733,-0.10193269,0.09366797,-0.
 00378885,-0.00310597,0.02146598,0.00141169,0.00222995,-0.00096319,-0.0
 0414553,-0.00068419,-0.00000882,-0.00039951,0.00378805,0.00041786,-0.0
 9134107,-0.01397731,0.09870157,0.01493530,-0.00474136,-0.01592727,0.00
 220386,-0.00522594,0.01128730,0.12102176,0.00533873,0.00867412,-0.0033
 7770,0.00051860,0.00018667,-0.00049390,0.00046891,0.00007696,0.0001927
 4,0.00149677,-0.00152939,-0.00042869,-0.02501527,-0.08943112,0.0592856
 8,-0.00084029,0.00873669,-0.02200885,-0.01880534,-0.02106112,0.0457475
 5,0.13402643,0.48202700,0.00150384,0.00521843,-0.00782121,-0.00082701,
 -0.00087440,0.00030005,0.00292730,0.00006105,-0.00019005,0.00039508,-0
 .00389907,0.00010898,0.07937150,0.01854698,-0.29905618,0.00792502,-0.0
 0307579,-0.04076789,0.00801590,0.00879917,-0.01506888,-0.12703765,-0.1
 0122060,0.38877615,0.00074132,0.00213548,-0.00003257,0.00023547,0.0003
 4286,-0.00015081,0.00026820,-0.00002781,0.00007897,0.00033984,-0.00068
 171,-0.00011941,-0.00920372,-0.01275988,0.00521245,-0.00143492,0.00007
 052,-0.00155968,0.00561876,-0.00081260,0.00137601,-0.03532586,-0.09563
 956,0.02290958,0.03910807,-0.00036969,-0.00004142,-0.00071572,-0.00008
 104,-0.00025766,0.00007970,0.00028581,0.00007642,-0.00002183,0.0000622
 5,-0.00007931,0.00002652,0.00284421,-0.01127727,-0.01079463,0.00076808
 ,0.00135526,-0.00400493,-0.00141344,0.00267651,0.00105084,-0.10951025,
 -0.38968485,0.07640201,0.10687574,0.39729367,-0.00011091,-0.00113104,-
 0.00067315,-0.00002228,0.00012213,0.00000692,-0.00024723,-0.00005667,0
 .00004954,-0.00015911,0.00016986,0.00003362,0.01344913,0.03960369,-0.0
 2423745,0.00023039,-0.00237992,0.00651691,0.00416415,0.00314094,-0.004
 44841,0.01033109,0.02263910,-0.02681900,-0.02770527,-0.06188325,0.0495
 8772,0.00208573,-0.00148381,-0.00015047,-0.04418452,-0.03371264,0.0116
 2964,-0.20178909,-0.09302399,0.03686965,-0.00479303,-0.00138878,0.0010
 2566,-0.00424205,0.00148128,0.00016612,0.00150871,0.00030257,0.0006905
 2,0.00092376,-0.00094126,0.00005845,0.00125690,-0.00012377,-0.00099632
 ,-0.00008583,-0.00007805,0.00007008,0.70003165,0.01085273,0.01127646,-
 0.00371944,-0.06439852,0.01430737,0.00421039,-0.02868955,-0.20492570,0
 .03367218,0.00713933,-0.00566434,0.00067182,-0.00954589,0.00278480,0.0
 0050027,0.00325185,0.00050128,0.00128607,0.00188580,-0.00257193,0.0002
 4956,0.00276345,-0.00027050,-0.00194184,-0.00018242,-0.00020453,0.0001
 6439,-0.14904240,0.80898201,-0.00250004,-0.00228723,0.00020709,0.01741
 796,0.00042694,-0.00716120,0.02455082,0.04153222,-0.06144994,-0.000617
 35,0.00180436,0.00203992,0.00240950,-0.00082991,-0.00072605,-0.0010741
 1,-0.00018759,-0.00039007,-0.00051725,0.00065521,-0.00002387,-0.000540
 96,0.00006811,0.00040204,0.00005932,0.00004163,-0.00005158,-0.03224114
 ,-0.09377277,0.24717815,0.00325562,0.00555194,-0.00092729,-0.00645583,
 0.00459296,-0.00057786,0.03826879,-0.00257062,-0.00176112,-0.00503074,
 -0.00373739,0.00068997,0.00290767,-0.00169951,-0.00002135,-0.00108742,
 -0.00019520,-0.00062935,-0.00062850,0.00054811,-0.00001968,-0.00079158
 ,0.00015087,0.00075671,0.00007106,0.00004348,-0.00005830,-0.22192520,0
 .20467475,-0.02171595,0.21734426,-0.00583770,-0.00327967,0.00205480,0.
 03132901,-0.00108086,-0.00441552,-0.02399500,-0.11926210,0.02977494,-0
 .00187905,-0.00024350,-0.00061512,0.00546638,-0.00203845,-0.00025346,-
 0.00195273,-0.00028831,-0.00082107,-0.00099412,0.00150098,-0.00014049,
 -0.00160226,0.00021337,0.00115303,0.00011297,0.00011344,-0.00009884,0.
 23797247,-0.51092119,0.05401101,-0.24723841,0.64607100,0.00112679,0.00
 064069,0.00289697,-0.00582175,-0.00103715,-0.00270389,0.00251359,0.027
 41854,0.01357928,0.00035236,-0.00042945,-0.00437035,-0.00143486,0.0006
 1956,0.00013055,0.00056796,0.00007765,0.00026362,0.00028050,-0.0003605
 7,0.00005966,0.00037935,-0.00004185,-0.00029211,-0.00002880,-0.0000289
 4,0.00002307,-0.02823291,0.05779301,-0.08490508,0.02514806,-0.08651318
 ,0.04927210,-0.00007489,-0.00015558,0.00001641,0.00375270,-0.00044835,
 0.00052734,-0.02740134,-0.00404499,0.00640694,-0.00002377,0.00035548,-
 0.00000755,0.00058897,-0.00017135,-0.00005117,-0.00020597,-0.00003552,
 -0.00009277,-0.00014430,0.00013047,-0.00000514,-0.00015799,0.00000862,
 0.00012908,0.00001204,0.00001122,-0.00000786,-0.22024405,0.01036124,0.
 01489516,-0.01968150,0.02252931,0.00046817,0.51114036,-0.00073440,-0.0
 0033186,0.00007947,0.00103614,-0.00360260,0.00268107,-0.03225323,0.003
 52443,0.00659812,-0.00036951,-0.00052898,0.00019145,0.00047692,-0.0001
 4658,-0.00004587,-0.00017761,-0.00001990,-0.00006691,-0.00009051,0.000
 14366,-0.00001527,-0.00012952,0.00000345,0.00010318,0.00000836,0.00001
 151,-0.00001046,0.02429859,-0.09044544,-0.00241715,0.04551196,-0.01165
 160,-0.00189669,-0.00125374,0.62467323,0.00022077,0.00017413,-0.000616
 47,-0.00057300,0.00215975,0.00717628,0.01172390,0.00310321,0.01084817,
 0.00013616,0.00010571,0.00059480,-0.00032998,0.00008443,-0.00006421,0.
 00005981,0.00004096,0.00004056,0.00006975,-0.00008440,0.00001286,0.000
 14126,-0.00003598,-0.00007085,-0.00002010,-0.00000790,0.00000915,0.009
 32469,-0.00049864,-0.09000714,-0.00417826,0.00129418,0.01750490,0.0160
 4326,-0.01218761,0.55865130,-0.11116303,0.08754546,-0.00999668,-0.0809
 1253,-0.07116189,0.02448635,-0.00411180,-0.00650027,0.00282351,-0.0067
 9114,0.02126902,-0.00069912,-0.00978415,0.02423234,-0.00463482,0.00106
 177,-0.00017074,0.00016482,-0.00453561,0.00905071,-0.00116067,0.001510
 06,-0.00102469,-0.00041653,-0.00017204,0.00011894,0.00037761,-0.000151
 20,0.00925486,-0.00153219,-0.00007197,-0.00398612,0.00067190,-0.000380
 17,-0.00064011,0.00021540,0.45461433,0.07546875,-0.45380972,0.06940670
 ,-0.02756171,-0.00351674,0.00520975,0.01290213,0.00371822,-0.00050914,
 -0.04429248,-0.07429523,0.02483523,0.01508268,-0.01007712,-0.00252422,
 -0.00182249,0.00076247,0.00102579,-0.00087148,-0.00084370,0.00100549,-
 0.00135128,0.00136260,-0.00037826,0.00037479,-0.00025153,0.00004904,-0
 .00147285,-0.01235716,0.00335715,-0.00626035,0.00586650,-0.00070867,0.
 00003404,0.00037965,-0.00050218,-0.07370811,0.61794314,-0.00846915,0.0
 6843841,-0.07170018,0.01594207,0.01033107,0.00147959,-0.00087323,0.001
 89728,0.00863075,0.01216363,0.01658391,0.01888276,-0.00266795,-0.00300
 740,-0.00786963,-0.00192690,-0.00006317,0.00082610,0.00109100,-0.00070
 502,0.00191309,0.00188357,0.00042273,0.00024967,0.00038014,-0.00013263
 ,-0.00009553,0.00067786,0.00184747,0.00292045,0.00109510,-0.00088889,-
 0.00136146,-0.00011946,-0.00025568,-0.00110354,-0.03024309,-0.09594575
 ,0.11475820,-0.07204051,0.08893658,-0.00684066,-0.17026731,-0.11523192
 ,0.03541191,-0.04779341,-0.05339798,0.01607566,0.00101177,-0.04070179,
 0.01014400,0.02860199,-0.00578282,-0.00232012,-0.00750829,-0.00222201,
 -0.00268871,-0.00418908,0.00603712,-0.00047192,-0.00604954,-0.00061575
 ,0.00502733,-0.00021791,0.00042430,-0.00029190,0.00080705,0.01171574,-
 0.00232830,0.00115363,-0.00383275,0.00065071,-0.00067761,-0.00157817,0
 .00041792,-0.23829858,0.05416991,0.01098484,0.51320314,0.03240249,-0.0
 4426535,0.00680171,-0.11062438,-0.34550290,0.06886590,-0.03501592,-0.0
 0147842,0.00431133,0.03231817,-0.06259837,0.01208623,0.00155910,-0.006
 10971,0.00261770,-0.00156747,0.00099200,-0.00029295,0.00346851,0.00044
 309,-0.00075495,-0.00204801,0.00064960,0.00075369,0.00015024,0.0002417
 3,-0.00030653,0.00906021,0.01062165,-0.00327266,-0.00078412,-0.0056181
 6,0.00129632,-0.00045534,0.00001070,0.00036049,0.00577296,-0.07500943,
 0.00173464,0.06446899,0.52887562,0.00341925,0.00047360,0.01225987,0.03
 459345,0.06925946,-0.07879181,0.01245065,0.00658145,-0.00340589,-0.004
 12610,0.02089432,0.01447993,-0.00258595,0.00304940,0.00710217,0.002990
 70,0.00111856,0.00046790,-0.00037396,-0.00125901,-0.00094498,-0.000021
 60,-0.00075874,0.00024360,-0.00040166,-0.00001369,0.00008959,-0.001946
 19,-0.00353664,0.00039065,0.00009678,0.00167178,0.00023974,0.00030570,
 0.00036066,0.00088420,0.02009534,-0.00418341,-0.06609714,-0.06395501,-
 0.09415422,0.11329507,-0.00016244,0.00118087,-0.00015085,-0.01838354,0
 .03016623,-0.00364945,-0.14349451,0.14916104,-0.01232636,-0.00243966,-
 0.00206709,0.00076732,0.00020379,-0.00019025,0.00007230,-0.00010080,-0
 .00003130,-0.00010796,-0.00011434,-0.00009551,0.00002370,-0.00011837,0
 .00002986,0.00013804,0.00002797,0.00000367,-0.00000422,0.01765716,-0.0
 1212063,-0.00070841,-0.00138745,-0.00922827,0.00289097,-0.00064076,-0.
 00167925,0.00022397,0.00003534,-0.00091075,-0.00001464,0.00269876,0.00
 135870,-0.00059746,0.14902428,-0.00148943,-0.00002896,0.00028803,0.003
 38034,0.00823952,-0.00217532,0.14856844,-0.36275763,0.05024883,-0.0018
 0872,0.00036174,0.00026497,0.00143519,-0.00056503,0.00004625,-0.000524
 26,-0.00010372,-0.00027519,-0.00027428,0.00033434,-0.00003883,-0.00048
 381,0.00005669,0.00039574,0.00003699,0.00003144,-0.00002584,0.01177066
 ,-0.01938713,0.00110295,-0.00329109,0.00084764,0.00158690,0.00057133,0
 .00043327,-0.00042812,-0.00028090,0.00013143,-0.00027728,-0.00236894,-
 0.00126925,0.00048345,-0.15515272,0.37264128,0.00034762,-0.00004980,0.
 00026273,0.00148171,-0.00538709,0.00004568,-0.01258970,0.05013448,-0.0
 1761961,0.00068410,0.00028290,0.00039646,-0.00022325,0.00022969,0.0005
 9709,0.00034982,0.00004932,0.00009410,0.00005638,-0.00007409,-0.000053
 84,-0.00010102,0.00000830,0.00000493,0.00000126,0.00000192,0.00000855,
 -0.00532292,0.00406968,-0.00620319,0.00168776,0.00234354,0.00628835,-0
 .00022799,-0.00070637,-0.00241115,-0.00014236,-0.00022702,-0.00150655,
 0.00009856,0.00003341,-0.00021417,0.01347933,-0.05040487,0.01961434,-0
 .00018515,-0.00017028,0.00015986,0.00007567,-0.00103300,-0.00136235,-0
 .00422006,0.00016791,-0.00136738,0.00007860,-0.00001728,-0.00011580,0.
 00032082,-0.00010823,-0.00000618,-0.00010860,-0.00002643,-0.00005419,-
 0.00007215,0.00008235,-0.00000625,-0.00009789,0.00001768,0.00007096,0.
 00000947,0.00000638,-0.00000629,-0.00830004,-0.00474534,0.03642950,0.0
 0079269,-0.00059209,-0.00370999,-0.06013617,-0.00595089,0.06534461,-0.
 00034264,0.00020000,0.00027591,-0.00021592,-0.00004069,-0.00019655,-0.
 00010671,0.00034229,0.00039742,0.06596972,-0.00001744,0.00001574,-0.00
 000192,-0.00017249,0.00000025,-0.00032196,-0.00044214,0.00017177,0.000
 01694,-0.00005698,-0.00001329,0.00002780,-0.00002652,0.00001312,0.0000
 1186,0.00001269,0.00000052,0.00000387,0.00000576,-0.00000698,-0.000001
 81,0.00000232,-0.00000180,-0.00000464,-0.00000030,-0.00000032,0.000000
 43,-0.00165162,-0.00138937,-0.00532128,0.00167996,-0.00074716,0.001168
 29,-0.00590617,-0.04917275,0.03880142,0.00004338,0.00000992,-0.0000082
 8,-0.00004024,-0.00001170,0.00002593,0.00016519,0.00030284,0.00026052,
 0.00843227,0.04907687,0.00000397,-0.00000359,-0.00002438,0.00024156,0.
 00003243,-0.00026846,-0.00004852,-0.00081434,-0.00019210,-0.00000015,0
 .00005519,0.00002192,0.00001560,-0.00000392,-0.00000809,-0.00000678,-0
 .00000147,-0.00000102,-0.00000255,0.00000200,0.00000137,-0.00000230,-0
 .00000034,0.00000376,-0.00000038,0.00000045,-0.00000040,0.00161529,0.0
 0020220,-0.00190956,-0.00052870,0.00075962,0.00098835,0.06395004,0.038
 16224,-0.30497617,0.00000200,-0.00000346,0.00002166,-0.00000374,-0.000
 06929,0.00004065,-0.00008222,-0.00013471,0.00008220,-0.07057180,-0.041
 37090,0.32721194,-0.00022116,-0.00016138,-0.00000572,0.00052419,-0.000
 78331,0.00123620,-0.00547622,0.00132021,0.00151988,0.00006629,-0.00002
 415,0.00008025,0.00032426,-0.00011300,-0.00002581,-0.00011892,-0.00001
 489,-0.00005204,-0.00007310,0.00008354,-0.00000673,-0.00008746,0.00000
 522,0.00007649,0.00000586,0.00000632,-0.00000660,-0.01714651,-0.024428
 10,-0.02043033,0.00297780,0.00044597,0.00263601,-0.11403671,-0.0913482
 1,-0.07834512,-0.00036878,0.00007752,-0.00017873,-0.00034060,0.0000242
 1,0.00023266,-0.00014351,0.00033832,-0.00035009,0.00455624,0.00654293,
 0.00429875,0.12432774,0.00000526,0.00003954,-0.00004229,-0.00029133,0.
 00018329,-0.00016926,0.00036576,0.00038869,-0.00068875,-0.00005050,-0.
 00003883,0.00005088,-0.00007697,0.00002525,-0.00000928,0.00002129,0.00
 000426,0.00001252,0.00001537,-0.00001822,0.00000364,0.00002523,-0.0000
 0262,-0.00001731,-0.00000204,-0.00000156,0.00000115,0.00084697,0.00273
 904,0.00552264,0.00147006,-0.00040371,-0.00017787,-0.09341166,-0.17928
 294,-0.10722995,0.00010276,-0.00000848,0.00004151,-0.00000239,0.000022
 58,-0.00002011,0.00026726,0.00033896,-0.00014448,0.00335899,0.00348945
 ,0.00320275,0.10190966,0.18837963,-0.00000751,-0.00005071,0.00002556,0
 .00026084,0.00006285,-0.00055646,0.00113794,-0.00015769,-0.00061576,0.
 00000132,0.00003146,-0.00001796,-0.00000688,-0.00000119,0.00000760,0.0
 0000561,0.00000115,0.00000122,0.00000503,0.00000060,-0.00000101,-0.000
 00062,0.00000246,-0.00000370,0.00000021,0.00000003,0.00000050,0.005233
 21,0.00466040,0.00199041,-0.00080973,0.00068836,0.00038264,-0.07945202
 ,-0.10622523,-0.12709452,0.00000405,0.00006941,0.00003714,0.00011352,-
 0.00001202,-0.00003349,0.00002826,-0.00017109,0.00027090,-0.01595670,-
 0.02120424,-0.01516160,0.08259389,0.11556647,0.13497759,0.00010308,-0.
 00008219,-0.00000671,0.00059254,0.00016515,-0.00003195,-0.00019163,-0.
 00021571,0.00049680,0.00028109,0.00024427,-0.00004371,0.00014711,-0.00
 004320,-0.00001442,-0.00004896,-0.00000825,-0.00002312,-0.00003825,0.0
 0002530,-0.00000023,-0.00003591,0.00000298,0.00003068,0.00000222,0.000
 00208,-0.00000248,-0.00140946,0.03125311,-0.01155624,-0.00971133,0.003
 28241,0.00154195,-0.07168887,0.06487318,-0.02047505,-0.00013785,-0.000
 05833,-0.00000099,0.00012241,-0.00004764,0.00001998,-0.00255523,-0.000
 76940,0.00037337,0.00198213,-0.00857059,0.00111994,0.00523059,-0.01455
 372,0.00684958,0.07735632,0.00005902,-0.00001852,-0.00000483,-0.000050
 57,0.00029098,-0.00022381,-0.00046226,0.00010181,-0.00017826,-0.000089
 30,0.00008208,0.00001115,-0.00009072,0.00005637,0.00000537,0.00003737,
 0.00000383,0.00001692,0.00001009,-0.00002587,0.00000181,0.00002447,-0.
 00000574,-0.00002138,-0.00000163,-0.00000153,0.00000182,-0.00281358,-0
 .00307532,-0.00043365,0.00155260,0.00092178,0.00059341,0.07188100,-0.2
 9399724,0.07485052,0.00008240,-0.00000483,-0.00001292,0.00002212,0.000
 00632,0.00000721,-0.00085707,0.00039258,-0.00042006,0.00007635,-0.0017
 3710,-0.00001484,0.00611914,-0.01585432,0.00673899,-0.07549944,0.31286
 471,-0.00003600,0.00000402,-0.00000212,-0.00001387,-0.00012743,-0.0000
 5131,0.00045162,-0.00023915,0.00017486,-0.00001197,-0.00005658,0.00004
 841,0.00000844,-0.00001041,0.00000334,-0.00000350,0.00000017,-0.000003
 95,0.00000228,0.00000358,-0.00000366,-0.00000456,-0.00000002,0.0000007
 0,0.00000073,0.00000041,-0.00000005,0.00152879,-0.00585811,-0.00230105
 ,0.00175323,-0.00000471,0.00200364,-0.02277813,0.07565105,-0.06937817,
 -0.00001552,0.00002353,0.00001462,-0.00002408,0.00000123,-0.00000589,0
 .00001768,-0.00048586,0.00034318,-0.00932478,0.02791797,-0.00583007,0.
 00672705,-0.01590227,0.00579093,0.02172260,-0.08091744,0.06919660\\0.0
 0000127,-0.00000627,0.00000178,-0.00000549,0.00000196,-0.00000320,0.00
 000678,0.00000668,-0.00000161,-0.00000082,-0.00000164,0.00000270,-0.00
 000338,-0.00000338,-0.00000263,0.00000133,-0.00000359,0.00000081,-0.00
 000199,-0.00001094,0.00000834,-0.00000202,-0.00001150,-0.00000085,0.00
 000358,-0.00001279,0.00000015,-0.00000471,-0.00000711,0.00000814,-0.00
 000159,0.00000893,0.00000130,-0.00000024,0.00000578,0.00001382,-0.0000
 0111,-0.00000260,-0.00000506,0.00000854,-0.00000159,-0.00000390,0.0000
 0203,0.00000413,-0.00000608,-0.00000176,0.00001495,-0.00000243,-0.0000
 0177,0.00000963,-0.00000352,0.00000134,0.00000933,-0.00000777\\\@
 The archive entry for this job was punched.


 HONESTY IN A LAWYER IS LIKE A HEN'S HIND LEGS.
  -- MAGNUS OLESON, LAKE WOBEGON PATRIARCH, C.1875
 Job cpu time:       0 days  0 hours 50 minutes 25.3 seconds.
 Elapsed time:       0 days  0 hours  3 minutes 14.3 seconds.
 File lengths (MBytes):  RWF=    209 Int=      0 D2E=      0 Chk=     12 Scr=      1
 Normal termination of Gaussian 16 at Fri May 20 22:29:27 2022.
