 Entering Gaussian System, Link 0=g16
 AtFile(1): /home/561/yj5695/Basis/6-31pGd.gbs
 Initial command:
 /apps/gaussian/g16c01/g16/l1.exe "/jobfs/40783720.gadi-pbs/Gau-1389442.inp" -scrdir="/jobfs/40783720.gadi-pbs/"
 Entering Link 1 = /apps/gaussian/g16c01/g16/l1.exe PID=   1389443.
  
 Copyright (c) 1988-2019, Gaussian, Inc.  All Rights Reserved.
  
 This is part of the Gaussian(R) 16 program.  It is based on
 the Gaussian(R) 09 system (copyright 2009, Gaussian, Inc.),
 the Gaussian(R) 03 system (copyright 2003, Gaussian, Inc.),
 the Gaussian(R) 98 system (copyright 1998, Gaussian, Inc.),
 the Gaussian(R) 94 system (copyright 1995, Gaussian, Inc.),
 the Gaussian 92(TM) system (copyright 1992, Gaussian, Inc.),
 the Gaussian 90(TM) system (copyright 1990, Gaussian, Inc.),
 the Gaussian 88(TM) system (copyright 1988, Gaussian, Inc.),
 the Gaussian 86(TM) system (copyright 1986, Carnegie Mellon
 University), and the Gaussian 82(TM) system (copyright 1983,
 Carnegie Mellon University). Gaussian is a federally registered
 trademark of Gaussian, Inc.
  
 This software contains proprietary and confidential information,
 including trade secrets, belonging to Gaussian, Inc.
  
 This software is provided under written license and may be
 used, copied, transmitted, or stored only in accord with that
 written license.
  
 The following legend is applicable only to US Government
 contracts under FAR:
  
                    RESTRICTED RIGHTS LEGEND
  
 Use, reproduction and disclosure by the US Government is
 subject to restrictions as set forth in subparagraphs (a)
 and (c) of the Commercial Computer Software - Restricted
 Rights clause in FAR 52.227-19.
  
 Gaussian, Inc.
 340 Quinnipiac St., Bldg. 40, Wallingford CT 06492
  
  
 ---------------------------------------------------------------
 Warning -- This program may not be used in any manner that
 competes with the business of Gaussian, Inc. or will provide
 assistance to any competitor of Gaussian, Inc.  The licensee
 of this program is prohibited from giving any competitor of
 Gaussian, Inc. access to this program.  By using this program,
 the user acknowledges that Gaussian, Inc. is engaged in the
 business of creating and licensing software in the field of
 computational chemistry and represents and warrants to the
 licensee that it is not a competitor of Gaussian, Inc. and that
 it will not use this program in any manner prohibited above.
 ---------------------------------------------------------------
  

 Cite this work as:
 Gaussian 16, Revision C.01,
 M. J. Frisch, G. W. Trucks, H. B. Schlegel, G. E. Scuseria, 
 M. A. Robb, J. R. Cheeseman, G. Scalmani, V. Barone, 
 G. A. Petersson, H. Nakatsuji, X. Li, M. Caricato, A. V. Marenich, 
 J. Bloino, B. G. Janesko, R. Gomperts, B. Mennucci, H. P. Hratchian, 
 J. V. Ortiz, A. F. Izmaylov, J. L. Sonnenberg, D. Williams-Young, 
 F. Ding, F. Lipparini, F. Egidi, J. Goings, B. Peng, A. Petrone, 
 T. Henderson, D. Ranasinghe, V. G. Zakrzewski, J. Gao, N. Rega, 
 G. Zheng, W. Liang, M. Hada, M. Ehara, K. Toyota, R. Fukuda, 
 J. Hasegawa, M. Ishida, T. Nakajima, Y. Honda, O. Kitao, H. Nakai, 
 T. Vreven, K. Throssell, J. A. Montgomery, Jr., J. E. Peralta, 
 F. Ogliaro, M. J. Bearpark, J. J. Heyd, E. N. Brothers, K. N. Kudin, 
 V. N. Staroverov, T. A. Keith, R. Kobayashi, J. Normand, 
 K. Raghavachari, A. P. Rendell, J. C. Burant, S. S. Iyengar, 
 J. Tomasi, M. Cossi, J. M. Millam, M. Klene, C. Adamo, R. Cammi, 
 J. W. Ochterski, R. L. Martin, K. Morokuma, O. Farkas, 
 J. B. Foresman, and D. J. Fox, Gaussian, Inc., Wallingford CT, 2019.
 
 ******************************************
 Gaussian 16:  ES64L-G16RevC.01  3-Jul-2019
                20-May-2022 
 ******************************************
 %nproc=16
 Will use up to   16 processors via shared memory.
 %mem=20gb
 -----------------------------------------------------
 #m062X/gen 6D OPT Freq=noraman SCRF=(SMD,Solvent=h2o)
 -----------------------------------------------------
 1/18=20,19=15,26=3,38=1/1,3;
 2/9=110,12=2,17=6,18=5,40=1/2;
 3/5=7,8=2,11=2,25=1,30=1,70=32201,71=1,72=1,74=-55/1,2,3;
 4//1;
 5/5=2,38=5,53=1/2;
 6/7=2,8=2,9=2,10=2,28=1/1;
 7//1,2,3,16;
 1/18=20,19=15,26=3/3(2);
 2/9=110/2;
 99//99;
 2/9=110/2;
 3/5=7,6=1,8=2,11=2,25=1,30=1,70=32205,71=1,72=1,74=-55,82=7/1,2,3;
 4/5=5,16=3,69=1/1;
 5/5=2,38=5,53=1/2;
 7//1,2,3,16;
 1/18=20,19=15,26=3/3(-5);
 2/9=110/2;
 6/7=2,8=2,9=2,10=2,19=2,28=1/1;
 99/9=1/99;
 -------------------
 A.26.smd.a1c2d2.smd
 -------------------
 Symbolic Z-matrix:
 Charge = -1 Multiplicity = 1
 C                    -0.82184   0.48092  -0.73453 
 N                    -1.63467   1.26997  -1.33614 
 N                    -1.11871   1.68753  -2.52617 
 C                     0.10295   1.20615  -2.87069 
 N                     0.83992   1.47721  -3.90668 
 S                     0.65986   0.15165  -1.58109 
 S                    -1.1534   -0.17608   0.93125 
 O                    -0.42299  -1.46863   0.85612 
 O                    -0.51768   0.83612   1.80503 
 N                    -2.67538  -0.23479   1.17685 
 H                    -3.06476  -1.03601   0.67384 
 C                    -1.88736   2.67162  -3.28316 
 H                    -2.36345   3.34047  -2.5668 
 H                    -2.64378   2.17875  -3.89669 
 H                    -1.20503   3.24488  -3.91235 
 C                     1.85023   0.69257  -4.38046 
 C                     3.01449   1.32532  -5.10991 
 O                     1.77025  -0.54103  -4.32208 
 H                     2.97566   2.41602  -5.13134 
 H                     3.00226   0.95141  -6.13844 
 H                     3.94976   0.9971   -4.64665 
 

 GradGradGradGradGradGradGradGradGradGradGradGradGradGradGradGradGradGrad
 Berny optimization.
 Initialization pass.
                           ----------------------------
                           !    Initial Parameters    !
                           ! (Angstroms and Degrees)  !
 --------------------------                            --------------------------
 ! Name  Definition              Value          Derivative Info.                !
 --------------------------------------------------------------------------------
 ! R1    R(1,2)                  1.2827         estimate D2E/DX2                !
 ! R2    R(1,6)                  1.738          estimate D2E/DX2                !
 ! R3    R(1,7)                  1.8211         estimate D2E/DX2                !
 ! R4    R(2,3)                  1.3626         estimate D2E/DX2                !
 ! R5    R(3,4)                  1.3575         estimate D2E/DX2                !
 ! R6    R(3,12)                 1.4602         estimate D2E/DX2                !
 ! R7    R(4,5)                  1.2999         estimate D2E/DX2                !
 ! R8    R(4,6)                  1.7565         estimate D2E/DX2                !
 ! R9    R(5,16)                 1.3641         estimate D2E/DX2                !
 ! R10   R(7,8)                  1.4865         estimate D2E/DX2                !
 ! R11   R(7,9)                  1.4806         estimate D2E/DX2                !
 ! R12   R(7,10)                 1.5428         estimate D2E/DX2                !
 ! R13   R(10,11)                1.023          estimate D2E/DX2                !
 ! R14   R(12,13)                1.0896         estimate D2E/DX2                !
 ! R15   R(12,14)                1.0916         estimate D2E/DX2                !
 ! R16   R(12,15)                1.0909         estimate D2E/DX2                !
 ! R17   R(16,17)                1.5126         estimate D2E/DX2                !
 ! R18   R(16,18)                1.2376         estimate D2E/DX2                !
 ! R19   R(17,19)                1.0916         estimate D2E/DX2                !
 ! R20   R(17,20)                1.0944         estimate D2E/DX2                !
 ! R21   R(17,21)                1.0941         estimate D2E/DX2                !
 ! A1    A(2,1,6)              115.3631         estimate D2E/DX2                !
 ! A2    A(2,1,7)              122.3836         estimate D2E/DX2                !
 ! A3    A(6,1,7)              122.169          estimate D2E/DX2                !
 ! A4    A(1,2,3)              110.9885         estimate D2E/DX2                !
 ! A5    A(2,3,4)              116.9835         estimate D2E/DX2                !
 ! A6    A(2,3,12)             117.3834         estimate D2E/DX2                !
 ! A7    A(4,3,12)             125.5288         estimate D2E/DX2                !
 ! A8    A(3,4,5)              129.6799         estimate D2E/DX2                !
 ! A9    A(3,4,6)              108.1724         estimate D2E/DX2                !
 ! A10   A(5,4,6)              122.0429         estimate D2E/DX2                !
 ! A11   A(4,5,16)             125.2207         estimate D2E/DX2                !
 ! A12   A(1,6,4)               88.4858         estimate D2E/DX2                !
 ! A13   A(1,7,8)              100.2538         estimate D2E/DX2                !
 ! A14   A(1,7,9)              102.4162         estimate D2E/DX2                !
 ! A15   A(1,7,10)             109.8134         estimate D2E/DX2                !
 ! A16   A(8,7,9)              114.411          estimate D2E/DX2                !
 ! A17   A(8,7,10)             117.3662         estimate D2E/DX2                !
 ! A18   A(9,7,10)             110.8326         estimate D2E/DX2                !
 ! A19   A(7,10,11)            109.0875         estimate D2E/DX2                !
 ! A20   A(3,12,13)            107.6301         estimate D2E/DX2                !
 ! A21   A(3,12,14)            110.6            estimate D2E/DX2                !
 ! A22   A(3,12,15)            108.8988         estimate D2E/DX2                !
 ! A23   A(13,12,14)           110.1161         estimate D2E/DX2                !
 ! A24   A(13,12,15)           109.2641         estimate D2E/DX2                !
 ! A25   A(14,12,15)           110.2745         estimate D2E/DX2                !
 ! A26   A(5,16,17)            119.7979         estimate D2E/DX2                !
 ! A27   A(5,16,18)            120.6037         estimate D2E/DX2                !
 ! A28   A(17,16,18)           119.3058         estimate D2E/DX2                !
 ! A29   A(16,17,19)           113.582          estimate D2E/DX2                !
 ! A30   A(16,17,20)           107.5593         estimate D2E/DX2                !
 ! A31   A(16,17,21)           109.1644         estimate D2E/DX2                !
 ! A32   A(19,17,20)           108.8151         estimate D2E/DX2                !
 ! A33   A(19,17,21)           109.7828         estimate D2E/DX2                !
 ! A34   A(20,17,21)           107.7563         estimate D2E/DX2                !
 ! D1    D(6,1,2,3)             -0.751          estimate D2E/DX2                !
 ! D2    D(7,1,2,3)            175.9774         estimate D2E/DX2                !
 ! D3    D(2,1,6,4)              0.3354         estimate D2E/DX2                !
 ! D4    D(7,1,6,4)           -176.4008         estimate D2E/DX2                !
 ! D5    D(2,1,7,8)            151.0582         estimate D2E/DX2                !
 ! D6    D(2,1,7,9)            -90.9158         estimate D2E/DX2                !
 ! D7    D(2,1,7,10)            26.8844         estimate D2E/DX2                !
 ! D8    D(6,1,7,8)            -32.4344         estimate D2E/DX2                !
 ! D9    D(6,1,7,9)             85.5915         estimate D2E/DX2                !
 ! D10   D(6,1,7,10)          -156.6082         estimate D2E/DX2                !
 ! D11   D(1,2,3,4)              0.9291         estimate D2E/DX2                !
 ! D12   D(1,2,3,12)          -175.5654         estimate D2E/DX2                !
 ! D13   D(2,3,4,5)           -176.9304         estimate D2E/DX2                !
 ! D14   D(2,3,4,6)             -0.6601         estimate D2E/DX2                !
 ! D15   D(12,3,4,5)            -0.7557         estimate D2E/DX2                !
 ! D16   D(12,3,4,6)           175.5146         estimate D2E/DX2                !
 ! D17   D(2,3,12,13)           35.279          estimate D2E/DX2                !
 ! D18   D(2,3,12,14)          -85.0508         estimate D2E/DX2                !
 ! D19   D(2,3,12,15)          153.6193         estimate D2E/DX2                !
 ! D20   D(4,3,12,13)         -140.8819         estimate D2E/DX2                !
 ! D21   D(4,3,12,14)           98.7883         estimate D2E/DX2                !
 ! D22   D(4,3,12,15)          -22.5416         estimate D2E/DX2                !
 ! D23   D(3,4,5,16)          -159.8816         estimate D2E/DX2                !
 ! D24   D(6,4,5,16)            24.2997         estimate D2E/DX2                !
 ! D25   D(3,4,6,1)              0.183          estimate D2E/DX2                !
 ! D26   D(5,4,6,1)            176.797          estimate D2E/DX2                !
 ! D27   D(4,5,16,17)         -151.2137         estimate D2E/DX2                !
 ! D28   D(4,5,16,18)           35.0407         estimate D2E/DX2                !
 ! D29   D(1,7,10,11)           76.4204         estimate D2E/DX2                !
 ! D30   D(8,7,10,11)          -37.1289         estimate D2E/DX2                !
 ! D31   D(9,7,10,11)         -171.1455         estimate D2E/DX2                !
 ! D32   D(5,16,17,19)           4.3239         estimate D2E/DX2                !
 ! D33   D(5,16,17,20)        -116.1556         estimate D2E/DX2                !
 ! D34   D(5,16,17,21)         127.1895         estimate D2E/DX2                !
 ! D35   D(18,16,17,19)        178.1509         estimate D2E/DX2                !
 ! D36   D(18,16,17,20)         57.6714         estimate D2E/DX2                !
 ! D37   D(18,16,17,21)        -58.9835         estimate D2E/DX2                !
 --------------------------------------------------------------------------------
 Trust Radius=3.00D-01 FncErr=1.00D-07 GrdErr=1.00D-06 EigMax=2.50D+02 EigMin=1.00D-04
 Number of steps in this run=    102 maximum allowed number of steps=    126.
 GradGradGradGradGradGradGradGradGradGradGradGradGradGradGradGradGradGrad

                          Input orientation:                          
 ---------------------------------------------------------------------
 Center     Atomic      Atomic             Coordinates (Angstroms)
 Number     Number       Type             X           Y           Z
 ---------------------------------------------------------------------
      1          6           0       -0.821840    0.480922   -0.734533
      2          7           0       -1.634666    1.269968   -1.336136
      3          7           0       -1.118713    1.687526   -2.526165
      4          6           0        0.102950    1.206145   -2.870694
      5          7           0        0.839918    1.477209   -3.906677
      6         16           0        0.659856    0.151645   -1.581086
      7         16           0       -1.153397   -0.176080    0.931246
      8          8           0       -0.422989   -1.468625    0.856124
      9          8           0       -0.517679    0.836120    1.805032
     10          7           0       -2.675383   -0.234792    1.176855
     11          1           0       -3.064764   -1.036006    0.673842
     12          6           0       -1.887361    2.671623   -3.283155
     13          1           0       -2.363449    3.340466   -2.566804
     14          1           0       -2.643778    2.178746   -3.896689
     15          1           0       -1.205033    3.244880   -3.912353
     16          6           0        1.850229    0.692573   -4.380456
     17          6           0        3.014486    1.325322   -5.109913
     18          8           0        1.770245   -0.541033   -4.322076
     19          1           0        2.975660    2.416018   -5.131339
     20          1           0        3.002262    0.951414   -6.138437
     21          1           0        3.949758    0.997103   -4.646653
 ---------------------------------------------------------------------
                    Distance matrix (angstroms):
                    1          2          3          4          5
     1  C    0.000000
     2  N    1.282656   0.000000
     3  N    2.180361   1.362619   0.000000
     4  C    2.438108   2.319106   1.357530   0.000000
     5  N    3.717059   3.574101   2.405469   1.299945   0.000000
     6  S    1.737958   2.564269   2.532866   1.756475   2.682893
     7  S    1.821099   2.731977   3.927839   4.236001   5.487456
     8  O    2.547549   3.711342   4.678162   4.617378   5.740831
     9  O    2.582261   3.361967   4.454818   4.731227   5.905733
    10  N    2.757040   3.108459   4.453188   5.116453   6.413313
    11  H    3.052097   3.376790   4.630852   5.255986   6.522572
    12  C    3.525618   2.412338   1.460240   2.505811   3.041949
    13  H    3.729714   2.516472   2.069597   3.275790   3.940628
    14  H    4.025083   2.898382   2.108425   3.089196   3.553645
    15  H    4.229047   3.274409   2.086701   2.636724   2.703057
    16  C    4.525208   4.663235   3.639085   2.365612   1.364129
    17  C    5.879996   5.988244   4.887768   3.674962   2.489898
    18  O    4.542440   4.877395   4.066676   2.817625   2.260833
    19  H    6.123521   6.080469   4.907293   3.850555   2.634873
    20  H    6.636814   6.683163   5.529268   4.375962   3.151657
    21  H    6.191872   6.497674   5.537378   4.242129   3.232518
                    6          7          8          9         10
     6  S    0.000000
     7  S    3.115622   0.000000
     8  O    3.120548   1.486544   0.000000
     9  O    3.649779   1.480604   2.494242   0.000000
    10  N    4.345042   1.542794   2.588144   2.489407   0.000000
    11  H    4.513093   2.111647   2.683163   3.357393   1.023027
    12  C    3.966818   5.138997   6.034871   5.579852   5.381442
    13  H    4.503398   5.105553   6.213628   5.365777   5.186015
    14  H    4.514992   5.574531   6.389401   6.231578   5.618453
    15  H    4.298921   5.930100   6.750340   6.242041   6.337987
    16  C    3.089670   6.163644   6.104102   6.624791   7.226678
    17  C    4.401638   7.491399   7.430745   7.780230   8.621602
    18  O    3.037399   6.023144   5.699514   6.683756   7.077827
    19  H    4.805687   7.779654   7.905124   7.925449   8.874367
    20  H    5.186130   8.277751   8.155539   8.689187   9.335750
    21  H    4.575583   7.650589   7.448576   7.849086   8.906363
                   11         12         13         14         15
    11  H    0.000000
    12  C    5.548929   0.000000
    13  H    5.490641   1.089573   0.000000
    14  H    5.603714   1.091567   1.787952   0.000000
    15  H    6.543529   1.090910   1.778079   1.790775   0.000000
    16  C    7.258861   4.369243   5.296768   4.758029   4.008493
    17  C    8.716936   5.401636   6.280955   5.849461   4.787817
    18  O    6.970044   4.977810   5.935861   5.202091   4.832524
    19  H    9.061088   5.208655   5.994792   5.758363   4.432960
    20  H    9.336262   5.917784   6.874226   6.197544   5.283632
    21  H    9.035747   6.223753   7.047957   6.740433   5.671293
                   16         17         18         19         20
    16  C    0.000000
    17  C    1.512605   0.000000
    18  O    1.237574   2.377415   0.000000
    19  H    2.191046   1.091597   3.294250   0.000000
    20  H    2.117705   1.094449   2.654135   1.777644   0.000000
    21  H    2.138135   1.094108   2.687283   1.788046   1.767839
                   21
    21  H    0.000000
 Stoichiometry    C5H7N4O3S2(1-)
 Framework group  C1[X(C5H7N4O3S2)]
 Deg. of freedom    57
 Full point group                 C1      NOp   1
 Largest Abelian subgroup         C1      NOp   1
 Largest concise Abelian subgroup C1      NOp   1
                         Standard orientation:                         
 ---------------------------------------------------------------------
 Center     Atomic      Atomic             Coordinates (Angstroms)
 Number     Number       Type             X           Y           Z
 ---------------------------------------------------------------------
      1          6           0       -1.078951    0.187893   -0.028221
      2          7           0       -0.804233    1.436764   -0.128510
      3          7           0        0.541496    1.645683   -0.082729
      4          6           0        1.331566    0.548077    0.035340
      5          7           0        2.623331    0.464135    0.154323
      6         16           0        0.294606   -0.867503    0.113121
      7         16           0       -2.789711   -0.430912    0.054137
      8          8           0       -2.614919   -1.774340   -0.557797
      9          8           0       -3.050961   -0.451583    1.511363
     10          7           0       -3.737511    0.555463   -0.659271
     11          1           0       -3.638545    0.441961   -1.671154
     12          6           0        1.006761    3.029815   -0.085355
     13          1           0        0.287281    3.620882    0.480470
     14          1           0        1.082460    3.407609   -1.106658
     15          1           0        1.978546    3.076866    0.408107
     16          6           0        3.367805   -0.646433   -0.116313
     17          6           0        4.666568   -0.879324    0.623247
     18          8           0        3.052210   -1.406688   -1.040436
     19          1           0        4.867410   -0.136619    1.397608
     20          1           0        5.475771   -0.849277   -0.113032
     21          1           0        4.654044   -1.880379    1.064614
 ---------------------------------------------------------------------
 Rotational constants (GHZ):           1.1617827           0.3196633           0.2718118
 General basis read from cards:  (6D, 7F)
 There are   288 symmetry adapted cartesian basis functions of A   symmetry.
 There are   288 symmetry adapted basis functions of A   symmetry.
   288 basis functions,   524 primitive gaussians,   288 cartesian basis functions
    61 alpha electrons       61 beta electrons
       nuclear repulsion energy      1170.7057398774 Hartrees.
 NAtoms=   21 NActive=   21 NUniq=   21 SFac= 1.00D+00 NAtFMM=   60 NAOKFM=F Big=F
 Integral buffers will be    131072 words long.
 Raffenetti 2 integral format.
 Two-electron integral symmetry is turned on.
 ------------------------------------------------------------------------------
 Polarizable Continuum Model (PCM)
 =================================
 Model                : PCM.
 Atomic radii         : SMD-Coulomb.
 Polarization charges : Total charges.
 Charge compensation  : None.
 Solution method      : On-the-fly selection.
 Cavity type          : VdW (van der Waals Surface) (Alpha=1.000).
 Cavity algorithm     : GePol (No added spheres)
                        Default sphere list used, NSphG=   21.
                        Lebedev-Laikov grids with approx.  5.0 points / Ang**2.
                        Smoothing algorithm: York/Karplus (Gamma=1.0000).
                        Polarization charges: spherical gaussians, with
                                              point-specific exponents (IZeta= 3).
                        Self-potential: point-specific (ISelfS= 7).
                        Self-field    : sphere-specific E.n sum rule (ISelfD= 2).
 1st derivatives      : Analytical E(r).r(x)/FMM algorithm (CHGder, D1EAlg=3).
                        Cavity 1st derivative terms included.
 Solvent              : Water, Eps=  78.355300 Eps(inf)=   1.777849
 ------------------------------------------------------------------------------
 ------------------------------------------------------------------------------
 Atomic radii for non-electrostatic terms: SMD-CDS.
 ------------------------------------------------------------------------------
 Nuclear repulsion after PCM non-electrostatic terms =     1170.7106907700 Hartrees.
 One-electron integrals computed using PRISM.
 NBasis=   288 RedAO= T EigKep=  1.61D-05  NBF=   288
 NBsUse=   288 1.00D-06 EigRej= -1.00D+00 NBFU=   288
 ExpMin= 4.05D-02 ExpMax= 2.19D+04 ExpMxC= 3.30D+03 IAcc=3 IRadAn=         5 AccDes= 0.00D+00
 Harris functional with IExCor= 1009 and IRadAn=       5 diagonalized for initial guess.
 HarFok:  IExCor= 1009 AccDes= 0.00D+00 IRadAn=         5 IDoV= 1 UseB2=F ITyADJ=14
 ICtDFT=  3500011 ScaDFX=  1.000000  1.000000  1.000000  1.000000
 FoFCou: FMM=F IPFlag=           0 FMFlag=      100000 FMFlg1=           0
         NFxFlg=           0 DoJE=T BraDBF=F KetDBF=T FulRan=T
         wScrn=  0.000000 ICntrl=       500 IOpCl=  0 I1Cent=   200000004 NGrid=           0
         NMat0=    1 NMatS0=      1 NMatT0=    0 NMatD0=    1 NMtDS0=    0 NMtDT0=    0
 Petite list used in FoFCou.
 Requested convergence on RMS density matrix=1.00D-08 within 128 cycles.
 Requested convergence on MAX density matrix=1.00D-06.
 Requested convergence on             energy=1.00D-06.
 No special actions if energy rises.
 Inv3:  Mode=1 IEnd=    10013787.
 Iteration    1 A*A^-1 deviation from unit magnitude is 5.44D-15 for   1796.
 Iteration    1 A*A^-1 deviation from orthogonality  is 2.24D-15 for   1814   1631.
 Iteration    1 A^-1*A deviation from unit magnitude is 5.44D-15 for   1796.
 Iteration    1 A^-1*A deviation from orthogonality  is 2.25D-15 for    907    874.
 Error on total polarization charges =  0.04991
 SCF Done:  E(RM062X) =  -1435.56746301     A.U. after   15 cycles
            NFock= 15  Conv=0.87D-08     -V/T= 2.0056
 SMD-CDS (non-electrostatic) energy       (kcal/mol) =       3.11
 (included in total energy above)

 **********************************************************************

            Population analysis using the SCF Density.

 **********************************************************************

 Orbital symmetries:
       Occupied  (A) (A) (A) (A) (A) (A) (A) (A) (A) (A) (A) (A)
                 (A) (A) (A) (A) (A) (A) (A) (A) (A) (A) (A) (A)
                 (A) (A) (A) (A) (A) (A) (A) (A) (A) (A) (A) (A)
                 (A) (A) (A) (A) (A) (A) (A) (A) (A) (A) (A) (A)
                 (A) (A) (A) (A) (A) (A) (A) (A) (A) (A) (A) (A)
                 (A)
       Virtual   (A) (A) (A) (A) (A) (A) (A) (A) (A) (A) (A) (A)
                 (A) (A) (A) (A) (A) (A) (A) (A) (A) (A) (A) (A)
                 (A) (A) (A) (A) (A) (A) (A) (A) (A) (A) (A) (A)
                 (A) (A) (A) (A) (A) (A) (A) (A) (A) (A) (A) (A)
                 (A) (A) (A) (A) (A) (A) (A) (A) (A) (A) (A) (A)
                 (A) (A) (A) (A) (A) (A) (A) (A) (A) (A) (A) (A)
                 (A) (A) (A) (A) (A) (A) (A) (A) (A) (A) (A) (A)
                 (A) (A) (A) (A) (A) (A) (A) (A) (A) (A) (A) (A)
                 (A) (A) (A) (A) (A) (A) (A) (A) (A) (A) (A) (A)
                 (A) (A) (A) (A) (A) (A) (A) (A) (A) (A) (A) (A)
                 (A) (A) (A) (A) (A) (A) (A) (A) (A) (A) (A) (A)
                 (A) (A) (A) (A) (A) (A) (A) (A) (A) (A) (A) (A)
                 (A) (A) (A) (A) (A) (A) (A) (A) (A) (A) (A) (A)
                 (A) (A) (A) (A) (A) (A) (A) (A) (A) (A) (A) (A)
                 (A) (A) (A) (A) (A) (A) (A) (A) (A) (A) (A) (A)
                 (A) (A) (A) (A) (A) (A) (A) (A) (A) (A) (A) (A)
                 (A) (A) (A) (A) (A) (A) (A) (A) (A) (A) (A) (A)
                 (A) (A) (A) (A) (A) (A) (A) (A) (A) (A) (A) (A)
                 (A) (A) (A) (A) (A) (A) (A) (A) (A) (A) (A)
 The electronic state is 1-A.
 Alpha  occ. eigenvalues --  -90.15369 -89.98205 -19.63333 -19.63310 -19.63266
 Alpha  occ. eigenvalues --  -14.87407 -14.83798 -14.76409 -14.73330 -10.69382
 Alpha  occ. eigenvalues --  -10.67141 -10.64492 -10.58674 -10.54254  -8.46160
 Alpha  occ. eigenvalues --   -8.32747  -6.38383  -6.38335  -6.38257  -6.24741
 Alpha  occ. eigenvalues --   -6.24519  -6.24216  -1.22676  -1.20354  -1.17275
 Alpha  occ. eigenvalues --   -1.10730  -1.04772  -0.99182  -0.97544  -0.91398
 Alpha  occ. eigenvalues --   -0.83639  -0.82293  -0.76903  -0.71723  -0.68134
 Alpha  occ. eigenvalues --   -0.63873  -0.58609  -0.58346  -0.57969  -0.56517
 Alpha  occ. eigenvalues --   -0.55569  -0.53722  -0.52724  -0.51830  -0.49270
 Alpha  occ. eigenvalues --   -0.48350  -0.46974  -0.46131  -0.43866  -0.43362
 Alpha  occ. eigenvalues --   -0.42125  -0.40971  -0.40562  -0.39334  -0.37095
 Alpha  occ. eigenvalues --   -0.36325  -0.36298  -0.34204  -0.33209  -0.31652
 Alpha  occ. eigenvalues --   -0.29049
 Alpha virt. eigenvalues --   -0.02257   0.01272   0.01329   0.02067   0.03251
 Alpha virt. eigenvalues --    0.03865   0.03955   0.04685   0.05443   0.05681
 Alpha virt. eigenvalues --    0.06018   0.06663   0.06826   0.07616   0.08194
 Alpha virt. eigenvalues --    0.08308   0.08921   0.09615   0.10221   0.10528
 Alpha virt. eigenvalues --    0.10826   0.11834   0.12142   0.12764   0.13123
 Alpha virt. eigenvalues --    0.14577   0.14714   0.15708   0.15848   0.16541
 Alpha virt. eigenvalues --    0.16904   0.17678   0.18475   0.18803   0.19384
 Alpha virt. eigenvalues --    0.19574   0.20297   0.21046   0.21952   0.22677
 Alpha virt. eigenvalues --    0.23217   0.23445   0.24069   0.24605   0.25307
 Alpha virt. eigenvalues --    0.25707   0.26121   0.26451   0.27350   0.27538
 Alpha virt. eigenvalues --    0.28781   0.28886   0.29305   0.29890   0.30112
 Alpha virt. eigenvalues --    0.30558   0.30996   0.31549   0.32017   0.32493
 Alpha virt. eigenvalues --    0.32672   0.33068   0.33702   0.34582   0.35064
 Alpha virt. eigenvalues --    0.35393   0.35919   0.37038   0.37337   0.38824
 Alpha virt. eigenvalues --    0.39907   0.41496   0.41931   0.42317   0.43177
 Alpha virt. eigenvalues --    0.45372   0.46596   0.48234   0.50624   0.52223
 Alpha virt. eigenvalues --    0.54952   0.56306   0.59522   0.62565   0.64133
 Alpha virt. eigenvalues --    0.65725   0.66679   0.68325   0.69022   0.69982
 Alpha virt. eigenvalues --    0.71838   0.72891   0.74384   0.75303   0.78345
 Alpha virt. eigenvalues --    0.78673   0.79593   0.80908   0.82292   0.85004
 Alpha virt. eigenvalues --    0.88524   0.90169   0.90975   0.92238   0.94443
 Alpha virt. eigenvalues --    0.97421   0.98488   0.99873   1.00931   1.01879
 Alpha virt. eigenvalues --    1.02682   1.03698   1.04257   1.06528   1.06890
 Alpha virt. eigenvalues --    1.07531   1.08021   1.09271   1.09662   1.11296
 Alpha virt. eigenvalues --    1.11750   1.13756   1.14096   1.15774   1.16216
 Alpha virt. eigenvalues --    1.18664   1.19089   1.20112   1.20521   1.22399
 Alpha virt. eigenvalues --    1.23991   1.27855   1.29729   1.31560   1.31634
 Alpha virt. eigenvalues --    1.34707   1.35069   1.36439   1.37109   1.37851
 Alpha virt. eigenvalues --    1.39588   1.39990   1.40677   1.43807   1.44185
 Alpha virt. eigenvalues --    1.45338   1.46766   1.49142   1.50674   1.51874
 Alpha virt. eigenvalues --    1.53519   1.56073   1.60921   1.62943   1.66048
 Alpha virt. eigenvalues --    1.70976   1.74762   1.75948   1.77329   1.78943
 Alpha virt. eigenvalues --    1.80844   1.82165   1.83063   1.84233   1.86333
 Alpha virt. eigenvalues --    1.86978   1.88452   1.89060   1.90544   1.92213
 Alpha virt. eigenvalues --    1.94400   1.97397   1.98132   1.99150   2.00152
 Alpha virt. eigenvalues --    2.03338   2.05956   2.06412   2.08666   2.10047
 Alpha virt. eigenvalues --    2.15637   2.19059   2.19447   2.23587   2.26791
 Alpha virt. eigenvalues --    2.29893   2.31318   2.32155   2.32934   2.33995
 Alpha virt. eigenvalues --    2.37656   2.38418   2.40399   2.43782   2.44556
 Alpha virt. eigenvalues --    2.47150   2.48107   2.51815   2.57120   2.58830
 Alpha virt. eigenvalues --    2.63163   2.65387   2.72088   2.82660   2.86507
 Alpha virt. eigenvalues --    2.87822   2.89770   2.92200   2.95656   3.09230
 Alpha virt. eigenvalues --    3.10340   3.20079   3.24813   3.97621   4.01000
 Alpha virt. eigenvalues --    4.06176   4.08026   4.13920   4.28226   4.29250
 Alpha virt. eigenvalues --    4.30934   4.31811   4.37004   4.42828   4.45362
 Alpha virt. eigenvalues --    4.50880   4.63642
          Condensed to atoms (all electrons):
               1          2          3          4          5          6
     1  C    8.645174  -0.270334   0.669448  -0.469315   0.121869  -1.040188
     2  N   -0.270334   8.411948  -1.479729   0.563793  -0.103276  -0.200416
     3  N    0.669448  -1.479729   8.611283  -0.553850  -0.088407  -0.163146
     4  C   -0.469315   0.563793  -0.553850   7.321826   0.427647  -0.122420
     5  N    0.121869  -0.103276  -0.088407   0.427647   7.258910  -0.149785
     6  S   -1.040188  -0.200416  -0.163146  -0.122420  -0.149785  17.462371
     7  S   -0.490957  -0.118277   0.134165  -0.286174   0.021018  -0.395127
     8  O    0.126236   0.012139  -0.011405   0.035583  -0.000322  -0.000604
     9  O   -0.198170   0.027705  -0.035390  -0.025719   0.000802  -0.020178
    10  N    0.010684   0.000401  -0.023760   0.042271   0.000192   0.071368
    11  H   -0.000638  -0.004921  -0.008441   0.001906  -0.000038   0.002818
    12  C   -0.011210   0.107491   0.051426  -0.206575   0.005535  -0.079757
    13  H    0.000224   0.079093  -0.115460   0.005525  -0.003089  -0.002972
    14  H    0.017973  -0.064224   0.042321  -0.016325  -0.003750  -0.002735
    15  H   -0.010458  -0.001988  -0.048001  -0.016325   0.025544  -0.004145
    16  C   -0.099547   0.077310  -0.104066  -0.083655   0.135001  -0.243707
    17  C    0.015745  -0.016282   0.023004  -0.176932  -0.151954   0.051369
    18  O   -0.048529  -0.002292  -0.009376  -0.043883  -0.163390   0.012172
    19  H    0.001874  -0.000203  -0.000469   0.009784   0.008335   0.000364
    20  H    0.000157   0.000037   0.000388  -0.004636  -0.000012   0.001127
    21  H   -0.000705  -0.000051  -0.000053  -0.005322   0.004178  -0.001286
               7          8          9         10         11         12
     1  C   -0.490957   0.126236  -0.198170   0.010684  -0.000638  -0.011210
     2  N   -0.118277   0.012139   0.027705   0.000401  -0.004921   0.107491
     3  N    0.134165  -0.011405  -0.035390  -0.023760  -0.008441   0.051426
     4  C   -0.286174   0.035583  -0.025719   0.042271   0.001906  -0.206575
     5  N    0.021018  -0.000322   0.000802   0.000192  -0.000038   0.005535
     6  S   -0.395127  -0.000604  -0.020178   0.071368   0.002818  -0.079757
     7  S   15.126751  -0.079859   0.391390   0.034752   0.041003   0.007200
     8  O   -0.079859   8.985761  -0.163107  -0.173649  -0.008086   0.000583
     9  O    0.391390  -0.163107   8.924894  -0.210839   0.013489   0.001326
    10  N    0.034752  -0.173649  -0.210839   7.975022   0.206985  -0.001268
    11  H    0.041003  -0.008086   0.013489   0.206985   0.331260  -0.000122
    12  C    0.007200   0.000583   0.001326  -0.001268  -0.000122   5.461322
    13  H   -0.000043  -0.000001  -0.000021   0.000404  -0.000000   0.385259
    14  H    0.001743   0.000001   0.000008  -0.000183   0.000000   0.379589
    15  H   -0.000456  -0.000001  -0.000008  -0.000004  -0.000000   0.390557
    16  C   -0.011002  -0.000672   0.002140   0.001447  -0.000019   0.035193
    17  C    0.001595  -0.000113   0.000029  -0.000215   0.000003   0.003292
    18  O   -0.007539  -0.000457  -0.000076  -0.000042  -0.000000  -0.002115
    19  H    0.000066   0.000000   0.000000   0.000000   0.000000   0.000190
    20  H    0.000005   0.000000  -0.000000   0.000000  -0.000000   0.000001
    21  H   -0.000024  -0.000000   0.000000  -0.000000   0.000000   0.000030
              13         14         15         16         17         18
     1  C    0.000224   0.017973  -0.010458  -0.099547   0.015745  -0.048529
     2  N    0.079093  -0.064224  -0.001988   0.077310  -0.016282  -0.002292
     3  N   -0.115460   0.042321  -0.048001  -0.104066   0.023004  -0.009376
     4  C    0.005525  -0.016325  -0.016325  -0.083655  -0.176932  -0.043883
     5  N   -0.003089  -0.003750   0.025544   0.135001  -0.151954  -0.163390
     6  S   -0.002972  -0.002735  -0.004145  -0.243707   0.051369   0.012172
     7  S   -0.000043   0.001743  -0.000456  -0.011002   0.001595  -0.007539
     8  O   -0.000001   0.000001  -0.000001  -0.000672  -0.000113  -0.000457
     9  O   -0.000021   0.000008  -0.000008   0.002140   0.000029  -0.000076
    10  N    0.000404  -0.000183  -0.000004   0.001447  -0.000215  -0.000042
    11  H   -0.000000   0.000000  -0.000000  -0.000019   0.000003  -0.000000
    12  C    0.385259   0.379589   0.390557   0.035193   0.003292  -0.002115
    13  H    0.423541  -0.024235  -0.020096  -0.000120  -0.000031   0.000011
    14  H   -0.024235   0.418154  -0.021893  -0.007008   0.000349  -0.000035
    15  H   -0.020096  -0.021893   0.420261   0.013432  -0.000381   0.000107
    16  C   -0.000120  -0.007008   0.013432   5.911583  -0.351641   0.475253
    17  C   -0.000031   0.000349  -0.000381  -0.351641   6.304565  -0.092304
    18  O    0.000011  -0.000035   0.000107   0.475253  -0.092304   8.472041
    19  H   -0.000000  -0.000000  -0.000002  -0.110657   0.430029   0.007907
    20  H    0.000000  -0.000000   0.000001  -0.032279   0.384166  -0.004474
    21  H    0.000000   0.000000   0.000000  -0.060768   0.414580  -0.003526
              19         20         21
     1  C    0.001874   0.000157  -0.000705
     2  N   -0.000203   0.000037  -0.000051
     3  N   -0.000469   0.000388  -0.000053
     4  C    0.009784  -0.004636  -0.005322
     5  N    0.008335  -0.000012   0.004178
     6  S    0.000364   0.001127  -0.001286
     7  S    0.000066   0.000005  -0.000024
     8  O    0.000000   0.000000  -0.000000
     9  O    0.000000  -0.000000   0.000000
    10  N    0.000000   0.000000  -0.000000
    11  H    0.000000  -0.000000   0.000000
    12  C    0.000190   0.000001   0.000030
    13  H   -0.000000   0.000000   0.000000
    14  H   -0.000000  -0.000000   0.000000
    15  H   -0.000002   0.000001   0.000000
    16  C   -0.110657  -0.032279  -0.060768
    17  C    0.430029   0.384166   0.414580
    18  O    0.007907  -0.004474  -0.003526
    19  H    0.446656  -0.022040  -0.020740
    20  H   -0.022040   0.433543  -0.020862
    21  H   -0.020740  -0.020862   0.427595
 Mulliken charges:
               1
     1  C   -0.969334
     2  N   -0.017924
     3  N    0.109518
     4  C   -0.397202
     5  N   -0.345005
     6  S    0.824875
     7  S    1.629770
     8  O   -0.722027
     9  O   -0.708275
    10  N   -0.933566
    11  H    0.424802
    12  C   -0.527947
    13  H    0.272012
    14  H    0.280250
    15  H    0.273856
    16  C    0.453783
    17  C   -0.838872
    18  O   -0.589453
    19  H    0.248907
    20  H    0.264877
    21  H    0.266954
 Sum of Mulliken charges =  -1.00000
 Mulliken charges with hydrogens summed into heavy atoms:
               1
     1  C   -0.969334
     2  N   -0.017924
     3  N    0.109518
     4  C   -0.397202
     5  N   -0.345005
     6  S    0.824875
     7  S    1.629770
     8  O   -0.722027
     9  O   -0.708275
    10  N   -0.508764
    12  C    0.298171
    16  C    0.453783
    17  C   -0.058134
    18  O   -0.589453
 Electronic spatial extent (au):  <R**2>=           3978.3144
 Charge=             -1.0000 electrons
 Dipole moment (field-independent basis, Debye):
    X=             13.7773    Y=              6.9695    Z=             -0.0973  Tot=             15.4402
 Quadrupole moment (field-independent basis, Debye-Ang):
   XX=           -153.0563   YY=           -102.7992   ZZ=           -104.7337
   XY=              2.1151   XZ=             18.7315   YZ=             -6.4492
 Traceless Quadrupole moment (field-independent basis, Debye-Ang):
   XX=            -32.8599   YY=             17.3972   ZZ=             15.4627
   XY=              2.1151   XZ=             18.7315   YZ=             -6.4492
 Octapole moment (field-independent basis, Debye-Ang**2):
  XXX=            223.2874  YYY=             54.2439  ZZZ=            -15.0743  XYY=             34.8569
  XXY=             10.7494  XXZ=             -1.7951  XZZ=              3.8096  YZZ=             11.9034
  YYZ=             14.0513  XYZ=            -16.8616
 Hexadecapole moment (field-independent basis, Debye-Ang**3):
 XXXX=          -4470.3738 YYYY=           -946.5680 ZZZZ=           -310.7999 XXXY=              4.1958
 XXXZ=            186.0512 YYYX=             40.3363 YYYZ=            -22.4169 ZZZX=             63.4113
 ZZZY=             -7.1032 XXYY=           -958.0789 XXZZ=           -763.3350 YYZZ=           -228.2474
 XXYZ=            -54.0992 YYXZ=              7.8484 ZZXY=              0.1639
 N-N= 1.170710690770D+03 E-N=-5.742439065054D+03  KE= 1.427624768810D+03
 D1PCM: PCM CHGder 1st derivatives, ID1Alg=3 FixD1E=F DoIter=F DoCFld=F I1PDM=0.
 Calling FoFJK, ICntrl=      2127 FMM=F ISym2X=0 I1Cent= 0 IOpClX= 0 NMat=1 NMatS=1 NMatT=0.
 ***** Axes restored to original set *****
 -------------------------------------------------------------------
 Center     Atomic                   Forces (Hartrees/Bohr)
 Number     Number              X              Y              Z
 -------------------------------------------------------------------
      1        6           0.000220424    0.000879049    0.001327398
      2        7           0.001693732    0.000389773    0.000850862
      3        7           0.004108602    0.004160431   -0.006346859
      4        6           0.015670201   -0.012420091   -0.000470055
      5        7          -0.011894594    0.028182722   -0.003925267
      6       16          -0.003820670   -0.007646586    0.006880113
      7       16          -0.000213095    0.000007556   -0.002193264
      8        8          -0.000008448   -0.000128990    0.000647995
      9        8           0.000185282    0.000251529    0.000306068
     10        7          -0.000538333   -0.000132892    0.000471287
     11        1           0.000104481    0.000101442   -0.000036449
     12        6           0.001622971    0.000499863   -0.002001447
     13        1          -0.000279810   -0.000210955   -0.000208214
     14        1           0.000536186   -0.000557684   -0.000230436
     15        1           0.000123691   -0.001729611    0.000051035
     16        6          -0.006417570   -0.008494693   -0.002030651
     17        6          -0.006616521    0.003008260    0.001603702
     18        8           0.007125227   -0.004816725    0.002787317
     19        1          -0.001068901   -0.000716832    0.001858422
     20        1           0.000596038   -0.000269889   -0.000065441
     21        1          -0.001128893   -0.000355678    0.000723885
 -------------------------------------------------------------------
 Cartesian Forces:  Max     0.028182722 RMS     0.005391382

 GradGradGradGradGradGradGradGradGradGradGradGradGradGradGradGradGradGrad
 Berny optimization.
 FormGI is forming the generalized inverse of G from B-inverse, IUseBI=4.
 Internal  Forces:  Max     0.025836856 RMS     0.005048142
 Search for a local minimum.
 Step number   1 out of a maximum of  102
 All quantities printed in internal units (Hartrees-Bohrs-Radians)
 Mixed Optimization -- RFO/linear search
 Second derivative matrix not updated -- first step.
 ITU=  0
     Eigenvalues ---    0.00230   0.00599   0.00895   0.01015   0.01034
     Eigenvalues ---    0.01418   0.01860   0.02163   0.02166   0.02320
     Eigenvalues ---    0.03015   0.03376   0.06926   0.07515   0.07661
     Eigenvalues ---    0.07854   0.10601   0.12072   0.16000   0.16000
     Eigenvalues ---    0.16000   0.16000   0.16000   0.16000   0.16000
     Eigenvalues ---    0.16722   0.21516   0.24523   0.24931   0.24933
     Eigenvalues ---    0.24963   0.24969   0.24980   0.24987   0.25000
     Eigenvalues ---    0.25000   0.25000   0.29503   0.31067   0.31090
     Eigenvalues ---    0.34304   0.34342   0.34629   0.34632   0.34708
     Eigenvalues ---    0.34862   0.36934   0.43859   0.49986   0.51680
     Eigenvalues ---    0.52122   0.64087   0.67208   0.69054   0.81311
     Eigenvalues ---    0.83476   0.88002
 RFO step:  Lambda=-1.14686983D-02 EMin= 2.30000000D-03
 Linear search not attempted -- first point.
 Iteration  1 RMS(Cart)=  0.13885743 RMS(Int)=  0.00743437
 Iteration  2 RMS(Cart)=  0.01184702 RMS(Int)=  0.00073697
 Iteration  3 RMS(Cart)=  0.00009421 RMS(Int)=  0.00073447
 Iteration  4 RMS(Cart)=  0.00000008 RMS(Int)=  0.00073447
 Variable       Old X    -DE/DX   Delta X   Delta X   Delta X     New X
                                 (Linear)    (Quad)   (Total)
    R1        2.42387   0.00037   0.00000   0.00081   0.00093   2.42480
    R2        3.28426   0.00091   0.00000   0.00393   0.00401   3.28828
    R3        3.44138  -0.00068   0.00000  -0.00265  -0.00265   3.43873
    R4        2.57498  -0.00002   0.00000  -0.00044  -0.00044   2.57453
    R5        2.56536  -0.00847   0.00000  -0.01621  -0.01633   2.54903
    R6        2.75945  -0.00117   0.00000  -0.00307  -0.00307   2.75638
    R7        2.45654  -0.00829   0.00000  -0.01213  -0.01213   2.44441
    R8        3.31926   0.00791   0.00000   0.02525   0.02517   3.34442
    R9        2.57783  -0.00058   0.00000  -0.00109  -0.00109   2.57674
   R10        2.80916   0.00009   0.00000   0.00011   0.00011   2.80927
   R11        2.79794   0.00043   0.00000   0.00050   0.00050   2.79844
   R12        2.91546   0.00049   0.00000   0.00075   0.00075   2.91621
   R13        1.93324  -0.00010   0.00000  -0.00022  -0.00022   1.93302
   R14        2.05899  -0.00013   0.00000  -0.00037  -0.00037   2.05863
   R15        2.06276  -0.00000   0.00000  -0.00000  -0.00000   2.06276
   R16        2.06152  -0.00086   0.00000  -0.00241  -0.00241   2.05912
   R17        2.85841  -0.00762   0.00000  -0.02363  -0.02363   2.83478
   R18        2.33868   0.00447   0.00000   0.00501   0.00501   2.34369
   R19        2.06282  -0.00071   0.00000  -0.00199  -0.00199   2.06083
   R20        2.06821   0.00015   0.00000   0.00043   0.00043   2.06864
   R21        2.06756  -0.00056   0.00000  -0.00158  -0.00158   2.06598
    A1        2.01347  -0.00004   0.00000   0.00201   0.00181   2.01528
    A2        2.13600  -0.00095   0.00000  -0.00421  -0.00421   2.13179
    A3        2.13225   0.00100   0.00000   0.00327   0.00328   2.13553
    A4        1.93711   0.00061   0.00000   0.00214   0.00183   1.93894
    A5        2.04175   0.00102   0.00000   0.00187   0.00143   2.04318
    A6        2.04873   0.00496   0.00000   0.02007   0.02026   2.06899
    A7        2.19089  -0.00596   0.00000  -0.02158  -0.02136   2.16953
    A8        2.26334  -0.02584   0.00000  -0.09775  -0.09761   2.16573
    A9        1.88796   0.00108   0.00000   0.00261   0.00205   1.89001
   A10        2.13005   0.02478   0.00000   0.09632   0.09657   2.22662
   A11        2.18551  -0.01022   0.00000  -0.03909  -0.03909   2.14642
   A12        1.54437  -0.00265   0.00000  -0.00825  -0.00868   1.53569
   A13        1.74976   0.00082   0.00000   0.00467   0.00467   1.75443
   A14        1.78750  -0.00017   0.00000  -0.00074  -0.00074   1.78676
   A15        1.91661   0.00031   0.00000   0.00199   0.00199   1.91860
   A16        1.99685  -0.00024   0.00000  -0.00202  -0.00203   1.99482
   A17        2.04843  -0.00039   0.00000  -0.00118  -0.00119   2.04723
   A18        1.93439  -0.00015   0.00000  -0.00161  -0.00161   1.93278
   A19        1.90394  -0.00017   0.00000  -0.00100  -0.00100   1.90294
   A20        1.87850   0.00093   0.00000   0.00776   0.00777   1.88627
   A21        1.93033  -0.00089   0.00000  -0.00666  -0.00670   1.92363
   A22        1.90064  -0.00156   0.00000  -0.01005  -0.01009   1.89055
   A23        1.92189   0.00032   0.00000   0.00362   0.00362   1.92551
   A24        1.90702   0.00096   0.00000   0.00863   0.00865   1.91566
   A25        1.92465   0.00026   0.00000  -0.00300  -0.00310   1.92156
   A26        2.09087  -0.01620   0.00000  -0.05748  -0.06091   2.02996
   A27        2.10493   0.01439   0.00000   0.05982   0.05634   2.16127
   A28        2.08228   0.00206   0.00000   0.01206   0.00868   2.09096
   A29        1.98238  -0.00260   0.00000  -0.01594  -0.01602   1.96635
   A30        1.87726   0.00158   0.00000   0.01240   0.01244   1.88970
   A31        1.90528  -0.00171   0.00000  -0.01244  -0.01255   1.89273
   A32        1.89918   0.00128   0.00000   0.01184   0.01189   1.91107
   A33        1.91607   0.00125   0.00000   0.00177   0.00156   1.91763
   A34        1.88070   0.00035   0.00000   0.00365   0.00369   1.88439
    D1       -0.01311   0.00001   0.00000  -0.01188  -0.01228  -0.02539
    D2        3.07139   0.00040   0.00000   0.00892   0.00859   3.07998
    D3        0.00585   0.00084   0.00000   0.03811   0.03811   0.04396
    D4       -3.07877   0.00053   0.00000   0.01763   0.01745  -3.06132
    D5        2.63646  -0.00011   0.00000  -0.00875  -0.00879   2.62767
    D6       -1.58678  -0.00013   0.00000  -0.00954  -0.00959  -1.59637
    D7        0.46922  -0.00026   0.00000  -0.01091  -0.01096   0.45826
    D8       -0.56609   0.00026   0.00000   0.01340   0.01345  -0.55264
    D9        1.49385   0.00023   0.00000   0.01260   0.01265   1.50650
   D10       -2.73333   0.00011   0.00000   0.01124   0.01128  -2.72205
   D11        0.01622  -0.00122   0.00000  -0.03291  -0.03283  -0.01662
   D12       -3.06419  -0.00130   0.00000  -0.03802  -0.03785  -3.10205
   D13       -3.08802   0.00026   0.00000   0.03406   0.03512  -3.05290
   D14       -0.01152   0.00180   0.00000   0.05962   0.05960   0.04808
   D15       -0.01319   0.00079   0.00000   0.04136   0.04215   0.02896
   D16        3.06331   0.00234   0.00000   0.06692   0.06663   3.12994
   D17        0.61573   0.00014   0.00000   0.00518   0.00507   0.62080
   D18       -1.48442  -0.00030   0.00000  -0.00013  -0.00021  -1.48462
   D19        2.68116   0.00095   0.00000   0.01431   0.01415   2.69531
   D20       -2.45885  -0.00026   0.00000  -0.00151  -0.00139  -2.46024
   D21        1.72418  -0.00071   0.00000  -0.00682  -0.00666   1.71752
   D22       -0.39343   0.00055   0.00000   0.00762   0.00769  -0.38573
   D23       -2.79046  -0.00315   0.00000  -0.07102  -0.07102  -2.86148
   D24        0.42411  -0.00378   0.00000  -0.09534  -0.09534   0.32877
   D25        0.00319  -0.00140   0.00000  -0.05167  -0.05173  -0.04854
   D26        3.08569  -0.00218   0.00000  -0.03684  -0.03508   3.05061
   D27       -2.63918  -0.00264   0.00000  -0.04492  -0.04327  -2.68244
   D28        0.61158  -0.00544   0.00000  -0.19900  -0.20066   0.41092
   D29        1.33379   0.00034   0.00000   0.00153   0.00153   1.33532
   D30       -0.64802  -0.00070   0.00000  -0.00518  -0.00518  -0.65320
   D31       -2.98705   0.00023   0.00000   0.00088   0.00087  -2.98618
   D32        0.07547  -0.00085   0.00000  -0.06253  -0.06201   0.01345
   D33       -2.02730  -0.00194   0.00000  -0.07605  -0.07542  -2.10272
   D34        2.21988  -0.00232   0.00000  -0.08059  -0.07986   2.14001
   D35        3.10932   0.00271   0.00000   0.09262   0.09189  -3.08197
   D36        1.00656   0.00162   0.00000   0.07910   0.07848   1.08504
   D37       -1.02946   0.00125   0.00000   0.07457   0.07405  -0.95541
         Item               Value     Threshold  Converged?
 Maximum Force            0.025837     0.000450     NO 
 RMS     Force            0.005048     0.000300     NO 
 Maximum Displacement     0.530873     0.001800     NO 
 RMS     Displacement     0.143247     0.001200     NO 
 Predicted change in Energy=-6.555425D-03
 GradGradGradGradGradGradGradGradGradGradGradGradGradGradGradGradGradGrad

                          Input orientation:                          
 ---------------------------------------------------------------------
 Center     Atomic      Atomic             Coordinates (Angstroms)
 Number     Number       Type             X           Y           Z
 ---------------------------------------------------------------------
      1          6           0       -0.823974    0.430566   -0.710066
      2          7           0       -1.582111    1.271590   -1.313701
      3          7           0       -1.046284    1.644364   -2.509535
      4          6           0        0.147425    1.110391   -2.840348
      5          7           0        0.821947    1.439610   -3.893838
      6         16           0        0.618973   -0.026399   -1.568533
      7         16           0       -1.205323   -0.194630    0.955767
      8          8           0       -0.578472   -1.541023    0.890493
      9          8           0       -0.492484    0.767749    1.826782
     10          7           0       -2.727071   -0.133767    1.204794
     11          1           0       -3.177908   -0.904022    0.704994
     12          6           0       -1.752933    2.637581   -3.310613
     13          1           0       -2.209006    3.357107   -2.631625
     14          1           0       -2.518155    2.154671   -3.921143
     15          1           0       -1.027804    3.141739   -3.948833
     16          6           0        1.848756    0.687410   -4.382846
     17          6           0        2.893729    1.420778   -5.170567
     18          8           0        1.977963   -0.527294   -4.168454
     19          1           0        2.694734    2.490857   -5.238539
     20          1           0        2.929412    0.991171   -6.176789
     21          1           0        3.864896    1.252697   -4.697468
 ---------------------------------------------------------------------
                    Distance matrix (angstroms):
                    1          2          3          4          5
     1  C    0.000000
     2  N    1.283147   0.000000
     3  N    2.181930   1.362385   0.000000
     4  C    2.438008   2.312560   1.348890   0.000000
     5  N    3.723390   3.530557   2.334203   1.293524   0.000000
     6  S    1.740081   2.567973   2.539688   1.769792   2.756342
     7  S    1.819697   2.728050   3.926260   4.235977   5.504474
     8  O    2.551318   3.711678   4.682492   4.634231   5.808198
     9  O    2.580537   3.362108   4.458564   4.723239   5.908013
    10  N    2.758067   3.103027   4.447813   5.116037   6.408361
    11  H    3.053608   3.369716   4.622910   5.261668   6.529985
    12  C    3.535071   2.425443   1.458615   2.482905   2.899188
    13  H    3.765015   2.545447   2.073720   3.262524   3.802191
    14  H    4.019179   2.907708   2.102250   3.060058   3.415895
    15  H    4.228666   3.278511   2.077029   2.595434   2.514329
    16  C    4.549590   4.640233   3.578590   2.335109   1.363550
    17  C    5.890493   5.910230   4.759703   3.615030   2.433654
    18  O    4.552889   4.905072   4.076049   2.792265   2.297933
    19  H    6.093700   5.931473   4.707359   3.761089   2.533905
    20  H    6.654867   6.639435   5.448079   4.345745   3.139167
    21  H    6.209733   6.412497   5.390746   4.157972   3.152824
                    6          7          8          9         10
     6  S    0.000000
     7  S    3.119046   0.000000
     8  O    3.126463   1.486600   0.000000
     9  O    3.659805   1.480871   2.492882   0.000000
    10  N    4.347285   1.543191   2.587593   2.488570   0.000000
    11  H    4.511702   2.111212   2.682769   3.356297   1.022910
    12  C    3.969581   5.150078   6.040644   5.610511   5.386856
    13  H    4.536049   5.146998   6.249450   5.434023   5.212744
    14  H    4.487027   5.570188   6.369644   6.250243   5.617456
    15  H    4.291247   5.934473   6.749017   6.267385   6.338479
    16  C    3.153132   6.213387   6.218155   6.636816   7.268716
    17  C    4.499276   7.546108   7.587153   7.801011   8.640326
    18  O    2.976128   6.041657   5.758121   6.612344   7.152902
    19  H    4.910632   7.796904   8.033366   7.940165   8.820497
    20  H    5.254484   8.329197   8.286358   8.707263   9.367446
    21  H    4.686399   7.730520   7.666400   7.860520   8.956172
                   11         12         13         14         15
    11  H    0.000000
    12  C    5.540633   0.000000
    13  H    5.498092   1.089378   0.000000
    14  H    5.584982   1.091565   1.790051   0.000000
    15  H    6.530638   1.089638   1.782318   1.787796   0.000000
    16  C    7.327081   4.233794   5.163282   4.629895   3.806139
    17  C    8.763087   5.150874   6.019426   5.602512   4.453399
    18  O    7.104606   4.967083   5.914484   5.241104   4.748123
    19  H    9.018798   4.849759   5.620770   5.387278   3.993029
    20  H    9.394150   5.731491   6.676016   6.009797   5.024768
    21  H    9.134502   5.949897   6.751928   6.493040   5.297872
                   16         17         18         19         20
    16  C    0.000000
    17  C    1.500101   0.000000
    18  O    1.240227   2.374414   0.000000
    19  H    2.168021   1.090545   3.281475   0.000000
    20  H    2.116204   1.094677   2.691542   1.784502   0.000000
    21  H    2.117394   1.093271   2.647402   1.787478   1.769722
                   21
    21  H    0.000000
 Stoichiometry    C5H7N4O3S2(1-)
 Framework group  C1[X(C5H7N4O3S2)]
 Deg. of freedom    57
 Full point group                 C1      NOp   1
 Largest Abelian subgroup         C1      NOp   1
 Largest concise Abelian subgroup C1      NOp   1
                         Standard orientation:                         
 ---------------------------------------------------------------------
 Center     Atomic      Atomic             Coordinates (Angstroms)
 Number     Number       Type             X           Y           Z
 ---------------------------------------------------------------------
      1          6           0       -1.085953    0.180044   -0.034243
      2          7           0       -0.768738    1.421367   -0.104672
      3          7           0        0.584034    1.582819   -0.098946
      4          6           0        1.334996    0.466344   -0.003844
      5          7           0        2.623635    0.466795    0.108470
      6         16           0        0.251176   -0.932718    0.007341
      7         16           0       -2.816392   -0.372346    0.074109
      8          8           0       -2.720381   -1.697982   -0.591812
      9          8           0       -3.036941   -0.439883    1.536906
     10          7           0       -3.745138    0.677952   -0.570672
     11          1           0       -3.680564    0.600224   -1.588579
     12          6           0        1.124399    2.937438   -0.122847
     13          1           0        0.463182    3.575471    0.462345
     14          1           0        1.189044    3.299677   -1.150523
     15          1           0        2.114995    2.919091    0.330686
     16          6           0        3.388400   -0.640161   -0.113008
     17          6           0        4.704107   -0.693901    0.605552
     18          8           0        3.032328   -1.595401   -0.819331
     19          1           0        4.873476    0.178288    1.237919
     20          1           0        5.500811   -0.763459   -0.141939
     21          1           0        4.730215   -1.603250    1.211888
 ---------------------------------------------------------------------
 Rotational constants (GHZ):           1.2057670           0.3167424           0.2698912
 Basis read from rwf:  (6D, 7F)
 There are   288 symmetry adapted cartesian basis functions of A   symmetry.
 There are   288 symmetry adapted basis functions of A   symmetry.
   288 basis functions,   524 primitive gaussians,   288 cartesian basis functions
    61 alpha electrons       61 beta electrons
       nuclear repulsion energy      1171.4406331691 Hartrees.
 NAtoms=   21 NActive=   21 NUniq=   21 SFac= 1.00D+00 NAtFMM=   60 NAOKFM=F Big=F
 Integral buffers will be    131072 words long.
 Raffenetti 2 integral format.
 Two-electron integral symmetry is turned on.
 ------------------------------------------------------------------------------
 Polarizable Continuum Model (PCM)
 =================================
 Model                : PCM.
 Atomic radii         : SMD-Coulomb.
 Polarization charges : Total charges.
 Charge compensation  : None.
 Solution method      : On-the-fly selection.
 Cavity type          : VdW (van der Waals Surface) (Alpha=1.000).
 Cavity algorithm     : GePol (No added spheres)
                        Default sphere list used, NSphG=   21.
                        Lebedev-Laikov grids with approx.  5.0 points / Ang**2.
                        Smoothing algorithm: York/Karplus (Gamma=1.0000).
                        Polarization charges: spherical gaussians, with
                                              point-specific exponents (IZeta= 3).
                        Self-potential: point-specific (ISelfS= 7).
                        Self-field    : sphere-specific E.n sum rule (ISelfD= 2).
 1st derivatives      : Analytical E(r).r(x)/FMM algorithm (CHGder, D1EAlg=3).
                        Cavity 1st derivative terms included.
 Solvent              : Water, Eps=  78.355300 Eps(inf)=   1.777849
 ------------------------------------------------------------------------------
 ------------------------------------------------------------------------------
 Atomic radii for non-electrostatic terms: SMD-CDS.
 ------------------------------------------------------------------------------
 Nuclear repulsion after PCM non-electrostatic terms =     1171.4458369391 Hartrees.
 One-electron integrals computed using PRISM.
 NBasis=   288 RedAO= T EigKep=  1.54D-05  NBF=   288
 NBsUse=   288 1.00D-06 EigRej= -1.00D+00 NBFU=   288
 Initial guess from the checkpoint file:  "/jobfs/40783720.gadi-pbs/Gau-1389443.chk"
 B after Tr=    -0.000000   -0.000000    0.000000
         Rot=    0.999945    0.008316   -0.001108    0.006340 Ang=   1.21 deg.
 ExpMin= 4.05D-02 ExpMax= 2.19D+04 ExpMxC= 3.30D+03 IAcc=3 IRadAn=         5 AccDes= 0.00D+00
 Harris functional with IExCor= 1009 and IRadAn=       5 diagonalized for initial guess.
 HarFok:  IExCor= 1009 AccDes= 0.00D+00 IRadAn=         5 IDoV= 1 UseB2=F ITyADJ=14
 ICtDFT=  3500011 ScaDFX=  1.000000  1.000000  1.000000  1.000000
 FoFCou: FMM=F IPFlag=           0 FMFlag=      100000 FMFlg1=           0
         NFxFlg=           0 DoJE=T BraDBF=F KetDBF=T FulRan=T
         wScrn=  0.000000 ICntrl=       500 IOpCl=  0 I1Cent=   200000004 NGrid=           0
         NMat0=    1 NMatS0=      1 NMatT0=    0 NMatD0=    1 NMtDS0=    0 NMtDT0=    0
 Petite list used in FoFCou.
 Requested convergence on RMS density matrix=1.00D-08 within 128 cycles.
 Requested convergence on MAX density matrix=1.00D-06.
 Requested convergence on             energy=1.00D-06.
 No special actions if energy rises.
 Inv3:  Mode=1 IEnd=    10068672.
 Iteration    1 A*A^-1 deviation from unit magnitude is 7.11D-15 for   1818.
 Iteration    1 A*A^-1 deviation from orthogonality  is 1.75D-15 for   1157    906.
 Iteration    1 A^-1*A deviation from unit magnitude is 7.33D-15 for   1818.
 Iteration    1 A^-1*A deviation from orthogonality  is 1.42D-15 for   1350    952.
 Error on total polarization charges =  0.04973
 SCF Done:  E(RM062X) =  -1435.57431976     A.U. after   14 cycles
            NFock= 14  Conv=0.46D-08     -V/T= 2.0055
 SMD-CDS (non-electrostatic) energy       (kcal/mol) =       3.27
 (included in total energy above)
 D1PCM: PCM CHGder 1st derivatives, ID1Alg=3 FixD1E=F DoIter=F DoCFld=F I1PDM=0.
 Calling FoFJK, ICntrl=      2127 FMM=F ISym2X=0 I1Cent= 0 IOpClX= 0 NMat=1 NMatS=1 NMatT=0.
 ***** Axes restored to original set *****
 -------------------------------------------------------------------
 Center     Atomic                   Forces (Hartrees/Bohr)
 Number     Number              X              Y              Z
 -------------------------------------------------------------------
      1        6          -0.000459603    0.000980291   -0.001744172
      2        7          -0.000624820    0.001703664   -0.000200905
      3        7          -0.001244480    0.002661861    0.005046767
      4        6           0.002366137   -0.012415162    0.003630900
      5        7          -0.001644733    0.010695184   -0.010880294
      6       16          -0.001067159   -0.001647176   -0.001266761
      7       16           0.000344812   -0.000336703   -0.000058660
      8        8           0.000008112    0.000107958   -0.000331193
      9        8           0.000063115    0.000405200    0.000116226
     10        7          -0.000222333   -0.000041355   -0.000030619
     11        1          -0.000059793   -0.000023010   -0.000168603
     12        6           0.000338161    0.000579826   -0.000423143
     13        1          -0.000439683   -0.000334915    0.000099200
     14        1           0.000078519   -0.000327117   -0.000142811
     15        1          -0.000482599   -0.000659932    0.000257054
     16        6           0.007118840   -0.002256849    0.012156671
     17        6          -0.003254753    0.000300481   -0.006176355
     18        8          -0.002493771    0.000772894    0.000463955
     19        1          -0.000254565   -0.000510500    0.000174005
     20        1           0.001811078    0.000670904   -0.000740870
     21        1           0.000119517   -0.000325541    0.000219610
 -------------------------------------------------------------------
 Cartesian Forces:  Max     0.012415162 RMS     0.003385679

 GradGradGradGradGradGradGradGradGradGradGradGradGradGradGradGradGradGrad
 Berny optimization.
 Using GEDIIS/GDIIS optimizer.
 FormGI is forming the generalized inverse of G from B-inverse, IUseBI=4.
 Internal  Forces:  Max     0.013575126 RMS     0.002238254
 Search for a local minimum.
 Step number   2 out of a maximum of  102
 All quantities printed in internal units (Hartrees-Bohrs-Radians)
 Mixed Optimization -- RFO/linear search
 Update second derivatives using D2CorX and points    1    2
 DE= -6.86D-03 DEPred=-6.56D-03 R= 1.05D+00
 TightC=F SS=  1.41D+00  RLast= 3.79D-01 DXNew= 5.0454D-01 1.1379D+00
 Trust test= 1.05D+00 RLast= 3.79D-01 DXMaxT set to 5.05D-01
 ITU=  1  0
 Use linear search instead of GDIIS.
     Eigenvalues ---    0.00230   0.00600   0.00895   0.01006   0.01274
     Eigenvalues ---    0.01430   0.01620   0.01977   0.02122   0.02329
     Eigenvalues ---    0.02787   0.03376   0.07039   0.07598   0.07660
     Eigenvalues ---    0.07836   0.10558   0.12072   0.15608   0.16000
     Eigenvalues ---    0.16000   0.16000   0.16000   0.16000   0.16049
     Eigenvalues ---    0.16770   0.19763   0.21541   0.24523   0.24960
     Eigenvalues ---    0.24976   0.24985   0.24990   0.24992   0.24997
     Eigenvalues ---    0.25000   0.28846   0.30226   0.31059   0.33370
     Eigenvalues ---    0.34315   0.34373   0.34629   0.34636   0.34727
     Eigenvalues ---    0.34863   0.36935   0.43859   0.50086   0.52104
     Eigenvalues ---    0.52889   0.64085   0.69047   0.69607   0.81312
     Eigenvalues ---    0.83475   0.88153
 RFO step:  Lambda=-7.76559838D-03 EMin= 2.29953538D-03
 Quartic linear search produced a step of  0.17573.
 Iteration  1 RMS(Cart)=  0.17124569 RMS(Int)=  0.02488016
 Iteration  2 RMS(Cart)=  0.07545549 RMS(Int)=  0.00326202
 Iteration  3 RMS(Cart)=  0.00623569 RMS(Int)=  0.00090389
 Iteration  4 RMS(Cart)=  0.00003240 RMS(Int)=  0.00090379
 Iteration  5 RMS(Cart)=  0.00000003 RMS(Int)=  0.00090379
 Variable       Old X    -DE/DX   Delta X   Delta X   Delta X     New X
                                 (Linear)    (Quad)   (Total)
    R1        2.42480  -0.00059   0.00016  -0.00063  -0.00041   2.42439
    R2        3.28828   0.00084   0.00070   0.00471   0.00546   3.29374
    R3        3.43873  -0.00050  -0.00047  -0.00358  -0.00404   3.43469
    R4        2.57453  -0.00227  -0.00008  -0.00510  -0.00517   2.56936
    R5        2.54903   0.00375  -0.00287  -0.00069  -0.00361   2.54542
    R6        2.75638  -0.00014  -0.00054  -0.00205  -0.00259   2.75380
    R7        2.44441   0.00700  -0.00213   0.00509   0.00296   2.44736
    R8        3.34442  -0.00129   0.00442   0.00886   0.01324   3.35766
    R9        2.57674   0.00089  -0.00019   0.00130   0.00111   2.57785
   R10        2.80927  -0.00009   0.00002  -0.00006  -0.00004   2.80922
   R11        2.79844   0.00037   0.00009   0.00077   0.00086   2.79930
   R12        2.91621   0.00024   0.00013   0.00082   0.00096   2.91716
   R13        1.93302   0.00011  -0.00004   0.00016   0.00012   1.93314
   R14        2.05863   0.00003  -0.00006  -0.00010  -0.00017   2.05846
   R15        2.06276   0.00016  -0.00000   0.00051   0.00051   2.06327
   R16        2.05912  -0.00077  -0.00042  -0.00372  -0.00414   2.05498
   R17        2.83478   0.00236  -0.00415  -0.00403  -0.00818   2.82660
   R18        2.34369  -0.00093   0.00088   0.00152   0.00240   2.34609
   R19        2.06083  -0.00048  -0.00035  -0.00257  -0.00292   2.05791
   R20        2.06864   0.00049   0.00008   0.00180   0.00188   2.07052
   R21        2.06598   0.00025  -0.00028  -0.00005  -0.00032   2.06566
    A1        2.01528   0.00189   0.00032   0.00821   0.00843   2.02371
    A2        2.13179  -0.00075  -0.00074  -0.00502  -0.00577   2.12602
    A3        2.13553  -0.00114   0.00058  -0.00288  -0.00231   2.13322
    A4        1.93894  -0.00167   0.00032  -0.00749  -0.00729   1.93165
    A5        2.04318   0.00119   0.00025   0.00660   0.00657   2.04975
    A6        2.06899  -0.00084   0.00356   0.00688   0.01047   2.07946
    A7        2.16953  -0.00032  -0.00375  -0.01239  -0.01612   2.15340
    A8        2.16573  -0.00180  -0.01715  -0.05916  -0.07624   2.08950
    A9        1.89001  -0.00077   0.00036  -0.00145  -0.00132   1.88869
   A10        2.22662   0.00256   0.01697   0.06063   0.07772   2.30434
   A11        2.14642  -0.01358  -0.00687  -0.07958  -0.08645   2.05997
   A12        1.53569  -0.00064  -0.00152  -0.00702  -0.00872   1.52697
   A13        1.75443  -0.00043   0.00082  -0.00056   0.00026   1.75469
   A14        1.78676   0.00004  -0.00013  -0.00025  -0.00038   1.78638
   A15        1.91860  -0.00025   0.00035  -0.00084  -0.00049   1.91811
   A16        1.99482   0.00022  -0.00036   0.00111   0.00075   1.99557
   A17        2.04723   0.00020  -0.00021  -0.00004  -0.00025   2.04698
   A18        1.93278   0.00010  -0.00028   0.00030   0.00001   1.93280
   A19        1.90294  -0.00000  -0.00018  -0.00053  -0.00071   1.90223
   A20        1.88627   0.00006   0.00137   0.00474   0.00611   1.89238
   A21        1.92363  -0.00049  -0.00118  -0.00765  -0.00887   1.91477
   A22        1.89055  -0.00005  -0.00177  -0.00495  -0.00677   1.88378
   A23        1.92551   0.00005   0.00064   0.00117   0.00181   1.92733
   A24        1.91566   0.00043   0.00152   0.00928   0.01081   1.92647
   A25        1.92156   0.00000  -0.00054  -0.00251  -0.00315   1.91840
   A26        2.02996   0.00069  -0.01070  -0.02676  -0.04240   1.98756
   A27        2.16127  -0.00319   0.00990   0.01737   0.02230   2.18357
   A28        2.09096   0.00265   0.00152   0.01770   0.01428   2.10524
   A29        1.96635  -0.00090  -0.00282  -0.01413  -0.01709   1.94927
   A30        1.88970   0.00312   0.00219   0.02882   0.03108   1.92078
   A31        1.89273  -0.00087  -0.00220  -0.01387  -0.01620   1.87653
   A32        1.91107  -0.00066   0.00209   0.00459   0.00672   1.91779
   A33        1.91763   0.00036   0.00027   0.00024   0.00018   1.91781
   A34        1.88439  -0.00103   0.00065  -0.00516  -0.00441   1.87998
    D1       -0.02539   0.00017  -0.00216   0.00228  -0.00013  -0.02552
    D2        3.07998   0.00025   0.00151   0.01172   0.01308   3.09306
    D3        0.04396   0.00001   0.00670   0.00904   0.01579   0.05976
    D4       -3.06132  -0.00008   0.00307  -0.00038   0.00260  -3.05872
    D5        2.62767  -0.00005  -0.00154   0.00459   0.00303   2.63070
    D6       -1.59637   0.00004  -0.00169   0.00551   0.00381  -1.59256
    D7        0.45826   0.00007  -0.00193   0.00535   0.00341   0.46167
    D8       -0.55264   0.00009   0.00236   0.01491   0.01729  -0.53535
    D9        1.50650   0.00019   0.00222   0.01583   0.01807   1.52457
   D10       -2.72205   0.00022   0.00198   0.01567   0.01767  -2.70438
   D11       -0.01662  -0.00028  -0.00577  -0.01784  -0.02353  -0.04015
   D12       -3.10205  -0.00063  -0.00665  -0.03781  -0.04460   3.13654
   D13       -3.05290   0.00036   0.00617   0.02167   0.02828  -3.02463
   D14        0.04808   0.00025   0.01047   0.02386   0.03436   0.08244
   D15        0.02896   0.00072   0.00741   0.04363   0.05129   0.08025
   D16        3.12994   0.00061   0.01171   0.04583   0.05738  -3.09587
   D17        0.62080  -0.00015   0.00089  -0.00091  -0.00009   0.62071
   D18       -1.48462   0.00005  -0.00004  -0.00072  -0.00078  -1.48540
   D19        2.69531   0.00037   0.00249   0.01004   0.01241   2.70772
   D20       -2.46024  -0.00058  -0.00024  -0.02316  -0.02334  -2.48358
   D21        1.71752  -0.00038  -0.00117  -0.02296  -0.02402   1.69350
   D22       -0.38573  -0.00006   0.00135  -0.01221  -0.01083  -0.39657
   D23       -2.86148  -0.00525  -0.01248  -0.18170  -0.19423  -3.05571
   D24        0.32877  -0.00500  -0.01675  -0.18204  -0.19874   0.13004
   D25       -0.04854  -0.00004  -0.00909  -0.01720  -0.02617  -0.07471
   D26        3.05061  -0.00029  -0.00616  -0.01858  -0.02410   3.02651
   D27       -2.68244  -0.00751  -0.00760  -0.35384  -0.36143  -3.04388
   D28        0.41092  -0.00381  -0.03526  -0.15273  -0.18801   0.22291
   D29        1.33532  -0.00027   0.00027  -0.00275  -0.00248   1.33284
   D30       -0.65320   0.00034  -0.00091  -0.00139  -0.00230  -0.65550
   D31       -2.98618  -0.00031   0.00015  -0.00335  -0.00320  -2.98938
   D32        0.01345   0.00202  -0.01090   0.09517   0.08393   0.09738
   D33       -2.10272   0.00128  -0.01325   0.07858   0.06512  -2.03760
   D34        2.14001   0.00128  -0.01403   0.07657   0.06253   2.20255
   D35       -3.08197  -0.00135   0.01615  -0.09740  -0.08122   3.11999
   D36        1.08504  -0.00209   0.01379  -0.11398  -0.10003   0.98500
   D37       -0.95541  -0.00209   0.01301  -0.11600  -0.10262  -1.05803
         Item               Value     Threshold  Converged?
 Maximum Force            0.013575     0.000450     NO 
 RMS     Force            0.002238     0.000300     NO 
 Maximum Displacement     0.846638     0.001800     NO 
 RMS     Displacement     0.227984     0.001200     NO 
 Predicted change in Energy=-5.320546D-03
 GradGradGradGradGradGradGradGradGradGradGradGradGradGradGradGradGradGrad

                          Input orientation:                          
 ---------------------------------------------------------------------
 Center     Atomic      Atomic             Coordinates (Angstroms)
 Number     Number       Type             X           Y           Z
 ---------------------------------------------------------------------
      1          6           0       -0.836833    0.388943   -0.694836
      2          7           0       -1.537888    1.287167   -1.284433
      3          7           0       -0.963811    1.647141   -2.463201
      4          6           0        0.211135    1.071232   -2.782865
      5          7           0        0.860761    1.475002   -3.827953
      6         16           0        0.589332   -0.144196   -1.543222
      7         16           0       -1.288762   -0.257321    0.942729
      8          8           0       -0.732949   -1.633277    0.854814
      9          8           0       -0.546741    0.643701    1.854806
     10          7           0       -2.811153   -0.121622    1.159322
     11          1           0       -3.289595   -0.852306    0.626714
     12          6           0       -1.613646    2.655715   -3.290280
     13          1           0       -2.073095    3.394587   -2.634896
     14          1           0       -2.369416    2.183473   -3.921076
     15          1           0       -0.851724    3.121590   -3.910745
     16          6           0        1.993929    0.801142   -4.178258
     17          6           0        2.740856    1.422607   -5.315454
     18          8           0        2.340448   -0.299603   -3.720433
     19          1           0        2.301395    2.373273   -5.613831
     20          1           0        2.762106    0.737354   -6.170128
     21          1           0        3.771964    1.576544   -4.986842
 ---------------------------------------------------------------------
                    Distance matrix (angstroms):
                    1          2          3          4          5
     1  C    0.000000
     2  N    1.282930   0.000000
     3  N    2.174006   1.359647   0.000000
     4  C    2.433849   2.313224   1.346979   0.000000
     5  N    3.725289   3.501185   2.285004   1.295088   0.000000
     6  S    1.742970   2.576982   2.543128   1.776799   2.813445
     7  S    1.817557   2.721719   3.915728   4.230224   5.511878
     8  O    2.549820   3.708544   4.671581   4.630159   5.842056
     9  O    2.578706   3.354287   4.452642   4.718596   5.913195
    10  N    2.756177   3.094807   4.434396   5.108616   6.395707
    11  H    3.050120   3.361295   4.604789   5.251698   6.518119
    12  C    3.532425   2.429421   1.457247   2.469389   2.793899
    13  H    3.784980   2.559573   2.076911   3.261530   3.703472
    14  H    3.997221   2.906319   2.094941   3.031806   3.308270
    15  H    4.220149   3.276193   2.069287   2.570166   2.377124
    16  C    4.507478   4.591751   3.522124   2.280006   1.364137
    17  C    5.934512   5.880061   4.680845   3.596798   2.397949
    18  O    4.441109   4.847002   4.035910   2.700407   2.313062
    19  H    6.162999   5.887564   4.595139   3.752182   2.464077
    20  H    6.561446   6.531635   5.333992   4.253525   3.105643
    21  H    6.408801   6.479668   5.366685   4.218099   3.135033
                    6          7          8          9         10
     6  S    0.000000
     7  S    3.117689   0.000000
     8  O    3.117108   1.486577   0.000000
     9  O    3.668519   1.481324   2.493850   0.000000
    10  N    4.343679   1.543697   2.587809   2.489373   0.000000
    11  H    4.500679   2.111209   2.682981   3.357006   1.022974
    12  C    3.967976   5.148757   6.029336   5.626580   5.380203
    13  H    4.561058   5.172138   6.265260   5.482203   5.225375
    14  H    4.452687   5.548143   6.328881   6.249308   5.596342
    15  H    4.283360   5.929945   6.733010   6.282876   6.329563
    16  C    3.132088   6.174214   6.220457   6.548103   7.240861
    17  C    4.616672   7.630519   7.712195   7.926387   8.667881
    18  O    2.798358   5.909148   5.670744   6.348934   7.098075
    19  H    5.083176   7.924502   8.191646   8.178254   8.845239
    20  H    5.187132   8.245704   8.196652   8.680829   9.247696
    21  H    4.994859   8.008359   8.045007   8.144296   9.164962
                   11         12         13         14         15
    11  H    0.000000
    12  C    5.518864   0.000000
    13  H    5.491272   1.089290   0.000000
    14  H    5.544824   1.091835   1.791330   0.000000
    15  H    6.505658   1.087447   1.787194   1.784253   0.000000
    16  C    7.330571   4.152415   5.064445   4.584295   3.681547
    17  C    8.766465   4.958182   5.852197   5.351456   4.215019
    18  O    7.134462   4.955179   5.857029   5.328109   4.683028
    19  H    8.978192   4.561382   5.390111   4.971712   3.660962
    20  H    9.238352   5.578605   6.552703   5.786364   4.883560
    21  H    9.342212   5.748715   6.557563   6.262648   4.992359
                   16         17         18         19         20
    16  C    0.000000
    17  C    1.495771   0.000000
    18  O    1.241499   2.381266   0.000000
    19  H    2.151047   1.089000   3.275783   0.000000
    20  H    2.135816   1.095670   2.693340   1.788282   0.000000
    21  H    2.101539   1.093099   2.678238   1.786188   1.767547
                   21
    21  H    0.000000
 Stoichiometry    C5H7N4O3S2(1-)
 Framework group  C1[X(C5H7N4O3S2)]
 Deg. of freedom    57
 Full point group                 C1      NOp   1
 Largest Abelian subgroup         C1      NOp   1
 Largest concise Abelian subgroup C1      NOp   1
                         Standard orientation:                         
 ---------------------------------------------------------------------
[...]
 06775779,0.02743636,-0.02581265,-0.02731798,0.00115630,0.00476676,-0.0
 0204792,-0.05968422,0.18652520,0.02093239,-0.01023352,-0.00303364,-0.0
 0020940,-0.00052820,0.00099798,0.00342796,-0.00002714,-0.00287680,0.00
 015669,-0.00106854,0.00156714,0.00248251,0.00110811,-0.00368753,-0.004
 19153,0.00374189,-0.00419565,0.06480462,-0.06481533,-0.11772068,0.0115
 4151,-0.01764171,0.00289801,-0.02035010,0.00706843,0.00807096,0.057986
 78,0.13191374,0.21019278,0.00113915,0.00033935,0.00068509,-0.00015325,
 -0.00001885,0.00006883,0.00065000,-0.00016452,-0.00022425,-0.00005398,
 -0.00000707,0.00013220,0.00036403,0.00006756,-0.00049190,-0.00033070,0
 .00037730,-0.00039556,-0.03249096,-0.00532048,-0.01465348,0.00496673,-
 0.00525785,-0.00090229,-0.00175198,0.00259358,0.00141470,-0.32968944,-
 0.05492702,-0.13657807,0.35738942,0.00039129,-0.00017077,0.00042655,-0
 .00005438,0.00009972,-0.00050788,-0.00007886,-0.00011597,0.00027484,0.
 00034532,-0.00013636,-0.00009469,-0.00007485,0.00001143,-0.00001757,-0
 .00009194,0.00015937,-0.00010656,0.02828191,-0.00684371,0.00451407,-0.
 00324456,0.00214945,0.00065134,0.00644082,0.00188070,-0.00318088,-0.09
 425311,-0.03255820,-0.04959285,0.06231583,0.03553049,-0.00066967,-0.00
 113121,-0.00141397,0.00004180,0.00000394,-0.00027580,0.00003079,0.0002
 2442,-0.00032058,-0.00026451,0.00007016,0.00013852,0.00004576,0.000083
 22,0.00008263,0.00015995,-0.00016623,-0.00000261,0.02531889,-0.0057025
 1,-0.00504121,0.00052464,0.00129920,-0.00076120,0.00110231,-0.00236323
 ,0.00366404,-0.17726076,-0.03993862,-0.09201530,0.15095872,0.04761963,
 0.09597153,-0.00029334,-0.00202614,0.00755039,0.01289218,-0.01072258,0
 .00125131,-0.12959319,0.05259076,-0.03580989,-0.02439766,0.01832598,-0
 .01305913,0.00505600,0.00066888,-0.00734695,-0.00269412,0.00190443,0.0
 0163491,0.00206556,0.00188437,-0.00321789,-0.00052656,-0.00124153,0.00
 042387,0.00067292,-0.00062011,0.00177237,-0.00081346,0.00011610,0.0006
 9866,0.00008228,-0.00000832,0.00002136,0.59760817,0.00116905,0.0038908
 5,-0.00055600,-0.00131767,-0.01337413,0.00891956,0.04979608,-0.1180571
 3,0.06240910,0.01388005,-0.00602369,-0.00096147,-0.00805017,-0.0016414
 7,0.00391977,0.00092141,0.00302330,0.00066171,-0.00056603,-0.00032794,
 0.00331616,0.00071016,0.00146504,-0.00075927,-0.00042388,-0.00005646,-
 0.00058367,0.00048738,-0.00012347,-0.00068585,-0.00011545,0.00000423,0
 .00002096,0.03922966,0.56111881,0.00178050,0.00258785,-0.00091941,-0.0
 1480329,0.01653310,-0.02641348,-0.02956619,0.05913590,-0.13828982,-0.0
 0698934,-0.00375041,0.01178779,0.00793160,-0.00261132,-0.00466506,0.00
 289378,0.00002697,0.00149436,0.00050651,0.00160354,-0.00134385,-0.0000
 8334,-0.00051142,0.00013092,0.00012898,-0.00040158,0.00076582,-0.00054
 226,-0.00001452,0.00058582,0.00006473,0.00001185,-0.00001168,-0.062523
 64,0.04298842,0.57854473,0.00017382,-0.00007544,-0.00016567,0.00110143
 ,-0.00174082,0.00292536,-0.02029262,0.00478197,0.00508937,0.00067128,0
 .00117195,-0.00231486,-0.00024516,0.00010569,0.00014457,-0.00002374,0.
 00011685,0.00008232,-0.00010320,-0.00011538,0.00017259,0.00002796,0.00
 006200,-0.00002571,-0.00000114,0.00002925,-0.00006809,0.00005351,-0.00
 001898,-0.00005844,-0.00000145,0.00000134,-0.00000248,-0.28382924,0.03
 860256,0.10688442,0.30574506,0.00028213,-0.00022808,-0.00009297,0.0006
 0249,0.00139322,-0.00139298,0.02408922,-0.00865033,-0.00743110,-0.0003
 8118,-0.00146457,0.00347664,0.00003565,0.00031924,-0.00025844,0.000555
 27,-0.00010957,0.00031438,0.00002143,0.00002866,-0.00015397,-0.0000459
 1,-0.00008093,0.00003492,-0.00003116,0.00000623,0.00001706,-0.00004149
 ,0.00001102,0.00006087,0.00000220,-0.00000308,-0.00000208,0.03089451,-
 0.05449137,-0.01435310,-0.04438248,0.05688172,-0.00073641,0.00014691,0
 .00008317,-0.00123579,0.00039334,0.00124447,-0.02745210,0.00690517,0.0
 0608986,0.00043137,0.00224668,-0.00387721,0.00036119,-0.00036543,0.000
 51854,-0.00065722,0.00064946,-0.00027725,-0.00001825,-0.00006851,0.000
 07399,0.00000627,0.00001276,-0.00001660,0.00003035,0.00001128,-0.00002
 726,0.00004959,-0.00001585,-0.00004325,0.00000016,0.00000560,0.0000001
 2,0.11991044,-0.02008428,-0.10357514,-0.11645127,0.01326474,0.10823033
 ,-0.00063607,0.00081943,-0.00104308,-0.00156152,-0.00147712,0.00094758
 ,-0.00530220,-0.00295953,-0.01985752,0.00223125,-0.00004142,-0.0023501
 9,-0.00094292,-0.00102539,0.00075403,0.00080798,0.00048004,-0.00021138
 ,-0.00023313,-0.00009874,0.00074230,0.00015324,0.00029201,-0.00016190,
 -0.00006376,0.00002260,-0.00018109,0.00011306,-0.00003651,-0.00013036,
 -0.00001630,0.00000228,0.00000287,-0.05141614,-0.01020241,-0.01755596,
 0.00670216,0.01322544,0.02505587,0.05077336,0.00002825,-0.00135493,0.0
 0095098,0.00241035,-0.00010011,0.00136228,0.00460243,0.00973602,0.0270
 4159,-0.00184468,0.00105564,0.00113753,0.00146051,0.00004252,-0.000915
 22,-0.00052302,-0.00054726,0.00017820,0.00033829,0.00018608,-0.0009347
 4,-0.00019879,-0.00039421,0.00018868,0.00011729,-0.00003021,0.00027971
 ,-0.00015830,0.00003476,0.00017285,0.00002855,-0.00000029,0.00000180,-
 0.01253004,-0.11394372,-0.12357130,-0.00099090,-0.00178587,-0.00196776
 ,0.00849444,0.11792948,-0.00008139,0.00105102,-0.00115001,-0.00324322,
 -0.00096736,-0.00085293,-0.00522455,0.00008460,-0.02118687,0.00361190,
 -0.00049550,-0.00184169,-0.00156519,-0.00002493,0.00175489,0.00030752,
 0.00007455,-0.00014963,-0.00035553,-0.00028782,0.00104155,0.00019483,0
 .00042244,-0.00019038,-0.00012730,0.00006527,-0.00031906,0.00018033,-0
 .00002869,-0.00019368,-0.00003224,-0.00000038,0.00000166,-0.02204156,-
 0.11627675,-0.26782954,-0.00151123,-0.00500557,-0.00784568,0.02783537,
 0.12066479,0.29361176,-0.00072045,0.00056888,-0.00118208,-0.00064712,0
 .00084450,0.00130515,0.00831976,0.02303493,-0.00510174,0.00219194,0.00
 070139,-0.00118611,-0.00036499,0.00040935,0.00120234,0.00031636,-0.000
 53899,-0.00086758,-0.00040663,-0.00043508,0.00050629,0.00007876,0.0001
 6813,-0.00005675,-0.00005994,0.00014442,-0.00032646,0.00016053,-0.0000
 2225,-0.00013148,-0.00000861,0.00000238,-0.00000485,-0.12135616,-0.127
 02125,0.01426840,-0.01016703,-0.02466174,0.00052926,-0.00088058,-0.000
 93916,0.00108230,0.12373009,0.00050230,-0.00077131,0.00125109,0.001043
 33,-0.00179215,-0.00234422,-0.00108040,-0.01790688,0.00977716,-0.00364
 437,0.00020004,0.00250931,0.00125966,0.00021407,-0.00178908,-0.0004139
 3,0.00022197,0.00042195,0.00047252,0.00053277,-0.00074427,-0.00011093,
 -0.00024694,0.00010131,0.00010744,-0.00014954,0.00038252,-0.00020400,0
 .00002793,0.00016966,0.00001709,-0.00000334,0.00000655,-0.12010947,-0.
 26054598,0.02141568,0.00250785,0.00799405,-0.00095424,-0.00752719,-0.0
 1063800,0.00123932,0.12800812,0.28239866,-0.00038553,0.00017374,-0.001
 60816,-0.00162729,0.00303878,0.00019844,0.00833966,0.02442817,-0.00754
 339,0.00314961,-0.00041466,-0.00076377,-0.00199973,-0.00015391,0.00121
 940,0.00013775,-0.00014970,-0.00041985,-0.00052407,-0.00058667,0.00079
 449,0.00011187,0.00027174,-0.00008828,-0.00013631,0.00017353,-0.000461
 93,0.00022740,-0.00002073,-0.00019240,-0.00002522,0.00000313,-0.000005
 35,0.01077147,0.01782861,-0.05078161,0.00530617,0.01161413,-0.00081972
 ,-0.01411706,-0.02464468,0.00513929,-0.00989921,-0.03130144,0.05553109
 ,0.01238196,-0.00418437,-0.00446021,-0.00436222,0.00812232,-0.00849892
 ,0.03412271,-0.01036862,-0.00329712,-0.08146698,-0.01664843,0.08606854
 ,-0.21743129,0.06142199,0.00531205,-0.00510928,0.01240802,-0.01683010,
 -0.00387654,-0.00573055,0.01088907,0.00139062,0.00393235,-0.00170172,-
 0.00109879,0.00112635,-0.00376204,0.00258376,-0.00013969,-0.00266080,-
 0.00036266,0.00001569,0.00001405,-0.00527208,0.00538855,-0.00532481,0.
 00060285,-0.00036097,0.00020519,0.00044822,-0.00079864,0.00140721,-0.0
 0007608,-0.00117907,0.00125699,0.57606862,-0.00906046,0.00299028,0.001
 37607,0.00399149,-0.00201428,0.00761450,-0.01330458,0.00682725,0.00576
 151,0.00775242,0.00819876,-0.03351487,0.03913188,-0.09911513,0.0165208
 0,0.00036429,-0.00580847,0.01158982,0.00139024,0.00154298,-0.00477782,
 -0.00057592,-0.00185502,0.00085738,0.00048898,-0.00036250,0.00140387,-
 0.00075732,0.00004774,0.00088553,0.00015807,-0.00000625,-0.00003940,0.
 00311035,-0.00233698,0.00248561,-0.00023244,0.00029676,-0.00017562,0.0
 0012822,-0.00009713,-0.00093187,-0.00049392,0.00067371,-0.00065121,-0.
 14556174,0.43985412,0.00556687,-0.00328917,0.00039221,-0.00050274,0.00
 410159,-0.00300736,0.00049204,0.00416272,-0.00266156,0.04319047,-0.014
 35240,-0.01581449,0.04429645,-0.00089827,-0.10514867,0.00408141,0.0021
 7079,-0.00640446,-0.00014778,0.00041395,-0.00097204,-0.00016484,-0.000
 45884,0.00010656,-0.00005906,-0.00002505,0.00025961,-0.00038736,0.0001
 3533,0.00048888,0.00003413,0.00001732,-0.00001507,-0.00113391,0.000568
 16,0.00013246,0.00000934,-0.00008449,0.00024618,0.00029739,-0.00006204
 ,0.00019389,-0.00032828,-0.00030355,-0.00002056,-0.00532270,-0.2401123
 0,0.66607455,-0.00024857,-0.00050249,0.00008187,-0.00021654,-0.0002019
 1,-0.00016520,-0.00106730,-0.00043195,0.00150437,-0.00313881,0.0028794
 6,0.00190264,-0.02364589,-0.00407394,0.03431577,-0.00035300,0.00044435
 ,0.00087796,0.00015078,0.00017891,-0.00037633,-0.00005688,-0.00014720,
 0.00005990,0.00002741,-0.00004604,0.00013602,-0.00008194,0.00000964,0.
 00009286,0.00001546,0.00000332,-0.00000528,0.00016313,-0.00008318,0.00
 023010,-0.00003690,0.00002456,-0.00001455,-0.00003901,0.00004353,-0.00
 001144,-0.00003175,0.00001238,-0.00003280,-0.12139099,-0.02057234,0.05
 905610,0.60572985,-0.00069122,-0.00069059,-0.00062213,-0.00030736,-0.0
 0078254,-0.00003084,-0.00031853,0.00061159,-0.00073987,0.00552942,0.00
 393440,-0.00130965,0.00747370,0.01060207,-0.00472045,0.00145715,0.0008
 1785,0.00067584,0.00007937,0.00015932,-0.00033765,-0.00003499,-0.00010
 103,0.00003952,0.00000271,-0.00003222,0.00011344,-0.00005222,0.0000246
 5,0.00006586,0.00000905,-0.00000080,-0.00000208,0.00016709,0.00008030,
 0.00018427,-0.00000138,0.00000332,-0.00000690,-0.00005050,0.00001576,-
 0.00002573,0.00000449,0.00002598,-0.00002089,-0.01929736,-0.09732216,0
 .02389839,-0.03682012,0.56239584,0.00032840,-0.00090064,-0.00012339,-0
 .00006273,0.00000243,-0.00089069,0.00137933,-0.00069362,0.00024887,-0.
 00290188,0.00070077,0.00663295,0.01414311,0.00424425,-0.00729819,-0.00
 072534,0.00143928,-0.00014198,-0.00025121,-0.00041408,0.00076513,0.000
 10735,0.00026428,-0.00010592,-0.00007699,0.00006387,-0.00025894,0.0002
 0167,0.00000307,-0.00021028,-0.00002469,0.00000007,-0.00000142,-0.0002
 2636,0.00037706,-0.00023884,0.00003053,-0.00002806,0.00002222,0.000060
 51,-0.00004996,0.00006273,0.00007471,-0.00008182,0.00005066,0.05646102
 ,0.02490331,-0.17994243,0.02181528,0.00741853,0.51867640,-0.00202321,0
 .00128992,0.00331912,-0.00123218,-0.00128446,0.00172299,-0.00924503,0.
 00314905,0.00126940,0.01521624,0.01097894,-0.03245254,-0.07554217,0.05
 100936,-0.00936828,-0.00059239,-0.00378166,0.00285643,0.00154447,0.003
 79877,-0.00649485,-0.00079785,-0.00232333,0.00087560,0.00072470,-0.000
 59597,0.00210053,-0.00166896,0.00008139,0.00195251,0.00022226,0.000005
 93,-0.00001051,0.00130848,-0.00208548,0.00237756,-0.00033910,0.0001389
 1,0.00000934,-0.00010615,0.00041072,-0.00034928,-0.00003832,0.00026071
 ,-0.00047862,-0.18530760,0.13410871,-0.15076509,0.01556233,0.00071732,
 0.00578990,0.23993008,0.00621962,0.00195140,-0.00051179,-0.00314907,0.
 00153044,-0.00372916,0.00910911,-0.00286024,-0.00198215,-0.01717059,-0
 .01153318,0.02953813,0.07703572,-0.00617311,0.00045408,-0.00331340,-0.
 00131006,-0.00510298,-0.00090795,-0.00128860,0.00294141,0.00033203,0.0
 0114971,-0.00049816,-0.00030575,0.00030544,-0.00097577,0.00056148,-0.0
 0005833,-0.00060980,-0.00009921,0.00000255,0.00001626,-0.00161242,0.00
 131543,-0.00176687,0.00018012,-0.00012293,-0.00000084,-0.00007033,-0.0
 0010064,0.00043273,0.00023745,-0.00024186,0.00041377,0.11412163,-0.246
 95366,0.21375067,0.01336824,0.00290809,0.02837621,-0.19195274,0.263369
 75,-0.00565965,0.00401523,0.00279652,0.00501578,-0.00503961,0.00347847
 ,-0.00876592,0.00225848,0.00217322,0.01645981,0.00779575,-0.02854594,-
 0.05470869,0.02060924,0.03434004,0.00215700,-0.00480656,0.00033294,0.0
 0058446,-0.00052795,0.00017480,0.00000488,0.00000279,0.00016358,0.0000
 6673,-0.00003848,0.00000828,0.00020251,-0.00004414,-0.00042130,-0.0000
 0552,-0.00002266,0.00000311,0.00153042,-0.00133774,0.00086299,-0.00008
 236,0.00004343,-0.00004241,-0.00011649,0.00020994,-0.00030318,0.000105
 82,0.00027979,-0.00028226,-0.11568155,0.19812228,-0.33418463,-0.016408
 76,0.03823700,-0.02963255,0.17418418,-0.26229726,0.35655622,-0.0003523
 9,0.00010492,0.00000587,-0.00004294,-0.00029332,0.00025841,-0.00048477
 ,0.00021891,-0.00003154,0.00126161,0.00077705,-0.00158781,-0.00184475,
 0.00069541,0.00246545,0.00031047,-0.00015109,0.00026111,0.00008999,0.0
 0015142,-0.00027742,-0.00003357,-0.00009622,0.00003954,0.00002489,-0.0
 0002741,0.00009368,-0.00006519,0.00000354,0.00007131,0.00000954,-0.000
 00070,-0.00000021,0.00012516,-0.00010333,0.00010978,-0.00001184,0.0000
 1058,-0.00001068,-0.00002081,0.00001931,-0.00002865,-0.00000458,0.0000
 2697,-0.00001902,-0.00031718,-0.01484003,-0.00433589,-0.04786975,-0.00
 798678,0.00418889,0.00055446,0.00023383,0.00185731,0.04542050,0.000056
 00,-0.00008293,-0.00005069,-0.00006927,0.00007164,-0.00003584,0.000328
 73,-0.00013319,-0.00003119,-0.00060605,0.00025395,0.00101802,0.0013451
 3,0.00124177,-0.00087358,0.00000875,0.00011770,-0.00027570,-0.00003608
 ,-0.00003890,0.00003445,0.00000617,0.00001419,-0.00000497,-0.00000254,
 0.00000947,-0.00001926,0.00001452,0.00000339,-0.00000737,-0.00000120,0
 .00000063,-0.00000138,-0.00003744,0.00004149,-0.00001169,0.00000283,-0
 .00000032,0.00000295,0.00001359,-0.00001080,0.00001184,0.00000127,0.00
 000184,0.00000579,0.00106243,-0.00873067,0.00003677,-0.00903626,-0.324
 89276,0.01102974,-0.00144341,0.00012625,0.00166671,0.00940245,0.349423
 02,0.00027472,0.00008477,0.00012307,0.00017007,0.00022149,-0.00014024,
 0.00015644,-0.00008074,0.00004796,-0.00081861,-0.00102502,0.00057226,0
 .00000162,-0.00132931,-0.00090473,-0.00052463,-0.00009010,-0.00013907,
 -0.00006575,-0.00011895,0.00023798,0.00002804,0.00008069,-0.00003273,-
 0.00001533,0.00002209,-0.00007981,0.00004960,-0.00000793,-0.00006147,-
 0.00000831,-0.00000071,0.00000181,-0.00008048,0.00002675,-0.00008394,0
 .00000884,-0.00000624,0.00000513,0.00001070,-0.00001326,0.00001692,0.0
 0000001,-0.00001093,0.00001817,-0.00051497,0.03193022,0.00121500,0.004
 26737,0.01254668,-0.04141065,0.00074330,-0.00107288,-0.00680458,-0.003
 05939,-0.01319797,0.04630286,-0.00032774,0.00023364,0.00005072,0.00008
 127,-0.00006186,0.00042857,-0.00060996,0.00026405,-0.00002033,0.001354
 50,0.00033025,-0.00226504,-0.00268410,-0.00080988,0.00206333,0.0002335
 3,-0.00048509,0.00023100,0.00009487,0.00014243,-0.00032273,-0.00004078
 ,-0.00011261,0.00004961,0.00003282,-0.00002427,0.00010211,-0.00007128,
 0.00000534,0.00008089,0.00001029,-0.00000031,-0.00000117,0.00013291,-0
 .00013203,0.00010553,-0.00001199,0.00001356,-0.00000931,-0.00000796,0.
 00001351,-0.00002693,-0.00002335,0.00003558,-0.00003023,0.01017549,0.0
 0854395,0.01041149,-0.12923523,-0.04764132,-0.11576055,-0.00037106,-0.
 00268178,0.00080185,-0.00091558,0.00022677,-0.00028760,0.13474899,0.00
 007542,0.00011062,0.00001619,-0.00004003,0.00006022,0.00002783,0.00006
 664,-0.00000900,-0.00000604,-0.00013037,-0.00023499,-0.00011423,0.0004
 9201,-0.00007731,-0.00062902,0.00005792,-0.00019244,-0.00012192,0.0000
 0964,0.00001537,-0.00001698,-0.00000471,-0.00000673,0.00000042,0.00000
 214,-0.00000143,0.00000731,-0.00000823,-0.00000189,0.00000768,0.000000
 37,0.,0.00000094,-0.00001610,-0.00001099,-0.00001876,-0.00000025,-0.00
 000026,0.00000223,0.00000789,0.00000435,0.00000303,-0.00000187,-0.0000
 0035,-0.00000149,0.00683593,0.00282840,0.01011540,-0.04662020,-0.06864
 422,-0.07094281,-0.00179408,-0.00260724,0.00161048,-0.01747453,-0.0091
 8184,-0.02630603,0.05293035,0.07393182,0.00008581,-0.00025347,-0.00004
 422,0.00006601,-0.00003069,-0.00028428,-0.00002303,-0.00003697,0.00005
 901,0.00028361,0.00052755,0.00096079,0.00106104,0.00136491,0.00115639,
 -0.00024106,0.00023578,0.00021302,-0.00005872,-0.00011891,0.00016403,0
 .00002323,0.00005874,-0.00001608,-0.00001832,0.00001626,-0.00006011,0.
 00005103,0.00000234,-0.00005856,-0.00000524,0.00000042,-0.00000052,-0.
 00003013,0.00008630,-0.00003671,0.00000773,-0.00000537,0.00000496,0.00
 000571,-0.00000539,0.00001878,0.00000254,-0.00000815,0.00001013,-0.018
 54969,-0.01084816,-0.02087169,-0.11603987,-0.07257657,-0.21624959,0.00
 333850,0.00382160,-0.00306152,0.00147334,0.00073598,0.00224636,0.12651
 911,0.07515780,0.23255342,-0.00018398,0.00000215,0.00016400,-0.0000404
 9,-0.00009223,0.00012867,-0.00041646,0.00001543,0.00024922,0.00029655,
 0.00052960,-0.00053169,-0.00247953,-0.00063002,0.00410519,-0.00006371,
 -0.00011961,0.00017835,0.00006911,0.00015004,-0.00027247,-0.00003428,-
 0.00010231,0.00003919,0.00003045,-0.00002630,0.00009081,-0.00006724,0.
 00000457,0.00008151,0.00001018,0.00000092,-0.00000172,0.00008515,-0.00
 008400,0.00010695,-0.00001466,0.00000898,-0.00000345,-0.00000272,0.000
 01634,-0.00002097,-0.00001184,0.00001543,-0.00002581,-0.01170253,0.006
 23016,-0.00428803,-0.29423638,0.09776148,0.01544905,0.00220103,-0.0001
 3601,-0.00154180,0.00416673,-0.00123638,-0.00033565,-0.01256565,0.0056
 1204,0.00204838,0.31496027,-0.00001037,0.00001765,0.00001411,-0.000075
 39,-0.00005048,0.00000853,-0.00013693,-0.00005216,0.00011873,-0.000203
 66,0.00071097,0.00026606,-0.00092085,0.00070621,0.00202488,-0.00001382
 ,-0.00007675,-0.00002406,0.00002002,0.00003068,-0.00006934,-0.00000925
 ,-0.00002576,0.00001091,0.00000744,-0.00000693,0.00002197,-0.00001492,
 0.00000220,0.00001571,0.00000269,0.00000017,-0.00000033,0.00003201,-0.
 00000611,0.00003779,-0.00000433,0.00000309,-0.00000169,0.00000320,-0.0
 0000143,-0.00000500,-0.00001107,0.00000533,-0.00000600,-0.01016582,0.0
 0134224,0.00021501,0.10157121,-0.08911286,-0.00571188,-0.00068861,0.00
 059081,-0.00073673,0.02932901,-0.00823392,-0.00165264,-0.01079029,0.00
 401789,0.00187601,-0.10792029,0.09013915,0.00016683,-0.00000077,-0.000
 13707,0.00010463,0.00001938,-0.00018284,0.00050474,0.00001894,-0.00044
 639,0.00078408,-0.00029798,0.00062730,0.00463946,0.00178039,-0.0053110
 3,0.00000262,0.00005188,-0.00017777,-0.00009110,-0.00017529,0.00031075
 ,0.00004011,0.00011603,-0.00004433,-0.00003362,0.00003271,-0.00010771,
 0.00007986,-0.00000439,-0.00009103,-0.00001181,-0.00000065,0.00000130,
 -0.00009524,0.00012249,-0.00011577,0.00001887,-0.00001178,0.00000554,0
 .00001272,-0.00002398,0.00002118,0.00000770,-0.00001665,0.00002559,0.0
 2499049,-0.01239965,-0.00006637,0.00871399,-0.00278679,-0.04995408,-0.
 00062018,-0.00119718,0.00238820,-0.00147408,-0.00003262,-0.00113030,-0
 .02212031,0.01120795,0.00329639,-0.01561974,0.00359799,0.05108846\\-0.
 00000560,0.00000684,0.00000319,0.00000157,0.00000463,-0.00000495,-0.00
 000057,0.00000356,-0.00000291,-0.00000039,-0.00000747,-0.00000051,0.00
 000540,-0.00000076,0.00000003,-0.00000288,0.00000392,0.00000133,-0.000
 01167,0.00000678,-0.00000049,-0.00000922,0.00001041,0.00000498,-0.0000
 0999,0.00000993,0.00000404,-0.00000405,0.00000801,-0.00000437,-0.00000
 712,0.00001266,-0.00000335,0.00000220,0.00000009,-0.00000625,0.0000026
 4,0.00000154,-0.00000815,0.00000493,-0.00000255,-0.00000498,0.00000448
 ,-0.00000151,-0.00000742,0.00000389,-0.00000879,0.00000432,0.00000386,
 -0.00001034,0.00000263,0.00000154,-0.00000499,0.00000863,0.00000716,-0
 .00000996,0.00000261,0.00000740,-0.00001073,0.00000421,0.00000641,-0.0
 0001128,0.00000741\\\@
 The archive entry for this job was punched.


 What some people mistake for the high cost
 of living is really the cost of living high.
                              -- Doug Larson
 Job cpu time:       0 days  1 hours 11 minutes 14.7 seconds.
 Elapsed time:       0 days  0 hours  4 minutes 31.8 seconds.
 File lengths (MBytes):  RWF=    272 Int=      0 D2E=      0 Chk=     13 Scr=      1
 Normal termination of Gaussian 16 at Sat May 21 00:30:56 2022.
