 Entering Gaussian System, Link 0=g16
 AtFile(1): /home/561/yj5695/Basis/6-31pGd.gbs
 Initial command:
 /apps/gaussian/g16c01/g16/l1.exe "/jobfs/48772940.gadi-pbs/Gau-2224488.inp" -scrdir="/jobfs/48772940.gadi-pbs/"
 Entering Link 1 = /apps/gaussian/g16c01/g16/l1.exe PID=   2224489.
  
 Copyright (c) 1988-2019, Gaussian, Inc.  All Rights Reserved.
  
 This is part of the Gaussian(R) 16 program.  It is based on
 the Gaussian(R) 09 system (copyright 2009, Gaussian, Inc.),
 the Gaussian(R) 03 system (copyright 2003, Gaussian, Inc.),
 the Gaussian(R) 98 system (copyright 1998, Gaussian, Inc.),
 the Gaussian(R) 94 system (copyright 1995, Gaussian, Inc.),
 the Gaussian 92(TM) system (copyright 1992, Gaussian, Inc.),
 the Gaussian 90(TM) system (copyright 1990, Gaussian, Inc.),
 the Gaussian 88(TM) system (copyright 1988, Gaussian, Inc.),
 the Gaussian 86(TM) system (copyright 1986, Carnegie Mellon
 University), and the Gaussian 82(TM) system (copyright 1983,
 Carnegie Mellon University). Gaussian is a federally registered
 trademark of Gaussian, Inc.
  
 This software contains proprietary and confidential information,
 including trade secrets, belonging to Gaussian, Inc.
  
 This software is provided under written license and may be
 used, copied, transmitted, or stored only in accord with that
 written license.
  
 The following legend is applicable only to US Government
 contracts under FAR:
  
                    RESTRICTED RIGHTS LEGEND
  
 Use, reproduction and disclosure by the US Government is
 subject to restrictions as set forth in subparagraphs (a)
 and (c) of the Commercial Computer Software - Restricted
 Rights clause in FAR 52.227-19.
  
 Gaussian, Inc.
 340 Quinnipiac St., Bldg. 40, Wallingford CT 06492
  
  
 ---------------------------------------------------------------
 Warning -- This program may not be used in any manner that
 competes with the business of Gaussian, Inc. or will provide
 assistance to any competitor of Gaussian, Inc.  The licensee
 of this program is prohibited from giving any competitor of
 Gaussian, Inc. access to this program.  By using this program,
 the user acknowledges that Gaussian, Inc. is engaged in the
 business of creating and licensing software in the field of
 computational chemistry and represents and warrants to the
 licensee that it is not a competitor of Gaussian, Inc. and that
 it will not use this program in any manner prohibited above.
 ---------------------------------------------------------------
  

 Cite this work as:
 Gaussian 16, Revision C.01,
 M. J. Frisch, G. W. Trucks, H. B. Schlegel, G. E. Scuseria, 
 M. A. Robb, J. R. Cheeseman, G. Scalmani, V. Barone, 
 G. A. Petersson, H. Nakatsuji, X. Li, M. Caricato, A. V. Marenich, 
 J. Bloino, B. G. Janesko, R. Gomperts, B. Mennucci, H. P. Hratchian, 
 J. V. Ortiz, A. F. Izmaylov, J. L. Sonnenberg, D. Williams-Young, 
 F. Ding, F. Lipparini, F. Egidi, J. Goings, B. Peng, A. Petrone, 
 T. Henderson, D. Ranasinghe, V. G. Zakrzewski, J. Gao, N. Rega, 
 G. Zheng, W. Liang, M. Hada, M. Ehara, K. Toyota, R. Fukuda, 
 J. Hasegawa, M. Ishida, T. Nakajima, Y. Honda, O. Kitao, H. Nakai, 
 T. Vreven, K. Throssell, J. A. Montgomery, Jr., J. E. Peralta, 
 F. Ogliaro, M. J. Bearpark, J. J. Heyd, E. N. Brothers, K. N. Kudin, 
 V. N. Staroverov, T. A. Keith, R. Kobayashi, J. Normand, 
 K. Raghavachari, A. P. Rendell, J. C. Burant, S. S. Iyengar, 
 J. Tomasi, M. Cossi, J. M. Millam, M. Klene, C. Adamo, R. Cammi, 
 J. W. Ochterski, R. L. Martin, K. Morokuma, O. Farkas, 
 J. B. Foresman, and D. J. Fox, Gaussian, Inc., Wallingford CT, 2019.
 
 ******************************************
 Gaussian 16:  ES64L-G16RevC.01  3-Jul-2019
                29-Jun-2022 
 ******************************************
 %nproc=16
 Will use up to   16 processors via shared memory.
 %mem=50gb
 -----------------------------------------------------
 #m062X/gen 6D OPT Freq=noraman SCRF=(SMD,Solvent=h2o)
 -----------------------------------------------------
 1/18=20,19=15,26=3,38=1/1,3;
 2/9=110,12=2,17=6,18=5,40=1/2;
 3/5=7,8=2,11=2,25=1,30=1,70=32201,71=1,72=1,74=-55/1,2,3;
 4//1;
 5/5=2,38=5,53=1/2;
 6/7=2,8=2,9=2,10=2,28=1/1;
 7//1,2,3,16;
 1/18=20,19=15,26=3/3(2);
 2/9=110/2;
 99//99;
 2/9=110/2;
 3/5=7,6=1,8=2,11=2,25=1,30=1,70=32205,71=1,72=1,74=-55,82=7/1,2,3;
 4/5=5,16=3,69=1/1;
 5/5=2,38=5,53=1/2;
 7//1,2,3,16;
 1/18=20,19=15,26=3/3(-5);
 2/9=110/2;
 6/7=2,8=2,9=2,10=2,19=2,28=1/1;
 99/9=1/99;
 -------------------
 A.28.smd.a2b3c3.smd
 -------------------
 Symbolic Z-matrix:
 Charge = -1 Multiplicity = 1
 C                    -1.42972   0.62441  -0.86787 
 C                    -2.55195   0.75048  -1.70524 
 Cl                   -4.14892   0.95671  -1.03594 
 C                    -2.45356   0.71505  -3.08208 
 H                    -3.33921   0.81934  -3.70191 
 C                    -1.20014   0.54578  -3.69887 
 C                    -0.08501   0.41916  -2.85928 
 S                     1.52186   0.18342  -3.53504 
 C                    -0.19398   0.459    -1.46986 
 H                     0.69251   0.36683  -0.84867 
 S                    -1.52388   0.66347   0.94413 
 O                    -2.43908  -0.46262   1.25667 
 O                    -0.11162   0.43088   1.36397 
 N                    -2.16071   1.99763   1.43614 
 H                    -2.94584   2.22777   0.82394 
 N                    -1.09046   0.56969  -5.06666 
 C                     0.09399   0.03088  -5.70745 
 N                     1.2764    0.70634  -5.11814 
 O                     2.47292   1.10015  -2.90298 
 O                     1.88388  -1.24067  -3.49488 
 C                     0.04432   0.31937  -7.20262 
 Cl                   -0.0147    2.09584  -7.47697 
 H                    -1.96      0.39427  -5.56297 
 H                     0.17194  -1.05901  -5.55944 
 H                    -0.86074  -0.08431  -7.65 
 H                     0.93155  -0.06344  -7.70903 
 C                     2.52836   0.53122  -5.89192 
 H                     2.47945   1.16973  -6.77354 
 H                     2.68578  -0.51137  -6.18807 
 H                     3.36739   0.86991  -5.28274 
 

 GradGradGradGradGradGradGradGradGradGradGradGradGradGradGradGradGradGrad
 Berny optimization.
 Initialization pass.
                           ----------------------------
                           !    Initial Parameters    !
                           ! (Angstroms and Degrees)  !
 --------------------------                            --------------------------
 ! Name  Definition              Value          Derivative Info.                !
 --------------------------------------------------------------------------------
 ! R1    R(1,2)                  1.4059         estimate D2E/DX2                !
 ! R2    R(1,9)                  1.3845         estimate D2E/DX2                !
 ! R3    R(1,11)                 1.8149         estimate D2E/DX2                !
 ! R4    R(2,3)                  1.7438         estimate D2E/DX2                !
 ! R5    R(2,4)                  1.3808         estimate D2E/DX2                !
 ! R6    R(4,5)                  1.086          estimate D2E/DX2                !
 ! R7    R(4,6)                  1.4072         estimate D2E/DX2                !
 ! R8    R(6,7)                  1.4016         estimate D2E/DX2                !
 ! R9    R(6,16)                 1.3724         estimate D2E/DX2                !
 ! R10   R(7,8)                  1.7591         estimate D2E/DX2                !
 ! R11   R(7,9)                  1.3943         estimate D2E/DX2                !
 ! R12   R(8,18)                 1.6852         estimate D2E/DX2                !
 ! R13   R(8,19)                 1.4644         estimate D2E/DX2                !
 ! R14   R(8,20)                 1.4699         estimate D2E/DX2                !
 ! R15   R(9,10)                 1.0864         estimate D2E/DX2                !
 ! R16   R(11,12)                1.4844         estimate D2E/DX2                !
 ! R17   R(11,13)                1.4916         estimate D2E/DX2                !
 ! R18   R(11,14)                1.5581         estimate D2E/DX2                !
 ! R19   R(14,15)                1.0218         estimate D2E/DX2                !
 ! R20   R(16,17)                1.4505         estimate D2E/DX2                !
 ! R21   R(16,23)                1.0165         estimate D2E/DX2                !
 ! R22   R(17,18)                1.4838         estimate D2E/DX2                !
 ! R23   R(17,21)                1.5236         estimate D2E/DX2                !
 ! R24   R(17,24)                1.1027         estimate D2E/DX2                !
 ! R25   R(18,27)                1.4822         estimate D2E/DX2                !
 ! R26   R(21,22)                1.7985         estimate D2E/DX2                !
 ! R27   R(21,25)                1.0873         estimate D2E/DX2                !
 ! R28   R(21,26)                1.0909         estimate D2E/DX2                !
 ! R29   R(27,28)                1.0896         estimate D2E/DX2                !
 ! R30   R(27,29)                1.0952         estimate D2E/DX2                !
 ! R31   R(27,30)                1.0908         estimate D2E/DX2                !
 ! A1    A(2,1,9)              117.6589         estimate D2E/DX2                !
 ! A2    A(2,1,11)             123.4593         estimate D2E/DX2                !
 ! A3    A(9,1,11)             118.8816         estimate D2E/DX2                !
 ! A4    A(1,2,3)              120.8655         estimate D2E/DX2                !
 ! A5    A(1,2,4)              122.3261         estimate D2E/DX2                !
 ! A6    A(3,2,4)              116.8082         estimate D2E/DX2                !
 ! A7    A(2,4,5)              120.5651         estimate D2E/DX2                !
 ! A8    A(2,4,6)              120.2393         estimate D2E/DX2                !
 ! A9    A(5,4,6)              119.1955         estimate D2E/DX2                !
 ! A10   A(4,6,7)              117.1928         estimate D2E/DX2                !
 ! A11   A(4,6,16)             120.3937         estimate D2E/DX2                !
 ! A12   A(7,6,16)             122.3446         estimate D2E/DX2                !
 ! A13   A(6,7,8)              120.5816         estimate D2E/DX2                !
 ! A14   A(6,7,9)              122.1534         estimate D2E/DX2                !
 ! A15   A(8,7,9)              117.2616         estimate D2E/DX2                !
 ! A16   A(7,8,18)             100.7339         estimate D2E/DX2                !
 ! A17   A(7,8,19)             110.0942         estimate D2E/DX2                !
 ! A18   A(7,8,20)             110.14           estimate D2E/DX2                !
 ! A19   A(18,8,19)            107.8072         estimate D2E/DX2                !
 ! A20   A(18,8,20)            111.2331         estimate D2E/DX2                !
 ! A21   A(19,8,20)            115.7695         estimate D2E/DX2                !
 ! A22   A(1,9,7)              120.4293         estimate D2E/DX2                !
 ! A23   A(1,9,10)             119.3305         estimate D2E/DX2                !
 ! A24   A(7,9,10)             120.2391         estimate D2E/DX2                !
 ! A25   A(1,11,12)            103.0547         estimate D2E/DX2                !
 ! A26   A(1,11,13)            103.2119         estimate D2E/DX2                !
 ! A27   A(1,11,14)            110.7887         estimate D2E/DX2                !
 ! A28   A(12,11,13)           113.9666         estimate D2E/DX2                !
 ! A29   A(12,11,14)           109.336          estimate D2E/DX2                !
 ! A30   A(13,11,14)           115.5709         estimate D2E/DX2                !
 ! A31   A(11,14,15)           108.5238         estimate D2E/DX2                !
 ! A32   A(6,16,17)            119.9402         estimate D2E/DX2                !
 ! A33   A(6,16,23)            114.5361         estimate D2E/DX2                !
 ! A34   A(17,16,23)           114.7554         estimate D2E/DX2                !
 ! A35   A(16,17,18)           107.8285         estimate D2E/DX2                !
 ! A36   A(16,17,21)           109.6693         estimate D2E/DX2                !
 ! A37   A(16,17,24)           111.4448         estimate D2E/DX2                !
 ! A38   A(18,17,21)           109.2411         estimate D2E/DX2                !
 ! A39   A(18,17,24)           109.8956         estimate D2E/DX2                !
 ! A40   A(21,17,24)           108.7354         estimate D2E/DX2                !
 ! A41   A(8,18,17)            110.3599         estimate D2E/DX2                !
 ! A42   A(8,18,27)            109.3132         estimate D2E/DX2                !
 ! A43   A(17,18,27)           114.3301         estimate D2E/DX2                !
 ! A44   A(17,21,22)           109.7431         estimate D2E/DX2                !
 ! A45   A(17,21,25)           111.1386         estimate D2E/DX2                !
 ! A46   A(17,21,26)           111.2592         estimate D2E/DX2                !
 ! A47   A(22,21,25)           106.0597         estimate D2E/DX2                !
 ! A48   A(22,21,26)           107.6063         estimate D2E/DX2                !
 ! A49   A(25,21,26)           110.8353         estimate D2E/DX2                !
 ! A50   A(18,27,28)           108.3755         estimate D2E/DX2                !
 ! A51   A(18,27,29)           112.0273         estimate D2E/DX2                !
 ! A52   A(18,27,30)           108.753          estimate D2E/DX2                !
 ! A53   A(28,27,29)           110.2117         estimate D2E/DX2                !
 ! A54   A(28,27,30)           107.7247         estimate D2E/DX2                !
 ! A55   A(29,27,30)           109.6363         estimate D2E/DX2                !
 ! D1    D(9,1,2,3)            179.7861         estimate D2E/DX2                !
 ! D2    D(9,1,2,4)             -0.0448         estimate D2E/DX2                !
 ! D3    D(11,1,2,3)            -0.0508         estimate D2E/DX2                !
 ! D4    D(11,1,2,4)          -179.8818         estimate D2E/DX2                !
 ! D5    D(2,1,9,7)             -0.0917         estimate D2E/DX2                !
 ! D6    D(2,1,9,10)           179.5122         estimate D2E/DX2                !
 ! D7    D(11,1,9,7)           179.7529         estimate D2E/DX2                !
 ! D8    D(11,1,9,10)           -0.6432         estimate D2E/DX2                !
 ! D9    D(2,1,11,12)           58.6147         estimate D2E/DX2                !
 ! D10   D(2,1,11,13)          177.4801         estimate D2E/DX2                !
 ! D11   D(2,1,11,14)          -58.2311         estimate D2E/DX2                !
 ! D12   D(9,1,11,12)         -121.2204         estimate D2E/DX2                !
 ! D13   D(9,1,11,13)           -2.355          estimate D2E/DX2                !
 ! D14   D(9,1,11,14)          121.9338         estimate D2E/DX2                !
 ! D15   D(1,2,4,5)           -179.7501         estimate D2E/DX2                !
 ! D16   D(1,2,4,6)              0.1106         estimate D2E/DX2                !
 ! D17   D(3,2,4,5)              0.4125         estimate D2E/DX2                !
 ! D18   D(3,2,4,6)           -179.7268         estimate D2E/DX2                !
 ! D19   D(2,4,6,7)             -0.0375         estimate D2E/DX2                !
 ! D20   D(2,4,6,16)          -177.0887         estimate D2E/DX2                !
 ! D21   D(5,4,6,7)            179.8251         estimate D2E/DX2                !
 ! D22   D(5,4,6,16)             2.7739         estimate D2E/DX2                !
 ! D23   D(4,6,7,8)            179.2219         estimate D2E/DX2                !
 ! D24   D(4,6,7,9)             -0.0993         estimate D2E/DX2                !
 ! D25   D(16,6,7,8)            -3.7889         estimate D2E/DX2                !
 ! D26   D(16,6,7,9)           176.89           estimate D2E/DX2                !
 ! D27   D(4,6,16,17)         -162.5827         estimate D2E/DX2                !
 ! D28   D(4,6,16,23)          -20.0105         estimate D2E/DX2                !
 ! D29   D(7,6,16,17)           20.522          estimate D2E/DX2                !
 ! D30   D(7,6,16,23)          163.0942         estimate D2E/DX2                !
 ! D31   D(6,7,8,18)            18.653          estimate D2E/DX2                !
 ! D32   D(6,7,8,19)           132.2803         estimate D2E/DX2                !
 ! D33   D(6,7,8,20)           -98.8724         estimate D2E/DX2                !
 ! D34   D(9,7,8,18)          -161.9935         estimate D2E/DX2                !
 ! D35   D(9,7,8,19)           -48.3663         estimate D2E/DX2                !
 ! D36   D(9,7,8,20)            80.4811         estimate D2E/DX2                !
 ! D37   D(6,7,9,1)              0.167          estimate D2E/DX2                !
 ! D38   D(6,7,9,10)          -179.4333         estimate D2E/DX2                !
 ! D39   D(8,7,9,1)           -179.1755         estimate D2E/DX2                !
 ! D40   D(8,7,9,10)             1.2242         estimate D2E/DX2                !
 ! D41   D(7,8,18,17)          -51.0417         estimate D2E/DX2                !
 ! D42   D(7,8,18,27)         -177.6046         estimate D2E/DX2                !
 ! D43   D(19,8,18,17)        -166.3931         estimate D2E/DX2                !
 ! D44   D(19,8,18,27)          67.0441         estimate D2E/DX2                !
 ! D45   D(20,8,18,17)          65.6779         estimate D2E/DX2                !
 ! D46   D(20,8,18,27)         -60.885          estimate D2E/DX2                !
 ! D47   D(1,11,14,15)          41.2755         estimate D2E/DX2                !
 ! D48   D(12,11,14,15)        -71.6337         estimate D2E/DX2                !
 ! D49   D(13,11,14,15)        158.1905         estimate D2E/DX2                !
 ! D50   D(6,16,17,18)         -54.6717         estimate D2E/DX2                !
 ! D51   D(6,16,17,21)        -173.5257         estimate D2E/DX2                !
 ! D52   D(6,16,17,24)          66.0182         estimate D2E/DX2                !
 ! D53   D(23,16,17,18)        162.8332         estimate D2E/DX2                !
 ! D54   D(23,16,17,21)         43.9793         estimate D2E/DX2                !
 ! D55   D(23,16,17,24)        -76.4768         estimate D2E/DX2                !
 ! D56   D(16,17,18,8)          71.2201         estimate D2E/DX2                !
 ! D57   D(16,17,18,27)       -165.0729         estimate D2E/DX2                !
 ! D58   D(21,17,18,8)        -169.653          estimate D2E/DX2                !
 ! D59   D(21,17,18,27)        -45.9459         estimate D2E/DX2                !
 ! D60   D(24,17,18,8)         -50.4361         estimate D2E/DX2                !
 ! D61   D(24,17,18,27)         73.271          estimate D2E/DX2                !
 ! D62   D(16,17,21,22)         60.2323         estimate D2E/DX2                !
 ! D63   D(16,17,21,25)        -56.761          estimate D2E/DX2                !
 ! D64   D(16,17,21,26)        179.2098         estimate D2E/DX2                !
 ! D65   D(18,17,21,22)        -57.7463         estimate D2E/DX2                !
 ! D66   D(18,17,21,25)       -174.7396         estimate D2E/DX2                !
 ! D67   D(18,17,21,26)         61.2312         estimate D2E/DX2                !
 ! D68   D(24,17,21,22)       -177.6797         estimate D2E/DX2                !
 ! D69   D(24,17,21,25)         65.327          estimate D2E/DX2                !
 ! D70   D(24,17,21,26)        -58.7023         estimate D2E/DX2                !
 ! D71   D(8,18,27,28)        -160.488          estimate D2E/DX2                !
 ! D72   D(8,18,27,29)          77.7014         estimate D2E/DX2                !
 ! D73   D(8,18,27,30)         -43.6438         estimate D2E/DX2                !
 ! D74   D(17,18,27,28)         75.2448         estimate D2E/DX2                !
 ! D75   D(17,18,27,29)        -46.5657         estimate D2E/DX2                !
 ! D76   D(17,18,27,30)       -167.911          estimate D2E/DX2                !
 --------------------------------------------------------------------------------
 Trust Radius=3.00D-01 FncErr=1.00D-07 GrdErr=1.00D-06 EigMax=2.50D+02 EigMin=1.00D-04
 Number of steps in this run=    172 maximum allowed number of steps=    180.
 GradGradGradGradGradGradGradGradGradGradGradGradGradGradGradGradGradGrad

                          Input orientation:                          
 ---------------------------------------------------------------------
 Center     Atomic      Atomic             Coordinates (Angstroms)
 Number     Number       Type             X           Y           Z
 ---------------------------------------------------------------------
      1          6           0       -1.429724    0.624405   -0.867867
      2          6           0       -2.551947    0.750477   -1.705243
      3         17           0       -4.148918    0.956710   -1.035944
      4          6           0       -2.453558    0.715047   -3.082084
      5          1           0       -3.339213    0.819343   -3.701907
      6          6           0       -1.200140    0.545784   -3.698869
      7          6           0       -0.085014    0.419161   -2.859276
      8         16           0        1.521858    0.183419   -3.535041
      9          6           0       -0.193983    0.458996   -1.469856
     10          1           0        0.692505    0.366832   -0.848672
     11         16           0       -1.523879    0.663471    0.944125
     12          8           0       -2.439083   -0.462624    1.256671
     13          8           0       -0.111616    0.430883    1.363970
     14          7           0       -2.160711    1.997629    1.436143
     15          1           0       -2.945836    2.227765    0.823941
     16          7           0       -1.090459    0.569687   -5.066659
     17          6           0        0.093987    0.030876   -5.707450
     18          7           0        1.276398    0.706338   -5.118142
     19          8           0        2.472922    1.100155   -2.902981
     20          8           0        1.883877   -1.240673   -3.494878
     21          6           0        0.044319    0.319367   -7.202621
     22         17           0       -0.014698    2.095841   -7.476966
     23          1           0       -1.960000    0.394272   -5.562974
     24          1           0        0.171943   -1.059013   -5.559437
     25          1           0       -0.860740   -0.084311   -7.650000
     26          1           0        0.931550   -0.063440   -7.709030
     27          6           0        2.528364    0.531221   -5.891916
     28          1           0        2.479454    1.169725   -6.773537
     29          1           0        2.685781   -0.511374   -6.188068
     30          1           0        3.367385    0.869911   -5.282737
 ---------------------------------------------------------------------
                    Distance matrix (angstroms):
                    1          2          3          4          5
     1  C    0.000000
     2  C    1.405872   0.000000
     3  Cl   2.744575   1.743792   0.000000
     4  C    2.441149   1.380807   2.668208   0.000000
     5  H    3.422854   2.147370   2.789597   1.086022   0.000000
     6  C    2.841384   2.417401   3.994411   1.407171   2.156496
     7  C    2.411655   2.743596   4.486515   2.397330   3.385260
     8  S    4.002514   4.501733   6.245091   4.036302   4.905329
     9  C    1.384488   2.387543   4.009677   2.787565   3.873548
    10  H    2.137889   3.377479   4.880820   3.873899   4.959886
    11  S    1.814857   2.843175   3.301135   4.132472   4.990526
    12  O    2.591158   3.202700   3.192824   4.495766   5.200112
    13  O    2.599222   3.934136   4.726086   5.033174   6.019252
    14  N    2.780027   3.402464   3.338816   4.705863   5.401554
    15  H    2.780571   2.955385   2.553852   4.217545   4.756227
    16  N    4.212831   3.669843   5.074507   2.411992   2.642304
    17  C    5.108379   4.851438   6.378274   3.721642   4.053486
    18  N    5.039310   5.128943   6.794195   4.249492   4.829323
    19  O    4.427039   5.177467   6.881509   4.944754   5.873504
    20  O    4.621651   5.181120   6.875279   4.775833   5.618469
    21  C    6.511141   6.094885   7.484474   4.834747   4.894207
    22  Cl   6.917197   6.446737   7.737969   5.212448   5.189693
    23  H    4.730558   3.919103   5.059812   2.549767   2.355097
    24  H    5.235462   5.054566   6.572288   4.022166   4.393957
    25  H    6.842759   6.236761   7.459328   4.903254   4.748353
    26  H    7.269818   6.988753   8.448783   5.785640   5.922479
    27  C    6.396578   6.586795   8.267261   5.722630   6.269578
    28  H    7.103238   7.153906   8.769302   6.178039   6.588973
    29  H    6.821430   7.008693   8.684052   6.128952   6.652245
    30  H    6.524079   6.917458   8.633516   6.224969   6.890576
                    6          7          8          9         10
     6  C    0.000000
     7  C    1.401590   0.000000
     8  S    2.750895   1.759054   0.000000
     9  C    2.447117   1.394256   2.699082   0.000000
    10  H    3.426040   2.156340   2.817454   1.086381   0.000000
    11  S    4.655755   4.073804   5.437821   2.763646   2.866090
    12  O    5.206654   4.822884   6.250354   3.650179   3.863588
    13  O    5.179809   4.223346   5.170086   2.835162   2.355100
    14  N    5.422075   5.025008   6.447119   3.831480   4.002589
    15  H    5.131503   5.002143   6.568132   3.995340   4.415680
    16  N    1.372389   2.430250   3.052746   3.708492   4.583833
    17  C    2.444237   2.880087   2.604121   4.268889   4.907017
    18  N    2.858908   2.652996   1.685201   3.941217   4.322565
    19  O    3.798967   2.647395   1.464386   3.094724   2.815641
    20  O    3.569902   2.652465   1.469935   3.362602   3.317506
    21  C    3.725080   4.346416   3.956355   5.739414   6.387102
    22  Cl   4.252290   4.913172   4.642966   6.228706   6.886501
    23  H    2.018720   3.290315   4.034886   4.458320   5.409360
    24  H    2.814196   3.088996   2.732048   4.377548   4.949275
    25  H    4.015426   4.879167   4.762493   6.239706   6.991006
    26  H    4.582210   4.978596   4.222746   6.361372   6.877993
    27  C    4.325669   4.004898   2.586287   5.193362   5.369517
    28  H    4.835525   4.739333   3.518188   5.981758   6.240340
    29  H    4.734351   4.429905   2.979263   5.612146   5.766589
    30  H    4.845202   4.242098   2.632809   5.233570   5.202788
                   11         12         13         14         15
    11  S    0.000000
    12  O    1.484376   0.000000
    13  O    1.491594   2.495390   0.000000
    14  N    1.558080   2.482448   2.580444   0.000000
    15  H    2.117409   2.771687   3.399003   1.021849   0.000000
    16  N    6.027120   6.547439   6.506181   6.743211   6.394593
    17  C    6.874672   7.426908   7.085708   7.744850   7.531661
    18  N    6.677909   7.470576   6.634775   7.512643   7.446499
    19  O    5.564651   6.623653   5.033352   6.411241   6.672660
    20  O    5.911287   6.470747   5.512213   7.152640   7.349040
    21  C    8.303440   8.850899   8.568736   9.072319   8.775461
    22  Cl   8.674335   9.418057   8.996868   9.168344   8.804205
    23  H    6.527251   6.889946   7.169408   7.183222   6.717608
    24  H    6.938233   7.323419   7.087578   7.982636   7.827578
    25  H    8.652047   9.053346   9.059706   9.411822   9.027790
    26  H    9.024113   9.586674   9.146140   9.871387   9.648592
    27  C    7.947932   8.761595   7.721881   8.822597   8.828809
    28  H    8.708919   9.557239   8.571963   9.466541   9.395472
    29  H    8.364788   9.038293   8.108425   9.376149   9.401397
    30  H    7.920915   8.846162   7.514979   8.773536   8.887747
                   16         17         18         19         20
    16  N    0.000000
    17  C    1.450463   0.000000
    18  N    2.371357   1.483789   0.000000
    19  O    4.202450   3.829848   2.548274   0.000000
    20  O    3.820284   3.117053   2.606697   2.485315   0.000000
    21  C    2.431607   1.523558   2.452105   4.999465   4.423241
    22  Cl   3.048932   2.721595   3.026830   5.301036   5.531179
    23  H    1.016465   2.090883   3.281697   5.217723   4.661057
    24  H    2.118762   1.102653   2.128621   4.124714   2.688145
    25  H    2.674721   2.167550   3.406287   5.920342   5.112253
    26  H    3.386960   2.171803   2.724735   5.179564   4.477933
    27  C    3.711928   2.492100   1.482164   3.043106   3.049715
    28  H    4.002219   2.850258   2.098191   3.871187   4.112704
    29  H    4.084879   2.691175   2.148005   3.665260   2.903136
    30  H    4.473164   3.405803   2.103824   2.552707   3.138758
                   21         22         23         24         25
    21  C    0.000000
    22  Cl   1.798502   0.000000
    23  H    2.590627   3.216038   0.000000
    24  H    2.148551   3.696601   2.580161   0.000000
    25  H    1.087307   2.344950   2.406884   2.527238   0.000000
    26  H    1.090949   2.368910   3.629892   2.487754   1.793383
    27  C    2.816613   3.380471   4.502485   2.862186   3.867268
    28  H    2.614786   2.751962   4.666427   3.430149   3.673920
    29  H    2.949029   3.968805   4.774329   2.648484   3.859720
    30  H    3.877089   4.213791   5.355912   3.742748   4.938777
                   26         27         28         29         30
    26  H    0.000000
    27  C    2.491052   0.000000
    28  H    2.189029   1.089649   0.000000
    29  H    2.364592   1.095213   1.792049   0.000000
    30  H    3.562490   1.090764   1.760907   1.786661   0.000000
 Stoichiometry    C9H10Cl2N3O4S2(1-)
 Framework group  C1[X(C9H10Cl2N3O4S2)]
 Deg. of freedom    84
 Full point group                 C1      NOp   1
 Largest Abelian subgroup         C1      NOp   1
 Largest concise Abelian subgroup C1      NOp   1
                         Standard orientation:                         
 ---------------------------------------------------------------------
 Center     Atomic      Atomic             Coordinates (Angstroms)
 Number     Number       Type             X           Y           Z
 ---------------------------------------------------------------------
      1          6           0       -2.165954   -0.035545    0.019195
      2          6           0       -1.880127    1.329527   -0.157887
      3         17           0       -3.159182    2.514297   -0.191735
      4          6           0       -0.591452    1.799655   -0.315757
      5          1           0       -0.402993    2.861167   -0.446591
      6          6           0        0.495226    0.905695   -0.305847
      7          6           0        0.204381   -0.454119   -0.130426
      8         16           0        1.493092   -1.651389   -0.124167
      9          6           0       -1.100108   -0.919083    0.031026
     10          1           0       -1.289287   -1.979268    0.174003
     11         16           0       -3.847075   -0.687192    0.226307
     12          8           0       -4.532182   -0.248126   -1.015153
     13          8           0       -3.633337   -2.160928    0.311586
     14          7           0       -4.544558   -0.036404    1.458219
     15          1           0       -4.318828    0.960129    1.470173
     16          7           0        1.781259    1.374934   -0.402707
     17          6           0        2.855636    0.472022   -0.769185
     18          7           0        2.830628   -0.671268    0.176274
     19          8           0        1.334702   -2.555092    1.017174
     20          8           0        1.590970   -2.296526   -1.441334
     21          6           0        4.193199    1.191914   -0.651237
     22         17           0        4.440303    1.740898    1.043509
     23          1           0        1.860927    2.311010   -0.790800
     24          1           0        2.740084    0.106556   -1.803074
     25          1           0        4.210488    2.090019   -1.263890
     26          1           0        5.022187    0.530906   -0.908173
     27          6           0        4.058859   -1.500790    0.163998
     28          1           0        4.845440   -0.957642    0.687081
     29          1           0        4.379987   -1.744173   -0.854399
     30          1           0        3.866179   -2.420833    0.717317
 ---------------------------------------------------------------------
 Rotational constants (GHZ):           0.4784288           0.1417858           0.1179113
 General basis read from cards:  (6D, 7F)
 There are   416 symmetry adapted cartesian basis functions of A   symmetry.
 There are   416 symmetry adapted basis functions of A   symmetry.
   416 basis functions,   776 primitive gaussians,   416 cartesian basis functions
    92 alpha electrons       92 beta electrons
       nuclear repulsion energy      2308.9499503278 Hartrees.
 NAtoms=   30 NActive=   30 NUniq=   30 SFac= 1.00D+00 NAtFMM=   60 NAOKFM=F Big=F
 Integral buffers will be    131072 words long.
 Raffenetti 2 integral format.
 Two-electron integral symmetry is turned on.
 ------------------------------------------------------------------------------
 Polarizable Continuum Model (PCM)
 =================================
 Model                : PCM.
 Atomic radii         : SMD-Coulomb.
 Polarization charges : Total charges.
 Charge compensation  : None.
 Solution method      : On-the-fly selection.
 Cavity type          : VdW (van der Waals Surface) (Alpha=1.000).
 Cavity algorithm     : GePol (No added spheres)
                        Default sphere list used, NSphG=   30.
                        Lebedev-Laikov grids with approx.  5.0 points / Ang**2.
                        Smoothing algorithm: York/Karplus (Gamma=1.0000).
                        Polarization charges: spherical gaussians, with
                                              point-specific exponents (IZeta= 3).
                        Self-potential: point-specific (ISelfS= 7).
                        Self-field    : sphere-specific E.n sum rule (ISelfD= 2).
 1st derivatives      : Analytical E(r).r(x)/FMM algorithm (CHGder, D1EAlg=3).
                        Cavity 1st derivative terms included.
 Solvent              : Water, Eps=  78.355300 Eps(inf)=   1.777849
 ------------------------------------------------------------------------------
 ------------------------------------------------------------------------------
 Atomic radii for non-electrostatic terms: SMD-CDS.
 ------------------------------------------------------------------------------
 Nuclear repulsion after PCM non-electrostatic terms =     2308.9539132145 Hartrees.
 One-electron integrals computed using PRISM.
 NBasis=   416 RedAO= T EigKep=  1.24D-06  NBF=   416
 NBsUse=   414 1.00D-06 EigRej=  5.42D-07 NBFU=   414
 ExpMin= 4.05D-02 ExpMax= 2.52D+04 ExpMxC= 3.78D+03 IAcc=3 IRadAn=         5 AccDes= 0.00D+00
 Harris functional with IExCor= 1009 and IRadAn=       5 diagonalized for initial guess.
 HarFok:  IExCor= 1009 AccDes= 0.00D+00 IRadAn=         5 IDoV= 1 UseB2=F ITyADJ=14
 ICtDFT=  3500011 ScaDFX=  1.000000  1.000000  1.000000  1.000000
 FoFCou: FMM=F IPFlag=           0 FMFlag=      100000 FMFlg1=           0
         NFxFlg=           0 DoJE=T BraDBF=F KetDBF=T FulRan=T
         wScrn=  0.000000 ICntrl=       500 IOpCl=  0 I1Cent=   200000004 NGrid=           0
         NMat0=    1 NMatS0=      1 NMatT0=    0 NMatD0=    1 NMtDS0=    0 NMtDT0=    0
 Petite list used in FoFCou.
 Requested convergence on RMS density matrix=1.00D-08 within 128 cycles.
 Requested convergence on MAX density matrix=1.00D-06.
 Requested convergence on             energy=1.00D-06.
 No special actions if energy rises.
 Inv3:  Mode=1 IEnd=    17890092.
 Iteration    1 A*A^-1 deviation from unit magnitude is 6.88D-15 for   2439.
 Iteration    1 A*A^-1 deviation from orthogonality  is 2.81D-15 for   2431    459.
 Iteration    1 A^-1*A deviation from unit magnitude is 6.88D-15 for   2439.
 Iteration    1 A^-1*A deviation from orthogonality  is 1.01D-14 for   2430   1041.
 Error on total polarization charges =  0.04746
 SCF Done:  E(RM062X) =  -2530.50357916     A.U. after   17 cycles
            NFock= 17  Conv=0.34D-08     -V/T= 2.0048
 SMD-CDS (non-electrostatic) energy       (kcal/mol) =       2.49
 (included in total energy above)

 **********************************************************************

            Population analysis using the SCF Density.

 **********************************************************************

 Orbital symmetries:
       Occupied  (A) (A) (A) (A) (A) (A) (A) (A) (A) (A) (A) (A)
                 (A) (A) (A) (A) (A) (A) (A) (A) (A) (A) (A) (A)
                 (A) (A) (A) (A) (A) (A) (A) (A) (A) (A) (A) (A)
                 (A) (A) (A) (A) (A) (A) (A) (A) (A) (A) (A) (A)
                 (A) (A) (A) (A) (A) (A) (A) (A) (A) (A) (A) (A)
                 (A) (A) (A) (A) (A) (A) (A) (A) (A) (A) (A) (A)
                 (A) (A) (A) (A) (A) (A) (A) (A) (A) (A) (A) (A)
                 (A) (A) (A) (A) (A) (A) (A) (A)
       Virtual   (A) (A) (A) (A) (A) (A) (A) (A) (A) (A) (A) (A)
                 (A) (A) (A) (A) (A) (A) (A) (A) (A) (A) (A) (A)
                 (A) (A) (A) (A) (A) (A) (A) (A) (A) (A) (A) (A)
                 (A) (A) (A) (A) (A) (A) (A) (A) (A) (A) (A) (A)
                 (A) (A) (A) (A) (A) (A) (A) (A) (A) (A) (A) (A)
                 (A) (A) (A) (A) (A) (A) (A) (A) (A) (A) (A) (A)
                 (A) (A) (A) (A) (A) (A) (A) (A) (A) (A) (A) (A)
                 (A) (A) (A) (A) (A) (A) (A) (A) (A) (A) (A) (A)
                 (A) (A) (A) (A) (A) (A) (A) (A) (A) (A) (A) (A)
                 (A) (A) (A) (A) (A) (A) (A) (A) (A) (A) (A) (A)
                 (A) (A) (A) (A) (A) (A) (A) (A) (A) (A) (A) (A)
                 (A) (A) (A) (A) (A) (A) (A) (A) (A) (A) (A) (A)
                 (A) (A) (A) (A) (A) (A) (A) (A) (A) (A) (A) (A)
                 (A) (A) (A) (A) (A) (A) (A) (A) (A) (A) (A) (A)
                 (A) (A) (A) (A) (A) (A) (A) (A) (A) (A) (A) (A)
                 (A) (A) (A) (A) (A) (A) (A) (A) (A) (A) (A) (A)
                 (A) (A) (A) (A) (A) (A) (A) (A) (A) (A) (A) (A)
                 (A) (A) (A) (A) (A) (A) (A) (A) (A) (A) (A) (A)
                 (A) (A) (A) (A) (A) (A) (A) (A) (A) (A) (A) (A)
                 (A) (A) (A) (A) (A) (A) (A) (A) (A) (A) (A) (A)
                 (A) (A) (A) (A) (A) (A) (A) (A) (A) (A) (A) (A)
                 (A) (A) (A) (A) (A) (A) (A) (A) (A) (A) (A) (A)
                 (A) (A) (A) (A) (A) (A) (A) (A) (A) (A) (A) (A)
                 (A) (A) (A) (A) (A) (A) (A) (A) (A) (A) (A) (A)
                 (A) (A) (A) (A) (A) (A) (A) (A) (A) (A) (A) (A)
                 (A) (A) (A) (A) (A) (A) (A) (A) (A) (A) (A) (A)
                 (A) (A) (A) (A) (A) (A) (A) (A) (A) (A)
 The electronic state is 1-A.
 Alpha  occ. eigenvalues -- -102.68876-102.66378 -90.18112 -90.14287 -19.66398
 Alpha  occ. eigenvalues --  -19.66198 -19.63151 -19.61379 -14.81888 -14.80148
 Alpha  occ. eigenvalues --  -14.71827 -10.65224 -10.64680 -10.63988 -10.61688
 Alpha  occ. eigenvalues --  -10.60493 -10.59517 -10.59320 -10.58376 -10.58077
 Alpha  occ. eigenvalues --   -9.83532  -9.81061  -8.49228  -8.45101  -7.55935
 Alpha  occ. eigenvalues --   -7.55281  -7.55240  -7.53456  -7.52800  -7.52799
 Alpha  occ. eigenvalues --   -6.41403  -6.41375  -6.41298  -6.37331  -6.37259
 Alpha  occ. eigenvalues --   -6.37196  -1.26181  -1.21317  -1.14233  -1.11238
 Alpha  occ. eigenvalues --   -1.09638  -1.04787  -1.01560  -0.97319  -0.96393
 Alpha  occ. eigenvalues --   -0.95491  -0.88573  -0.88268  -0.83166  -0.81336
 Alpha  occ. eigenvalues --   -0.75148  -0.74294  -0.72620  -0.69501  -0.65280
 Alpha  occ. eigenvalues --   -0.64830  -0.62531  -0.60913  -0.60566  -0.57989
 Alpha  occ. eigenvalues --   -0.56901  -0.55363  -0.54961  -0.53969  -0.52872
 Alpha  occ. eigenvalues --   -0.52703  -0.52391  -0.51805  -0.50623  -0.49591
 Alpha  occ. eigenvalues --   -0.48204  -0.47196  -0.46996  -0.46135  -0.44167
 Alpha  occ. eigenvalues --   -0.43129  -0.42584  -0.42031  -0.40990  -0.40061
 Alpha  occ. eigenvalues --   -0.39553  -0.39440  -0.38899  -0.38000  -0.37040
 Alpha  occ. eigenvalues --   -0.36854  -0.36098  -0.34398  -0.33986  -0.32573
 Alpha  occ. eigenvalues --   -0.29712  -0.27613
 Alpha virt. eigenvalues --   -0.02215  -0.00150   0.01039   0.02194   0.02559
 Alpha virt. eigenvalues --    0.02699   0.03086   0.03941   0.04354   0.04468
 Alpha virt. eigenvalues --    0.05037   0.05597   0.06095   0.06463   0.06891
 Alpha virt. eigenvalues --    0.07113   0.08098   0.08471   0.08599   0.08771
 Alpha virt. eigenvalues --    0.09003   0.09568   0.10470   0.10699   0.10972
 Alpha virt. eigenvalues --    0.11090   0.11482   0.11816   0.12015   0.12141
 Alpha virt. eigenvalues --    0.12368   0.13006   0.13949   0.13956   0.14172
 Alpha virt. eigenvalues --    0.14433   0.15093   0.15720   0.16131   0.16192
 Alpha virt. eigenvalues --    0.16429   0.17096   0.17380   0.17907   0.18208
 Alpha virt. eigenvalues --    0.18339   0.18675   0.18807   0.19391   0.19954
 Alpha virt. eigenvalues --    0.20315   0.20989   0.21868   0.22186   0.22495
 Alpha virt. eigenvalues --    0.22941   0.23107   0.23353   0.23546   0.23828
 Alpha virt. eigenvalues --    0.24135   0.24425   0.24998   0.25401   0.25642
 Alpha virt. eigenvalues --    0.26092   0.26378   0.27082   0.27240   0.27781
 Alpha virt. eigenvalues --    0.27940   0.28808   0.29186   0.29315   0.29518
 Alpha virt. eigenvalues --    0.30126   0.30443   0.30660   0.30855   0.31187
 Alpha virt. eigenvalues --    0.31645   0.31986   0.32162   0.32511   0.33006
 Alpha virt. eigenvalues --    0.33038   0.34499   0.34754   0.34886   0.35303
 Alpha virt. eigenvalues --    0.35593   0.35773   0.36614   0.37226   0.37513
 Alpha virt. eigenvalues --    0.38391   0.39733   0.40279   0.40592   0.41913
 Alpha virt. eigenvalues --    0.43000   0.43639   0.44202   0.44930   0.45094
 Alpha virt. eigenvalues --    0.46141   0.46363   0.47916   0.49465   0.52903
 Alpha virt. eigenvalues --    0.53641   0.57237   0.59078   0.61125   0.61777
 Alpha virt. eigenvalues --    0.62276   0.63518   0.65536   0.66146   0.66704
 Alpha virt. eigenvalues --    0.66943   0.67830   0.68371   0.69263   0.70536
 Alpha virt. eigenvalues --    0.70856   0.71451   0.71981   0.72286   0.73343
 Alpha virt. eigenvalues --    0.74293   0.74871   0.75589   0.76832   0.77613
 Alpha virt. eigenvalues --    0.78113   0.78679   0.79685   0.80018   0.80077
 Alpha virt. eigenvalues --    0.82369   0.84350   0.85230   0.87042   0.87884
 Alpha virt. eigenvalues --    0.89133   0.90240   0.91503   0.92282   0.93007
 Alpha virt. eigenvalues --    0.93506   0.94692   0.95947   0.96844   0.98153
 Alpha virt. eigenvalues --    0.98629   0.99796   1.01276   1.01840   1.02527
 Alpha virt. eigenvalues --    1.02661   1.03213   1.03998   1.04818   1.05729
 Alpha virt. eigenvalues --    1.06602   1.07032   1.07462   1.08901   1.09819
 Alpha virt. eigenvalues --    1.11064   1.11987   1.12390   1.14177   1.14485
 Alpha virt. eigenvalues --    1.15087   1.16210   1.17000   1.17202   1.18278
 Alpha virt. eigenvalues --    1.18809   1.21071   1.21255   1.21626   1.22748
 Alpha virt. eigenvalues --    1.23493   1.24818   1.25015   1.25828   1.27199
 Alpha virt. eigenvalues --    1.28514   1.31150   1.31462   1.33183   1.34131
 Alpha virt. eigenvalues --    1.35660   1.35897   1.37563   1.37765   1.39123
 Alpha virt. eigenvalues --    1.39900   1.40766   1.41024   1.42409   1.42634
 Alpha virt. eigenvalues --    1.43351   1.44099   1.45867   1.46976   1.48289
 Alpha virt. eigenvalues --    1.49160   1.50146   1.51865   1.52286   1.53613
 Alpha virt. eigenvalues --    1.53966   1.57504   1.58129   1.58545   1.61381
 Alpha virt. eigenvalues --    1.63112   1.64606   1.66707   1.71829   1.73152
 Alpha virt. eigenvalues --    1.76875   1.77723   1.80174   1.81013   1.81584
 Alpha virt. eigenvalues --    1.82843   1.83889   1.84311   1.84982   1.85975
 Alpha virt. eigenvalues --    1.86977   1.87598   1.87978   1.88953   1.90139
 Alpha virt. eigenvalues --    1.90965   1.91433   1.93670   1.96463   1.96911
 Alpha virt. eigenvalues --    1.98259   1.99918   2.00091   2.01054   2.02715
 Alpha virt. eigenvalues --    2.03263   2.04310   2.05156   2.05695   2.08012
 Alpha virt. eigenvalues --    2.09170   2.11775   2.12937   2.14701   2.17322
 Alpha virt. eigenvalues --    2.18318   2.19729   2.20845   2.22278   2.23547
 Alpha virt. eigenvalues --    2.24376   2.25229   2.26376   2.28103   2.30558
 Alpha virt. eigenvalues --    2.31330   2.31495   2.36060   2.36897   2.38129
 Alpha virt. eigenvalues --    2.41014   2.41583   2.42558   2.43267   2.49105
 Alpha virt. eigenvalues --    2.53711   2.55126   2.58131   2.61605   2.63836
 Alpha virt. eigenvalues --    2.65679   2.66159   2.70172   2.76165   2.77935
 Alpha virt. eigenvalues --    2.79678   2.80962   2.83425   2.87306   2.88972
 Alpha virt. eigenvalues --    2.92066   2.94951   2.99090   3.01089   3.03159
 Alpha virt. eigenvalues --    3.19165   3.33176   4.01821   4.05340   4.08309
 Alpha virt. eigenvalues --    4.21043   4.23810   4.26439   4.26841   4.28650
 Alpha virt. eigenvalues --    4.31939   4.33173   4.37501   4.39438   4.41657
 Alpha virt. eigenvalues --    4.44682   4.48454   4.49428   4.51383   4.53659
 Alpha virt. eigenvalues --    4.65787   4.75092
          Condensed to atoms (all electrons):
               1          2          3          4          5          6
     1  C   64.668320  -6.963256   0.403237  -7.250083   0.040491   3.826359
     2  C   -6.963256  38.361269  -1.032634  -7.940410   0.012218   3.193112
     3  Cl   0.403237  -1.032634  17.149729   0.281312  -0.004260   0.043414
     4  C   -7.250083  -7.940410   0.281312  32.203777   0.203592  -6.568597
     5  H    0.040491   0.012218  -0.004260   0.203592   0.404242  -0.071535
     6  C    3.826359   3.193112   0.043414  -6.568597  -0.071535  36.381083
     7  C  -21.158780  -4.171438  -0.309231 -12.772810   0.122717 -20.377046
     8  S   -5.275581  -0.025000  -0.021615   1.897664   0.001588  -1.509158
     9  C  -16.375750 -17.647549   0.059693   8.442880  -0.004545  -7.672507
    10  H   -0.131922  -0.047951  -0.000508  -0.000124   0.000010  -0.031548
    11  S    0.401184  -0.150514   0.256249   0.826298  -0.001648   1.094226
    12  O   -0.172389   0.438741  -0.039560   0.050078   0.000020   0.211350
    13  O   -0.405128  -0.179682   0.018449   0.048267   0.000021   0.007071
    14  N   -0.517957   0.712681  -0.045270   0.020419  -0.000144   0.174599
    15  H    0.083924  -0.257860   0.027935   0.034275  -0.000001  -0.010624
    16  N    0.261261   0.099833  -0.000330  -0.231319  -0.010593  -0.452980
    17  C   -1.086611   0.069502  -0.014596  -2.630338   0.011738  -3.805600
    18  N   -0.806269   0.101171  -0.001503   0.935503   0.000097   1.640484
    19  O   -0.337579   0.012325  -0.000844  -0.009657   0.000012  -0.242486
    20  O   -0.031988   0.006851  -0.000195   0.017662   0.000004  -0.265798
    21  C   -0.273336  -0.001572   0.000312  -0.179167   0.000945  -0.501076
    22  Cl  -0.009105   0.012485  -0.000067  -0.005267   0.000140   0.035877
    23  H    0.006971   0.021538  -0.000230   0.001200   0.004012  -0.074494
    24  H    0.007085   0.005273  -0.000056  -0.000326  -0.000003  -0.055475
    25  H   -0.000408  -0.000472   0.000001  -0.000866   0.000001   0.008971
    26  H    0.000130  -0.000158   0.000001   0.003158   0.000000  -0.003034
    27  C   -0.031648  -0.022532   0.000296   0.166001  -0.000021   0.316179
    28  H   -0.000569  -0.000263  -0.000000  -0.000080   0.000000   0.015810
    29  H   -0.000799   0.000200  -0.000000   0.004451  -0.000000   0.018249
    30  H    0.002200   0.000383  -0.000000  -0.003974  -0.000000  -0.035989
               7          8          9         10         11         12
     1  C  -21.158780  -5.275581 -16.375750  -0.131922   0.401184  -0.172389
     2  C   -4.171438  -0.025000 -17.647549  -0.047951  -0.150514   0.438741
     3  Cl  -0.309231  -0.021615   0.059693  -0.000508   0.256249  -0.039560
     4  C  -12.772810   1.897664   8.442880  -0.000124   0.826298   0.050078
     5  H    0.122717   0.001588  -0.004545   0.000010  -0.001648   0.000020
     6  C  -20.377046  -1.509158  -7.672507  -0.031548   1.094226   0.211350
     7  C   55.214444  -0.640086  10.294086   0.030389  -4.206326  -0.631673
     8  S   -0.640086  18.802459   1.158260   0.038373  -0.425505  -0.029916
     9  C   10.294086   1.158260  31.074397   0.455097  -2.065889  -0.567887
    10  H    0.030389   0.038373   0.455097   0.393579  -0.021578  -0.000398
    11  S   -4.206326  -0.425505  -2.065889  -0.021578  17.454246   0.431000
    12  O   -0.631673  -0.029916  -0.567887  -0.000398   0.431000   9.221195
    13  O   -0.146140  -0.004456   0.225132   0.003345   0.419847  -0.139952
    14  N   -0.350268  -0.016576  -0.630924  -0.001827   0.363796  -0.093408
    15  H    0.017441   0.000226   0.117922  -0.000012   0.060922  -0.022933
    16  N    0.682190  -0.105734  -0.054618  -0.000580   0.004845  -0.000270
    17  C    5.713607  -0.870754  -0.316523   0.001586  -0.090474  -0.005611
    18  N   -2.069298   0.372080   0.047505   0.001866  -0.028791  -0.000627
    19  O    0.145142   0.371189   0.068655   0.004296  -0.024831  -0.000373
    20  O    0.038754   0.743205  -0.028412  -0.000313  -0.001379  -0.000176
    21  C    0.217341   0.097302  -0.036271  -0.000007  -0.004622  -0.000221
    22  Cl  -0.045399   0.068512   0.006993   0.000017  -0.000542  -0.000001
    23  H    0.038180   0.008958  -0.004532   0.000002  -0.000065   0.000001
    24  H    0.017045   0.039544   0.004341  -0.000000  -0.000207  -0.000000
    25  H   -0.007898   0.005752   0.000165  -0.000000  -0.000006  -0.000000
    26  H    0.008742  -0.015721  -0.000497   0.000000   0.000003  -0.000000
    27  C   -0.265003  -0.344762   0.023049  -0.000400  -0.000043  -0.000024
    28  H   -0.016710   0.008412  -0.000199   0.000000  -0.000008  -0.000000
    29  H   -0.002350   0.002224  -0.007428  -0.000000  -0.000003   0.000000
    30  H    0.033445  -0.029278   0.011181  -0.000001   0.000019  -0.000000
              13         14         15         16         17         18
     1  C   -0.405128  -0.517957   0.083924   0.261261  -1.086611  -0.806269
     2  C   -0.179682   0.712681  -0.257860   0.099833   0.069502   0.101171
     3  Cl   0.018449  -0.045270   0.027935  -0.000330  -0.014596  -0.001503
     4  C    0.048267   0.020419   0.034275  -0.231319  -2.630338   0.935503
     5  H    0.000021  -0.000144  -0.000001  -0.010593   0.011738   0.000097
     6  C    0.007071   0.174599  -0.010624  -0.452980  -3.805600   1.640484
     7  C   -0.146140  -0.350268   0.017441   0.682190   5.713607  -2.069298
     8  S   -0.004456  -0.016576   0.000226  -0.105734  -0.870754   0.372080
     9  C    0.225132  -0.630924   0.117922  -0.054618  -0.316523   0.047505
    10  H    0.003345  -0.001827  -0.000012  -0.000580   0.001586   0.001866
    11  S    0.419847   0.363796   0.060922   0.004845  -0.090474  -0.028791
    12  O   -0.139952  -0.093408  -0.022933  -0.000270  -0.005611  -0.000627
    13  O    9.010572  -0.129514   0.015756   0.000227  -0.001237  -0.000817
    14  N   -0.129514   8.222783   0.174813  -0.000149  -0.004335  -0.000864
    15  H    0.015756   0.174813   0.349562   0.000010   0.000055   0.000001
    16  N    0.000227  -0.000149   0.000010   7.590887  -0.110593  -0.300010
    17  C   -0.001237  -0.004335   0.000055  -0.110593  12.328318  -1.723447
    18  N   -0.000817  -0.000864   0.000001  -0.300010  -1.723447   9.166228
    19  O   -0.001429  -0.000704  -0.000001  -0.014525   0.137935  -0.000685
    20  O    0.000147   0.000017   0.000000   0.065911  -0.173314  -0.199088
    21  C   -0.000018  -0.000221   0.000005  -0.196457  -1.034842   0.085099
    22  Cl  -0.000007  -0.000003  -0.000000   0.060305  -0.357140   0.163654
    23  H    0.000000   0.000003   0.000000   0.274806  -0.054109   0.012381
    24  H   -0.000000  -0.000001  -0.000000  -0.054272   0.415507  -0.061978
    25  H   -0.000000   0.000000  -0.000000  -0.002320  -0.097845   0.017446
    26  H   -0.000000  -0.000000  -0.000000   0.013050  -0.043035  -0.015441
    27  C    0.000149  -0.000002   0.000002  -0.045583  -0.287923   0.365883
    28  H   -0.000000  -0.000000  -0.000000  -0.007786  -0.061461  -0.012483
    29  H   -0.000000   0.000000   0.000000   0.006060   0.018890  -0.022177
    30  H    0.000000  -0.000000   0.000000   0.000788   0.060226  -0.092257
              19         20         21         22         23         24
     1  C   -0.337579  -0.031988  -0.273336  -0.009105   0.006971   0.007085
     2  C    0.012325   0.006851  -0.001572   0.012485   0.021538   0.005273
     3  Cl  -0.000844  -0.000195   0.000312  -0.000067  -0.000230  -0.000056
     4  C   -0.009657   0.017662  -0.179167  -0.005267   0.001200  -0.000326
     5  H    0.000012   0.000004   0.000945   0.000140   0.004012  -0.000003
     6  C   -0.242486  -0.265798  -0.501076   0.035877  -0.074494  -0.055475
     7  C    0.145142   0.038754   0.217341  -0.045399   0.038180   0.017045
     8  S    0.371189   0.743205   0.097302   0.068512   0.008958   0.039544
     9  C    0.068655  -0.028412  -0.036271   0.006993  -0.004532   0.004341
    10  H    0.004296  -0.000313  -0.000007   0.000017   0.000002  -0.000000
    11  S   -0.024831  -0.001379  -0.004622  -0.000542  -0.000065  -0.000207
    12  O   -0.000373  -0.000176  -0.000221  -0.000001   0.000001  -0.000000
    13  O   -0.001429   0.000147  -0.000018  -0.000007   0.000000  -0.000000
    14  N   -0.000704   0.000017  -0.000221  -0.000003   0.000003  -0.000001
    15  H   -0.000001   0.000000   0.000005  -0.000000   0.000000  -0.000000
    16  N   -0.014525   0.065911  -0.196457   0.060305   0.274806  -0.054272
    17  C    0.137935  -0.173314  -1.034842  -0.357140  -0.054109   0.415507
    18  N   -0.000685  -0.199088   0.085099   0.163654   0.012381  -0.061978
    19  O    8.680584  -0.207185   0.050449   0.003313   0.000032  -0.000125
    20  O   -0.207185   8.642668  -0.031116  -0.000568   0.000367   0.008913
    21  C    0.050449  -0.031116   7.948311   0.011571  -0.003313  -0.100652
    22  Cl   0.003313  -0.000568   0.011571  17.126123  -0.001166   0.005267
    23  H    0.000032   0.000367  -0.003313  -0.001166   0.255454   0.000700
    24  H   -0.000125   0.008913  -0.100652   0.005267   0.000700   0.449196
    25  H    0.000033   0.000063   0.407912  -0.038115   0.001750  -0.002098
    26  H    0.000006  -0.000389   0.366401  -0.041249  -0.000074  -0.001163
    27  C   -0.040621  -0.071197  -0.078487  -0.015327   0.001384  -0.000723
    28  H    0.001426  -0.001085   0.032296   0.002958  -0.000008  -0.000346
    29  H   -0.002174   0.009305  -0.060036  -0.000600   0.000006   0.004094
    30  H    0.014312  -0.007590   0.008421  -0.002172   0.000002  -0.000194
              25         26         27         28         29         30
     1  C   -0.000408   0.000130  -0.031648  -0.000569  -0.000799   0.002200
     2  C   -0.000472  -0.000158  -0.022532  -0.000263   0.000200   0.000383
     3  Cl   0.000001   0.000001   0.000296  -0.000000  -0.000000  -0.000000
     4  C   -0.000866   0.003158   0.166001  -0.000080   0.004451  -0.003974
     5  H    0.000001   0.000000  -0.000021   0.000000  -0.000000  -0.000000
     6  C    0.008971  -0.003034   0.316179   0.015810   0.018249  -0.035989
     7  C   -0.007898   0.008742  -0.265003  -0.016710  -0.002350   0.033445
     8  S    0.005752  -0.015721  -0.344762   0.008412   0.002224  -0.029278
     9  C    0.000165  -0.000497   0.023049  -0.000199  -0.007428   0.011181
    10  H   -0.000000   0.000000  -0.000400   0.000000  -0.000000  -0.000001
    11  S   -0.000006   0.000003  -0.000043  -0.000008  -0.000003   0.000019
    12  O   -0.000000  -0.000000  -0.000024  -0.000000   0.000000  -0.000000
    13  O   -0.000000  -0.000000   0.000149  -0.000000  -0.000000   0.000000
    14  N    0.000000  -0.000000  -0.000002  -0.000000   0.000000  -0.000000
    15  H   -0.000000  -0.000000   0.000002  -0.000000   0.000000   0.000000
    16  N   -0.002320   0.013050  -0.045583  -0.007786   0.006060   0.000788
    17  C   -0.097845  -0.043035  -0.287923  -0.061461   0.018890   0.060226
    18  N    0.017446  -0.015441   0.365883  -0.012483  -0.022177  -0.092257
    19  O    0.000033   0.000006  -0.040621   0.001426  -0.002174   0.014312
    20  O    0.000063  -0.000389  -0.071197  -0.001085   0.009305  -0.007590
    21  C    0.407912   0.366401  -0.078487   0.032296  -0.060036   0.008421
    22  Cl  -0.038115  -0.041249  -0.015327   0.002958  -0.000600  -0.002172
    23  H    0.001750  -0.000074   0.001384  -0.000008   0.000006   0.000002
    24  H   -0.002098  -0.001163  -0.000723  -0.000346   0.004094  -0.000194
    25  H    0.399823  -0.017731  -0.001051   0.000179   0.000006  -0.000004
    26  H   -0.017731   0.410387   0.014619  -0.004655  -0.001355   0.000234
    27  C   -0.001051   0.014619   5.758327   0.379971   0.360703   0.382033
    28  H    0.000179  -0.004655   0.379971   0.435468  -0.030525  -0.016577
    29  H    0.000006  -0.001355   0.360703  -0.030525   0.429662  -0.022761
    30  H   -0.000004   0.000234   0.382033  -0.016577  -0.022761   0.425463
 Mulliken charges:
               1
     1  C   -2.872004
     2  C    1.393707
     3  Cl   0.230268
     4  C   -1.543522
     5  H    0.290904
     6  C    0.711162
     7  C    0.596934
     8  S    1.698394
     9  C   -0.575826
    10  H    0.308610
    11  S    1.709796
    12  O   -0.646966
    13  O   -0.740602
    14  N   -0.876945
    15  H    0.408584
    16  N   -0.472058
    17  C    0.012423
    18  N   -0.573666
    19  O   -0.606493
    20  O   -0.514076
    21  C   -0.724950
    22  Cl   0.019515
    23  H    0.510244
    24  H    0.320653
    25  H    0.326711
    26  H    0.327771
    27  C   -0.563248
    28  H    0.276233
    29  H    0.296357
    30  H    0.272090
 Sum of Mulliken charges =  -1.00000
 Mulliken charges with hydrogens summed into heavy atoms:
               1
     1  C   -2.872004
     2  C    1.393707
     3  Cl   0.230268
     4  C   -1.252618
     6  C    0.711162
     7  C    0.596934
     8  S    1.698394
     9  C   -0.267216
    11  S    1.709796
    12  O   -0.646966
    13  O   -0.740602
    14  N   -0.468362
    16  N    0.038186
    17  C    0.333077
    18  N   -0.573666
    19  O   -0.606493
    20  O   -0.514076
    21  C   -0.070468
    22  Cl   0.019515
    27  C    0.281432
 Electronic spatial extent (au):  <R**2>=           8613.8113
 Charge=             -1.0000 electrons
 Dipole moment (field-independent basis, Debye):
    X=             27.0036    Y=             12.8571    Z=             -5.4158  Tot=             30.3946
 Quadrupole moment (field-independent basis, Debye-Ang):
   XX=           -233.9175   YY=           -163.9059   ZZ=           -164.1252
   XY=            -15.7260   XZ=            -11.1028   YZ=             -5.7846
 Traceless Quadrupole moment (field-independent basis, Debye-Ang):
   XX=            -46.6013   YY=             23.4103   ZZ=             23.1910
   XY=            -15.7260   XZ=            -11.1028   YZ=             -5.7846
 Octapole moment (field-independent basis, Debye-Ang**2):
  XXX=            638.7990  YYY=             93.5569  ZZZ=            -13.4598  XYY=             34.7411
  XXY=             70.5956  XXZ=            -81.3764  XZZ=             57.6372  YZZ=             26.6134
  YYZ=            -15.4010  XYZ=            -41.7699
 Hexadecapole moment (field-independent basis, Debye-Ang**3):
 XXXX=         -10447.1247 YYYY=          -2358.9845 ZZZZ=           -626.3121 XXXY=           -527.0048
 XXXZ=            -96.7997 YYYX=            -46.8469 YYYZ=            -33.8913 ZZZX=             67.7864
 ZZZY=              0.7860 XXYY=          -1911.1937 XXZZ=          -1736.3734 YYZZ=           -508.4938
 XXYZ=            -35.4974 YYXZ=            -16.8991 ZZXY=              6.4749
 N-N= 2.308953913214D+03 E-N=-1.061409570318D+04  KE= 2.518380206132D+03
 D1PCM: PCM CHGder 1st derivatives, ID1Alg=3 FixD1E=F DoIter=F DoCFld=F I1PDM=0.
 Calling FoFJK, ICntrl=      2127 FMM=F ISym2X=0 I1Cent= 0 IOpClX= 0 NMat=1 NMatS=1 NMatT=0.
 ***** Axes restored to original set *****
 -------------------------------------------------------------------
 Center     Atomic                   Forces (Hartrees/Bohr)
 Number     Number              X              Y              Z
 -------------------------------------------------------------------
      1        6           0.001472810    0.002170288    0.000460809
      2        6          -0.000236451   -0.001027887   -0.000485343
      3       17          -0.001667849   -0.000082613   -0.001899607
      4        6          -0.000009573    0.000346990    0.000756806
      5        1           0.000061189   -0.000079119    0.000106921
      6        6           0.000172958    0.000208612   -0.002256748
      7        6           0.000365461   -0.000226160    0.001069317
      8       16           0.000457382    0.000787082   -0.002350726
      9        6           0.000167196    0.000875739   -0.000395146
     10        1           0.000146940   -0.000050949    0.000130138
     11       16          -0.011428268   -0.002515375   -0.008221501
     12        8           0.002664437   -0.019882253    0.000879309
     13        8          -0.012174288    0.008944016    0.004935499
     14        7           0.022124148    0.014127915   -0.000539617
     15        1          -0.001164822   -0.002326104    0.004070471
     16        7          -0.001051150   -0.003929434    0.002873793
     17        6           0.001932802    0.006293192   -0.002999651
     18        7           0.002086342   -0.003180160    0.006067991
     19        8           0.000167939    0.000173546    0.000806291
     20        8          -0.000074790   -0.000534079    0.000462838
     21        6           0.000269841    0.003669192    0.004159518
     22       17           0.000197148    0.002242443   -0.005432065
     23        1           0.000111631    0.000235226   -0.001200633
     24        1          -0.000210347   -0.000364583   -0.003618919
     25        1          -0.000718471   -0.004247943    0.001020634
     26        1          -0.003943428   -0.001419992   -0.000205757
     27        6          -0.000198545   -0.000283941    0.001343047
     28        1           0.000309581    0.000227150    0.000339242
     29        1           0.000095439   -0.000074239    0.000051099
     30        1           0.000074739   -0.000076559    0.000071990
 -------------------------------------------------------------------
 Cartesian Forces:  Max     0.022124148 RMS     0.004535827

 GradGradGradGradGradGradGradGradGradGradGradGradGradGradGradGradGradGrad
 Berny optimization.
 FormGI is forming the generalized inverse of G from B-inverse, IUseBI=4.
 Internal  Forces:  Max     0.020850483 RMS     0.004030266
 Search for a local minimum.
 Step number   1 out of a maximum of  172
 All quantities printed in internal units (Hartrees-Bohrs-Radians)
 Mixed Optimization -- RFO/linear search
 Second derivative matrix not updated -- first step.
 ITU=  0
     Eigenvalues ---    0.00230   0.00454   0.00605   0.01322   0.01363
     Eigenvalues ---    0.01515   0.01693   0.01730   0.02065   0.02102
     Eigenvalues ---    0.02129   0.02156   0.02192   0.02227   0.02236
     Eigenvalues ---    0.02643   0.03173   0.04677   0.05117   0.05702
     Eigenvalues ---    0.05824   0.07051   0.07126   0.07642   0.08459
     Eigenvalues ---    0.10160   0.11166   0.11658   0.11951   0.12548
     Eigenvalues ---    0.12670   0.15058   0.16000   0.16000   0.16000
     Eigenvalues ---    0.16000   0.16000   0.16000   0.16000   0.16000
     Eigenvalues ---    0.17142   0.17352   0.17700   0.20386   0.21713
     Eigenvalues ---    0.22362   0.23107   0.23958   0.24685   0.24980
     Eigenvalues ---    0.24990   0.25000   0.25000   0.25000   0.26235
     Eigenvalues ---    0.29014   0.30026   0.31096   0.32383   0.33390
     Eigenvalues ---    0.34217   0.34323   0.34703   0.34724   0.34853
     Eigenvalues ---    0.35126   0.35234   0.35276   0.36177   0.36991
     Eigenvalues ---    0.40587   0.42140   0.44044   0.44314   0.44907
     Eigenvalues ---    0.45468   0.47454   0.48385   0.49134   0.60261
     Eigenvalues ---    0.79529   0.82092   0.87562   0.89792
 RFO step:  Lambda=-1.59099890D-02 EMin= 2.30000000D-03
 Linear search not attempted -- first point.
 Iteration  1 RMS(Cart)=  0.06746771 RMS(Int)=  0.00303313
 Iteration  2 RMS(Cart)=  0.00384305 RMS(Int)=  0.00068959
 Iteration  3 RMS(Cart)=  0.00001111 RMS(Int)=  0.00068957
 Iteration  4 RMS(Cart)=  0.00000001 RMS(Int)=  0.00068957
 Variable       Old X    -DE/DX   Delta X   Delta X   Delta X     New X
                                 (Linear)    (Quad)   (Total)
    R1        2.65671   0.00296   0.00000   0.00668   0.00669   2.66340
    R2        2.61630   0.00023   0.00000   0.00059   0.00060   2.61690
    R3        3.42958   0.00106   0.00000   0.00400   0.00400   3.43359
    R4        3.29529   0.00079   0.00000   0.00242   0.00242   3.29771
    R5        2.60935  -0.00012   0.00000  -0.00010  -0.00009   2.60926
    R6        2.05228  -0.00011   0.00000  -0.00031  -0.00031   2.05197
    R7        2.65917   0.00014   0.00000   0.00016   0.00016   2.65933
    R8        2.64862  -0.00021   0.00000  -0.00109  -0.00125   2.64738
    R9        2.59344  -0.00124   0.00000  -0.00301  -0.00306   2.59038
   R10        3.32413  -0.00042   0.00000  -0.00102  -0.00113   3.32300
   R11        2.63476  -0.00097   0.00000  -0.00214  -0.00215   2.63261
   R12        3.18457  -0.00142   0.00000  -0.00231  -0.00219   3.18237
   R13        2.76729   0.00057   0.00000   0.00063   0.00063   2.76792
   R14        2.77777   0.00050   0.00000   0.00056   0.00056   2.77834
   R15        2.05296   0.00019   0.00000   0.00053   0.00053   2.05349
   R16        2.80506   0.01363   0.00000   0.01629   0.01629   2.82135
   R17        2.81870  -0.01155   0.00000  -0.01423  -0.01423   2.80447
   R18        2.94435   0.00267   0.00000   0.00431   0.00431   2.94865
   R19        1.93101  -0.00205   0.00000  -0.00448  -0.00448   1.92653
   R20        2.74098  -0.00048   0.00000  -0.00102  -0.00090   2.74008
   R21        1.92084   0.00045   0.00000   0.00097   0.00097   1.92181
   R22        2.80395   0.00447   0.00000   0.01164   0.01170   2.81566
   R23        2.87911   0.00062   0.00000   0.00196   0.00196   2.88107
   R24        2.08371  -0.00014   0.00000  -0.00039  -0.00039   2.08332
   R25        2.80088  -0.00068   0.00000  -0.00189  -0.00189   2.79900
   R26        3.39868   0.00303   0.00000   0.01088   0.01088   3.40956
   R27        2.05471   0.00175   0.00000   0.00476   0.00476   2.05947
   R28        2.06160  -0.00260   0.00000  -0.00717  -0.00717   2.05443
   R29        2.05914  -0.00016   0.00000  -0.00043  -0.00043   2.05871
   R30        2.06965   0.00006   0.00000   0.00017   0.00017   2.06983
   R31        2.06125   0.00009   0.00000   0.00023   0.00023   2.06148
    A1        2.05354  -0.00101   0.00000  -0.00339  -0.00341   2.05013
    A2        2.15477   0.00635   0.00000   0.02368   0.02366   2.17843
    A3        2.07488  -0.00534   0.00000  -0.02032  -0.02033   2.05454
    A4        2.10950   0.00448   0.00000   0.01663   0.01663   2.12613
    A5        2.13499  -0.00104   0.00000  -0.00350  -0.00350   2.13149
    A6        2.03869  -0.00344   0.00000  -0.01315  -0.01315   2.02554
    A7        2.10426  -0.00066   0.00000  -0.00269  -0.00268   2.10158
    A8        2.09857   0.00125   0.00000   0.00493   0.00491   2.10348
    A9        2.08035  -0.00059   0.00000  -0.00224  -0.00223   2.07812
   A10        2.04540  -0.00053   0.00000  -0.00218  -0.00216   2.04324
   A11        2.10127  -0.00034   0.00000   0.00016   0.00024   2.10151
   A12        2.13532   0.00090   0.00000   0.00220   0.00209   2.13740
   A13        2.10455   0.00022   0.00000   0.00135   0.00120   2.10575
   A14        2.13198   0.00011   0.00000  -0.00065  -0.00061   2.13137
   A15        2.04660  -0.00033   0.00000  -0.00076  -0.00067   2.04594
   A16        1.75814  -0.00077   0.00000   0.00291   0.00302   1.76116
   A17        1.92151  -0.00067   0.00000  -0.00291  -0.00294   1.91857
   A18        1.92231   0.00022   0.00000  -0.00395  -0.00400   1.91831
   A19        1.88159   0.00046   0.00000   0.00258   0.00262   1.88421
   A20        1.94138   0.00086   0.00000   0.00317   0.00309   1.94447
   A21        2.02056  -0.00018   0.00000  -0.00114  -0.00115   2.01941
   A22        2.10189   0.00121   0.00000   0.00477   0.00475   2.10664
   A23        2.08271  -0.00063   0.00000  -0.00252  -0.00252   2.08019
   A24        2.09857  -0.00058   0.00000  -0.00222  -0.00222   2.09635
   A25        1.79864  -0.00320   0.00000   0.01931   0.01510   1.81374
   A26        1.80139   0.00746   0.00000   0.00430   0.00292   1.80431
   A27        1.93363   0.00332   0.00000   0.01912   0.01592   1.94955
   A28        1.98909  -0.00522   0.00000  -0.03584  -0.03395   1.95514
   A29        1.90827   0.01972   0.00000   0.13065   0.12892   2.03720
   A30        2.01709  -0.02085   0.00000  -0.12820  -0.12746   1.88963
   A31        1.89410   0.00086   0.00000   0.00489   0.00489   1.89899
   A32        2.09335   0.00086   0.00000   0.00708   0.00735   2.10070
   A33        1.99903  -0.00014   0.00000   0.00411   0.00409   2.00313
   A34        2.00286  -0.00072   0.00000  -0.00463  -0.00489   1.99797
   A35        1.88196  -0.00127   0.00000   0.01046   0.00985   1.89181
   A36        1.91409  -0.00246   0.00000  -0.00527  -0.00705   1.90704
   A37        1.94508   0.00117   0.00000  -0.01068  -0.01128   1.93380
   A38        1.90662   0.00922   0.00000   0.06835   0.06836   1.97498
   A39        1.91804  -0.00172   0.00000  -0.01161  -0.01077   1.90727
   A40        1.89779  -0.00465   0.00000  -0.04858  -0.04856   1.84923
   A41        1.92614   0.00151   0.00000   0.00507   0.00507   1.93121
   A42        1.90787  -0.00181   0.00000  -0.01145  -0.01157   1.89631
   A43        1.99544   0.00070   0.00000   0.00853   0.00859   2.00403
   A44        1.91538   0.01381   0.00000   0.06638   0.06624   1.98162
   A45        1.93973  -0.00651   0.00000  -0.04118  -0.04141   1.89832
   A46        1.94184  -0.00025   0.00000  -0.00247  -0.00349   1.93835
   A47        1.85109  -0.00195   0.00000   0.00753   0.00815   1.85925
   A48        1.87808  -0.00440   0.00000  -0.00093  -0.00175   1.87633
   A49        1.93444  -0.00042   0.00000  -0.02591  -0.02701   1.90743
   A50        1.89151   0.00021   0.00000   0.00152   0.00152   1.89303
   A51        1.95525   0.00011   0.00000   0.00094   0.00093   1.95618
   A52        1.89810  -0.00014   0.00000  -0.00146  -0.00146   1.89663
   A53        1.92356   0.00012   0.00000   0.00195   0.00195   1.92550
   A54        1.88015  -0.00020   0.00000  -0.00188  -0.00188   1.87827
   A55        1.91351  -0.00010   0.00000  -0.00119  -0.00119   1.91232
    D1        3.13786  -0.00038   0.00000  -0.00975  -0.00980   3.12806
    D2       -0.00078  -0.00012   0.00000  -0.00435  -0.00434  -0.00512
    D3       -0.00089  -0.00003   0.00000   0.00150   0.00157   0.00068
    D4       -3.13953   0.00023   0.00000   0.00689   0.00703  -3.13250
    D5       -0.00160   0.00002   0.00000   0.00138   0.00134  -0.00026
    D6        3.13308   0.00019   0.00000   0.00631   0.00624   3.13932
    D7        3.13728  -0.00029   0.00000  -0.00926  -0.00913   3.12815
    D8       -0.01123  -0.00012   0.00000  -0.00434  -0.00423  -0.01545
    D9        1.02302   0.00807   0.00000   0.02459   0.02487   1.04789
   D10        3.09761   0.00400   0.00000  -0.00551  -0.00541   3.09220
   D11       -1.01633  -0.01459   0.00000  -0.14625  -0.14665  -1.16298
   D12       -2.11570   0.00841   0.00000   0.03594   0.03624  -2.07946
   D13       -0.04110   0.00434   0.00000   0.00584   0.00596  -0.03514
   D14        2.12815  -0.01424   0.00000  -0.13490  -0.13529   1.99286
   D15       -3.13723  -0.00015   0.00000  -0.00158  -0.00155  -3.13879
   D16        0.00193   0.00006   0.00000   0.00358   0.00363   0.00556
   D17        0.00720   0.00008   0.00000   0.00356   0.00356   0.01076
   D18       -3.13682   0.00030   0.00000   0.00873   0.00875  -3.12807
   D19       -0.00065   0.00009   0.00000   0.00019   0.00013  -0.00053
   D20       -3.09078  -0.00043   0.00000  -0.00373  -0.00369  -3.09448
   D21        3.13854   0.00030   0.00000   0.00528   0.00524  -3.13940
   D22        0.04841  -0.00022   0.00000   0.00136   0.00142   0.04984
   D23        3.12801  -0.00030   0.00000  -0.00936  -0.00927   3.11874
   D24       -0.00173  -0.00018   0.00000  -0.00312  -0.00310  -0.00483
   D25       -0.06613   0.00019   0.00000  -0.00542  -0.00543  -0.07155
   D26        3.08731   0.00030   0.00000   0.00081   0.00074   3.08806
   D27       -2.83760  -0.00021   0.00000  -0.00944  -0.00935  -2.84695
   D28       -0.34925  -0.00049   0.00000  -0.00123  -0.00108  -0.35033
   D29        0.35818  -0.00071   0.00000  -0.01344  -0.01325   0.34493
   D30        2.84653  -0.00099   0.00000  -0.00522  -0.00498   2.84155
   D31        0.32556   0.00056   0.00000   0.00944   0.00931   0.33486
   D32        2.30873   0.00046   0.00000   0.01268   0.01263   2.32135
   D33       -1.72565  -0.00012   0.00000   0.00593   0.00587  -1.71978
   D34       -2.82732   0.00045   0.00000   0.00350   0.00343  -2.82389
   D35       -0.84415   0.00036   0.00000   0.00674   0.00675  -0.83740
   D36        1.40466  -0.00023   0.00000  -0.00001  -0.00001   1.40465
   D37        0.00291   0.00013   0.00000   0.00235   0.00238   0.00529
   D38       -3.13170  -0.00004   0.00000  -0.00262  -0.00257  -3.13427
   D39       -3.12720   0.00023   0.00000   0.00838   0.00834  -3.11887
   D40        0.02137   0.00006   0.00000   0.00340   0.00339   0.02476
   D41       -0.89085  -0.00037   0.00000   0.00729   0.00729  -0.88356
   D42       -3.09978  -0.00104   0.00000   0.00100   0.00105  -3.09873
   D43       -2.90411   0.00055   0.00000   0.00829   0.00825  -2.89586
   D44        1.17014  -0.00012   0.00000   0.00201   0.00201   1.17215
   D45        1.14630  -0.00018   0.00000   0.00559   0.00557   1.15186
   D46       -1.06264  -0.00085   0.00000  -0.00070  -0.00066  -1.06331
   D47        0.72039   0.00628   0.00000   0.11335   0.11494   0.83533
   D48       -1.25024  -0.00273   0.00000   0.00664   0.00243  -1.24782
   D49        2.76095   0.00442   0.00000   0.04714   0.04977   2.81071
   D50       -0.95420   0.00276   0.00000   0.02882   0.02882  -0.92538
   D51       -3.02859  -0.00619   0.00000  -0.05652  -0.05624  -3.08483
   D52        1.15224   0.00052   0.00000   0.01479   0.01503   1.16727
   D53        2.84198   0.00283   0.00000   0.01751   0.01743   2.85941
   D54        0.76758  -0.00612   0.00000  -0.06783  -0.06762   0.69996
   D55       -1.33477   0.00060   0.00000   0.00347   0.00364  -1.33113
   D56        1.24302  -0.00121   0.00000  -0.02491  -0.02520   1.21783
   D57       -2.88106  -0.00189   0.00000  -0.02972  -0.03010  -2.91117
   D58       -2.96100   0.00029   0.00000   0.01328   0.01376  -2.94724
   D59       -0.80191  -0.00039   0.00000   0.00847   0.00886  -0.79305
   D60       -0.88028  -0.00081   0.00000  -0.01141  -0.01106  -0.89134
   D61        1.27882  -0.00149   0.00000  -0.01622  -0.01597   1.26285
   D62        1.05125   0.00162   0.00000   0.03427   0.03384   1.08510
   D63       -0.99067  -0.00060   0.00000   0.00879   0.00920  -0.98147
   D64        3.12780   0.00489   0.00000   0.07428   0.07414  -3.08124
   D65       -1.00786  -0.00084   0.00000  -0.01567  -0.01656  -1.02442
   D66       -3.04978  -0.00306   0.00000  -0.04115  -0.04121  -3.09099
   D67        1.06869   0.00243   0.00000   0.02434   0.02374   1.09243
   D68       -3.10110  -0.00142   0.00000  -0.01301  -0.01281  -3.11391
   D69        1.14017  -0.00364   0.00000  -0.03850  -0.03746   1.10271
   D70       -1.02455   0.00184   0.00000   0.02700   0.02749  -0.99706
   D71       -2.80104   0.00088   0.00000   0.01096   0.01090  -2.79014
   D72        1.35615   0.00052   0.00000   0.00687   0.00681   1.36296
   D73       -0.76173   0.00068   0.00000   0.00876   0.00871  -0.75302
   D74        1.31327  -0.00020   0.00000   0.00701   0.00707   1.32034
   D75       -0.81273  -0.00057   0.00000   0.00293   0.00298  -0.80974
   D76       -2.93060  -0.00041   0.00000   0.00482   0.00488  -2.92572
         Item               Value     Threshold  Converged?
 Maximum Force            0.020850     0.000450     NO 
 RMS     Force            0.004030     0.000300     NO 
 Maximum Displacement     0.384439     0.001800     NO 
 RMS     Displacement     0.068341     0.001200     NO 
 Predicted change in Energy=-9.115774D-03
 GradGradGradGradGradGradGradGradGradGradGradGradGradGradGradGradGradGrad

                          Input orientation:                          
 ---------------------------------------------------------------------
 Center     Atomic      Atomic             Coordinates (Angstroms)
 Number     Number       Type             X           Y           Z
 ---------------------------------------------------------------------
      1          6           0       -1.471622    0.617668   -0.883145
      2          6           0       -2.588184    0.739399   -1.734564
      3         17           0       -4.207302    0.918256   -1.108673
      4          6           0       -2.468939    0.714664   -3.109943
      5          1           0       -3.347955    0.813466   -3.739748
      6          6           0       -1.208248    0.557893   -3.715290
      7          6           0       -0.103287    0.431542   -2.863407
      8         16           0        1.511590    0.196872   -3.518595
      9          6           0       -0.229859    0.463628   -1.476421
     10          1           0        0.650434    0.369329   -0.846324
     11         16           0       -1.545513    0.627052    0.932303
     12          8           0       -2.415659   -0.540391    1.262384
     13          8           0       -0.134994    0.401093    1.334574
     14          7           0       -1.995120    2.015544    1.484274
     15          1           0       -2.819098    2.322995    0.968652
     16          7           0       -1.085302    0.588878   -5.080184
     17          6           0        0.110176    0.075393   -5.720210
     18          7           0        1.294768    0.732972   -5.100231
     19          8           0        2.454305    1.103755   -2.859615
     20          8           0        1.865518   -1.229582   -3.479175
     21          6           0        0.014599    0.306915   -7.224093
     22         17           0       -0.076738    2.050129   -7.680402
     23          1           0       -1.946678    0.408440   -5.589805
     24          1           0        0.188014   -1.016084   -5.586008
     25          1           0       -0.899196   -0.158428   -7.593087
     26          1           0        0.869780   -0.121922   -7.740493
     27          6           0        2.564930    0.551439   -5.840219
     28          1           0        2.551076    1.201798   -6.714107
     29          1           0        2.719735   -0.489669   -6.143240
     30          1           0        3.389594    0.872837   -5.202513
 ---------------------------------------------------------------------
                    Distance matrix (angstroms):
                    1          2          3          4          5
     1  C    0.000000
     2  C    1.409412   0.000000
     3  Cl   2.761370   1.745072   0.000000
     4  C    2.441860   1.380760   2.658653   0.000000
     5  H    3.423324   2.145577   2.769840   1.085858   0.000000
     6  C    2.844994   2.420835   3.989818   1.407254   2.155056
     7  C    2.414212   2.746593   4.489869   2.395255   3.382560
[...]
 .00088022,0.00067267,0.00194465,0.00055496,0.00081233,-0.00941529,0.00
 421783,0.00003113,0.00235976,-0.00011774,0.00002889,-0.00087767,-0.000
 51246,-0.01965406,0.32009711,-0.00078930,0.00002496,-0.00026764,0.0003
 4937,0.00021029,0.00104457,0.00007048,-0.00004184,-0.00005296,0.001013
 74,0.00036619,-0.00120385,-0.00003893,-0.00012119,-0.00000349,-0.00080
 593,-0.00153999,0.00480338,-0.00066081,0.00100572,0.00059033,-0.000839
 84,-0.00375637,-0.00023678,0.00039028,0.00014141,-0.00061071,0.0000087
 5,-0.00000061,-0.00001097,-0.00004707,-0.00003817,0.00020464,0.0000248
 8,0.00002860,-0.00003393,-0.00002527,0.00000520,-0.00005370,0.00002393
 ,-0.00003549,-0.00005166,-0.00000343,0.00000246,0.00000351,0.00990638,
 -0.01889643,-0.00108541,-0.00208541,0.03124812,-0.05766770,-0.00776130
 ,-0.01902302,-0.00137383,-0.00017893,0.00043531,-0.00015981,-0.0001658
 1,0.00053933,0.00005808,-0.00137393,0.02855103,-0.00464279,-0.00076500
 ,0.00524215,-0.00550208,0.00006701,-0.00071033,-0.00024432,0.00309594,
 -0.02340848,0.06480592,0.00001990,-0.00000715,0.00000213,0.00000003,-0
 .00000742,-0.00002493,0.00000422,-0.00000034,-0.00000319,-0.00003463,0
 .00000590,-0.00002655,0.00000055,0.00000765,0.00000048,0.00036188,0.00
 015439,-0.00005168,-0.00002691,0.00000645,0.00000536,0.00003215,-0.000
 02481,0.00051676,0.00002722,-0.00000607,0.00001002,0.00000240,-0.00000
 272,0.00000669,0.00000177,-0.00000252,-0.00000159,-0.00000043,0.000000
 88,0.00000105,-0.00000012,0.00000084,0.00000032,-0.00000072,0.00000011
 ,-0.00000051,0.00000015,0.00000003,0.00000051,0.00043472,0.00049403,0.
 00147881,-0.00136644,0.00004957,0.00124183,0.00020221,0.00039717,0.000
 60218,0.00008167,0.00000551,0.00000589,-0.00001025,0.00005694,-0.00008
 416,-0.26161835,-0.10017451,-0.08515983,0.00626851,0.00555350,0.001356
 92,0.00010653,-0.00009959,0.00011780,0.00016572,0.00011279,-0.00037230
 ,0.27300886,0.00000089,0.00000705,0.00008740,0.00001187,-0.00000333,-0
 .00006798,-0.00004760,0.00000849,0.00002420,-0.00008139,0.00000144,0.0
 0011491,-0.00000656,0.00000230,0.00000431,0.00013501,0.00001979,-0.000
 28419,0.00006873,-0.00004901,0.00017403,-0.00004609,0.00097466,-0.0011
 5811,-0.00002154,-0.00000322,-0.00003686,0.00000164,-0.00000157,-0.000
 00225,0.00000287,-0.00000203,-0.00013988,-0.00001971,-0.00002511,0.000
 04244,0.00002059,-0.00000010,0.00003743,-0.00001258,0.00002530,0.00003
 847,0.00000330,-0.00000261,-0.00000376,-0.00038920,0.00017752,0.000669
 05,0.00399318,0.00262636,-0.00042203,0.00059069,0.00060057,0.00243471,
 0.00031807,0.00002240,0.00063142,0.00006780,-0.00031751,0.00013389,-0.
 09993609,-0.08846245,-0.04275183,-0.01857268,-0.02681194,-0.00287791,0
 .00042564,-0.00010068,-0.00067352,0.00050155,0.00048946,-0.00048380,0.
 10313842,0.10349935,0.00007439,-0.00001907,0.00000223,-0.00005215,0.00
 000873,-0.00007360,0.00002301,0.00000072,0.00000135,-0.00000257,-0.000
 03374,0.00014179,0.00001015,-0.00001249,-0.00001342,0.00000292,0.00002
 105,-0.00022005,0.00004073,0.00012876,0.00002261,-0.00078460,-0.001748
 92,0.00219573,0.00009685,-0.00000926,0.00009198,-0.00001209,0.00000755
 ,0.00002302,0.00000498,-0.00000031,0.00002147,0.00000463,0.00000871,-0
 .00000928,-0.00000039,-0.00000009,-0.00000903,0.00000265,-0.00000767,-
 0.00000883,-0.00000094,0.00000039,0.00000257,-0.00127224,-0.00041470,0
 .00195834,-0.02779897,-0.01310778,-0.01245771,0.00028300,0.00203266,-0
 .00706219,-0.00062672,-0.00017459,-0.00135374,-0.00006178,0.00075201,-
 0.00040498,-0.08183118,-0.04166124,-0.08426081,0.00585302,0.00817977,0
 .00246894,0.00113190,-0.00022932,-0.00065884,0.00025115,-0.00004404,0.
 00112330,0.09019804,0.03908495,0.09108074,-0.00000623,0.00000358,0.000
 02530,0.00002122,-0.00000164,-0.00001328,-0.00000074,0.00000082,-0.000
 00464,-0.00003293,0.00000495,-0.00006489,-0.00000302,0.00000105,0.0000
 0373,0.00047991,-0.00006251,-0.00029115,0.00000954,-0.00003665,0.00011
 507,-0.00008380,0.00020192,-0.00030417,-0.00001072,0.00000163,-0.00001
 298,-0.00000124,-0.00000133,0.00000006,0.00000022,0.00000146,-0.000035
 65,-0.00000338,-0.00000679,0.00001067,0.00000366,-0.00000001,0.0000101
 0,-0.00000292,0.00000591,0.00000827,0.00000082,-0.00000027,-0.00000030
 ,0.00003298,-0.00000310,-0.00106088,0.00376888,-0.00268711,-0.00316980
 ,-0.00005593,-0.00009664,0.00096487,0.00012903,0.00004191,0.00014345,0
 .00001912,-0.00009111,0.00006221,-0.23260807,0.09194861,0.11414986,0.0
 0441781,-0.00322858,-0.00212731,0.00033164,0.00003288,-0.00026592,0.00
 021846,-0.00003312,0.00055794,-0.01765759,0.00997303,0.01344327,0.2445
 5000,0.00005327,0.00001149,0.00014805,-0.00003349,-0.00004411,-0.00017
 119,-0.00007312,0.00001890,0.00004739,-0.00013340,-0.00002596,0.000401
 51,0.00000229,0.00001584,0.00000080,-0.00031343,0.00062214,-0.00064788
 ,0.00013905,-0.00006054,0.00019056,-0.00028404,0.00020371,-0.00041411,
 -0.00001200,-0.00000968,-0.00001088,-0.00000380,0.,0.00000458,0.000008
 68,-0.00000509,-0.00021386,-0.00002818,-0.00003656,0.00006439,0.000033
 34,-0.00000133,0.00005528,-0.00002048,0.00003771,0.00005641,0.00000464
 ,-0.00000419,-0.00000560,-0.00000794,0.00077169,0.00319740,-0.00516039
 ,0.00240093,0.00052616,0.00030976,-0.00003262,-0.00006617,0.00014247,0
 .00005907,0.00019767,0.00010232,-0.00019983,0.00009160,0.09095911,-0.0
 8646658,-0.05881618,0.01828042,-0.02571384,-0.00628275,0.00040174,-0.0
 0018186,-0.00007404,-0.00066305,0.00046260,-0.00013809,-0.00951990,0.0
 0731129,0.00688022,-0.09421823,0.10136893,-0.00009750,0.00000235,-0.00
 019096,0.00010683,-0.00002347,0.00026812,0.00011822,-0.00001521,-0.000
 09216,0.00008364,-0.00006371,-0.00082164,-0.00000207,0.00001061,0.0000
 0615,0.00164316,-0.00016671,0.00123735,-0.00020565,-0.00003131,-0.0000
 2645,0.00058473,0.00018875,-0.00036366,-0.00007748,-0.00002103,-0.0000
 1842,0.00001029,-0.00000409,-0.00001838,-0.00001619,0.00000849,0.00030
 199,0.00004373,0.00005046,-0.00009000,-0.00005054,0.00000151,-0.000077
 49,0.00002747,-0.00004969,-0.00007945,-0.00000647,0.00000620,0.0000080
 5,-0.00117029,0.00130767,-0.00780976,0.02540555,-0.01249598,-0.0126940
 2,0.00034570,-0.00006510,0.00131406,-0.00013641,-0.00002577,0.00017214
 ,-0.00013370,0.00004636,0.00009294,0.11005255,-0.05701482,-0.12035474,
 -0.00658549,0.00916673,0.00352982,-0.00028026,-0.00012988,-0.00012748,
 -0.00012667,-0.00009363,0.00097753,-0.00944702,0.00496884,0.00748550,-
 0.11842473,0.05490038,0.12803905,0.00097095,-0.00033089,-0.00069983,-0
 .00059568,0.00015490,-0.00066514,0.00040997,-0.00006742,-0.00013877,-0
 .00023490,0.00008145,0.00057637,0.00009802,-0.00003896,-0.00006652,-0.
 00022522,-0.00017574,-0.00139828,-0.00030551,0.00156483,-0.00582637,0.
 00971050,-0.00701638,0.02878728,0.00130664,0.00013148,0.00105019,-0.00
 002966,0.00005602,0.00013384,0.00008817,-0.00006061,0.00108715,0.00014
 287,0.00023201,-0.00034289,-0.00016214,0.00001010,-0.00030240,0.000098
 47,-0.00022696,-0.00035322,-0.00002994,0.00002120,0.00004169,-0.003039
 25,-0.00222223,-0.00171960,-0.03015148,0.00713409,0.01085326,-0.167364
 29,0.00351417,0.03624188,-0.00369538,-0.00147067,-0.00262339,-0.001022
 60,0.00533247,-0.00450732,-0.00135166,0.00069155,-0.00253653,-0.001365
 30,-0.00004771,0.00014074,-0.00037493,0.00006947,0.00075748,0.00317837
 ,0.00026978,0.00094714,-0.00023155,-0.00017002,0.00117087,-0.00175967,
 0.00061625,-0.00023330,0.50794702,0.00005559,-0.00007517,0.00047709,0.
 00008081,0.00003209,-0.00003186,-0.00003548,0.00002243,0.00000829,-0.0
 0012782,-0.00011500,-0.00001745,-0.00001579,-0.00001327,0.00000707,0.0
 0028858,-0.00003637,0.00023416,0.00140872,0.00044179,0.00303277,-0.010
 11996,-0.00381800,0.01564351,-0.00119432,0.00045710,-0.00000178,0.0000
 1855,0.00005064,-0.00007867,-0.00005995,-0.00002628,-0.00032261,-0.000
 05313,-0.00008198,0.00012488,0.00004308,-0.00000110,0.00007989,-0.0000
 2655,0.00006866,0.00008568,0.00000827,-0.00000508,-0.00000899,-0.00074
 156,0.00003691,-0.00137318,-0.01341349,-0.00286470,0.00749796,0.029768
 39,-0.06169275,-0.03126570,-0.00040948,0.00035803,0.00006318,0.0010232
 0,-0.00067782,-0.00077640,-0.00008270,0.00016704,-0.00023376,0.0012111
 8,-0.00124312,0.00027911,-0.00005872,0.00033753,0.00030565,-0.00178934
 ,0.00052055,0.00003371,-0.00029347,0.00016733,0.00030220,-0.00125885,0
 .00011582,-0.00031740,0.02278819,0.60045901,0.00020880,-0.00018291,-0.
 00009639,-0.00018711,0.00005961,-0.00056604,-0.00003617,0.00000921,0.0
 0005828,-0.00046732,0.00004352,0.00093490,0.00004201,-0.00002482,0.000
 02935,-0.00024927,0.00016655,-0.00358887,-0.00179101,0.00128983,-0.003
 77327,0.02935182,0.00089556,-0.03714846,0.00158662,0.00029030,0.000087
 24,-0.00001425,0.00003812,0.00009790,0.00009570,-0.00006810,-0.0001156
 8,-0.00002480,0.00000206,0.00004398,0.00002845,0.00000128,0.00002386,-
 0.00001271,-0.00001073,-0.00000708,-0.00000074,-0.00000223,0.00000280,
 -0.00735713,-0.00180584,-0.00025687,-0.00495620,0.00293281,0.01361569,
 0.05061425,-0.00925195,-0.12085070,0.00108760,0.00082177,0.00222104,-0
 .00090485,-0.00275210,0.00275564,-0.00308543,-0.00068959,0.00113275,-0
 .00018510,0.00047750,-0.00065921,-0.00108332,-0.00001619,0.00130824,-0
 .00246384,-0.00052029,-0.00081197,-0.00010871,0.00031232,-0.00047440,-
 0.00181609,0.00017846,-0.00068806,0.07634713,-0.01391878,0.59301250,-0
 .00014849,0.00007078,0.00020232,0.00012630,-0.00002405,0.00015165,-0.0
 0006877,0.00000981,0.00001442,0.00006533,-0.00001582,-0.00019674,-0.00
 002058,0.00000459,0.00000949,0.00024935,-0.00000612,0.00051859,0.00060
 955,-0.00031109,0.00190509,-0.00715909,0.00009505,-0.00030433,-0.00057
 738,0.00001846,-0.00017581,0.00001617,-0.00000882,-0.00003336,-0.00003
 372,0.00000098,-0.00020322,-0.00003036,-0.00004808,0.00006830,0.000029
 30,0.00000119,0.00005579,-0.00001512,0.00004947,0.00007006,0.00000573,
 -0.00000376,-0.00000835,0.00041549,0.00024754,-0.00053568,0.00056142,-
 0.00075182,0.00125135,-0.00503989,-0.01491989,0.03126413,0.00120368,0.
 00045381,-0.00025450,0.00098666,-0.00105130,0.00009585,-0.00123559,-0.
 00125907,-0.00072634,-0.00019068,0.00048536,-0.00040782,0.00003584,-0.
 00001144,-0.00005583,0.00001354,-0.00004348,-0.00027199,0.00010409,0.0
 0011110,0.00006291,-0.00121991,-0.00069740,-0.00077654,-0.04624638,0.0
 1195309,-0.01889816,0.05670841,0.00006497,-0.00003825,-0.00009997,-0.0
 0004717,0.00001027,-0.00003418,0.00003987,-0.00000551,-0.00001236,-0.0
 0000123,-0.00001141,0.00002867,0.00000928,-0.00000198,-0.00000533,-0.0
 0004646,0.00001477,-0.00011395,-0.00015852,0.00018932,-0.00079490,0.00
 147600,-0.00075990,-0.00081966,0.00023015,-0.00004822,0.00003202,0.000
 00316,0.00000541,0.00002064,0.00000952,0.00000682,0.00011445,0.0000176
 9,0.00002444,-0.00003746,-0.00001660,-0.00000113,-0.00003246,0.0000084
 1,-0.00002716,-0.00003705,-0.00000300,0.00000263,0.00000442,-0.0001478
 7,-0.00000552,-0.00004633,-0.00011324,-0.00013282,0.00065998,-0.000984
 21,0.00529369,-0.00649466,0.00011877,0.00006700,-0.00031081,-0.0005161
 9,0.00070443,0.00013195,-0.00001177,0.00041702,0.00044450,0.00052928,0
 .00003041,0.00005996,-0.00002315,-0.00000982,0.00001032,0.00012686,0.0
 0001062,0.00000429,0.00024329,-0.00019924,-0.00006436,-0.00046656,-0.0
 0074543,-0.00059507,0.00823381,-0.15621757,0.14135787,-0.01083976,0.16
 018498,0.00011997,-0.00004220,-0.00017639,-0.00010222,0.00001968,-0.00
 007389,0.00008481,-0.00001280,-0.00003128,0.00000899,-0.00000294,0.000
 04979,0.00001799,-0.00000109,-0.00001193,-0.00011001,-0.00000148,-0.00
 014078,-0.00046813,0.00026970,-0.00106745,0.00290031,-0.00130164,0.002
 47291,0.00037197,0.00001730,0.00017657,-0.00000143,0.00001187,0.000040
 21,0.00002001,-0.00000397,0.00024652,0.00003499,0.00004786,-0.00007704
 ,-0.00003492,-0.00000059,-0.00006609,0.00002142,-0.00005145,-0.0000748
 9,-0.00000657,0.00000489,0.00000886,0.00005362,0.00005112,0.00012533,-
 0.00061663,-0.00022544,-0.00047088,0.00432944,0.00705728,-0.01781035,-
 0.00011355,-0.00002252,-0.00065703,-0.00052189,0.00093143,-0.00018731,
 -0.00085734,-0.00029555,-0.00039328,-0.00108141,-0.00004582,-0.0003444
 7,0.00002005,-0.00000852,-0.00000864,0.00014006,0.00009214,0.00007999,
 -0.00012957,0.00013173,0.00015307,-0.00110362,-0.00049632,-0.00008917,
 -0.01108269,0.13787394,-0.22879035,0.00913329,-0.14818372,0.25015748,-
 0.00016724,0.00006607,0.00007995,0.00009885,-0.00001606,0.00007895,-0.
 00009116,0.00001164,0.00003501,0.00002605,0.00001899,-0.00005341,-0.00
 001705,0.00000307,0.00001034,0.00015658,0.00005786,-0.00000119,0.00009
 689,-0.00037279,0.00055532,-0.00256588,0.00331494,-0.00528104,-0.00009
 808,-0.00008513,-0.00018752,0.00000271,-0.00001362,-0.00001753,-0.0000
 0655,0.00000807,-0.00019185,-0.00002440,-0.00003883,0.00005873,0.00002
 763,-0.00000090,0.00005463,-0.00001662,0.00003891,0.00005958,0.0000051
 6,-0.00000375,-0.00000793,-0.00016201,-0.00058553,-0.00009915,0.001992
 77,0.00305226,0.00120975,-0.01386538,0.02756790,0.01872424,0.00092864,
 0.00011434,0.00037026,0.00059032,-0.00127056,0.00042555,-0.00023147,0.
 00021324,-0.00022334,-0.00011963,0.00004991,-0.00003342,-0.00002037,-0
 .00010951,0.00001698,0.00030038,-0.00078774,-0.00011271,0.00005379,-0.
 00005699,-0.00006713,-0.00068384,0.00018125,-0.00056365,-0.05343987,0.
 02337125,0.00511703,0.00013265,0.00197564,-0.00032060,0.06147174,0.000
 13424,-0.00002572,-0.00008164,-0.00007519,0.00001384,-0.00006402,0.000
 04930,-0.00000876,-0.00001805,-0.00000099,0.00001052,0.00000559,0.0000
 0656,-0.00000471,-0.00000649,-0.00005115,-0.00002703,0.00005460,0.0000
 2214,0.00000380,-0.00047501,0.00040850,-0.00096863,0.00269968,0.000050
 41,0.00001874,0.00018439,0.00000075,0.00000017,0.00001093,0.00000443,-
 0.00000517,0.00014917,0.00001954,0.00003020,-0.00004785,-0.00002286,0.
 00000233,-0.00003848,0.00001235,-0.00002498,-0.00004277,-0.00000366,0.
 00000230,0.00000449,0.00005925,-0.00014554,0.00001820,-0.00093763,0.00
 201835,-0.00059556,0.00547693,0.00208673,-0.00395534,-0.00018522,-0.00
 003873,-0.00051038,-0.00051779,0.00087262,0.00003167,-0.00004518,-0.00
 038890,-0.00047989,0.00008008,0.00014741,0.00009277,0.00002711,0.00003
 816,-0.00006291,0.00134165,-0.00037087,0.00030103,-0.00011568,0.000053
 94,0.00010959,-0.00002730,0.00016743,0.00039901,0.02635068,-0.30016595
 ,-0.06940568,0.00034360,-0.01568313,-0.00622948,-0.03303177,0.31863238
 ,0.00010414,-0.00008024,-0.00009798,-0.00006876,0.00002476,-0.00003987
 ,0.00006093,-0.00000734,-0.00002335,-0.00000054,-0.00003333,-0.0000119
 8,0.00000756,-0.00000215,-0.00000752,-0.00008617,-0.00001981,0.0002123
 7,-0.00007735,0.00046250,-0.00057418,0.00189184,-0.00464238,0.00260520
 ,0.00005278,0.00005881,0.00013619,-0.00000071,0.00002386,0.00001073,0.
 00000742,-0.00000951,0.00016634,0.00002240,0.00003246,-0.00004728,-0.0
 0002694,0.00000012,-0.00004572,0.00001648,-0.00003298,-0.00005514,-0.0
 0000421,0.00000391,0.00000630,0.00017164,0.00015991,-0.00008974,-0.002
 09442,0.00005136,-0.00044417,0.00931138,-0.01610724,-0.01113903,-0.000
 15774,0.00012151,-0.00096006,-0.00030377,0.00067209,0.00021779,0.00011
 395,0.00069620,-0.00010260,-0.00039889,0.00016601,-0.00004229,0.000024
 14,0.00005415,-0.00005761,0.00045740,0.00032193,0.00017186,0.00001979,
 -0.00010238,0.00005903,-0.00043617,0.00006304,-0.00026167,0.00625722,-
 0.06687557,-0.07082576,-0.00306224,0.02394746,0.00964195,-0.01472884,0
 .07838035,0.07544615,0.00005101,-0.00000220,0.00011016,-0.00001803,-0.
 00001146,-0.00013405,-0.00002697,0.00000636,0.00001900,-0.00011872,0.0
 0004127,0.00026009,0.00001021,-0.00001305,0.00000387,0.00008498,0.0000
 5577,-0.00103374,0.00017371,0.00002654,0.00013949,-0.00405542,-0.00176
 791,-0.00165978,0.00005620,0.00003811,-0.00003130,0.00000616,0.0000008
 7,0.00003472,0.00000185,-0.00000923,-0.00011830,-0.00001515,-0.0000185
 1,0.00003719,0.00002475,-0.00000050,0.00002738,-0.00000992,0.00001858,
 0.00002768,0.00000254,-0.00000229,-0.00000102,-0.00195934,-0.00060033,
 -0.00028120,-0.00069083,0.00230777,0.00426462,-0.02668490,-0.00798638,
 -0.01327646,0.00178844,0.00056239,-0.00116367,0.00049164,-0.00027506,0
 .00042600,0.00022857,0.00009906,0.00079403,-0.00006394,0.00010814,-0.0
 0012879,-0.00022777,-0.00004513,0.00044085,-0.00022694,-0.00025390,-0.
 00015787,0.00007064,-0.00000392,-0.00014373,0.00014669,-0.00006573,-0.
 00008788,-0.21232555,-0.06233830,-0.12083721,0.00072243,0.00028904,-0.
 00070632,0.00562541,0.00062691,0.00292767,0.23693824,0.00001993,-0.000
 00230,-0.00005292,-0.00001956,-0.00000057,0.00001816,0.00002704,-0.000
 00443,-0.00001252,0.00003970,-0.00000252,-0.00003439,0.00000648,0.0000
 0124,-0.00000312,-0.00002856,-0.00004935,0.00011307,-0.00003342,-0.000
 06751,-0.00008458,-0.00172171,0.00052278,0.00031438,0.00005148,0.00001
 601,0.00002707,0.00000180,-0.00000301,0.00001375,-0.00000095,0.0000032
 4,0.00008426,0.00001258,0.00001376,-0.00002506,-0.00001048,-0.00000256
 ,-0.00002228,0.00000963,-0.00001741,-0.00002441,-0.00000204,0.00000184
 ,0.00000246,0.00039827,0.00007331,-0.00019433,0.00008810,0.00037031,-0
 .00051540,0.00356437,0.00070940,0.00567068,0.00045611,-0.00022218,-0.0
 0053194,0.00024693,0.00035074,-0.00032023,0.00002965,-0.00012818,-0.00
 015349,0.00008151,0.00018523,0.00001035,0.00002438,0.00007504,-0.00005
 234,0.00046685,0.00010490,0.00005401,0.00002669,-0.00000844,0.00001027
 ,0.00000207,-0.00003993,0.00005551,-0.06542487,-0.07620078,-0.05022756
 ,0.01614707,0.00692528,0.01041663,-0.02367217,-0.00624079,-0.01732752,
 0.06921311,0.07363686,-0.00008063,0.00001815,-0.00001258,0.00004293,0.
 00000796,0.00010664,-0.00001183,-0.00000031,0.00000042,0.00006719,-0.0
 0003538,-0.00018450,-0.00001509,0.00000333,0.00001025,-0.00011241,-0.0
 0004394,0.00063277,-0.00020831,-0.00032496,0.00025872,0.00292205,0.002
 02156,-0.00096139,-0.00010755,-0.00002430,-0.00006095,0.00001698,0.000
 00337,-0.00001259,-0.00000710,0.00001045,0.00000689,0.00000144,-0.0000
 0213,-0.00000213,-0.00000505,0.00000072,0.00000123,-0.00000002,0.00000
 419,0.00000529,0.,0.00000011,-0.00000195,0.00141112,0.00041623,0.00036
 947,0.00211839,-0.00093410,-0.00315464,0.01958983,0.00695506,0.0127312
 0,0.00045504,-0.00034419,-0.00173342,-0.00025618,-0.00010745,-0.000228
 26,-0.00006732,-0.00035543,-0.00075377,-0.00010079,-0.00024617,-0.0000
 0451,0.00024148,-0.00001086,-0.00027342,0.00007033,0.00013816,0.000150
 49,-0.00015453,0.00011436,0.00017523,-0.00036322,0.00033320,0.00037079
 ,-0.13189598,-0.05082695,-0.14667105,-0.01889231,-0.00913427,-0.012681
 44,-0.00490699,-0.00042792,-0.00384794,0.13024855,0.05279150,0.1557651
 2\\-0.00001838,0.00000396,-0.00000174,0.00000867,0.00000314,-0.0000043
 6,-0.00000091,0.00000837,-0.00000003,0.00000019,0.00000389,-0.00000441
 ,0.00000161,0.00000944,-0.00000251,0.00000074,-0.00001026,0.00002092,-
 0.00000414,0.00000314,-0.00000163,0.00000622,-0.00000457,0.00001380,0.
 00000343,-0.00000450,0.00000374,-0.00000317,-0.00000402,-0.00000227,0.
 00004236,-0.00003105,-0.00000334,-0.00000780,0.00000154,-0.00000372,-0
 .00003156,-0.00000757,-0.00000320,-0.00000744,0.00002257,0.00000707,-0
 .00000267,0.00000134,0.00000212,0.00000831,0.00003139,-0.00002393,-0.0
 0000966,-0.00000043,-0.00001444,0.00001047,0.00000679,-0.00000430,-0.0
 0000282,-0.00001350,-0.00000192,-0.00000789,-0.00000896,-0.00000364,0.
 00000414,-0.00002999,0.00002588,0.00000470,0.00002582,-0.00000093,-0.0
 0000064,0.00000208,-0.00000235,-0.00000129,-0.00000330,-0.00000572,0.0
 0000045,0.00001134,-0.00000152,0.00000099,0.00000657,-0.00000043,-0.00
 000046,-0.00000549,0.00000468,0.00000304,-0.00000446,0.00000306,0.0000
 0020,-0.00000517,0.00000158,0.00000333,-0.00000811,0.00000356\\\@
 The archive entry for this job was punched.


 WE ARE PERHAPS NOT FAR REMOVED FROM THE TIME WHEN WE SHALL BE ABLE TO SUBMIT
 THE BULK OF CHEMICAL PHENOMENA TO CALCULATION.

            -- JOSEPH LOUIS GAY-LUSSAC
               MEMOIRES DE LA SOCIETE D'ARCUEIL, 2, 207 (1808)
 Job cpu time:       0 days  4 hours 25 minutes 18.2 seconds.
 Elapsed time:       0 days  0 hours 17 minutes  8.0 seconds.
 File lengths (MBytes):  RWF=    725 Int=      0 D2E=      0 Chk=     25 Scr=      1
 Normal termination of Gaussian 16 at Wed Jun 29 17:27:44 2022.
