 Entering Gaussian System, Link 0=g16
 AtFile(1): /home/561/yj5695/Basis/6-31pGd.gbs
 Initial command:
 /apps/gaussian/g16c01/g16/l1.exe "/jobfs/48773866.gadi-pbs/Gau-617290.inp" -scrdir="/jobfs/48773866.gadi-pbs/"
 Entering Link 1 = /apps/gaussian/g16c01/g16/l1.exe PID=    617291.
  
 Copyright (c) 1988-2019, Gaussian, Inc.  All Rights Reserved.
  
 This is part of the Gaussian(R) 16 program.  It is based on
 the Gaussian(R) 09 system (copyright 2009, Gaussian, Inc.),
 the Gaussian(R) 03 system (copyright 2003, Gaussian, Inc.),
 the Gaussian(R) 98 system (copyright 1998, Gaussian, Inc.),
 the Gaussian(R) 94 system (copyright 1995, Gaussian, Inc.),
 the Gaussian 92(TM) system (copyright 1992, Gaussian, Inc.),
 the Gaussian 90(TM) system (copyright 1990, Gaussian, Inc.),
 the Gaussian 88(TM) system (copyright 1988, Gaussian, Inc.),
 the Gaussian 86(TM) system (copyright 1986, Carnegie Mellon
 University), and the Gaussian 82(TM) system (copyright 1983,
 Carnegie Mellon University). Gaussian is a federally registered
 trademark of Gaussian, Inc.
  
 This software contains proprietary and confidential information,
 including trade secrets, belonging to Gaussian, Inc.
  
 This software is provided under written license and may be
 used, copied, transmitted, or stored only in accord with that
 written license.
  
 The following legend is applicable only to US Government
 contracts under FAR:
  
                    RESTRICTED RIGHTS LEGEND
  
 Use, reproduction and disclosure by the US Government is
 subject to restrictions as set forth in subparagraphs (a)
 and (c) of the Commercial Computer Software - Restricted
 Rights clause in FAR 52.227-19.
  
 Gaussian, Inc.
 340 Quinnipiac St., Bldg. 40, Wallingford CT 06492
  
  
 ---------------------------------------------------------------
 Warning -- This program may not be used in any manner that
 competes with the business of Gaussian, Inc. or will provide
 assistance to any competitor of Gaussian, Inc.  The licensee
 of this program is prohibited from giving any competitor of
 Gaussian, Inc. access to this program.  By using this program,
 the user acknowledges that Gaussian, Inc. is engaged in the
 business of creating and licensing software in the field of
 computational chemistry and represents and warrants to the
 licensee that it is not a competitor of Gaussian, Inc. and that
 it will not use this program in any manner prohibited above.
 ---------------------------------------------------------------
  

 Cite this work as:
 Gaussian 16, Revision C.01,
 M. J. Frisch, G. W. Trucks, H. B. Schlegel, G. E. Scuseria, 
 M. A. Robb, J. R. Cheeseman, G. Scalmani, V. Barone, 
 G. A. Petersson, H. Nakatsuji, X. Li, M. Caricato, A. V. Marenich, 
 J. Bloino, B. G. Janesko, R. Gomperts, B. Mennucci, H. P. Hratchian, 
 J. V. Ortiz, A. F. Izmaylov, J. L. Sonnenberg, D. Williams-Young, 
 F. Ding, F. Lipparini, F. Egidi, J. Goings, B. Peng, A. Petrone, 
 T. Henderson, D. Ranasinghe, V. G. Zakrzewski, J. Gao, N. Rega, 
 G. Zheng, W. Liang, M. Hada, M. Ehara, K. Toyota, R. Fukuda, 
 J. Hasegawa, M. Ishida, T. Nakajima, Y. Honda, O. Kitao, H. Nakai, 
 T. Vreven, K. Throssell, J. A. Montgomery, Jr., J. E. Peralta, 
 F. Ogliaro, M. J. Bearpark, J. J. Heyd, E. N. Brothers, K. N. Kudin, 
 V. N. Staroverov, T. A. Keith, R. Kobayashi, J. Normand, 
 K. Raghavachari, A. P. Rendell, J. C. Burant, S. S. Iyengar, 
 J. Tomasi, M. Cossi, J. M. Millam, M. Klene, C. Adamo, R. Cammi, 
 J. W. Ochterski, R. L. Martin, K. Morokuma, O. Farkas, 
 J. B. Foresman, and D. J. Fox, Gaussian, Inc., Wallingford CT, 2019.
 
 ******************************************
 Gaussian 16:  ES64L-G16RevC.01  3-Jul-2019
                29-Jun-2022 
 ******************************************
 %nproc=16
 Will use up to   16 processors via shared memory.
 %mem=50gb
 -----------------------------------------------------
 #m062X/gen 6D OPT Freq=noraman SCRF=(SMD,Solvent=h2o)
 -----------------------------------------------------
 1/18=20,19=15,26=3,38=1/1,3;
 2/9=110,12=2,17=6,18=5,40=1/2;
 3/5=7,8=2,11=2,25=1,30=1,70=32201,71=1,72=1,74=-55/1,2,3;
 4//1;
 5/5=2,38=5,53=1/2;
 6/7=2,8=2,9=2,10=2,28=1/1;
 7//1,2,3,16;
 1/18=20,19=15,26=3/3(2);
 2/9=110/2;
 99//99;
 2/9=110/2;
 3/5=7,6=1,8=2,11=2,25=1,30=1,70=32205,71=1,72=1,74=-55,82=7/1,2,3;
 4/5=5,16=3,69=1/1;
 5/5=2,38=5,53=1/2;
 7//1,2,3,16;
 1/18=20,19=15,26=3/3(-5);
 2/9=110/2;
 6/7=2,8=2,9=2,10=2,19=2,28=1/1;
 99/9=1/99;
 ---------------
 A.29.smd.a1.smd
 ---------------
 Symbolic Z-matrix:
 Charge = -1 Multiplicity = 1
 C                    -1.31129   0.20639  -1.05307 
 C                    -2.29842   0.98126  -1.68305 
 Cl                   -3.76946   1.41709  -0.84839 
 C                    -2.16689   1.42149  -2.98872 
 H                    -2.94886   2.01356  -3.45461 
 C                    -1.01895   1.08057  -3.71781 
 C                    -0.01184   0.3226   -3.09675 
 C                     1.26615   0.08008  -3.81067 
 C                    -0.1687   -0.10206  -1.77823 
 H                     0.62101  -0.68039  -1.31055 
 S                    -1.47323  -0.42374   0.63796 
 O                    -0.21557  -1.18702   0.84088 
 O                    -1.56784   0.81135   1.47125 
 N                    -2.68691  -1.39819   0.75048 
 H                    -3.5428   -0.84132   0.79417 
 N                    -0.82063   1.50177  -5.01792 
 C                    -0.02437   0.58684  -5.82721 
 N                     1.26976   0.40611  -5.13322 
 C                     0.14746   1.13811  -7.22446 
 H                    -1.66694   1.80907  -5.49199 
 H                    -0.52482  -0.39327  -5.8719 
 H                     0.67508   0.42475  -7.86215 
 H                     0.69928   2.0827   -7.20606 
 O                     2.27533  -0.33702  -3.22597 
 C                     2.46675   0.15606  -5.89112 
 C                     2.70454  -1.12441  -6.4115 
 C                     1.71719  -2.24191  -6.2083 
 C                     3.88014  -1.32074  -7.14257 
 H                     4.08318  -2.30666  -7.5536 
 C                     4.78838  -0.28188  -7.34819 
 H                     5.69378  -0.46242  -7.92049 
 C                     4.53575   0.9823   -6.81791 
 H                     5.23852   1.79552  -6.97158 
 C                     3.3698    1.1984   -6.08454 
 H                     3.1511    2.17457  -5.66086 
 H                    -0.84377   1.31066  -7.65443 
 H                     2.15905  -3.19959  -6.49462 
 H                     0.82055  -2.08801  -6.82085 
 H                     1.39308  -2.30886  -5.16398 
 

 GradGradGradGradGradGradGradGradGradGradGradGradGradGradGradGradGradGrad
 Berny optimization.
 Initialization pass.
                           ----------------------------
                           !    Initial Parameters    !
                           ! (Angstroms and Degrees)  !
 --------------------------                            --------------------------
 ! Name  Definition              Value          Derivative Info.                !
 --------------------------------------------------------------------------------
 ! R1    R(1,2)                  1.4042         estimate D2E/DX2                !
 ! R2    R(1,9)                  1.388          estimate D2E/DX2                !
 ! R3    R(1,11)                 1.8119         estimate D2E/DX2                !
 ! R4    R(2,3)                  1.7466         estimate D2E/DX2                !
 ! R5    R(2,4)                  1.3841         estimate D2E/DX2                !
 ! R6    R(4,5)                  1.0859         estimate D2E/DX2                !
 ! R7    R(4,6)                  1.402          estimate D2E/DX2                !
 ! R8    R(6,7)                  1.4052         estimate D2E/DX2                !
 ! R9    R(6,16)                 1.381          estimate D2E/DX2                !
 ! R10   R(7,8)                  1.4838         estimate D2E/DX2                !
 ! R11   R(7,9)                  1.3941         estimate D2E/DX2                !
 ! R12   R(8,18)                 1.3621         estimate D2E/DX2                !
 ! R13   R(8,24)                 1.2387         estimate D2E/DX2                !
 ! R14   R(9,10)                 1.0848         estimate D2E/DX2                !
 ! R15   R(11,12)                1.4851         estimate D2E/DX2                !
 ! R16   R(11,13)                1.4929         estimate D2E/DX2                !
 ! R17   R(11,14)                1.5605         estimate D2E/DX2                !
 ! R18   R(14,15)                1.022          estimate D2E/DX2                !
 ! R19   R(16,17)                1.4581         estimate D2E/DX2                !
 ! R20   R(16,20)                1.0176         estimate D2E/DX2                !
 ! R21   R(17,18)                1.4795         estimate D2E/DX2                !
 ! R22   R(17,19)                1.5119         estimate D2E/DX2                !
 ! R23   R(17,21)                1.1014         estimate D2E/DX2                !
 ! R24   R(18,25)                1.4387         estimate D2E/DX2                !
 ! R25   R(19,22)                1.0927         estimate D2E/DX2                !
 ! R26   R(19,23)                1.0941         estimate D2E/DX2                !
 ! R27   R(19,36)                1.0942         estimate D2E/DX2                !
 ! R28   R(25,26)                1.4025         estimate D2E/DX2                !
 ! R29   R(25,34)                1.3926         estimate D2E/DX2                !
 ! R30   R(26,27)                1.505          estimate D2E/DX2                !
 ! R31   R(26,28)                1.3982         estimate D2E/DX2                !
 ! R32   R(27,37)                1.0929         estimate D2E/DX2                !
 ! R33   R(27,38)                1.0967         estimate D2E/DX2                !
 ! R34   R(27,39)                1.0955         estimate D2E/DX2                !
 ! R35   R(28,29)                1.0873         estimate D2E/DX2                !
 ! R36   R(28,30)                1.3951         estimate D2E/DX2                !
 ! R37   R(30,31)                1.0862         estimate D2E/DX2                !
 ! R38   R(30,32)                1.394          estimate D2E/DX2                !
 ! R39   R(32,33)                1.0857         estimate D2E/DX2                !
 ! R40   R(32,34)                1.3943         estimate D2E/DX2                !
 ! R41   R(34,35)                1.0864         estimate D2E/DX2                !
 ! A1    A(2,1,9)              117.8355         estimate D2E/DX2                !
 ! A2    A(2,1,11)             123.2172         estimate D2E/DX2                !
 ! A3    A(9,1,11)             118.9402         estimate D2E/DX2                !
 ! A4    A(1,2,3)              121.0232         estimate D2E/DX2                !
 ! A5    A(1,2,4)              122.1355         estimate D2E/DX2                !
 ! A6    A(3,2,4)              116.8367         estimate D2E/DX2                !
 ! A7    A(2,4,5)              120.6451         estimate D2E/DX2                !
 ! A8    A(2,4,6)              119.4077         estimate D2E/DX2                !
 ! A9    A(5,4,6)              119.9411         estimate D2E/DX2                !
 ! A10   A(4,6,7)              119.22           estimate D2E/DX2                !
 ! A11   A(4,6,16)             122.2098         estimate D2E/DX2                !
 ! A12   A(7,6,16)             118.5355         estimate D2E/DX2                !
 ! A13   A(6,7,8)              119.5251         estimate D2E/DX2                !
 ! A14   A(6,7,9)              120.1126         estimate D2E/DX2                !
 ! A15   A(8,7,9)              120.1442         estimate D2E/DX2                !
 ! A16   A(7,8,18)             115.4873         estimate D2E/DX2                !
 ! A17   A(7,8,24)             121.9806         estimate D2E/DX2                !
 ! A18   A(18,8,24)            122.463          estimate D2E/DX2                !
 ! A19   A(1,9,7)              121.2698         estimate D2E/DX2                !
 ! A20   A(1,9,10)             119.5048         estimate D2E/DX2                !
 ! A21   A(7,9,10)             119.2247         estimate D2E/DX2                !
 ! A22   A(1,11,12)            103.3315         estimate D2E/DX2                !
 ! A23   A(1,11,13)            103.8205         estimate D2E/DX2                !
 ! A24   A(1,11,14)            110.7307         estimate D2E/DX2                !
 ! A25   A(12,11,13)           113.7413         estimate D2E/DX2                !
 ! A26   A(12,11,14)           109.138          estimate D2E/DX2                !
 ! A27   A(13,11,14)           115.2815         estimate D2E/DX2                !
 ! A28   A(11,14,15)           108.3097         estimate D2E/DX2                !
 ! A29   A(6,16,17)            114.1784         estimate D2E/DX2                !
 ! A30   A(6,16,20)            114.2858         estimate D2E/DX2                !
 ! A31   A(17,16,20)           112.6505         estimate D2E/DX2                !
 ! A32   A(16,17,18)           107.0958         estimate D2E/DX2                !
 ! A33   A(16,17,19)           110.2564         estimate D2E/DX2                !
 ! A34   A(16,17,21)           109.4368         estimate D2E/DX2                !
 ! A35   A(18,17,19)           112.2487         estimate D2E/DX2                !
 ! A36   A(18,17,21)           107.9249         estimate D2E/DX2                !
 ! A37   A(19,17,21)           109.7924         estimate D2E/DX2                !
 ! A38   A(8,18,17)            118.838          estimate D2E/DX2                !
 ! A39   A(8,18,25)            118.171          estimate D2E/DX2                !
 ! A40   A(17,18,25)           120.1245         estimate D2E/DX2                !
 ! A41   A(17,19,22)           110.8669         estimate D2E/DX2                !
 ! A42   A(17,19,23)           110.8899         estimate D2E/DX2                !
 ! A43   A(17,19,36)           108.525          estimate D2E/DX2                !
 ! A44   A(22,19,23)           109.2634         estimate D2E/DX2                !
 ! A45   A(22,19,36)           108.1235         estimate D2E/DX2                !
 ! A46   A(23,19,36)           109.1093         estimate D2E/DX2                !
 ! A47   A(18,25,26)           119.6848         estimate D2E/DX2                !
 ! A48   A(18,25,34)           118.8555         estimate D2E/DX2                !
 ! A49   A(26,25,34)           121.4588         estimate D2E/DX2                !
 ! A50   A(25,26,27)           121.1047         estimate D2E/DX2                !
 ! A51   A(25,26,28)           117.6943         estimate D2E/DX2                !
 ! A52   A(27,26,28)           121.1938         estimate D2E/DX2                !
 ! A53   A(26,27,37)           110.4902         estimate D2E/DX2                !
 ! A54   A(26,27,38)           110.9002         estimate D2E/DX2                !
 ! A55   A(26,27,39)           111.6038         estimate D2E/DX2                !
 ! A56   A(37,27,38)           107.8898         estimate D2E/DX2                !
 ! A57   A(37,27,39)           108.41           estimate D2E/DX2                !
 ! A58   A(38,27,39)           107.4051         estimate D2E/DX2                !
 ! A59   A(26,28,29)           118.815          estimate D2E/DX2                !
 ! A60   A(26,28,30)           121.3225         estimate D2E/DX2                !
 ! A61   A(29,28,30)           119.8624         estimate D2E/DX2                !
 ! A62   A(28,30,31)           119.7706         estimate D2E/DX2                !
 ! A63   A(28,30,32)           120.0824         estimate D2E/DX2                !
 ! A64   A(31,30,32)           120.1468         estimate D2E/DX2                !
 ! A65   A(30,32,33)           120.5381         estimate D2E/DX2                !
 ! A66   A(30,32,34)           119.4859         estimate D2E/DX2                !
 ! A67   A(33,32,34)           119.976          estimate D2E/DX2                !
 ! A68   A(25,34,32)           119.9544         estimate D2E/DX2                !
 ! A69   A(25,34,35)           119.1984         estimate D2E/DX2                !
 ! A70   A(32,34,35)           120.8469         estimate D2E/DX2                !
 ! D1    D(9,1,2,3)            179.9579         estimate D2E/DX2                !
 ! D2    D(9,1,2,4)              0.7646         estimate D2E/DX2                !
 ! D3    D(11,1,2,3)             0.9411         estimate D2E/DX2                !
 ! D4    D(11,1,2,4)          -178.2522         estimate D2E/DX2                !
 ! D5    D(2,1,9,7)             -1.0501         estimate D2E/DX2                !
 ! D6    D(2,1,9,10)           178.6413         estimate D2E/DX2                !
 ! D7    D(11,1,9,7)           178.01           estimate D2E/DX2                !
 ! D8    D(11,1,9,10)           -2.2987         estimate D2E/DX2                !
 ! D9    D(2,1,11,12)          179.0383         estimate D2E/DX2                !
 ! D10   D(2,1,11,13)          -61.9892         estimate D2E/DX2                !
 ! D11   D(2,1,11,14)           62.2987         estimate D2E/DX2                !
 ! D12   D(9,1,11,12)            0.0319         estimate D2E/DX2                !
 ! D13   D(9,1,11,13)          119.0043         estimate D2E/DX2                !
 ! D14   D(9,1,11,14)         -116.7078         estimate D2E/DX2                !
 ! D15   D(1,2,4,5)            179.5517         estimate D2E/DX2                !
 ! D16   D(1,2,4,6)              0.449          estimate D2E/DX2                !
 ! D17   D(3,2,4,5)              0.3265         estimate D2E/DX2                !
 ! D18   D(3,2,4,6)           -178.7762         estimate D2E/DX2                !
 ! D19   D(2,4,6,7)             -1.3774         estimate D2E/DX2                !
 ! D20   D(2,4,6,16)          -179.2017         estimate D2E/DX2                !
 ! D21   D(5,4,6,7)            179.5135         estimate D2E/DX2                !
 ! D22   D(5,4,6,16)             1.6892         estimate D2E/DX2                !
 ! D23   D(4,6,7,8)           -173.5389         estimate D2E/DX2                !
 ! D24   D(4,6,7,9)              1.102          estimate D2E/DX2                !
 ! D25   D(16,6,7,8)             4.3657         estimate D2E/DX2                !
 ! D26   D(16,6,7,9)           179.0066         estimate D2E/DX2                !
 ! D27   D(4,6,16,17)         -150.2351         estimate D2E/DX2                !
 ! D28   D(4,6,16,20)          -18.4986         estimate D2E/DX2                !
 ! D29   D(7,6,16,17)           31.9264         estimate D2E/DX2                !
 ! D30   D(7,6,16,20)          163.6628         estimate D2E/DX2                !
 ! D31   D(6,7,8,18)           -11.9641         estimate D2E/DX2                !
 ! D32   D(6,7,8,24)           165.0816         estimate D2E/DX2                !
 ! D33   D(9,7,8,18)           173.3967         estimate D2E/DX2                !
 ! D34   D(9,7,8,24)            -9.5577         estimate D2E/DX2                !
 ! D35   D(6,7,9,1)              0.1312         estimate D2E/DX2                !
 ! D36   D(6,7,9,10)          -179.561          estimate D2E/DX2                !
 ! D37   D(8,7,9,1)            174.7388         estimate D2E/DX2                !
 ! D38   D(8,7,9,10)            -4.9534         estimate D2E/DX2                !
 ! D39   D(7,8,18,17)          -17.2459         estimate D2E/DX2                !
 ! D40   D(7,8,18,25)         -178.1198         estimate D2E/DX2                !
 ! D41   D(24,8,18,17)         165.7242         estimate D2E/DX2                !
 ! D42   D(24,8,18,25)           4.8503         estimate D2E/DX2                !
 ! D43   D(1,11,14,15)         -77.911          estimate D2E/DX2                !
 ! D44   D(12,11,14,15)        168.9905         estimate D2E/DX2                !
 ! D45   D(13,11,14,15)         39.5555         estimate D2E/DX2                !
 ! D46   D(6,16,17,18)         -57.0988         estimate D2E/DX2                !
 ! D47   D(6,16,17,19)        -179.4935         estimate D2E/DX2                !
 ! D48   D(6,16,17,21)          59.6441         estimate D2E/DX2                !
 ! D49   D(20,16,17,18)        170.3797         estimate D2E/DX2                !
 ! D50   D(20,16,17,19)         47.985          estimate D2E/DX2                !
 ! D51   D(20,16,17,21)        -72.8774         estimate D2E/DX2                !
 ! D52   D(16,17,18,8)          50.5559         estimate D2E/DX2                !
 ! D53   D(16,17,18,25)       -148.9521         estimate D2E/DX2                !
 ! D54   D(19,17,18,8)         171.6993         estimate D2E/DX2                !
 ! D55   D(19,17,18,25)        -27.8087         estimate D2E/DX2                !
 ! D56   D(21,17,18,8)         -67.1801         estimate D2E/DX2                !
 ! D57   D(21,17,18,25)         93.3119         estimate D2E/DX2                !
 ! D58   D(16,17,19,22)       -175.5249         estimate D2E/DX2                !
 ! D59   D(16,17,19,23)         62.9145         estimate D2E/DX2                !
 ! D60   D(16,17,19,36)        -56.9162         estimate D2E/DX2                !
 ! D61   D(18,17,19,22)         65.1657         estimate D2E/DX2                !
 ! D62   D(18,17,19,23)        -56.3949         estimate D2E/DX2                !
 ! D63   D(18,17,19,36)       -176.2256         estimate D2E/DX2                !
 ! D64   D(21,17,19,22)        -54.8755         estimate D2E/DX2                !
 ! D65   D(21,17,19,23)       -176.4361         estimate D2E/DX2                !
 ! D66   D(21,17,19,36)         63.7332         estimate D2E/DX2                !
 ! D67   D(8,18,25,26)          83.1292         estimate D2E/DX2                !
 ! D68   D(8,18,25,34)         -96.5357         estimate D2E/DX2                !
 ! D69   D(17,18,25,26)        -77.4907         estimate D2E/DX2                !
 ! D70   D(17,18,25,34)        102.8445         estimate D2E/DX2                !
 ! D71   D(18,25,26,27)          0.9046         estimate D2E/DX2                !
 ! D72   D(18,25,26,28)        179.9414         estimate D2E/DX2                !
 ! D73   D(34,25,26,27)       -179.4395         estimate D2E/DX2                !
 ! D74   D(34,25,26,28)         -0.4027         estimate D2E/DX2                !
 ! D75   D(18,25,34,32)       -179.858          estimate D2E/DX2                !
 ! D76   D(18,25,34,35)         -0.0403         estimate D2E/DX2                !
 ! D77   D(26,25,34,32)          0.4833         estimate D2E/DX2                !
 ! D78   D(26,25,34,35)       -179.699          estimate D2E/DX2                !
 ! D79   D(25,26,27,37)       -168.159          estimate D2E/DX2                !
 ! D80   D(25,26,27,38)         72.2548         estimate D2E/DX2                !
 ! D81   D(25,26,27,39)        -47.4551         estimate D2E/DX2                !
 ! D82   D(28,26,27,37)         12.838          estimate D2E/DX2                !
 ! D83   D(28,26,27,38)       -106.7482         estimate D2E/DX2                !
 ! D84   D(28,26,27,39)        133.5419         estimate D2E/DX2                !
 ! D85   D(25,26,28,29)        179.9473         estimate D2E/DX2                !
 ! D86   D(25,26,28,30)          0.0705         estimate D2E/DX2                !
 ! D87   D(27,26,28,29)         -1.0168         estimate D2E/DX2                !
 ! D88   D(27,26,28,30)        179.1064         estimate D2E/DX2                !
 ! D89   D(26,28,30,31)       -179.9789         estimate D2E/DX2                !
 ! D90   D(26,28,30,32)          0.1802         estimate D2E/DX2                !
 ! D91   D(29,28,30,31)          0.1456         estimate D2E/DX2                !
 ! D92   D(29,28,30,32)       -179.6953         estimate D2E/DX2                !
 ! D93   D(28,30,32,33)        179.8676         estimate D2E/DX2                !
 ! D94   D(28,30,32,34)         -0.1049         estimate D2E/DX2                !
 ! D95   D(31,30,32,33)          0.0273         estimate D2E/DX2                !
 ! D96   D(31,30,32,34)       -179.9452         estimate D2E/DX2                !
 ! D97   D(30,32,34,25)         -0.2206         estimate D2E/DX2                !
 ! D98   D(30,32,34,35)        179.9648         estimate D2E/DX2                !
 ! D99   D(33,32,34,25)        179.8067         estimate D2E/DX2                !
 ! D100  D(33,32,34,35)         -0.0079         estimate D2E/DX2                !
 --------------------------------------------------------------------------------
 Trust Radius=3.00D-01 FncErr=1.00D-07 GrdErr=1.00D-06 EigMax=2.50D+02 EigMin=1.00D-04
 Number of steps in this run=    221 maximum allowed number of steps=    234.
 GradGradGradGradGradGradGradGradGradGradGradGradGradGradGradGradGradGrad

                          Input orientation:                          
 ---------------------------------------------------------------------
 Center     Atomic      Atomic             Coordinates (Angstroms)
 Number     Number       Type             X           Y           Z
 ---------------------------------------------------------------------
      1          6           0       -1.311291    0.206392   -1.053067
      2          6           0       -2.298415    0.981255   -1.683052
      3         17           0       -3.769464    1.417091   -0.848391
      4          6           0       -2.166891    1.421485   -2.988719
      5          1           0       -2.948858    2.013565   -3.454609
      6          6           0       -1.018951    1.080574   -3.717810
      7          6           0       -0.011844    0.322595   -3.096755
      8          6           0        1.266147    0.080082   -3.810670
      9          6           0       -0.168697   -0.102058   -1.778227
     10          1           0        0.621011   -0.680386   -1.310549
     11         16           0       -1.473228   -0.423742    0.637961
     12          8           0       -0.215573   -1.187019    0.840882
     13          8           0       -1.567841    0.811351    1.471249
     14          7           0       -2.686908   -1.398194    0.750484
     15          1           0       -3.542801   -0.841321    0.794173
     16          7           0       -0.820633    1.501768   -5.017922
     17          6           0       -0.024368    0.586843   -5.827208
     18          7           0        1.269762    0.406113   -5.133221
     19          6           0        0.147458    1.138107   -7.224460
     20          1           0       -1.666940    1.809068   -5.491991
     21          1           0       -0.524818   -0.393265   -5.871901
     22          1           0        0.675076    0.424749   -7.862149
     23          1           0        0.699283    2.082697   -7.206061
     24          8           0        2.275325   -0.337019   -3.225969
     25          6           0        2.466754    0.156062   -5.891122
     26          6           0        2.704544   -1.124409   -6.411504
     27          6           0        1.717188   -2.241911   -6.208296
     28          6           0        3.880144   -1.320740   -7.142569
     29          1           0        4.083180   -2.306655   -7.553604
     30          6           0        4.788381   -0.281883   -7.348194
     31          1           0        5.693778   -0.462415   -7.920490
     32          6           0        4.535749    0.982299   -6.817909
     33          1           0        5.238518    1.795517   -6.971581
     34          6           0        3.369800    1.198403   -6.084539
     35          1           0        3.151100    2.174566   -5.660861
     36          1           0       -0.843772    1.310655   -7.654429
     37          1           0        2.159055   -3.199589   -6.494618
     38          1           0        0.820553   -2.088006   -6.820847
     39          1           0        1.393083   -2.308858   -5.163978
 ---------------------------------------------------------------------
                    Distance matrix (angstroms):
                    1          2          3          4          5
     1  C    0.000000
     2  C    1.404175   0.000000
     3  Cl   2.747781   1.746596   0.000000
     4  C    2.440338   1.384149   2.673811   0.000000
     5  H    3.422704   2.151082   2.796703   1.085857   0.000000
     6  C    2.819665   2.405646   3.989001   1.401984   2.159696
     7  C    2.424608   2.767814   4.513621   2.421458   3.407857
     8  C    3.776707   4.247938   5.993335   3.776336   4.650957
     9  C    1.387991   2.391302   4.017204   2.789131   3.874973
    10  H    2.141603   3.379772   4.887665   3.873824   4.959670
    11  S    1.811869   2.835851   3.297061   4.127813   4.986690
    12  O    2.594077   3.925543   4.718599   5.027701   6.013803
    13  O    2.608441   3.242255   3.254965   4.541194   5.255150
    14  N    2.778455   3.425610   3.413819   4.711968   5.421395
    15  H    3.080525   3.317668   2.801753   4.617758   5.153183
    16  N    4.199859   3.684580   5.107618   2.436498   2.689837
    17  C    4.959167   4.743509   6.285195   3.652951   4.027084
    18  N    4.832120   4.996633   6.691460   4.176177   4.816471
    19  C    6.409535   6.059216   7.488282   4.835082   4.956347
    20  H    4.732769   3.948677   5.112463   2.581965   2.415793
    21  H    4.919277   4.751990   6.248261   3.781859   4.184746
    22  H    7.096262   6.879868   8.362504   5.728925   5.923145
    23  H    6.739604   6.379890   7.799532   5.141802   5.233269
    24  O    4.228547   5.003752   6.728243   4.783504   5.733202
    25  C    6.138643   6.410588   8.118482   5.612121   6.222199
    26  C    6.827211   7.198728   8.906190   6.475177   7.109927
    27  C    6.460825   6.855049   8.498248   6.234759   6.889402
    28  C    8.146482   8.560380  10.277592   7.832043   8.447124
    29  H    8.813212   9.273537  10.976802   8.590727   9.214967
    30  C    8.779125   9.160351  10.879828   8.383454   8.960689
    31  H    9.832588  10.240360  11.962444   9.468979  10.038413
    32  C    8.247625   8.548249  10.237224   7.731815   8.270105
    33  H    8.969622   9.243209  10.898642   8.416839   8.913460
    34  C    6.943516   7.179756   8.856306   6.347347   6.892493
    35  H    6.709576   6.851582   8.463323   5.999042   6.488679
    36  H    6.709393   6.154822   7.408992   4.850956   4.750153
    37  H    7.297567   7.778153   9.398987   7.235984   7.906289
    38  H    6.563254   6.748723   8.308080   5.993876   6.508679
    39  H    5.526275   6.047218   7.691481   5.596483   6.360639
                    6          7          8          9         10
     6  C    0.000000
     7  C    1.405171   0.000000
     8  C    2.496253   1.483829   0.000000
     9  C    2.425599   1.394076   2.494549   0.000000
    10  H    3.403728   2.144063   2.691676   1.084816   0.000000
    11  S    4.630559   4.079309   5.248650   2.764642   2.872002
    12  O    5.154519   4.222017   5.043607   2.835325   2.363304
    13  O    5.224949   4.850430   6.038618   3.653904   3.841192
    14  N    5.375130   4.991826   6.214183   3.796806   3.963008
    15  H    5.515568   5.381606   6.721573   4.306777   4.668306
    16  N    1.380951   2.394884   2.798803   3.673269   4.537042
    17  C    2.383805   2.743238   2.447174   4.109703   4.735250
    18  N    2.774255   2.407630   1.362149   3.685565   4.026683
    19  C    3.696000   4.210509   3.744976   5.594588   6.205281
    20  H    2.024429   3.268960   3.797266   4.437249   5.377412
    21  H    2.656403   2.911535   2.771333   4.119441   4.711825
    22  H    4.524973   4.815732   4.108849   6.164705   6.644374
    23  H    4.015529   4.526594   3.982522   5.915059   6.511361
    24  O    3.619908   2.383889   1.238664   2.850335   2.554112
    25  C    4.210481   3.738939   2.403229   4.891639   5.008798
    26  C    5.097289   4.523289   3.206887   5.546888   5.527930
    27  C    4.972714   4.387246   3.368041   5.268875   5.256224
    28  C    6.441771   5.849507   4.460587   6.830407   6.711517
    29  H    7.226228   6.598915   5.257542   7.502912   7.321687
    30  C    6.982914   6.440674   5.005120   7.458518   7.347036
    31  H    8.068709   7.512575   6.065380   8.498580   8.334974
    32  C    6.361994   5.912935   4.532966   6.978971   6.958499
    33  H    7.089012   6.689550   5.358527   7.733673   7.713543
    34  C    4.987627   4.596674   3.293399   5.723328   5.820367
    35  H    4.728804   4.473103   3.370922   5.592756   5.785959
    36  H    3.947226   4.737168   4.554180   6.081220   6.808425
    37  H    6.010839   5.353882   4.330947   6.103890   5.965445
    38  H    4.801303   4.513618   3.736352   5.509140   5.690746
    39  H    4.404266   3.629294   2.748561   4.332717   4.254049
                   11         12         13         14         15
    11  S    0.000000
    12  O    1.485081   0.000000
    13  O    1.492908   2.493887   0.000000
    14  N    1.560525   2.481988   2.579516   0.000000
    15  H    2.117051   3.345465   2.662747   1.022042   0.000000
    16  N    6.010198   6.474663   6.568435   6.720660   6.832329
    17  C    6.702155   6.902649   7.463256   7.368550   7.632936
    18  N    6.443539   6.358789   7.199669   7.316334   7.736333
    19  C    8.178243   8.401651   8.869294   8.835507   9.046249
    20  H    6.526812   7.154599   7.035053   7.091922   7.075258
    21  H    6.578656   6.766619   7.514043   7.038501   7.331133
    22  H    8.808349   8.895718   9.606896   9.423561   9.712123
    23  H    8.516497   8.733916   9.058249   9.321454   9.515719
    24  O    5.384155   4.844208   6.176774   6.446862   7.089884
    25  C    7.647781   7.370117   8.420918   8.549086   9.044484
    26  C    8.224334   7.818447   9.172690   8.968656   9.541029
    27  C    7.768895   7.385071   8.893213   8.278438   8.869256
    28  C    9.486825   8.973754  10.412695  10.268031  10.877584
    29  H   10.075752   9.497382  11.095223  10.752547  11.401235
    30  C   10.149214   9.639491  10.926083  11.077666  11.662749
    31  H   11.163089  10.592786  11.939780  12.095345  12.704460
    32  C    9.678572   9.270279  10.295299  10.729124  11.248660
    33  H   10.386423   9.983847  10.889283  11.517051  12.015466
    34  C    8.442647   8.155157   9.034381   9.494397   9.962992
    35  H    8.234730   8.056513   8.659893   9.378289   9.776060
    36  H    8.495180   8.877123   9.167965   9.020952   9.126589
    37  H    8.471865   7.968617   9.666045   8.900555   9.549820
    38  H    7.979036   7.783793   9.103272   8.372764   8.864627
    39  H    6.740319   6.317012   7.907529   7.242686   7.875035
                   16         17         18         19         20
    16  N    0.000000
    17  C    1.458105   0.000000
    18  N    2.362944   1.479545   0.000000
    19  C    2.436854   1.511863   2.483679   0.000000
    20  H    1.017551   2.074668   3.274327   2.596859   0.000000
    21  H    2.099509   1.101390   2.098850   2.150923   2.509790
    22  H    3.389210   2.157888   2.793035   1.092661   3.608189
    23  H    2.726825   2.159279   2.726361   1.094120   2.934607
    24  O    4.022088   3.592848   2.280573   4.763585   5.028121
    25  C    3.657911   2.528902   1.438655   2.849796   4.469805
    26  C    4.611480   3.273644   2.456645   3.509781   5.344218
    27  C    4.676821   3.343665   2.892751   3.862792   5.326898
    28  C    5.880304   4.540293   3.719354   4.470523   6.579532
    29  H    6.706799   5.312695   4.597030   5.240671   7.365684
    30  C    6.330294   5.121585   4.214276   4.854879   7.034823
    31  H    7.397328   6.178994   5.300484   5.814447   8.076968
    32  C    5.674560   4.683219   3.719790   4.409836   6.396480
    33  H    6.373098   5.519823   4.589230   5.139555   7.062204
    34  C    4.334678   3.458410   2.437804   3.418559   5.108109
    35  H    4.079300   3.554171   2.635387   3.541321   4.834834
    36  H    2.643526   2.129334   3.411995   1.094159   2.366888
    37  H    5.758640   4.421520   3.955418   4.836817   6.382017
    38  H    4.339413   2.975908   3.044750   3.320206   4.810475
    39  H    4.409392   3.291523   2.717944   4.204609   5.140880
                   21         22         23         24         25
    21  H    0.000000
    22  H    2.463733   0.000000
    23  H    3.067376   1.783208   0.000000
    24  O    3.852911   4.963391   4.917323   0.000000
    25  C    3.041650   2.677172   2.926592   2.717133   0.000000
    26  C    3.354776   2.936495   3.864961   3.309357   1.402479
    27  C    2.925277   3.306403   4.553449   3.582514   2.532335
    28  C    4.677446   3.719810   4.658894   4.345447   2.396818
    29  H    5.265248   4.378463   5.553193   5.086868   3.382551
    30  C    5.515608   4.205087   4.725692   4.828170   2.775753
    31  H    6.547705   5.096845   5.650928   5.808621   3.861934
    32  C    5.328832   4.038081   4.009989   4.444339   2.412953
    33  H    6.262276   4.847383   4.554350   5.230471   3.396746
    34  C    4.212680   3.319635   3.028440   3.424444   1.392615
    35  H    4.488949   3.746762   2.899567   3.606070   2.143760
    36  H    2.486460   1.770558   1.782723   5.661701   3.924528
    37  H    3.932735   4.148272   5.526267   4.346480   3.423343
    38  H    2.362767   2.723860   4.190210   4.255052   2.934316
    39  H    2.801606   3.907463   4.892567   2.902134   2.785200
                   26         27         28         29         30
    26  C    0.000000
    27  C    1.504984   0.000000
    28  C    1.398226   2.529783   0.000000
    29  H    2.145399   2.722492   1.087291   0.000000
    30  C    2.435080   3.817500   1.395134   2.153881   0.000000
    31  H    3.413326   4.680970   2.152011   2.475854   1.086213
    32  C    2.820761   4.325673   2.416446   3.400483   1.393980
    33  H    3.906492   5.411395   3.403744   4.301322   2.158715
    34  C    2.438222   3.818665   2.779561   3.866846   2.408411
    35  H    3.412640   4.675581   3.865764   4.953039   3.400283
    36  H    4.479391   4.612000   5.431540   6.113097   5.860982
    37  H    2.147286   1.092874   2.629080   2.370873   4.019323
    38  H    2.155343   1.096750   3.170694   3.351041   4.391336
    39  H    2.163139   1.095503   3.328163   3.598186   4.517463
                   31         32         33         34         35
    31  H    0.000000
    32  C    2.154974   0.000000
    33  H    2.491174   1.085736   0.000000
    34  C    3.395572   1.394263   2.153020   0.000000
    35  H    4.304045   2.162756   2.493788   1.086383   0.000000
    36  H    6.778947   5.454065   6.139676   4.497927   4.547489
    37  H    4.692494   4.820931   5.887416   4.580000   5.528187
    38  H    5.253578   4.819695   5.884122   4.223896   4.994651
    39  H    5.431730   4.841854   5.907681   4.129857   4.841344
                   36         37         38         39
    36  H    0.000000
    37  H    5.541158   0.000000
    38  H    3.875014   1.770206   0.000000
    39  H    4.930187   1.775026   1.766856   0.000000
 Stoichiometry    C16H15ClN3O3S(1-)
 Framework group  C1[X(C16H15ClN3O3S)]
 Deg. of freedom   111
 Full point group                 C1      NOp   1
 Largest Abelian subgroup         C1      NOp   1
 Largest concise Abelian subgroup C1      NOp   1
                         Standard orientation:                         
 ---------------------------------------------------------------------
 Center     Atomic      Atomic             Coordinates (Angstroms)
 Number     Number       Type             X           Y           Z
 ---------------------------------------------------------------------
      1          6           0        2.655338   -0.251377   -0.076565
      2          6           0        2.795070    1.145808   -0.084012
      3         17           0        4.373295    1.892865   -0.042675
      4          6           0        1.702220    1.994921   -0.107527
      5          1           0        1.838201    3.072228   -0.105503
      6          6           0        0.409298    1.452835   -0.115036
      7          6           0        0.250928    0.056677   -0.127978
      8          6           0       -1.105955   -0.523945   -0.281260
      9          6           0        1.370081   -0.774362   -0.110038
     10          1           0        1.231303   -1.850120   -0.127620
     11         16           0        4.063207   -1.389300    0.000275
     12          8           0        3.421151   -2.728393    0.008059
     13          8           0        4.827167   -1.096272   -1.248435
     14          7           0        4.858297   -1.195415    1.328987
     15          1           0        5.440067   -0.360260    1.236090
     16          7           0       -0.720919    2.245347   -0.154512
     17          6           0       -1.883931    1.660087    0.501950
     18          7           0       -2.138129    0.354593   -0.146220
     19          6           0       -3.069342    2.592416    0.395681
     20          1           0       -0.563158    3.213123    0.117391
     21          1           0       -1.650774    1.472586    1.561922
     22          1           0       -3.924196    2.200017    0.951697
     23          1           0       -3.356167    2.741223   -0.649636
     24          8           0       -1.280783   -1.715947   -0.569107
     25          6           0       -3.480281   -0.154321   -0.242991
     26          6           0       -4.087179   -0.731126    0.882139
     27          6           0       -3.365144   -0.810114    2.200245
     28          6           0       -5.392917   -1.211109    0.741772
     29          1           0       -5.880617   -1.662637    1.602279
     30          6           0       -6.071408   -1.122557   -0.474044
     31          1           0       -7.085493   -1.503316   -0.554743
     32          6           0       -5.448235   -0.550301   -1.581907
     33          1           0       -5.968577   -0.479548   -2.532203
     34          6           0       -4.145822   -0.066993   -1.463157
     35          1           0       -3.638924    0.382634   -2.312343
     36          1           0       -2.793190    3.557002    0.832141
     37          1           0       -3.899973   -1.467145    2.890638
     38          1           0       -3.291755    0.180060    2.666108
     39          1           0       -2.345416   -1.191765    2.079321
 ---------------------------------------------------------------------
 Rotational constants (GHZ):           0.4928813           0.1031482           0.0926785
 General basis read from cards:  (6D, 7F)
 There are   494 symmetry adapted cartesian basis functions of A   symmetry.
 There are   494 symmetry adapted basis functions of A   symmetry.
   494 basis functions,   876 primitive gaussians,   494 cartesian basis functions
    95 alpha electrons       95 beta electrons
       nuclear repulsion energy      2367.5212146482 Hartrees.
 NAtoms=   39 NActive=   39 NUniq=   39 SFac= 1.00D+00 NAtFMM=   60 NAOKFM=F Big=F
 Integral buffers will be    131072 words long.
 Raffenetti 2 integral format.
 Two-electron integral symmetry is turned on.
 ------------------------------------------------------------------------------
 Polarizable Continuum Model (PCM)
 =================================
 Model                : PCM.
 Atomic radii         : SMD-Coulomb.
 Polarization charges : Total charges.
 Charge compensation  : None.
 Solution method      : On-the-fly selection.
 Cavity type          : VdW (van der Waals Surface) (Alpha=1.000).
 Cavity algorithm     : GePol (No added spheres)
                        Default sphere list used, NSphG=   39.
                        Lebedev-Laikov grids with approx.  5.0 points / Ang**2.
                        Smoothing algorithm: York/Karplus (Gamma=1.0000).
                        Polarization charges: spherical gaussians, with
                                              point-specific exponents (IZeta= 3).
                        Self-potential: point-specific (ISelfS= 7).
                        Self-field    : sphere-specific E.n sum rule (ISelfD= 2).
 1st derivatives      : Analytical E(r).r(x)/FMM algorithm (CHGder, D1EAlg=3).
                        Cavity 1st derivative terms included.
 Solvent              : Water, Eps=  78.355300 Eps(inf)=   1.777849
 ------------------------------------------------------------------------------
 ------------------------------------------------------------------------------
 Atomic radii for non-electrostatic terms: SMD-CDS.
 ------------------------------------------------------------------------------
 Nuclear repulsion after PCM non-electrostatic terms =     2367.5297032914 Hartrees.
 One-electron integrals computed using PRISM.
 NBasis=   494 RedAO= T EigKep=  1.09D-06  NBF=   494
 NBsUse=   490 1.00D-06 EigRej=  7.67D-07 NBFU=   490
 ExpMin= 4.05D-02 ExpMax= 2.52D+04 ExpMxC= 3.78D+03 IAcc=3 IRadAn=         5 AccDes= 0.00D+00
 Harris functional with IExCor= 1009 and IRadAn=       5 diagonalized for initial guess.
 HarFok:  IExCor= 1009 AccDes= 0.00D+00 IRadAn=         5 IDoV= 1 UseB2=F ITyADJ=14
 ICtDFT=  3500011 ScaDFX=  1.000000  1.000000  1.000000  1.000000
 FoFCou: FMM=F IPFlag=           0 FMFlag=      100000 FMFlg1=           0
         NFxFlg=           0 DoJE=T BraDBF=F KetDBF=T FulRan=T
         wScrn=  0.000000 ICntrl=       500 IOpCl=  0 I1Cent=   200000004 NGrid=           0
         NMat0=    1 NMatS0=      1 NMatT0=    0 NMatD0=    1 NMtDS0=    0 NMtDT0=    0
 Petite list used in FoFCou.
 Requested convergence on RMS density matrix=1.00D-08 within 128 cycles.
 Requested convergence on MAX density matrix=1.00D-06.
 Requested convergence on             energy=1.00D-06.
 No special actions if energy rises.
 Inv3:  Mode=1 IEnd=    28072443.
 Iteration    1 A*A^-1 deviation from unit magnitude is 6.55D-15 for   3038.
 Iteration    1 A*A^-1 deviation from orthogonality  is 2.85D-15 for   1812     61.
 Iteration    1 A^-1*A deviation from unit magnitude is 6.11D-15 for   3038.
 Iteration    1 A^-1*A deviation from orthogonality  is 3.13D-15 for   3024    826.
 Error on total polarization charges =  0.06464
 SCF Done:  E(RM062X) =  -1866.74082545     A.U. after   17 cycles
            NFock= 17  Conv=0.32D-08     -V/T= 2.0061
 SMD-CDS (non-electrostatic) energy       (kcal/mol) =       5.33
 (included in total energy above)

 **********************************************************************

            Population analysis using the SCF Density.

 **********************************************************************

 Orbital symmetries:
       Occupied  (A) (A) (A) (A) (A) (A) (A) (A) (A) (A) (A) (A)
                 (A) (A) (A) (A) (A) (A) (A) (A) (A) (A) (A) (A)
                 (A) (A) (A) (A) (A) (A) (A) (A) (A) (A) (A) (A)
                 (A) (A) (A) (A) (A) (A) (A) (A) (A) (A) (A) (A)
                 (A) (A) (A) (A) (A) (A) (A) (A) (A) (A) (A) (A)
                 (A) (A) (A) (A) (A) (A) (A) (A) (A) (A) (A) (A)
                 (A) (A) (A) (A) (A) (A) (A) (A) (A) (A) (A) (A)
                 (A) (A) (A) (A) (A) (A) (A) (A) (A) (A) (A)
       Virtual   (A) (A) (A) (A) (A) (A) (A) (A) (A) (A) (A) (A)
                 (A) (A) (A) (A) (A) (A) (A) (A) (A) (A) (A) (A)
                 (A) (A) (A) (A) (A) (A) (A) (A) (A) (A) (A) (A)
                 (A) (A) (A) (A) (A) (A) (A) (A) (A) (A) (A) (A)
                 (A) (A) (A) (A) (A) (A) (A) (A) (A) (A) (A) (A)
                 (A) (A) (A) (A) (A) (A) (A) (A) (A) (A) (A) (A)
                 (A) (A) (A) (A) (A) (A) (A) (A) (A) (A) (A) (A)
                 (A) (A) (A) (A) (A) (A) (A) (A) (A) (A) (A) (A)
                 (A) (A) (A) (A) (A) (A) (A) (A) (A) (A) (A) (A)
                 (A) (A) (A) (A) (A) (A) (A) (A) (A) (A) (A) (A)
                 (A) (A) (A) (A) (A) (A) (A) (A) (A) (A) (A) (A)
                 (A) (A) (A) (A) (A) (A) (A) (A) (A) (A) (A) (A)
                 (A) (A) (A) (A) (A) (A) (A) (A) (A) (A) (A) (A)
                 (A) (A) (A) (A) (A) (A) (A) (A) (A) (A) (A) (A)
                 (A) (A) (A) (A) (A) (A) (A) (A) (A) (A) (A) (A)
                 (A) (A) (A) (A) (A) (A) (A) (A) (A) (A) (A) (A)
                 (A) (A) (A) (A) (A) (A) (A) (A) (A) (A) (A) (A)
                 (A) (A) (A) (A) (A) (A) (A) (A) (A) (A) (A) (A)
                 (A) (A) (A) (A) (A) (A) (A) (A) (A) (A) (A) (A)
                 (A) (A) (A) (A) (A) (A) (A) (A) (A) (A) (A) (A)
                 (A) (A) (A) (A) (A) (A) (A) (A) (A) (A) (A) (A)
                 (A) (A) (A) (A) (A) (A) (A) (A) (A) (A) (A) (A)
                 (A) (A) (A) (A) (A) (A) (A) (A) (A) (A) (A) (A)
                 (A) (A) (A) (A) (A) (A) (A) (A) (A) (A) (A) (A)
                 (A) (A) (A) (A) (A) (A) (A) (A) (A) (A) (A) (A)
                 (A) (A) (A) (A) (A) (A) (A) (A) (A) (A) (A) (A)
                 (A) (A) (A) (A) (A) (A) (A) (A) (A) (A) (A) (A)
                 (A) (A) (A) (A) (A) (A) (A) (A) (A) (A) (A) (A)
                 (A) (A) (A) (A) (A) (A) (A) (A) (A) (A) (A) (A)
                 (A) (A) (A) (A) (A) (A) (A) (A) (A) (A) (A) (A)
                 (A) (A) (A) (A) (A) (A) (A) (A) (A) (A) (A) (A)
                 (A) (A) (A) (A) (A) (A) (A) (A) (A) (A) (A) (A)
                 (A) (A) (A) (A) (A) (A) (A) (A) (A) (A) (A)
 The electronic state is 1-A.
 Alpha  occ. eigenvalues -- -102.68435 -90.13900 -19.63192 -19.62118 -19.62014
 Alpha  occ. eigenvalues --  -14.80584 -14.78773 -14.71935 -10.67425 -10.63951
 Alpha  occ. eigenvalues --  -10.63244 -10.61949 -10.59441 -10.58504 -10.57813
 Alpha  occ. eigenvalues --  -10.57328 -10.57220 -10.56809 -10.55767 -10.55599
 Alpha  occ. eigenvalues --  -10.55437 -10.55365 -10.54113 -10.53877  -9.83080
 Alpha  occ. eigenvalues --   -8.44715  -7.55480  -7.54829  -7.54797  -6.36959
 Alpha  occ. eigenvalues --   -6.36869  -6.36796  -1.21017  -1.17818  -1.09873
 Alpha  occ. eigenvalues --   -1.09349  -1.04106  -1.00718  -0.96186  -0.96090
 Alpha  occ. eigenvalues --   -0.94965  -0.88342  -0.87532  -0.86666  -0.84267
 Alpha  occ. eigenvalues --   -0.82861  -0.78102  -0.74067  -0.73421  -0.72114
 Alpha  occ. eigenvalues --   -0.69594  -0.68510  -0.67095  -0.62997  -0.62656
 Alpha  occ. eigenvalues --   -0.60957  -0.58910  -0.58487  -0.56351  -0.55478
 Alpha  occ. eigenvalues --   -0.55000  -0.54261  -0.53593  -0.52138  -0.51656
 Alpha  occ. eigenvalues --   -0.51325  -0.50874  -0.49593  -0.49198  -0.48954
 Alpha  occ. eigenvalues --   -0.47639  -0.47394  -0.46099  -0.45482  -0.44949
 Alpha  occ. eigenvalues --   -0.44416  -0.43361  -0.42701  -0.42623  -0.42055
 Alpha  occ. eigenvalues --   -0.40840  -0.40486  -0.39637  -0.39007  -0.38007
 Alpha  occ. eigenvalues --   -0.37439  -0.35802  -0.35207  -0.33125  -0.32908
 Alpha  occ. eigenvalues --   -0.31631  -0.31108  -0.30666  -0.30053  -0.27176
 Alpha virt. eigenvalues --   -0.02688   0.00695   0.01224   0.01338   0.01693
 Alpha virt. eigenvalues --    0.02322   0.02812   0.03055   0.03282   0.04111
 Alpha virt. eigenvalues --    0.04351   0.04704   0.05182   0.05322   0.05635
 Alpha virt. eigenvalues --    0.05821   0.06251   0.06725   0.07299   0.07630
 Alpha virt. eigenvalues --    0.07957   0.08406   0.08505   0.08920   0.09423
 Alpha virt. eigenvalues --    0.09792   0.10455   0.10598   0.10859   0.11274
 Alpha virt. eigenvalues --    0.11408   0.11649   0.12437   0.13315   0.13406
 Alpha virt. eigenvalues --    0.13812   0.13909   0.14263   0.14458   0.15216
 Alpha virt. eigenvalues --    0.15272   0.15529   0.15941   0.16200   0.16495
 Alpha virt. eigenvalues --    0.16755   0.17028   0.17817   0.17984   0.18153
 Alpha virt. eigenvalues --    0.18645   0.18832   0.19120   0.19627   0.19740
 Alpha virt. eigenvalues --    0.20376   0.20454   0.20645   0.20805   0.21192
 Alpha virt. eigenvalues --    0.21609   0.21998   0.22143   0.22314   0.22722
 Alpha virt. eigenvalues --    0.22938   0.23100   0.23268   0.23530   0.23888
 Alpha virt. eigenvalues --    0.24087   0.24234   0.24791   0.24980   0.25062
 Alpha virt. eigenvalues --    0.25401   0.25866   0.26003   0.26255   0.26599
 Alpha virt. eigenvalues --    0.27062   0.27567   0.27719   0.28013   0.28399
 Alpha virt. eigenvalues --    0.28632   0.29132   0.29444   0.29773   0.29973
 Alpha virt. eigenvalues --    0.30456   0.30935   0.31210   0.31533   0.31624
 Alpha virt. eigenvalues --    0.32286   0.32636   0.32894   0.33074   0.33724
 Alpha virt. eigenvalues --    0.33782   0.34298   0.34754   0.34860   0.35277
 Alpha virt. eigenvalues --    0.35576   0.35721   0.36578   0.36694   0.37312
 Alpha virt. eigenvalues --    0.37976   0.38200   0.38603   0.39091   0.39222
 Alpha virt. eigenvalues --    0.40005   0.40456   0.40545   0.41522   0.41963
 Alpha virt. eigenvalues --    0.42822   0.43349   0.43907   0.44762   0.45416
 Alpha virt. eigenvalues --    0.45821   0.46622   0.46780   0.48161   0.48788
 Alpha virt. eigenvalues --    0.49188   0.49509   0.52349   0.52494   0.53588
 Alpha virt. eigenvalues --    0.55724   0.58482   0.60595   0.61988   0.64324
 Alpha virt. eigenvalues --    0.64729   0.66127   0.66270   0.66827   0.68610
 Alpha virt. eigenvalues --    0.70903   0.71870   0.72298   0.72681   0.73132
 Alpha virt. eigenvalues --    0.74003   0.74273   0.75210   0.75877   0.76372
 Alpha virt. eigenvalues --    0.77450   0.77654   0.78234   0.78495   0.79046
 Alpha virt. eigenvalues --    0.79878   0.80079   0.80206   0.81087   0.81533
 Alpha virt. eigenvalues --    0.82450   0.83245   0.83956   0.84464   0.85346
 Alpha virt. eigenvalues --    0.85850   0.87930   0.88127   0.89286   0.90369
 Alpha virt. eigenvalues --    0.90680   0.91550   0.92394   0.93494   0.94399
 Alpha virt. eigenvalues --    0.94941   0.95353   0.96381   0.97320   0.97730
 Alpha virt. eigenvalues --    0.98119   0.99162   1.00543   1.00819   1.01552
 Alpha virt. eigenvalues --    1.02217   1.02641   1.04091   1.04457   1.05927
 Alpha virt. eigenvalues --    1.06347   1.07216   1.07802   1.08334   1.09101
 Alpha virt. eigenvalues --    1.09661   1.10299   1.11038   1.11882   1.12742
 Alpha virt. eigenvalues --    1.13357   1.13948   1.15100   1.15570   1.16752
 Alpha virt. eigenvalues --    1.17294   1.18100   1.19034   1.19358   1.20982
 Alpha virt. eigenvalues --    1.21813   1.22366   1.22697   1.23125   1.23410
 Alpha virt. eigenvalues --    1.24043   1.24638   1.26220   1.27138   1.27693
 Alpha virt. eigenvalues --    1.28513   1.29709   1.30248   1.30718   1.32242
 Alpha virt. eigenvalues --    1.33111   1.34575   1.34985   1.36057   1.37348
 Alpha virt. eigenvalues --    1.37949   1.39521   1.40085   1.41215   1.41413
 Alpha virt. eigenvalues --    1.41831   1.42379   1.43399   1.44449   1.45273
 Alpha virt. eigenvalues --    1.46820   1.48119   1.48195   1.48714   1.49647
 Alpha virt. eigenvalues --    1.50299   1.50935   1.51315   1.52355   1.53498
 Alpha virt. eigenvalues --    1.54041   1.55013   1.55409   1.56331   1.58515
 Alpha virt. eigenvalues --    1.59162   1.60847   1.62536   1.63095   1.65710
 Alpha virt. eigenvalues --    1.70048   1.72509   1.73728   1.77056   1.78585
 Alpha virt. eigenvalues --    1.79874   1.80745   1.81721   1.82916   1.83977
 Alpha virt. eigenvalues --    1.84776   1.85035   1.86497   1.86549   1.88332
 Alpha virt. eigenvalues --    1.89386   1.89632   1.89959   1.90992   1.91849
 Alpha virt. eigenvalues --    1.92326   1.94096   1.95183   1.95776   1.96807
 Alpha virt. eigenvalues --    1.98545   1.99364   2.00670   2.01254   2.02846
 Alpha virt. eigenvalues --    2.03642   2.04111   2.04760   2.05483   2.05946
 Alpha virt. eigenvalues --    2.06230   2.07030   2.08800   2.10143   2.12847
 Alpha virt. eigenvalues --    2.13228   2.15860   2.16466   2.17384   2.18757
 Alpha virt. eigenvalues --    2.19622   2.21025   2.21856   2.23309   2.23454
 Alpha virt. eigenvalues --    2.25749   2.26734   2.27089   2.28570   2.29752
 Alpha virt. eigenvalues --    2.30352   2.31474   2.32377   2.33650   2.34445
 Alpha virt. eigenvalues --    2.35169   2.35837   2.36664   2.38505   2.41969
 Alpha virt. eigenvalues --    2.42406   2.44095   2.45393   2.47448   2.48473
 Alpha virt. eigenvalues --    2.48814   2.54036   2.55500   2.58971   2.60101
 Alpha virt. eigenvalues --    2.61244   2.63492   2.65170   2.66671   2.68111
 Alpha virt. eigenvalues --    2.69010   2.70176   2.70965   2.72748   2.74655
 Alpha virt. eigenvalues --    2.76358   2.78363   2.80904   2.83161   2.83541
 Alpha virt. eigenvalues --    2.85659   2.87123   2.88685   2.90186   2.92581
 Alpha virt. eigenvalues --    2.94475   2.95665   3.00279   3.03819   3.11861
 Alpha virt. eigenvalues --    3.13793   3.16953   3.21672   3.33490   3.40983
 Alpha virt. eigenvalues --    3.44225   4.02017   4.09344   4.25545   4.28471
 Alpha virt. eigenvalues --    4.30792   4.32545   4.34249   4.34592   4.35943
 Alpha virt. eigenvalues --    4.37658   4.38323   4.40696   4.43443   4.44911
 Alpha virt. eigenvalues --    4.45998   4.50441   4.51405   4.51968   4.55276
 Alpha virt. eigenvalues --    4.61320   4.67542   4.77862   4.82915   4.91929
          Condensed to atoms (all electrons):
               1          2          3          4          5          6
     1  C   35.217869  -6.821329   0.397102   1.082839   0.038953   0.802691
     2  C   -6.821329  38.235530  -1.052799 -13.289045   0.005675   4.465162
     3  Cl   0.397102  -1.052799  17.092890   0.284348  -0.003477  -0.165305
     4  C    1.082839 -13.289045   0.284348  21.555666   0.197425  -2.126689
     5  H    0.038953   0.005675  -0.003477   0.197425   0.412693  -0.037377
     6  C    0.802691   4.465162  -0.165305  -2.126689  -0.037377  19.559545
     7  C  -14.024349  -9.340544   0.181561  -1.476445   0.099308 -13.909711
     8  C    1.205614   3.109426  -0.067820  -5.598406   0.018323   0.283850
     9  C   -5.798229  -9.476196   0.155359   5.600955  -0.014328  -2.083523
    10  H   -0.077141  -0.015699  -0.000185  -0.001921   0.000010  -0.018363
    11  S   -1.300167  -1.323497   0.051776   1.187004  -0.002433  -0.121873
    12  O   -0.910171  -0.270098   0.006847   0.101963   0.000022  -0.016441
    13  O   -0.368252   0.022972  -0.064622   0.084849  -0.000075   0.025798
    14  N   -0.283575   0.013714  -0.030542   0.061394  -0.000145   0.038679
    15  H   -0.072389  -0.080522   0.014782   0.026220  -0.000001  -0.002236
    16  N   -0.146524   0.053587   0.002053   0.064565  -0.007743  -0.766853
    17  C   -0.576046   0.180174  -0.007250  -0.449131   0.008890   0.373203
    18  N   -0.018872   0.244478  -0.001945  -0.153157   0.000062   1.154915
    19  C   -0.054406   0.060557   0.002595  -0.108504   0.000802  -0.705131
    20  H    0.002304   0.020264   0.000122  -0.036712   0.003697  -0.034066
    21  H   -0.002952   0.017521  -0.000187  -0.092970   0.000010   0.088872
    22  H    0.000321  -0.000314   0.000001   0.004321   0.000000   0.004318
    23  H   -0.000390   0.000841  -0.000006  -0.010848   0.000000  -0.004537
    24  O    0.078817  -0.023393   0.000116   0.027981   0.000008   0.077440
    25  C    0.362460  -0.020491   0.001774  -0.120991  -0.001933  -1.691881
    26  C    0.042276  -0.043074   0.000043   0.228245   0.000066   0.979583
    27  C   -0.059349  -0.034688   0.000008   0.062269  -0.000042   0.120232
    28  C    0.024420   0.002195   0.000043   0.018129   0.000003  -0.153378
    29  H    0.000001   0.000001  -0.000000  -0.000005   0.000000  -0.000176
    30  C   -0.000546  -0.001199  -0.000010   0.006789   0.000000   0.084014
    31  H    0.000001  -0.000000   0.000000  -0.000003   0.000000  -0.000043
    32  C   -0.020696   0.006197   0.000040  -0.035212   0.000000  -0.241158
    33  H   -0.000004  -0.000001  -0.000000   0.000008   0.000000   0.000082
    34  C   -0.059185   0.006044   0.000145   0.027241   0.000264   0.137190
    35  H   -0.000978   0.000443  -0.000001   0.000435   0.000000   0.005654
    36  H    0.000005  -0.001572   0.000016   0.005115   0.000001   0.007638
    37  H   -0.000012   0.000009   0.000000   0.000052   0.000000   0.000488
    38  H    0.001173   0.000131  -0.000001  -0.004210  -0.000000  -0.010895
    39  H   -0.002553  -0.000462   0.000002   0.004126  -0.000000   0.017887
               7          8          9         10         11         12
     1  C  -14.024349   1.205614  -5.798229  -0.077141  -1.300167  -0.910171
     2  C   -9.340544   3.109426  -9.476196  -0.015699  -1.323497  -0.270098
     3  Cl   0.181561  -0.067820   0.155359  -0.000185   0.051776   0.006847
     4  C   -1.476445  -5.598406   5.600955  -0.001921   1.187004   0.101963
     5  H    0.099308   0.018323  -0.014328   0.000010  -0.002433   0.000022
     6  C  -13.909711   0.283850  -2.083523  -0.018363  -0.121873  -0.016441
     7  C   51.757617  -8.082245   0.876072   0.027495  -1.169604  -0.024746
     8  C   -8.082245  18.060963  -2.383974  -0.020575  -0.366025   0.039042
     9  C    0.876072  -2.383974  17.639401   0.407340   0.971229   0.640276
    10  H    0.027495  -0.020575   0.407340   0.412283  -0.015133   0.001390
    11  S   -1.169604  -0.366025   0.971229  -0.015133  15.687600   0.318663
    12  O   -0.024746   0.039042   0.640276   0.001390   0.318663   9.101379
    13  O   -0.236340  -0.000613   0.177686  -0.000318   0.238627  -0.083626
    14  N   -0.073279   0.011574  -0.023389  -0.000870   0.236395  -0.137722
    15  H   -0.006262  -0.000527   0.030833  -0.000014   0.113024   0.019399
    16  N    1.061673  -0.353918  -0.061769  -0.000798   0.000718   0.000069
    17  C   -0.882858   1.424989  -0.203625   0.001217  -0.044067  -0.001169
    18  N   -2.227770   0.802644   0.207927   0.000991  -0.011450  -0.000757
    19  C    0.546615  -0.128755  -0.044071  -0.000139   0.001352  -0.000059
    20  H    0.038306   0.007521   0.004711   0.000002   0.000062   0.000000
    21  H   -0.190814   0.247511   0.032743  -0.000001  -0.000650  -0.000001
    22  H    0.016284  -0.036744   0.000316   0.000000   0.000003   0.000000
    23  H   -0.014901   0.045214   0.000264   0.000000  -0.000010  -0.000000
    24  O   -0.045996   0.288179  -0.057495   0.009063   0.003750  -0.000192
    25  C    2.263126  -2.490988  -0.026967  -0.001612   0.017574   0.001407
    26  C   -0.516329  -0.675220  -0.060484  -0.000246   0.002631   0.000075
    27  C    0.443573  -0.761008  -0.100939   0.000708   0.001541   0.000005
    28  C   -0.116168   0.057307   0.104115  -0.000005   0.001094   0.000053
    29  H   -0.000013   0.004667   0.000082  -0.000000  -0.000000  -0.000000
    30  C   -0.045287  -0.020070   0.004079   0.000021  -0.000049  -0.000003
    31  H   -0.000129  -0.000416   0.000011   0.000000   0.000000   0.000000
    32  C    0.180399   0.011892  -0.052858  -0.000045  -0.000279  -0.000012
    33  H    0.000848  -0.002419  -0.000062  -0.000000  -0.000000  -0.000000
    34  C   -0.616966   0.673501   0.027969  -0.000051  -0.001689  -0.000083
    35  H   -0.008035   0.042624  -0.004852   0.000000  -0.000009  -0.000000
    36  H    0.003230  -0.017603  -0.000115  -0.000000   0.000006   0.000000
    37  H    0.003191   0.003787  -0.000362   0.000000   0.000002  -0.000000
    38  H   -0.023215   0.045485   0.006993  -0.000000  -0.000011   0.000000
    39  H    0.014064  -0.041313  -0.008020   0.000000   0.000077   0.000001
              13         14         15         16         17         18
     1  C   -0.368252  -0.283575  -0.072389  -0.146524  -0.576046  -0.018872
     2  C    0.022972   0.013714  -0.080522   0.053587   0.180174   0.244478
     3  Cl  -0.064622  -0.030542   0.014782   0.002053  -0.007250  -0.001945
     4  C    0.084849   0.061394   0.026220   0.064565  -0.449131  -0.153157
     5  H   -0.000075  -0.000145  -0.000001  -0.007743   0.008890   0.000062
     6  C    0.025798   0.038679  -0.002236  -0.766853   0.373203   1.154915
     7  C   -0.236340  -0.073279  -0.006262   1.061673  -0.882858  -2.227770
     8  C   -0.000613   0.011574  -0.000527  -0.353918   1.424989   0.802644
     9  C    0.177686  -0.023389   0.030833  -0.061769  -0.203625   0.207927
    10  H   -0.000318  -0.000870  -0.000014  -0.000798   0.001217   0.000991
    11  S    0.238627   0.236395   0.113024   0.000718  -0.044067  -0.011450
    12  O   -0.083626  -0.137722   0.019399   0.000069  -0.001169  -0.000757
    13  O    8.989494  -0.125627  -0.010788  -0.000170  -0.001878  -0.000304
    14  N   -0.125627   8.007761   0.205963  -0.000521  -0.001401  -0.000553
    15  H   -0.010788   0.205963   0.361543  -0.000006  -0.000090  -0.000001
    16  N   -0.000170  -0.000521  -0.000006   7.525517  -0.414691  -0.187695
    17  C   -0.001878  -0.001401  -0.000090  -0.414691  10.008737   0.220054
    18  N   -0.000304  -0.000553  -0.000001  -0.187695   0.220054   8.666691
    19  C   -0.000065  -0.000081  -0.000003   0.222950  -2.006309  -0.110144
    20  H   -0.000000   0.000000   0.000000   0.279308  -0.104655   0.020315
    21  H   -0.000000  -0.000000   0.000000  -0.105979   0.529952  -0.006246
    22  H    0.000000   0.000000  -0.000000   0.008641  -0.057334  -0.021169
    23  H   -0.000000  -0.000000   0.000000   0.004094  -0.060602   0.029336
    24  O    0.000025  -0.000132   0.000001  -0.016896  -0.003457  -0.235496
    25  C    0.000824   0.000645   0.000003   0.369122  -1.493779  -3.092039
    26  C   -0.000016   0.000038  -0.000001  -0.169392   0.470837   0.907496
    27  C    0.000020  -0.000133   0.000002  -0.008296  -0.184142  -0.033620
    28  C    0.000000   0.000007   0.000000   0.032891  -0.358923  -0.179401
    29  H   -0.000000  -0.000000  -0.000000   0.000003   0.001750   0.001783
    30  C   -0.000000  -0.000002   0.000000  -0.019232   0.068099   0.178094
    31  H    0.000000  -0.000000   0.000000   0.000001   0.000432  -0.000580
    32  C   -0.000003   0.000004  -0.000000   0.077164  -0.399077  -0.161625
    33  H    0.000000  -0.000000  -0.000000  -0.000013  -0.001081  -0.000526
    34  C   -0.000104  -0.000012  -0.000001  -0.013091   0.093079   0.955413
    35  H    0.000000  -0.000000   0.000000  -0.000490   0.003522   0.046491
    36  H    0.000000   0.000000   0.000000  -0.007225  -0.084162   0.003399
    37  H    0.000000   0.000000  -0.000000   0.000018   0.001957   0.003044
    38  H   -0.000000  -0.000000  -0.000000  -0.000191  -0.008204  -0.021979
    39  H    0.000000  -0.000000   0.000000  -0.000532   0.002313   0.041610
              19         20         21         22         23         24
     1  C   -0.054406   0.002304  -0.002952   0.000321  -0.000390   0.078817
     2  C    0.060557   0.020264   0.017521  -0.000314   0.000841  -0.023393
     3  Cl   0.002595   0.000122  -0.000187   0.000001  -0.000006   0.000116
     4  C   -0.108504  -0.036712  -0.092970   0.004321  -0.010848   0.027981
     5  H    0.000802   0.003697   0.000010   0.000000   0.000000   0.000008
     6  C   -0.705131  -0.034066   0.088872   0.004318  -0.004537   0.077440
     7  C    0.546615   0.038306  -0.190814   0.016284  -0.014901  -0.045996
     8  C   -0.128755   0.007521   0.247511  -0.036744   0.045214   0.288179
     9  C   -0.044071   0.004711   0.032743   0.000316   0.000264  -0.057495
    10  H   -0.000139   0.000002  -0.000001   0.000000   0.000000   0.009063
    11  S    0.001352   0.000062  -0.000650   0.000003  -0.000010   0.003750
    12  O   -0.000059   0.000000  -0.000001   0.000000  -0.000000  -0.000192
    13  O   -0.000065  -0.000000  -0.000000   0.000000  -0.000000   0.000025
    14  N   -0.000081   0.000000  -0.000000   0.000000  -0.000000  -0.000132
    15  H   -0.000003   0.000000   0.000000  -0.000000   0.000000   0.000001
    16  N    0.222950   0.279308  -0.105979   0.008641   0.004094  -0.016896
    17  C   -2.006309  -0.104655   0.529952  -0.057334  -0.060602  -0.003457
    18  N   -0.110144   0.020315  -0.006246  -0.021169   0.029336  -0.235496
    19  C    7.535850   0.018454  -0.149074   0.375445   0.402541  -0.015369
    20  H    0.018454   0.274085   0.000376  -0.000100  -0.000060   0.000119
    21  H   -0.149074   0.000376   0.488175  -0.002453   0.003531   0.001543
    22  H    0.375445  -0.000100  -0.002453   0.436881  -0.024230  -0.000094
    23  H    0.402541  -0.000060   0.003531  -0.024230   0.437441   0.000174
    24  O   -0.015369   0.000119   0.001543  -0.000094   0.000174   8.390570
    25  C    0.407132   0.013048  -0.075614   0.045808  -0.022942   0.408782
    26  C   -0.245206  -0.002082  -0.025869  -0.017662  -0.015347  -0.152672
    27  C    0.001737   0.000384  -0.054047  -0.004962  -0.003238  -0.077028
    28  C    0.112228   0.001115   0.007116   0.021168  -0.007520   0.063960
    29  H   -0.000967   0.000000   0.000001   0.000002   0.000000  -0.000072
    30  C   -0.044694  -0.000096  -0.000591  -0.003519   0.001657  -0.007151
    31  H   -0.000277  -0.000000   0.000000  -0.000000  -0.000000   0.000001
    32  C    0.198973   0.000479   0.001212   0.010338   0.001692  -0.009076
    33  H    0.000379   0.000000  -0.000000  -0.000002  -0.000003  -0.000067
    34  C   -0.047006   0.000953   0.010951  -0.007294  -0.007540  -0.127508
    35  H    0.004824   0.000004  -0.000005   0.000037  -0.000216  -0.001265
    36  H    0.410078   0.002752  -0.002446  -0.019622  -0.022912  -0.000006
    37  H   -0.000220  -0.000000   0.000047   0.000014   0.000000   0.000393
    38  H    0.004336  -0.000001  -0.000985  -0.000163  -0.000007  -0.000491
    39  H   -0.003978  -0.000000  -0.000033   0.000012   0.000001   0.000123
              25         26         27         28         29         30
     1  C    0.362460   0.042276  -0.059349   0.024420   0.000001  -0.000546
     2  C   -0.020491  -0.043074  -0.034688   0.002195   0.000001  -0.001199
     3  Cl   0.001774   0.000043   0.000008   0.000043  -0.000000  -0.000010
     4  C   -0.120991   0.228245   0.062269   0.018129  -0.000005   0.006789
     5  H   -0.001933   0.000066  -0.000042   0.000003   0.000000   0.000000
     6  C   -1.691881   0.979583   0.120232  -0.153378  -0.000176   0.084014
     7  C    2.263126  -0.516329   0.443573  -0.116168  -0.000013  -0.045287
     8  C   -2.490988  -0.675220  -0.761008   0.057307   0.004667  -0.020070
     9  C   -0.026967  -0.060484  -0.100939   0.104115   0.000082   0.004079
    10  H   -0.001612  -0.000246   0.000708  -0.000005  -0.000000   0.000021
    11  S    0.017574   0.002631   0.001541   0.001094  -0.000000  -0.000049
    12  O    0.001407   0.000075   0.000005   0.000053  -0.000000  -0.000003
    13  O    0.000824  -0.000016   0.000020   0.000000  -0.000000  -0.000000
    14  N    0.000645   0.000038  -0.000133   0.000007  -0.000000  -0.000002
    15  H    0.000003  -0.000001   0.000002   0.000000  -0.000000   0.000000
    16  N    0.369122  -0.169392  -0.008296   0.032891   0.000003  -0.019232
    17  C   -1.493779   0.470837  -0.184142  -0.358923   0.001750   0.068099
    18  N   -3.092039   0.907496  -0.033620  -0.179401   0.001783   0.178094
    19  C    0.407132  -0.245206   0.001737   0.112228  -0.000967  -0.044694
    20  H    0.013048  -0.002082   0.000384   0.001115   0.000000  -0.000096
    21  H   -0.075614  -0.025869  -0.054047   0.007116   0.000001  -0.000591
    22  H    0.045808  -0.017662  -0.004962   0.021168   0.000002  -0.003519
    23  H   -0.022942  -0.015347  -0.003238  -0.007520   0.000000   0.001657
    24  O    0.408782  -0.152672  -0.077028   0.063960  -0.000072  -0.007151
    25  C   26.136665  -8.342277  -1.544543   3.316925   0.106037  -1.557286
    26  C   -8.342277  23.302047   1.982943 -12.122731  -0.091197   1.344109
    27  C   -1.544543   1.982943   8.146130  -2.030390  -0.051373   0.212099
    28  C    3.316925 -12.122731  -2.030390  16.263269   0.362763  -0.667969
    29  H    0.106037  -0.091197  -0.051373   0.362763   0.452286  -0.026149
    30  C   -1.557286   1.344109   0.212099  -0.667969  -0.026149   5.781820
    31  H    0.019876   0.005955  -0.005966  -0.015553  -0.002841   0.340041
    32  C    1.385958  -2.440091  -0.255412   1.358401   0.017018  -0.097461
    33  H    0.009736   0.026155   0.003788  -0.000091  -0.000123  -0.043801
    34  C   -6.369605   0.654175  -0.305521   0.829476  -0.024093   0.385219
    35  H   -0.246633   0.087192   0.003565  -0.030154   0.000014   0.015912
    36  H    0.012877   0.005267   0.005891  -0.000789  -0.000000   0.000409
    37  H   -0.004471  -0.094901   0.458677  -0.021116   0.002649  -0.004580
    38  H    0.115369  -0.062479   0.271388   0.033833   0.000177  -0.005889
    39  H   -0.129357   0.013136   0.472754  -0.051013   0.000094   0.008021
              31         32         33         34         35         36
     1  C    0.000001  -0.020696  -0.000004  -0.059185  -0.000978   0.000005
     2  C   -0.000000   0.006197  -0.000001   0.006044   0.000443  -0.001572
     3  Cl   0.000000   0.000040  -0.000000   0.000145  -0.000001   0.000016
     4  C   -0.000003  -0.035212   0.000008   0.027241   0.000435   0.005115
     5  H    0.000000   0.000000   0.000000   0.000264   0.000000   0.000001
     6  C   -0.000043  -0.241158   0.000082   0.137190   0.005654   0.007638
     7  C   -0.000129   0.180399   0.000848  -0.616966  -0.008035   0.003230
     8  C   -0.000416   0.011892  -0.002419   0.673501   0.042624  -0.017603
     9  C    0.000011  -0.052858  -0.000062   0.027969  -0.004852  -0.000115
    10  H    0.000000  -0.000045  -0.000000  -0.000051   0.000000  -0.000000
    11  S    0.000000  -0.000279  -0.000000  -0.001689  -0.000009   0.000006
    12  O    0.000000  -0.000012  -0.000000  -0.000083  -0.000000   0.000000
    13  O    0.000000  -0.000003   0.000000  -0.000104   0.000000   0.000000
    14  N   -0.000000   0.000004  -0.000000  -0.000012  -0.000000   0.000000
    15  H    0.000000  -0.000000  -0.000000  -0.000001   0.000000   0.000000
    16  N    0.000001   0.077164  -0.000013  -0.013091  -0.000490  -0.007225
    17  C    0.000432  -0.399077  -0.001081   0.093079   0.003522  -0.084162
    18  N   -0.000580  -0.161625  -0.000526   0.955413   0.046491   0.003399
    19  C   -0.000277   0.198973   0.000379  -0.047006   0.004824   0.410078
    20  H   -0.000000   0.000479   0.000000   0.000953   0.000004   0.002752
    21  H    0.000000   0.001212  -0.000000   0.010951  -0.000005  -0.002446
    22  H   -0.000000   0.010338  -0.000002  -0.007294   0.000037  -0.019622
    23  H   -0.000000   0.001692  -0.000003  -0.007540  -0.000216  -0.022912
    24  O    0.000001  -0.009076  -0.000067  -0.127508  -0.001265  -0.000006
    25  C    0.019876   1.385958   0.009736  -6.369605  -0.246633   0.012877
    26  C    0.005955  -2.440091   0.026155   0.654175   0.087192   0.005267
    27  C   -0.005966  -0.255412   0.003788  -0.305521   0.003565   0.005891
    28  C   -0.015553   1.358401  -0.000091   0.829476  -0.030154  -0.000789
    29  H   -0.002841   0.017018  -0.000123  -0.024093   0.000014  -0.000000
    30  C    0.340041  -0.097461  -0.043801   0.385219   0.015912   0.000409
    31  H    0.445748  -0.018665  -0.002737  -0.012233  -0.000117   0.000000
    32  C   -0.018665   7.294466   0.323845  -0.760977  -0.069214  -0.000298
    33  H   -0.002737   0.323845   0.442774  -0.005195  -0.002654  -0.000000
    34  C   -0.012233  -0.760977  -0.005195   9.796087   0.453353  -0.002496
    35  H   -0.000117  -0.069214  -0.002654   0.453353   0.437771   0.000003
    36  H    0.000000  -0.000298  -0.000000  -0.002496   0.000003   0.448752
    37  H   -0.000003   0.002594  -0.000000  -0.007751   0.000001  -0.000000
    38  H    0.000001   0.001240   0.000000  -0.007575   0.000001  -0.000018
    39  H    0.000002  -0.001810  -0.000000  -0.000536  -0.000003   0.000001
              37         38         39
     1  C   -0.000012   0.001173  -0.002553
     2  C    0.000009   0.000131  -0.000462
     3  Cl   0.000000  -0.000001   0.000002
     4  C    0.000052  -0.004210   0.004126
     5  H    0.000000  -0.000000  -0.000000
     6  C    0.000488  -0.010895   0.017887
     7  C    0.003191  -0.023215   0.014064
     8  C    0.003787   0.045485  -0.041313
     9  C   -0.000362   0.006993  -0.008020
    10  H    0.000000  -0.000000   0.000000
    11  S    0.000002  -0.000011   0.000077
    12  O   -0.000000   0.000000   0.000001
    13  O    0.000000  -0.000000   0.000000
    14  N    0.000000  -0.000000  -0.000000
    15  H   -0.000000  -0.000000   0.000000
    16  N    0.000018  -0.000191  -0.000532
    17  C    0.001957  -0.008204   0.002313
    18  N    0.003044  -0.021979   0.041610
    19  C   -0.000220   0.004336  -0.003978
    20  H   -0.000000  -0.000001  -0.000000
    21  H    0.000047  -0.000985  -0.000033
    22  H    0.000014  -0.000163   0.000012
    23  H    0.000000  -0.000007   0.000001
    24  O    0.000393  -0.000491   0.000123
    25  C   -0.004471   0.115369  -0.129357
    26  C   -0.094901  -0.062479   0.013136
    27  C    0.458677   0.271388   0.472754
    28  C   -0.021116   0.033833  -0.051013
    29  H    0.002649   0.000177   0.000094
    30  C   -0.004580  -0.005889   0.008021
    31  H   -0.000003   0.000001   0.000002
    32  C    0.002594   0.001240  -0.001810
    33  H   -0.000000   0.000000  -0.000000
    34  C   -0.007751  -0.007575  -0.000536
    35  H    0.000001   0.000001  -0.000003
    36  H   -0.000000  -0.000018   0.000001
    37  H    0.455497  -0.021543  -0.021526
    38  H   -0.021543   0.449171  -0.028598
    39  H   -0.021526  -0.028598   0.455908
 Mulliken charges:
               1
     1  C   -2.658732
     2  C    1.350003
     3  Cl   0.202526
     4  C   -1.127688
     5  H    0.281340
     6  C   -0.137603
     7  C    1.518642
     8  C    0.664526
     9  C   -0.487106
    10  H    0.292596
    11  S    1.523818
    12  O   -0.785511
    13  O   -0.647494
    14  N   -0.898192
    15  H    0.401068
    16  N   -0.420353
    17  C   -0.045275
    18  N   -0.019414
    19  C   -0.642390
    20  H    0.489390
    21  H    0.281356
    22  H    0.271752
    23  H    0.268521
    24  O   -0.577190
    25  C   -1.761739
    26  C    1.025007
    27  C   -0.673019
    28  C   -0.855310
    29  H    0.247681
    30  C    0.115203
    31  H    0.247495
    32  C   -0.307946
    33  H    0.251164
    34  C    0.325452
    35  H    0.262779
    36  H    0.253824
    37  H    0.244065
    38  H    0.267154
    39  H    0.259600
 Sum of Mulliken charges =  -1.00000
 Mulliken charges with hydrogens summed into heavy atoms:
               1
     1  C   -2.658732
     2  C    1.350003
     3  Cl   0.202526
     4  C   -0.846348
     6  C   -0.137603
     7  C    1.518642
     8  C    0.664526
     9  C   -0.194510
    11  S    1.523818
    12  O   -0.785511
    13  O   -0.647494
    14  N   -0.497124
    16  N    0.069036
    17  C    0.236081
    18  N   -0.019414
    19  C    0.151707
    24  O   -0.577190
    25  C   -1.761739
    26  C    1.025007
    27  C    0.097801
    28  C   -0.607629
    30  C    0.362697
    32  C   -0.056782
    34  C    0.588231
 Electronic spatial extent (au):  <R**2>=          11156.6367
 Charge=             -1.0000 electrons
 Dipole moment (field-independent basis, Debye):
    X=            -25.4831    Y=             18.3103    Z=              3.6069  Tot=             31.5858
 Quadrupole moment (field-independent basis, Debye-Ang):
   XX=           -242.9450   YY=           -173.9870   ZZ=           -163.3673
   XY=             37.6227   XZ=             -3.6385   YZ=              1.4057
 Traceless Quadrupole moment (field-independent basis, Debye-Ang):
   XX=            -49.5119   YY=             19.4461   ZZ=             30.0658
   XY=             37.6227   XZ=             -3.6385   YZ=              1.4057
 Octapole moment (field-independent basis, Debye-Ang**2):
  XXX=           -577.1585  YYY=            147.4598  ZZZ=             -8.4032  XYY=            -86.2405
  XXY=            176.9762  XXZ=             16.1443  XZZ=            -82.4218  YZZ=             15.5497
  YYZ=             15.1590  XYZ=             19.9529
 Hexadecapole moment (field-independent basis, Debye-Ang**3):
 XXXX=         -13528.4675 YYYY=          -2194.2186 ZZZZ=           -850.5607 XXXY=           1138.5282
[...]
 3614,0.00000377,0.00002752,-0.00000197,-0.00000259,-0.00000019,-0.0000
 0300,-0.00000476,0.00000386,-0.00000003,0.00000109,0.00000029,0.000000
 31,0.00000249,-0.00000065,0.00000283,0.00000192,-0.00000158,-0.0000002
 6,-0.00000006,0.00000002,-0.00002480,-0.00002836,-0.00001631,-0.000067
 43,0.00005615,-0.00002845,0.00167820,0.00153771,0.00062502,-0.00006578
 ,-0.00014845,0.00000563,0.00000125,0.00001471,0.00000338,0.00009224,-0
 .00000034,0.00001992,-0.00000062,0.00001819,0.00002125,0.00003713,0.00
 005985,0.00001109,-0.00007986,0.00003400,-0.00005792,0.00713325,-0.016
 22974,-0.01052760,-0.00421714,-0.00097949,0.00008256,0.00065244,-0.000
 52963,-0.00053576,-0.00047222,0.00028457,0.00061151,0.00017209,-0.0001
 3455,0.00012085,-0.00036179,0.00206775,-0.00133442,-0.00010389,-0.0000
 5483,0.00004367,-0.00081987,0.00133576,-0.00039912,0.00079030,0.000204
 64,0.00090409,0.04863004,-0.29356682,-0.10580871,-0.05234472,0.3065702
 1,0.00000053,0.00001697,0.00000511,0.00000072,-0.00000439,-0.00000348,
 -0.00000388,-0.00000013,0.00000180,-0.00000065,0.00000104,0.00001125,-
 0.00000015,-0.00000025,0.00000030,-0.00000290,0.00001397,-0.00003527,-
 0.00002743,0.00000100,-0.00011345,0.00043907,-0.00008515,-0.00004038,0
 .00001296,-0.00003531,-0.00001514,0.00000040,-0.00000059,-0.00000298,0
 .00000377,0.00000393,-0.00000828,-0.00000024,-0.00000071,0.00000125,0.
 00000020,-0.00000004,0.00000270,-0.00000256,-0.00000032,0.00000041,0.,
 -0.00000029,0.00000019,-0.00012620,0.00001154,-0.00004152,-0.00017005,
 -0.00019141,0.00045005,-0.00237356,0.00187090,-0.00263198,0.00015485,-
 0.00006065,0.00009829,-0.00002907,-0.00000778,0.00003401,-0.00007757,0
 .00001411,-0.00004951,-0.00002733,-0.00005215,0.00000204,-0.00003119,0
 .00005686,-0.00002574,-0.00018185,-0.00005054,0.00016377,0.00132464,0.
 00426604,0.00539473,0.00293468,-0.00025600,0.00448149,-0.00011415,0.00
 023051,0.00020284,-0.00006875,0.00052483,-0.00062045,-0.00040393,0.000
 09967,-0.00057545,0.00546585,-0.00105843,0.00377533,0.00005115,-0.0007
 3689,-0.00024454,0.00201789,-0.01463747,-0.00153775,-0.00225077,0.0012
 8115,-0.00259971,0.03019052,-0.10685865,-0.08854098,-0.03670160,0.1156
 1001,0.08255829,0.00001679,-0.00000999,-0.00000327,0.00000210,0.000007
 54,-0.00001658,0.00000951,-0.00000290,-0.00000592,-0.00004005,0.000016
 23,-0.00005039,0.00000309,0.00000369,0.00000327,0.00048347,-0.00005241
 ,-0.00002523,-0.00000833,-0.00004157,0.00006149,0.00033223,0.00006798,
 0.00061032,0.00000649,-0.00001839,0.00000045,0.00000584,-0.00000569,0.
 00000350,-0.00000177,-0.00000413,0.00000949,-0.00000033,0.00000261,-0.
 00000217,0.00000037,-0.00000036,-0.00000348,0.00000250,0.00000307,-0.0
 0000273,-0.00000020,-0.00000013,0.00000047,0.00089362,-0.00015265,0.00
 052850,0.00300711,-0.00109165,0.00293822,0.00040629,0.00015827,0.00179
 888,-0.27761943,0.03933244,-0.09984411,0.00022328,-0.00018193,-0.00023
 227,0.00043587,0.00014051,-0.00055977,-0.01252664,0.00120707,-0.005848
 24,-0.01224202,0.00355133,-0.00487993,-0.00005668,-0.00007524,-0.00009
 751,-0.00043864,0.00013295,-0.00042338,0.00005362,-0.00028348,-0.00016
 975,-0.00001868,-0.00003442,0.00001991,-0.00003593,-0.00002384,0.00000
 857,-0.00001134,0.00001194,0.00000605,-0.00003174,0.00005202,0.0000769
 9,-0.00000721,0.00000232,0.00000722,0.00005854,-0.00001259,-0.00006792
 ,-0.00001615,-0.00000602,0.00000801,0.00001430,0.00027411,-0.00016378,
 0.00001813,-0.00000120,0.00004731,0.29705674,-0.00000485,-0.00000697,0
 .00002655,0.00000249,0.00000773,-0.00002643,-0.00002686,0.00000863,0.0
 0001731,-0.00004235,-0.00000881,0.00006509,-0.00000526,0.00000081,0.00
 000414,-0.00012070,-0.00006212,-0.00014147,-0.00001515,-0.00005272,-0.
 00001215,0.00060361,0.00046252,-0.00089721,-0.00002420,0.00002744,-0.0
 0000316,-0.00000084,0.00000184,-0.00000357,0.00000569,0.00002280,-0.00
 005310,0.00000617,-0.00001021,0.00001414,-0.00000196,0.00000556,0.0000
 2043,-0.00001272,-0.00001348,0.00001287,0.00000211,0.00000133,-0.00000
 179,0.00005694,0.00031448,-0.00078333,0.01189481,-0.00336337,0.0027286
 1,-0.00028782,-0.00015732,0.00308533,0.03768925,-0.05490292,0.01774826
 ,-0.00008999,0.00018650,-0.00020895,0.00005930,0.00015633,-0.00064494,
 0.01816602,-0.00314430,0.00962518,-0.02486626,0.00691583,-0.01136761,0
 .00032544,-0.00034923,0.00061978,-0.00031612,0.00008460,0.00040404,0.0
 0016361,-0.00004265,-0.00000329,0.00005735,0.00007685,-0.00001605,-0.0
 0020842,-0.00005792,0.00012518,0.00000685,-0.00000630,-0.00001763,0.00
 009834,0.00019720,-0.00000248,0.00000790,0.00000356,0.00000238,0.00013
 918,-0.00010341,-0.00018466,0.00001530,-0.00000046,-0.00000022,-0.0002
 8559,-0.00007210,0.00002898,0.00001754,0.00003296,0.00003940,-0.042982
 31,0.05379721,0.00011570,-0.00005014,-0.00001138,-0.00006713,0.0000551
 7,-0.00008629,0.00002876,-0.00001059,-0.00000672,-0.00001354,-0.000037
 31,0.00012141,0.00000540,-0.00000333,-0.00001122,-0.00001430,0.0001698
 3,-0.00004736,0.00012758,-0.00003355,-0.00006580,-0.00143111,-0.000004
 01,0.00215051,0.00003227,-0.00005161,0.00012144,-0.00001029,-0.0000053
 5,0.00001513,0.00000063,-0.00001611,0.00003488,-0.00000451,0.00000633,
 -0.00001144,0.00000063,-0.00000639,-0.00001732,0.00000938,0.00001188,-
 0.00001013,-0.00000152,-0.00000132,0.00000214,-0.00155091,0.00005917,0
 .00097774,-0.02931694,0.00314828,-0.01209965,0.00152952,0.00265434,-0.
 00750777,-0.09573138,0.01707625,-0.08964397,0.00079683,-0.00035534,-0.
 00120766,0.00038701,-0.00022267,0.00107479,0.01770077,-0.00169336,0.00
 892660,0.00058347,-0.00055902,-0.00082365,-0.00075239,0.00044578,-0.00
 140810,0.00142846,-0.00036841,-0.00044371,-0.00002630,0.00007373,0.000
 26373,0.00004143,0.00002812,-0.00001518,-0.00002349,0.00004221,0.00003
 458,-0.00001338,0.00000496,0.00000725,-0.00002121,-0.00000045,-0.00003
 978,-0.00000410,0.00000169,-0.00000143,-0.00004040,-0.00001702,0.00006
 713,-0.00001158,-0.00000044,0.00000528,0.00000895,-0.00013742,0.000200
 32,-0.00000957,0.00000646,-0.00004108,0.10627054,-0.02020246,0.0995048
 3,0.00001163,-0.00001017,0.00001530,-0.00000221,0.00000878,-0.00002596
 ,-0.00000611,0.00000083,0.00000422,-0.00001910,0.00000116,0.00003997,-
 0.00000014,0.00000016,0.00000073,0.00000908,0.00004038,-0.00013923,0.0
 0003339,-0.00000410,-0.00003598,-0.00001441,-0.00003241,-0.00008390,0.
 00000017,-0.00000344,0.00000443,-0.00000090,-0.00000066,0.00000057,0.0
 0000201,0.00000781,-0.00002426,0.00000335,-0.00000471,0.00000547,-0.00
 000147,0.00000255,0.00000937,-0.00000411,-0.00000420,0.00000598,0.0000
 0054,0.00000018,-0.00000044,-0.00003001,0.00017240,0.00017279,-0.00013
 412,-0.00031001,-0.00003608,-0.00016582,0.00018451,0.00017807,0.000019
 41,-0.00001649,0.00005206,0.00001128,-0.00000317,0.00000858,0.00024540
 ,0.00017936,0.00002322,0.00000916,-0.00003276,0.00000277,0.00000779,0.
 00001423,-0.00001747,0.00001517,-0.00002490,-0.00002786,-0.00303483,-0
 .00259064,0.00145378,0.00845766,-0.02184495,-0.00642152,-0.09514653,0.
 10371133,0.03161301,0.00061322,-0.00129164,-0.00064621,-0.00016890,0.0
 0035209,0.00016524,0.00029951,-0.00006325,-0.00010414,0.00001419,0.000
 06292,-0.00002468,0.00006001,-0.00007736,0.00001578,-0.00003622,0.0000
 1737,-0.00000174,0.00033075,-0.00086036,-0.00065168,-0.00024643,-0.000
 21818,-0.00002054,0.00000309,0.00000540,-0.00000504,0.10276164,0.00003
 704,-0.00001138,-0.00002682,-0.00002058,0.00001554,-0.00001138,0.00002
 063,-0.00000516,-0.00001070,0.00000357,0.00000227,-0.00000755,0.000002
 73,-0.00000128,-0.00000166,-0.00000653,-0.00000573,0.00002021,0.000027
 98,0.00002377,-0.00010983,0.00017381,-0.00010738,0.00068695,0.00000972
 ,-0.00000951,0.00004770,-0.00000164,-0.00000325,0.00000110,-0.00000019
 ,-0.00002219,0.00004662,-0.00000715,0.00000998,-0.00001231,0.00000093,
 -0.00000374,-0.00001875,0.00000947,0.00001142,-0.00001157,-0.00000138,
 -0.00000078,0.00000166,0.00007828,-0.00005749,-0.00001725,-0.00019793,
 0.00026105,-0.00004521,-0.00012003,0.00034311,-0.00002751,0.00002410,0
 .00002294,0.00001210,0.00000873,0.00000541,-0.00002231,0.00004348,-0.0
 0009978,0.00001778,-0.00002213,0.00000274,-0.00004096,-0.00000368,0.00
 000291,0.00000389,-0.00021574,0.00005832,-0.00029646,-0.00391512,-0.00
 205690,0.00176322,0.01001030,-0.02136199,-0.00681178,0.09899591,-0.259
 78453,-0.06311866,0.00192042,0.00110351,-0.00098689,-0.00041439,0.0004
 5678,0.00063715,-0.00022024,-0.00008744,-0.00023152,-0.00000042,0.0000
 0675,0.00003051,-0.00019569,0.00018230,0.00020967,-0.00002935,0.000003
 38,0.00007694,0.00081675,-0.00070613,-0.00104383,-0.00026374,-0.000280
 87,0.00006786,0.00001775,-0.00001667,0.00000452,-0.10624312,0.28168286
 ,0.00002508,-0.00000497,-0.00000677,-0.00001378,0.00001091,-0.00001424
 ,0.00001163,-0.00000365,-0.00000633,-0.00000413,-0.00000093,0.00001240
 ,0.00000272,-0.00000062,-0.00000150,0.00000246,0.00001544,-0.00004703,
 -0.00000331,0.00002668,0.00001128,-0.00009253,0.00021161,0.00070510,0.
 00000369,-0.00000887,0.00002498,-0.00000032,-0.00000092,0.00000316,0.0
 0000276,-0.00000972,0.00002457,-0.00000504,0.00000498,-0.00000720,-0.0
 0000006,-0.00000247,-0.00001003,0.00000396,0.00000565,-0.00000701,-0.0
 0000082,-0.00000044,0.00000110,0.00005202,0.00004243,0.00007299,-0.000
 39491,-0.00007993,-0.00018013,-0.00014792,-0.00085033,-0.00037695,0.00
 004298,-0.00003698,0.00003207,0.00000749,0.00000685,-0.00000592,0.0000
 0399,0.00014993,0.00000237,0.00002657,-0.00004019,0.00002298,0.0000006
 7,-0.00000040,0.00000325,-0.00005861,-0.00007881,-0.00013312,0.0014777
 6,0.00067954,0.00051291,-0.00254735,0.00394529,-0.00029279,0.03107425,
 -0.06416787,-0.06753489,0.00021928,0.00092882,0.00013723,0.00023027,-0
 .00001368,0.00004115,-0.00028035,0.00017593,-0.00009641,-0.00002994,-0
 .00002082,-0.00002109,0.00018176,0.00002830,-0.00005982,0.00001298,-0.
 00001582,0.00002693,-0.00007536,-0.00014138,0.00038731,-0.00004302,0.0
 0006295,-0.00006585,-0.00000258,0.00000276,0.00001242,-0.03489984,0.06
 946547,0.06710664,0.00003478,-0.00002518,0.00000635,-0.00001306,0.0000
 2524,-0.00004269,0.00000445,-0.00000080,-0.00000033,-0.00003512,-0.000
 00627,0.00005531,0.00000171,-0.00000136,-0.00000134,0.00001386,0.00007
 743,-0.00019039,0.00001096,-0.00001477,-0.00008180,0.00021109,-0.00013
 168,0.00040147,0.00001381,-0.00000635,0.00002566,-0.00000161,-0.000003
 06,0.00000213,0.00000288,0.00000149,-0.00000480,0.00000108,-0.00000063
 ,-0.00000084,-0.00000161,0.00000176,0.00000268,0.00000068,0.00000133,-
 0.00000006,0.00000009,-0.00000026,0.00000018,0.00003285,0.00024554,0.0
 0034225,-0.00053810,-0.00009819,0.00002526,-0.00021742,-0.00015783,-0.
 00111334,0.00002893,-0.00016125,0.00022932,0.00000823,-0.00003110,-0.0
 0000818,-0.00049761,0.00125678,0.00038084,0.00016395,-0.00029143,-0.00
 002626,0.00001688,-0.00000382,-0.00000501,-0.00002552,0.00007678,-0.00
 010932,0.00001836,0.00183209,0.00120136,-0.01810111,0.00047414,-0.0098
 0544,-0.22322259,0.03442902,-0.12566235,-0.00040028,-0.00217400,-0.000
 31357,-0.00031330,0.00009811,-0.00052500,0.00024836,-0.00015457,0.0012
 8095,-0.00016562,-0.00012117,0.00002741,0.00020234,-0.00029453,-0.0003
 3321,-0.00009853,-0.00000122,-0.00016931,-0.00035342,-0.00075026,0.001
 04816,-0.00002598,-0.00008355,-0.00000604,0.00001227,-0.00001581,-0.00
 001401,-0.00972749,0.00143677,-0.00699024,0.24413865,-0.00000650,0.000
 01113,0.00000064,0.00000102,-0.00000482,-0.00000029,-0.00000009,-0.000
 00069,0.00000105,0.00000182,-0.00000211,0.00000849,0.00000152,0.000000
 41,-0.00000013,-0.00001259,0.00001199,-0.00001717,-0.00003631,0.000002
 48,-0.00004911,0.00015882,0.00014568,-0.00017550,0.00003041,0.00000840
 ,-0.00000955,-0.00000102,-0.00000273,0.00000081,0.00000116,-0.00000528
 ,0.00000076,-0.00000089,0.00000159,-0.00000041,-0.00000079,-0.00000135
 ,-0.00000177,-0.00000086,-0.00000007,0.00000050,0.00000012,0.00000005,
 0.00000043,0.00001577,0.00000962,0.00000858,0.00027255,-0.00118291,-0.
 00055055,0.00012441,0.00043981,-0.00023789,0.00005463,0.00005420,-0.00
 022392,0.00001093,0.00001699,0.00001010,0.00112615,-0.00119019,-0.0005
 4353,-0.00015462,0.00022058,0.00017496,-0.00003388,0.00006290,-0.00001
 566,0.00004767,-0.00008140,-0.00002835,-0.00087069,-0.00070354,0.00096
 894,-0.02169677,0.00362477,-0.01487836,0.03187107,-0.05219024,0.021748
 68,0.00012106,-0.00116018,-0.00031843,-0.00016249,0.00022632,-0.000158
 15,0.00017309,-0.00066529,0.00081200,-0.00012655,-0.00008274,0.0000385
 6,-0.00066642,-0.00010174,0.00018870,-0.00003948,-0.00000025,-0.000053
 53,0.00068609,0.00024312,0.00082138,0.00002230,-0.00004688,-0.00005276
 ,-0.00000612,0.00005673,0.00001431,0.02209906,-0.00304759,0.01715606,-
 0.03410374,0.05624954,-0.00000867,-0.00001253,0.00002807,0.00000727,0.
 00000563,-0.00002183,-0.00001543,0.00000148,0.00000898,-0.00002250,-0.
 00000503,0.00004945,-0.00000070,-0.00000030,0.00000072,0.00001290,0.00
 006060,-0.00017302,0.00002780,0.00000385,0.00004218,-0.00034374,0.0004
 2783,-0.00045168,0.00000011,0.00001015,-0.00001741,-0.00000208,0.00000
 117,0.00000276,-0.00000561,0.00001679,-0.00004992,0.00000973,-0.000009
 19,0.00001190,0.00000149,0.00000524,0.00001867,-0.00000606,-0.00000779
 ,0.00001222,0.00000119,0.00000017,-0.00000153,-0.00007052,0.00025219,0
 .00023332,0.00010777,-0.00067698,-0.00004703,-0.00022766,0.00009546,0.
 00052671,0.00000683,-0.00000406,0.00023026,0.00000074,-0.00001156,0.00
 002250,0.00062076,-0.00037516,-0.00026959,0.00017679,-0.00022893,-0.00
 003043,0.00001842,0.00000445,-0.00004221,0.00017774,-0.00029961,0.0000
 9879,-0.00040224,-0.00072571,0.00023330,0.00582190,-0.00167419,0.00402
 896,-0.12454758,0.02253994,-0.13021298,0.00085036,0.00084920,-0.000724
 31,0.00016145,-0.00008084,0.00020076,-0.00042333,-0.00037253,-0.000621
 97,0.00006902,0.00000108,0.00004079,-0.00017490,0.00037017,0.00021353,
 0.00002208,-0.00000263,0.00005289,0.00030763,0.00010667,-0.00028452,-0
 .00001198,-0.00000466,0.00000791,0.00000070,-0.00000674,-0.00002770,0.
 00849695,-0.00050420,0.00552871,0.13501102,-0.02488014,0.13834834,0.00
 002753,-0.00000089,-0.00001505,-0.00001847,0.00000441,-0.00000691,0.00
 001149,-0.00000441,-0.00000735,0.00000432,0.00001940,-0.00000685,-0.00
 000020,0.00000074,0.00000046,-0.00002712,-0.00002570,0.00001731,-0.000
 00019,-0.00005270,-0.00007693,0.00038949,-0.00009217,0.00022758,-0.000
 01188,-0.00002327,0.00005139,0.00000423,-0.00000336,-0.00000426,0.0000
 0666,-0.00001212,0.00003507,-0.00000994,0.00000681,-0.00000885,0.00000
 012,-0.00000427,-0.00001231,0.00000293,0.00000521,-0.00000971,-0.00000
 137,-0.00000043,0.00000183,0.00006271,-0.00012109,-0.00004380,0.000212
 36,0.00008222,-0.00002618,0.00079269,0.00051801,-0.00021812,0.00002735
 ,0.00004969,-0.00003332,0.00000211,0.00000206,-0.00002545,-0.00015086,
 -0.00021163,-0.00001795,0.00001300,-0.00003052,-0.00001447,-0.00002646
 ,0.00000217,0.00001119,-0.00017623,0.00018756,-0.00003048,-0.00027459,
 0.00172902,0.00042235,-0.00906563,-0.00153733,0.02117801,-0.06596364,-
 0.00389814,0.07555233,-0.00112788,-0.00329976,0.00005508,0.00030654,-0
 .00025650,0.00030528,-0.00130140,0.00026307,-0.00039232,-0.00022189,-0
 .00022115,0.00005275,0.00003208,0.00002217,0.00008713,0.00005227,-0.00
 008619,0.00007329,-0.00041231,-0.00000913,-0.00026881,0.00002277,-0.00
 004484,-0.00002414,0.00000987,-0.00001608,-0.00000424,-0.00416967,-0.0
 0175934,0.01220779,0.00857215,0.00110019,-0.02564768,0.07240704,-0.000
 07451,0.00001395,0.00002491,0.00003394,-0.00003003,0.00002323,-0.00003
 037,0.00000946,0.00001734,-0.00000478,-0.00000175,-0.00000815,-0.00000
 594,0.00000169,0.00000297,0.00000185,-0.00002014,0.00005624,-0.0000279
 2,0.00006686,0.00006267,0.00036614,-0.00276202,-0.00178900,0.00001679,
 0.00003302,-0.00008729,0.00000208,0.00000447,-0.00000416,-0.00000114,0
 .00002951,-0.00006363,0.00000985,-0.00001394,0.00001747,-0.00000076,0.
 00000352,0.00002606,-0.00001366,-0.00001630,0.00001551,0.00000260,0.00
 000124,-0.00000190,-0.00004017,0.00010692,-0.00001046,0.00025214,-0.00
 017744,-0.00007649,0.00015571,-0.00032191,0.00061267,-0.00005483,0.000
 01000,0.00003160,-0.00000656,-0.00002462,0.00001269,0.00007014,0.00015
 445,0.00000225,-0.00002532,0.00001105,-0.00001279,0.00001982,0.0000190
 5,-0.00001088,0.00010746,0.00027449,0.00035627,-0.00065631,0.00013236,
 -0.00000835,-0.00585498,-0.00072276,0.02409157,-0.00464883,-0.04954701
 ,0.01367504,-0.00127070,-0.00274012,-0.00018832,0.00005227,0.00009173,
 0.00025331,-0.00075175,0.00065910,-0.00036439,-0.00017242,-0.00016432,
 0.00005697,-0.00011653,-0.00041722,0.00009834,0.00003856,-0.00004431,0
 .00004049,-0.00061777,0.00055310,-0.00044529,0.00007002,-0.00000359,-0
 .00001988,0.00000518,0.00001006,-0.00002672,0.00677601,0.00347478,-0.0
 2744083,-0.00132363,-0.00091628,0.00513073,0.00771829,0.05226294,-0.00
 002384,0.00002158,0.00000067,0.00000567,-0.00001363,0.00001648,-0.0000
 0322,0.00000119,0.00000249,0.00000952,-0.00001133,-0.00001200,-0.00000
 042,-0.00000019,-0.00000147,0.00002152,-0.00003258,0.00010838,-0.00011
 591,0.00017113,0.00013819,0.00000390,-0.00120228,0.00014817,0.00001178
 ,0.00005056,-0.00004314,-0.00000599,0.00000483,0.00000177,-0.00000275,
 0.00001198,0.00000117,0.00000284,-0.00000476,-0.00000080,0.00000054,-0
 .00000528,-0.00000034,-0.00000061,-0.00000267,-0.00000167,0.00000005,0
 .00000038,0.00000082,0.00002167,0.00000763,-0.00005638,-0.00018471,0.0
 0007779,-0.00015530,-0.00043943,-0.00084943,-0.00017395,0.00002579,-0.
 00004021,0.00000843,-0.00000532,-0.00001952,-0.00000065,-0.00018905,0.
 00024484,-0.00008916,0.00000468,-0.00000474,0.00001118,0.00000304,-0.0
 0000204,0.00002046,-0.00015630,-0.00020004,-0.00005534,0.00089866,-0.0
 0114224,-0.00013430,0.00136604,0.00077472,-0.00057496,0.07612601,0.014
 27805,-0.29615649,-0.00043175,0.00103008,-0.00009083,-0.00009031,0.000
 02720,0.00002449,0.00006366,-0.00021305,-0.00002672,0.00005958,0.00004
 918,0.00001653,-0.00014210,0.00015084,0.00009031,-0.00000741,0.0000284
 9,-0.00001290,0.00027971,0.00029771,-0.00007566,0.00001750,0.00005476,
 0.00000179,-0.00000089,0.00000680,0.00000714,0.00089828,0.00026382,-0.
 00580247,0.00536321,0.00024023,-0.01696560,-0.08338366,-0.01404980,0.3
 1983162\\-0.00000124,0.00000502,0.00000026,0.00000237,-0.00000324,-0.0
 0000035,-0.00000129,-0.00000153,0.,-0.00000359,-0.00000177,-0.00000560
 ,-0.00000377,-0.00000618,-0.00000262,-0.00000354,0.00000185,-0.0000099
 2,0.00000639,0.00000383,-0.00000267,-0.00000115,-0.00000394,0.00000806
 ,0.00000317,0.00000367,-0.00000040,0.00000218,0.00000887,0.00000169,0.
 00000579,0.00000775,0.00000383,0.00000565,0.00001063,0.00000615,-0.000
 00247,0.00001114,-0.00000169,0.00000441,0.00000717,-0.00000341,0.00000
 450,0.00000460,0.00001075,-0.00000637,-0.00001627,0.00000030,-0.000001
 53,-0.00000795,0.,0.00000303,0.00000767,-0.00000662,-0.00001007,-0.000
 00833,-0.00000316,-0.00000123,-0.00000391,-0.00000271,-0.00000333,-0.0
 0000262,0.00000503,-0.00000284,-0.00000835,-0.00000101,-0.00000559,-0.
 00000716,-0.00000429,-0.00000071,0.00000995,-0.00000177,-0.00000090,-0
 .00000445,0.00000170,0.00000297,0.00000024,0.00000111,0.00000441,-0.00
 000145,0.00000366,0.00000454,0.00000133,0.00000392,0.00000351,0.000000
 01,0.00000436,-0.00000214,0.00000010,-0.00000175,-0.00000007,0.0000028
 7,-0.00000058,-0.00000456,0.00000310,-0.00000266,-0.00000417,0.0000039
 5,-0.00000638,-0.00000056,0.00000270,-0.00000265,-0.00000566,0.0000021
 0,-0.00000663,-0.00000333,-0.00001183,-0.00000389,0.00000675,-0.000002
 01,0.00000730,0.00000458,-0.00000713,0.00000579,0.00000585,-0.00000045
 ,0.00000685\\\@
 The archive entry for this job was punched.


 ALL OUR THINKING ABOUT NATURE MUST NECESSARILY MOVE IN CIRCLES OR SPIRALS;
 FOR WE CAN ONLY UNDERSTAND NATURE IF WE THINK ABOUT HER, AND WE CAN ONLY
 THINK BECAUSE OUR BRAIN IS BUILT IN ACCORDANCE WITH NATURE'S LAWS.

                                             -- TIMOTHY FERRIS, "GALAXIES"
 Job cpu time:       0 days  8 hours 39 minutes 50.0 seconds.
 Elapsed time:       0 days  0 hours 33 minutes 42.9 seconds.
 File lengths (MBytes):  RWF=   1196 Int=      0 D2E=      0 Chk=     32 Scr=      1
 Normal termination of Gaussian 16 at Wed Jun 29 17:38:33 2022.
