 Entering Gaussian System, Link 0=g16
 AtFile(1): //home/561/yj5695//Basis/6-31pGd.gbs
 Initial command:
 /apps/gaussian/g16c01/g16/l1.exe "/jobfs/40643964.gadi-pbs/Gau-2412833.inp" -scrdir="/jobfs/40643964.gadi-pbs/"
 Entering Link 1 = /apps/gaussian/g16c01/g16/l1.exe PID=   2412834.
  
 Copyright (c) 1988-2019, Gaussian, Inc.  All Rights Reserved.
  
 This is part of the Gaussian(R) 16 program.  It is based on
 the Gaussian(R) 09 system (copyright 2009, Gaussian, Inc.),
 the Gaussian(R) 03 system (copyright 2003, Gaussian, Inc.),
 the Gaussian(R) 98 system (copyright 1998, Gaussian, Inc.),
 the Gaussian(R) 94 system (copyright 1995, Gaussian, Inc.),
 the Gaussian 92(TM) system (copyright 1992, Gaussian, Inc.),
 the Gaussian 90(TM) system (copyright 1990, Gaussian, Inc.),
 the Gaussian 88(TM) system (copyright 1988, Gaussian, Inc.),
 the Gaussian 86(TM) system (copyright 1986, Carnegie Mellon
 University), and the Gaussian 82(TM) system (copyright 1983,
 Carnegie Mellon University). Gaussian is a federally registered
 trademark of Gaussian, Inc.
  
 This software contains proprietary and confidential information,
 including trade secrets, belonging to Gaussian, Inc.
  
 This software is provided under written license and may be
 used, copied, transmitted, or stored only in accord with that
 written license.
  
 The following legend is applicable only to US Government
 contracts under FAR:
  
                    RESTRICTED RIGHTS LEGEND
  
 Use, reproduction and disclosure by the US Government is
 subject to restrictions as set forth in subparagraphs (a)
 and (c) of the Commercial Computer Software - Restricted
 Rights clause in FAR 52.227-19.
  
 Gaussian, Inc.
 340 Quinnipiac St., Bldg. 40, Wallingford CT 06492
  
  
 ---------------------------------------------------------------
 Warning -- This program may not be used in any manner that
 competes with the business of Gaussian, Inc. or will provide
 assistance to any competitor of Gaussian, Inc.  The licensee
 of this program is prohibited from giving any competitor of
 Gaussian, Inc. access to this program.  By using this program,
 the user acknowledges that Gaussian, Inc. is engaged in the
 business of creating and licensing software in the field of
 computational chemistry and represents and warrants to the
 licensee that it is not a competitor of Gaussian, Inc. and that
 it will not use this program in any manner prohibited above.
 ---------------------------------------------------------------
  

 Cite this work as:
 Gaussian 16, Revision C.01,
 M. J. Frisch, G. W. Trucks, H. B. Schlegel, G. E. Scuseria, 
 M. A. Robb, J. R. Cheeseman, G. Scalmani, V. Barone, 
 G. A. Petersson, H. Nakatsuji, X. Li, M. Caricato, A. V. Marenich, 
 J. Bloino, B. G. Janesko, R. Gomperts, B. Mennucci, H. P. Hratchian, 
 J. V. Ortiz, A. F. Izmaylov, J. L. Sonnenberg, D. Williams-Young, 
 F. Ding, F. Lipparini, F. Egidi, J. Goings, B. Peng, A. Petrone, 
 T. Henderson, D. Ranasinghe, V. G. Zakrzewski, J. Gao, N. Rega, 
 G. Zheng, W. Liang, M. Hada, M. Ehara, K. Toyota, R. Fukuda, 
 J. Hasegawa, M. Ishida, T. Nakajima, Y. Honda, O. Kitao, H. Nakai, 
 T. Vreven, K. Throssell, J. A. Montgomery, Jr., J. E. Peralta, 
 F. Ogliaro, M. J. Bearpark, J. J. Heyd, E. N. Brothers, K. N. Kudin, 
 V. N. Staroverov, T. A. Keith, R. Kobayashi, J. Normand, 
 K. Raghavachari, A. P. Rendell, J. C. Burant, S. S. Iyengar, 
 J. Tomasi, M. Cossi, J. M. Millam, M. Klene, C. Adamo, R. Cammi, 
 J. W. Ochterski, R. L. Martin, K. Morokuma, O. Farkas, 
 J. B. Foresman, and D. J. Fox, Gaussian, Inc., Wallingford CT, 2019.
 
 ******************************************
 Gaussian 16:  ES64L-G16RevC.01  3-Jul-2019
                19-May-2022 
 ******************************************
 %nproc=16
 Will use up to   16 processors via shared memory.
 %mem=20gb
 -----------------------------------------------------
 #m062X/gen 6D OPT Freq=noraman SCRF=(SMD,Solvent=h2o)
 -----------------------------------------------------
 1/18=20,19=15,26=3,38=1/1,3;
 2/9=110,12=2,17=6,18=5,40=1/2;
 3/5=7,8=2,11=2,25=1,30=1,70=32201,71=1,72=1,74=-55/1,2,3;
 4//1;
 5/5=2,38=5,53=1/2;
 6/7=2,8=2,9=2,10=2,28=1/1;
 7//1,2,3,16;
 1/18=20,19=15,26=3/3(2);
 2/9=110/2;
 99//99;
 2/9=110/2;
 3/5=7,6=1,8=2,11=2,25=1,30=1,70=32205,71=1,72=1,74=-55,82=7/1,2,3;
 4/5=5,16=3,69=1/1;
 5/5=2,38=5,53=1/2;
 7//1,2,3,16;
 1/18=20,19=15,26=3/3(-5);
 2/9=110/2;
 6/7=2,8=2,9=2,10=2,19=2,28=1/1;
 99/9=1/99;
 -----
 a1 b2
 -----
 Symbolic Z-matrix:
 Charge = -1 Multiplicity = 1
 C                    -1.42689   0.67274  -0.90488 
 C                    -2.56278   0.92552  -1.68972 
 Cl                   -4.18396   1.05352  -1.05694 
 C                    -2.48931   1.08988  -3.0738 
 H                    -3.3894    1.2919   -3.64402 
 C                    -1.26014   0.99045  -3.7011 
 Cl                   -1.16056   1.20158  -5.42502 
 C                    -0.10734   0.71497  -2.9812 
 H                     0.85425   0.62113  -3.47374 
 C                    -0.2126    0.55532  -1.60548 
 Cl                    1.29039   0.16497  -0.80172 
 S                    -1.40738   0.46112   0.93129 
 O                    -0.42923   1.50458   1.34212 
 O                    -2.78319   0.73329   1.38948 
 N                    -1.03164  -1.01033   1.26877 
 H                    -1.54591  -1.63688   0.64771 
 

 GradGradGradGradGradGradGradGradGradGradGradGradGradGradGradGradGradGrad
 Berny optimization.
 Initialization pass.
                           ----------------------------
                           !    Initial Parameters    !
                           ! (Angstroms and Degrees)  !
 --------------------------                            --------------------------
 ! Name  Definition              Value          Derivative Info.                !
 --------------------------------------------------------------------------------
 ! R1    R(1,2)                  1.4036         estimate D2E/DX2                !
 ! R2    R(1,10)                 1.4068         estimate D2E/DX2                !
 ! R3    R(1,12)                 1.8484         estimate D2E/DX2                !
 ! R4    R(2,3)                  1.745          estimate D2E/DX2                !
 ! R5    R(2,4)                  1.3957         estimate D2E/DX2                !
 ! R6    R(4,5)                  1.0845         estimate D2E/DX2                !
 ! R7    R(4,6)                  1.3836         estimate D2E/DX2                !
 ! R8    R(6,7)                  1.7396         estimate D2E/DX2                !
 ! R9    R(6,8)                  1.3868         estimate D2E/DX2                !
 ! R10   R(8,9)                  1.0845         estimate D2E/DX2                !
 ! R11   R(8,10)                 1.389          estimate D2E/DX2                !
 ! R12   R(10,11)                1.7485         estimate D2E/DX2                !
 ! R13   R(12,13)                1.4881         estimate D2E/DX2                !
 ! R14   R(12,14)                1.4754         estimate D2E/DX2                !
 ! R15   R(12,15)                1.5557         estimate D2E/DX2                !
 ! R16   R(15,16)                1.0212         estimate D2E/DX2                !
 ! A1    A(2,1,10)             115.7905         estimate D2E/DX2                !
 ! A2    A(2,1,12)             125.7754         estimate D2E/DX2                !
 ! A3    A(10,1,12)            118.427          estimate D2E/DX2                !
 ! A4    A(1,2,3)              124.214          estimate D2E/DX2                !
 ! A5    A(1,2,4)              122.2148         estimate D2E/DX2                !
 ! A6    A(3,2,4)              113.5697         estimate D2E/DX2                !
 ! A7    A(2,4,5)              119.9764         estimate D2E/DX2                !
 ! A8    A(2,4,6)              119.2035         estimate D2E/DX2                !
 ! A9    A(5,4,6)              120.82           estimate D2E/DX2                !
 ! A10   A(4,6,7)              119.4343         estimate D2E/DX2                !
 ! A11   A(4,6,8)              121.1601         estimate D2E/DX2                !
 ! A12   A(7,6,8)              119.4036         estimate D2E/DX2                !
 ! A13   A(6,8,9)              121.2331         estimate D2E/DX2                !
 ! A14   A(6,8,10)             118.2952         estimate D2E/DX2                !
 ! A15   A(9,8,10)             120.4712         estimate D2E/DX2                !
 ! A16   A(1,10,8)             123.3041         estimate D2E/DX2                !
 ! A17   A(1,10,11)            122.1169         estimate D2E/DX2                !
 ! A18   A(8,10,11)            114.5706         estimate D2E/DX2                !
 ! A19   A(1,12,13)            101.59           estimate D2E/DX2                !
 ! A20   A(1,12,14)            106.1129         estimate D2E/DX2                !
 ! A21   A(1,12,15)            109.0462         estimate D2E/DX2                !
 ! A22   A(13,12,14)           113.4444         estimate D2E/DX2                !
 ! A23   A(13,12,15)           116.3967         estimate D2E/DX2                !
 ! A24   A(14,12,15)           109.4099         estimate D2E/DX2                !
 ! A25   A(12,15,16)           109.0723         estimate D2E/DX2                !
 ! D1    D(10,1,2,3)           177.7032         estimate D2E/DX2                !
 ! D2    D(10,1,2,4)            -1.8285         estimate D2E/DX2                !
 ! D3    D(12,1,2,3)            -1.305          estimate D2E/DX2                !
 ! D4    D(12,1,2,4)           179.1633         estimate D2E/DX2                !
 ! D5    D(2,1,10,8)             1.909          estimate D2E/DX2                !
 ! D6    D(2,1,10,11)         -176.985          estimate D2E/DX2                !
 ! D7    D(12,1,10,8)         -179.006          estimate D2E/DX2                !
 ! D8    D(12,1,10,11)           2.1            estimate D2E/DX2                !
 ! D9    D(2,1,12,13)         -123.8403         estimate D2E/DX2                !
 ! D10   D(2,1,12,14)           -5.0247         estimate D2E/DX2                !
 ! D11   D(2,1,12,15)          112.7293         estimate D2E/DX2                !
 ! D12   D(10,1,12,13)          57.1751         estimate D2E/DX2                !
 ! D13   D(10,1,12,14)         175.9908         estimate D2E/DX2                !
 ! D14   D(10,1,12,15)         -66.2553         estimate D2E/DX2                !
 ! D15   D(1,2,4,5)           -179.5063         estimate D2E/DX2                !
 ! D16   D(1,2,4,6)              0.5536         estimate D2E/DX2                !
 ! D17   D(3,2,4,5)              0.9162         estimate D2E/DX2                !
 ! D18   D(3,2,4,6)           -179.024          estimate D2E/DX2                !
 ! D19   D(2,4,6,7)           -179.718          estimate D2E/DX2                !
 ! D20   D(2,4,6,8)              0.7954         estimate D2E/DX2                !
 ! D21   D(5,4,6,7)              0.3424         estimate D2E/DX2                !
 ! D22   D(5,4,6,8)           -179.1442         estimate D2E/DX2                !
 ! D23   D(4,6,8,9)            179.0133         estimate D2E/DX2                !
 ! D24   D(4,6,8,10)            -0.7337         estimate D2E/DX2                !
 ! D25   D(7,6,8,9)             -0.4735         estimate D2E/DX2                !
 ! D26   D(7,6,8,10)           179.7795         estimate D2E/DX2                !
 ! D27   D(6,8,10,1)            -0.6818         estimate D2E/DX2                !
 ! D28   D(6,8,10,11)          178.2883         estimate D2E/DX2                !
 ! D29   D(9,8,10,1)           179.5693         estimate D2E/DX2                !
 ! D30   D(9,8,10,11)           -1.4607         estimate D2E/DX2                !
 ! D31   D(1,12,15,16)         -43.7007         estimate D2E/DX2                !
 ! D32   D(13,12,15,16)       -157.8196         estimate D2E/DX2                !
 ! D33   D(14,12,15,16)         71.9534         estimate D2E/DX2                !
 --------------------------------------------------------------------------------
 Trust Radius=3.00D-01 FncErr=1.00D-07 GrdErr=1.00D-06 EigMax=2.50D+02 EigMin=1.00D-04
 Number of steps in this run=     84 maximum allowed number of steps=    100.
 GradGradGradGradGradGradGradGradGradGradGradGradGradGradGradGradGradGrad

                          Input orientation:                          
 ---------------------------------------------------------------------
 Center     Atomic      Atomic             Coordinates (Angstroms)
 Number     Number       Type             X           Y           Z
 ---------------------------------------------------------------------
      1          6           0       -1.426887    0.672744   -0.904879
      2          6           0       -2.562778    0.925517   -1.689721
      3         17           0       -4.183959    1.053520   -1.056939
      4          6           0       -2.489306    1.089875   -3.073797
      5          1           0       -3.389404    1.291897   -3.644016
      6          6           0       -1.260136    0.990445   -3.701102
      7         17           0       -1.160562    1.201581   -5.425018
      8          6           0       -0.107338    0.714966   -2.981203
      9          1           0        0.854252    0.621127   -3.473740
     10          6           0       -0.212600    0.555324   -1.605477
     11         17           0        1.290388    0.164966   -0.801718
     12         16           0       -1.407383    0.461120    0.931287
     13          8           0       -0.429232    1.504578    1.342120
     14          8           0       -2.783187    0.733287    1.389475
     15          7           0       -1.031645   -1.010330    1.268772
     16          1           0       -1.545912   -1.636875    0.647705
 ---------------------------------------------------------------------
                    Distance matrix (angstroms):
                    1          2          3          4          5
     1  C    0.000000
     2  C    1.403609   0.000000
     3  Cl   2.787393   1.745000   0.000000
     4  C    2.450905   1.395736   2.634556   0.000000
     5  H    3.426032   2.153326   2.716820   1.084499   0.000000
     6  C    2.819149   2.397237   3.942628   1.383567   2.151259
     7  Cl   4.558756   3.999358   5.314411   2.703013   2.854446
     8  C    2.460511   2.782345   4.520647   2.413069   3.397665
     9  H    3.435885   3.866713   5.604593   3.399862   4.299714
    10  C    1.406811   2.380646   4.039899   2.761358   3.845811
    11  Cl   2.766236   4.026646   5.551859   4.505983   5.590088
    12  S    1.848424   2.901773   3.466029   4.196021   5.054898
    13  O    2.595432   3.752251   4.478494   4.890420   5.802534
    14  O    2.665947   3.093054   2.837191   4.487128   5.100547
    15  N    2.777357   3.852863   4.427809   5.039201   5.915637
    16  H    2.785502   3.614337   4.135617   4.709006   5.513169
                    6          7          8          9         10
     6  C    0.000000
     7  Cl   1.739649   0.000000
     8  C    1.386754   2.705237   0.000000
     9  H    2.158408   2.864243   1.084460   0.000000
    10  C    2.382920   3.988129   1.388952   2.152420   0.000000
    11  Cl   3.948799   5.334476   2.646940   2.745542   1.748537
    12  S    4.664857   6.404047   4.130633   4.954277   2.805629
    13  O    5.137005   6.813282   4.406611   5.061652   3.104246
    14  O    5.319755   7.020650   5.124776   6.074076   3.950864
    15  N    5.362365   7.050957   4.679025   5.358141   3.373932
    16  H    5.088870   6.714409   4.557370   5.276900   3.414716
                   11         12         13         14         15
    11  Cl   0.000000
    12  S    3.220090   0.000000
    13  O    3.057400   1.488075   0.000000
    14  O    4.660293   1.475414   2.477546   0.000000
    15  N    3.325671   1.555712   2.587092   2.474403   0.000000
    16  H    3.659516   2.121601   3.405571   2.774660   1.021153
                   16
    16  H    0.000000
 Stoichiometry    C6H3Cl3NO2S(1-)
 Framework group  C1[X(C6H3Cl3NO2S)]
 Deg. of freedom    42
 Full point group                 C1      NOp   1
 Largest Abelian subgroup         C1      NOp   1
 Largest concise Abelian subgroup C1      NOp   1
                         Standard orientation:                         
 ---------------------------------------------------------------------
 Center     Atomic      Atomic             Coordinates (Angstroms)
 Number     Number       Type             X           Y           Z
 ---------------------------------------------------------------------
      1          6           0        0.400912    0.052149   -0.022835
      2          6           0       -0.385693    1.214423   -0.000695
      3         17           0        0.259537    2.835296    0.037733
      4          6           0       -1.780682    1.168829    0.001910
      5          1           0       -2.352927    2.090017    0.011237
      6          6           0       -2.415947   -0.060248   -0.006259
      7         17           0       -4.154421   -0.124031   -0.010526
      8          6           0       -1.691283   -1.242583   -0.000476
      9          1           0       -2.188033   -2.206534    0.009100
     10          6           0       -0.304509   -1.164838   -0.001868
     11         17           0        0.510428   -2.710870    0.053288
     12         16           0        2.248340   -0.002007   -0.050179
     13          8           0        2.505662   -0.811012   -1.272335
     14          8           0        2.697345    1.398482   -0.167966
     15          7           0        2.758728   -0.597295    1.293464
     16          1           0        2.231327   -0.183184    2.063603
 ---------------------------------------------------------------------
 Rotational constants (GHZ):           0.7038497           0.3837530           0.2623419
 General basis read from cards:  (6D, 7F)
 There are   269 symmetry adapted cartesian basis functions of A   symmetry.
 There are   269 symmetry adapted basis functions of A   symmetry.
   269 basis functions,   524 primitive gaussians,   269 cartesian basis functions
    65 alpha electrons       65 beta electrons
       nuclear repulsion energy      1257.7883789799 Hartrees.
 NAtoms=   16 NActive=   16 NUniq=   16 SFac= 1.00D+00 NAtFMM=   60 NAOKFM=F Big=F
 Integral buffers will be    131072 words long.
 Raffenetti 2 integral format.
 Two-electron integral symmetry is turned on.
 ------------------------------------------------------------------------------
 Polarizable Continuum Model (PCM)
 =================================
 Model                : PCM.
 Atomic radii         : SMD-Coulomb.
 Polarization charges : Total charges.
 Charge compensation  : None.
 Solution method      : On-the-fly selection.
 Cavity type          : VdW (van der Waals Surface) (Alpha=1.000).
 Cavity algorithm     : GePol (No added spheres)
                        Default sphere list used, NSphG=   16.
                        Lebedev-Laikov grids with approx.  5.0 points / Ang**2.
                        Smoothing algorithm: York/Karplus (Gamma=1.0000).
                        Polarization charges: spherical gaussians, with
                                              point-specific exponents (IZeta= 3).
                        Self-potential: point-specific (ISelfS= 7).
                        Self-field    : sphere-specific E.n sum rule (ISelfD= 2).
 1st derivatives      : Analytical E(r).r(x)/FMM algorithm (CHGder, D1EAlg=3).
                        Cavity 1st derivative terms included.
 Solvent              : Water, Eps=  78.355300 Eps(inf)=   1.777849
 ------------------------------------------------------------------------------
 Spheres list:
 ISph  on   Nord     Re0    Alpha      Xe            Ye            Ze
    1   C      1    1.8500  1.000      0.400912      0.052149     -0.022835
    2   C      2    1.8500  1.000     -0.385693      1.214423     -0.000695
    3  Cl      3    2.3800  1.000      0.259537      2.835296      0.037733
    4   C      4    1.8500  1.000     -1.780682      1.168829      0.001910
    5   H      5    1.2000  1.000     -2.352927      2.090017      0.011237
    6   C      6    1.8500  1.000     -2.415947     -0.060248     -0.006259
    7  Cl      7    2.3800  1.000     -4.154421     -0.124031     -0.010526
    8   C      8    1.8500  1.000     -1.691283     -1.242583     -0.000476
    9   H      9    1.2000  1.000     -2.188033     -2.206534      0.009100
   10   C     10    1.8500  1.000     -0.304509     -1.164838     -0.001868
   11  Cl     11    2.3800  1.000      0.510428     -2.710870      0.053288
   12   S     12    2.4900  1.000      2.248340     -0.002007     -0.050179
   13   O     13    1.5200  1.000      2.505662     -0.811012     -1.272335
   14   O     14    1.5200  1.000      2.697345      1.398482     -0.167966
   15   N     15    1.8900  1.000      2.758728     -0.597295      1.293464
   16   H     16    1.2000  1.000      2.231327     -0.183184      2.063603
 ------------------------------------------------------------------------------
 ------------------------------------------------------------------------------
 Atomic radii for non-electrostatic terms: SMD-CDS.
 ------------------------------------------------------------------------------
 Nuclear repulsion after PCM non-electrostatic terms =     1257.7933820722 Hartrees.
 One-electron integrals computed using PRISM.
 NBasis=   269 RedAO= T EigKep=  1.23D-06  NBF=   269
 NBsUse=   268 1.00D-06 EigRej=  8.27D-07 NBFU=   268
 ExpMin= 4.05D-02 ExpMax= 2.52D+04 ExpMxC= 3.78D+03 IAcc=3 IRadAn=         5 AccDes= 0.00D+00
 Harris functional with IExCor= 1009 and IRadAn=       5 diagonalized for initial guess.
 HarFok:  IExCor= 1009 AccDes= 0.00D+00 IRadAn=         5 IDoV= 1 UseB2=F ITyADJ=14
 ICtDFT=  3500011 ScaDFX=  1.000000  1.000000  1.000000  1.000000
 FoFCou: FMM=F IPFlag=           0 FMFlag=      100000 FMFlg1=           0
         NFxFlg=           0 DoJE=T BraDBF=F KetDBF=T FulRan=T
         wScrn=  0.000000 ICntrl=       500 IOpCl=  0 I1Cent=   200000004 NGrid=           0
         NMat0=    1 NMatS0=      1 NMatT0=    0 NMatD0=    1 NMtDS0=    0 NMtDT0=    0
 Petite list used in FoFCou.
 Requested convergence on RMS density matrix=1.00D-08 within 128 cycles.
 Requested convergence on MAX density matrix=1.00D-06.
 Requested convergence on             energy=1.00D-06.
 No special actions if energy rises.
 Inv3:  Mode=1 IEnd=     9763248.
 Iteration    1 A*A^-1 deviation from unit magnitude is 8.33D-15 for   1789.
 Iteration    1 A*A^-1 deviation from orthogonality  is 3.36D-15 for   1787      9.
 Iteration    1 A^-1*A deviation from unit magnitude is 8.33D-15 for   1789.
 Iteration    1 A^-1*A deviation from orthogonality  is 1.24D-15 for   1799    657.
 Error on total polarization charges =  0.02732
 SCF Done:  E(RM062X) =  -2214.19914553     A.U. after   17 cycles
            NFock= 17  Conv=0.12D-08     -V/T= 2.0040
 SMD-CDS (non-electrostatic) energy       (kcal/mol) =       3.14
 (included in total energy above)

 **********************************************************************

            Population analysis using the SCF Density.

 **********************************************************************

 Orbital symmetries:
       Occupied  (A) (A) (A) (A) (A) (A) (A) (A) (A) (A) (A) (A)
                 (A) (A) (A) (A) (A) (A) (A) (A) (A) (A) (A) (A)
                 (A) (A) (A) (A) (A) (A) (A) (A) (A) (A) (A) (A)
                 (A) (A) (A) (A) (A) (A) (A) (A) (A) (A) (A) (A)
                 (A) (A) (A) (A) (A) (A) (A) (A) (A) (A) (A) (A)
                 (A) (A) (A) (A) (A)
       Virtual   (A) (A) (A) (A) (A) (A) (A) (A) (A) (A) (A) (A)
                 (A) (A) (A) (A) (A) (A) (A) (A) (A) (A) (A) (A)
                 (A) (A) (A) (A) (A) (A) (A) (A) (A) (A) (A) (A)
                 (A) (A) (A) (A) (A) (A) (A) (A) (A) (A) (A) (A)
                 (A) (A) (A) (A) (A) (A) (A) (A) (A) (A) (A) (A)
                 (A) (A) (A) (A) (A) (A) (A) (A) (A) (A) (A) (A)
                 (A) (A) (A) (A) (A) (A) (A) (A) (A) (A) (A) (A)
                 (A) (A) (A) (A) (A) (A) (A) (A) (A) (A) (A) (A)
                 (A) (A) (A) (A) (A) (A) (A) (A) (A) (A) (A) (A)
                 (A) (A) (A) (A) (A) (A) (A) (A) (A) (A) (A) (A)
                 (A) (A) (A) (A) (A) (A) (A) (A) (A) (A) (A) (A)
                 (A) (A) (A) (A) (A) (A) (A) (A) (A) (A) (A) (A)
                 (A) (A) (A) (A) (A) (A) (A) (A) (A) (A) (A) (A)
                 (A) (A) (A) (A) (A) (A) (A) (A) (A) (A) (A) (A)
                 (A) (A) (A) (A) (A) (A) (A) (A) (A) (A) (A) (A)
                 (A) (A) (A) (A) (A) (A) (A) (A) (A) (A) (A) (A)
                 (A) (A) (A) (A) (A) (A) (A) (A) (A) (A) (A)
 The electronic state is 1-A.
 Alpha  occ. eigenvalues -- -102.68667-102.68007-102.67955 -90.14514 -19.62833
 Alpha  occ. eigenvalues --  -19.61557 -14.71705 -10.64629 -10.64469 -10.63892
 Alpha  occ. eigenvalues --  -10.60688 -10.58466 -10.58420  -9.83337  -9.82648
 Alpha  occ. eigenvalues --   -9.82596  -8.45276  -7.55743  -7.55078  -7.55066
 Alpha  occ. eigenvalues --   -7.55054  -7.55017  -7.54390  -7.54346  -7.54344
 Alpha  occ. eigenvalues --   -7.54283  -6.37511  -6.37445  -6.37361  -1.21566
 Alpha  occ. eigenvalues --   -1.09788  -1.03603  -0.98851  -0.98569  -0.96372
 Alpha  occ. eigenvalues --   -0.91719  -0.85519  -0.84301  -0.72383  -0.70319
 Alpha  occ. eigenvalues --   -0.67431  -0.61488  -0.58863  -0.56723  -0.54540
 Alpha  occ. eigenvalues --   -0.53433  -0.53030  -0.51208  -0.50807  -0.47520
 Alpha  occ. eigenvalues --   -0.45589  -0.44531  -0.44195  -0.41628  -0.40982
 Alpha  occ. eigenvalues --   -0.40252  -0.39043  -0.38838  -0.37720  -0.37305
 Alpha  occ. eigenvalues --   -0.34931  -0.34023  -0.31444  -0.31159  -0.28570
 Alpha virt. eigenvalues --   -0.01533  -0.00917   0.00812   0.01957   0.02717
 Alpha virt. eigenvalues --    0.02975   0.04340   0.04559   0.05314   0.05484
 Alpha virt. eigenvalues --    0.06910   0.07735   0.07949   0.08594   0.08934
 Alpha virt. eigenvalues --    0.09302   0.10039   0.10663   0.10859   0.11068
 Alpha virt. eigenvalues --    0.11551   0.12260   0.12384   0.13659   0.14031
 Alpha virt. eigenvalues --    0.14437   0.15044   0.15658   0.16018   0.16503
 Alpha virt. eigenvalues --    0.16970   0.17828   0.17983   0.18633   0.19031
 Alpha virt. eigenvalues --    0.19494   0.19865   0.20899   0.21494   0.21987
 Alpha virt. eigenvalues --    0.23066   0.23368   0.23570   0.24530   0.24831
 Alpha virt. eigenvalues --    0.25259   0.25800   0.27193   0.27477   0.27534
 Alpha virt. eigenvalues --    0.28748   0.29374   0.29725   0.30260   0.30746
 Alpha virt. eigenvalues --    0.30959   0.32277   0.32483   0.32929   0.34148
 Alpha virt. eigenvalues --    0.34404   0.35187   0.35508   0.36674   0.39841
 Alpha virt. eigenvalues --    0.40589   0.42708   0.46460   0.50204   0.52747
 Alpha virt. eigenvalues --    0.58734   0.59256   0.60068   0.61380   0.62632
 Alpha virt. eigenvalues --    0.63901   0.65205   0.66392   0.66754   0.67321
 Alpha virt. eigenvalues --    0.68953   0.69324   0.70145   0.70696   0.71586
 Alpha virt. eigenvalues --    0.72709   0.74362   0.74644   0.75655   0.76670
 Alpha virt. eigenvalues --    0.77273   0.78586   0.79129   0.79830   0.81470
 Alpha virt. eigenvalues --    0.82687   0.85189   0.87033   0.89071   0.92634
 Alpha virt. eigenvalues --    0.94035   0.94742   0.96112   0.96701   0.97108
 Alpha virt. eigenvalues --    0.98223   0.98333   0.99435   1.00242   1.01408
 Alpha virt. eigenvalues --    1.02314   1.04939   1.06748   1.07396   1.08743
 Alpha virt. eigenvalues --    1.10167   1.11506   1.12630   1.13277   1.15727
 Alpha virt. eigenvalues --    1.16446   1.17645   1.20172   1.21344   1.22801
 Alpha virt. eigenvalues --    1.25374   1.25840   1.26445   1.27478   1.28649
 Alpha virt. eigenvalues --    1.30113   1.35755   1.37558   1.40894   1.40944
 Alpha virt. eigenvalues --    1.41633   1.41936   1.44155   1.47756   1.48995
 Alpha virt. eigenvalues --    1.49802   1.50485   1.52116   1.54261   1.56438
 Alpha virt. eigenvalues --    1.58270   1.60742   1.62588   1.72513   1.76153
 Alpha virt. eigenvalues --    1.78369   1.82411   1.83336   1.84002   1.84535
 Alpha virt. eigenvalues --    1.90029   1.90822   1.92439   1.98608   2.00390
 Alpha virt. eigenvalues --    2.00890   2.02061   2.02939   2.04674   2.12514
 Alpha virt. eigenvalues --    2.13930   2.14471   2.17355   2.18923   2.20677
 Alpha virt. eigenvalues --    2.24698   2.27210   2.29793   2.31316   2.32996
 Alpha virt. eigenvalues --    2.35219   2.42886   2.53786   2.59404   2.62285
 Alpha virt. eigenvalues --    2.64278   2.66892   2.69434   2.76532   2.80619
 Alpha virt. eigenvalues --    2.85805   2.89195   2.96256   3.06652   3.27869
 Alpha virt. eigenvalues --    4.00350   4.08456   4.22190   4.28374   4.30148
 Alpha virt. eigenvalues --    4.31114   4.31647   4.37809   4.41448   4.45808
 Alpha virt. eigenvalues --    4.48005   4.48943   4.68005
          Condensed to atoms (all electrons):
               1          2          3          4          5          6
     1  C   40.191604   1.608039  -0.013122  -5.460865   0.066814  -1.097641
     2  C    1.608039  21.462103  -0.060570   2.681800   0.057198  -1.478506
     3  Cl  -0.013122  -0.060570  17.061567  -0.375817  -0.008074   0.000137
     4  C   -5.460865   2.681800  -0.375817  19.559567   0.053340  -1.767383
     5  H    0.066814   0.057198  -0.008074   0.053340   0.401888   0.092718
     6  C   -1.097641  -1.478506   0.000137  -1.767383   0.092718   8.639859
     7  Cl   0.089504   0.098491  -0.002688  -0.099496   0.001171  -0.215133
     8  C   -3.496488   1.545072   0.067536  -0.429417   0.061229  -1.300513
     9  H    0.131891  -0.019731   0.000111   0.076644  -0.000100  -0.009032
    10  C  -23.004109 -19.805410   0.140474  -8.533311  -0.017532   3.325694
    11  Cl  -0.018161   0.161168  -0.006067   0.191722   0.000131  -0.098030
    12  S   -0.519451   0.463706  -0.008432   0.383346   0.000625  -0.101934
    13  O   -0.570050  -0.335150   0.009946  -0.050277   0.000013   0.007052
    14  O    0.633144  -0.391628  -0.025903  -0.086533   0.000190   0.038691
    15  N    0.649881  -0.511539  -0.001974  -0.095121   0.000001   0.029917
    16  H    0.004287  -0.072857   0.002929  -0.013383   0.000000   0.001546
               7          8          9         10         11         12
     1  C    0.089504  -3.496488   0.131891 -23.004109  -0.018161  -0.519451
     2  C    0.098491   1.545072  -0.019731 -19.805410   0.161168   0.463706
     3  Cl  -0.002688   0.067536   0.000111   0.140474  -0.006067  -0.008432
     4  C   -0.099496  -0.429417   0.076644  -8.533311   0.191722   0.383346
     5  H    0.001171   0.061229  -0.000100  -0.017532   0.000131   0.000625
     6  C   -0.215133  -1.300513  -0.009032   3.325694  -0.098030  -0.101934
     7  Cl  16.983533  -0.004292   0.003094  -0.068110  -0.001589  -0.004710
     8  C   -0.004292  12.411808   0.110872  -2.962960   0.092920  -0.049444
     9  H    0.003094   0.110872   0.398328   0.014428  -0.004474   0.002061
    10  C   -0.068110  -2.962960   0.014428  56.519431  -0.508262  -0.617722
    11  Cl  -0.001589   0.092920  -0.004474  -0.508262  17.081020  -0.048880
    12  S   -0.004710  -0.049444   0.002061  -0.617722  -0.048880  14.699254
    13  O   -0.000659  -0.052963   0.000081   0.682009  -0.054127   0.438076
    14  O    0.000160   0.000081   0.000015  -0.089099  -0.004585  -0.167294
    15  N   -0.000347  -0.130741   0.000017   0.112195  -0.028971   0.012965
    16  H   -0.000022  -0.007213   0.000001   0.059665  -0.006267   0.082504
              13         14         15         16
     1  C   -0.570050   0.633144   0.649881   0.004287
     2  C   -0.335150  -0.391628  -0.511539  -0.072857
     3  Cl   0.009946  -0.025903  -0.001974   0.002929
     4  C   -0.050277  -0.086533  -0.095121  -0.013383
     5  H    0.000013   0.000190   0.000001   0.000000
     6  C    0.007052   0.038691   0.029917   0.001546
     7  Cl  -0.000659   0.000160  -0.000347  -0.000022
     8  C   -0.052963   0.000081  -0.130741  -0.007213
     9  H    0.000081   0.000015   0.000017   0.000001
    10  C    0.682009  -0.089099   0.112195   0.059665
    11  Cl  -0.054127  -0.004585  -0.028971  -0.006267
    12  S    0.438076  -0.167294   0.012965   0.082504
    13  O    8.972735  -0.194221  -0.185571   0.012729
    14  O   -0.194221   9.203263  -0.189914  -0.018150
    15  N   -0.185571  -0.189914   8.087993   0.197059
    16  H    0.012729  -0.018150   0.197059   0.335891
 Mulliken charges:
               1
     1  C   -3.195277
     2  C    0.597813
     3  Cl   0.219946
     4  C   -0.034816
     5  H    0.290387
     6  C   -0.067441
     7  Cl   0.221090
     8  C    0.144515
     9  H    0.295796
    10  C    0.752616
    11  Cl   0.252454
    12  S    1.435331
    13  O   -0.679626
    14  O   -0.708217
    15  N   -0.945851
    16  H    0.421282
 Sum of Mulliken charges =  -1.00000
 Mulliken charges with hydrogens summed into heavy atoms:
               1
     1  C   -3.195277
     2  C    0.597813
     3  Cl   0.219946
     4  C    0.255571
     6  C   -0.067441
     7  Cl   0.221090
     8  C    0.440310
    10  C    0.752616
    11  Cl   0.252454
    12  S    1.435331
    13  O   -0.679626
    14  O   -0.708217
    15  N   -0.524569
 Electronic spatial extent (au):  <R**2>=           3811.9984
 Charge=             -1.0000 electrons
 Dipole moment (field-independent basis, Debye):
    X=            -15.6845    Y=              0.5823    Z=              2.0651  Tot=             15.8305
 Quadrupole moment (field-independent basis, Debye-Ang):
   XX=           -152.1902   YY=           -114.7776   ZZ=           -111.0169
   XY=              1.6892   XZ=              2.5509   YZ=              0.9253
 Traceless Quadrupole moment (field-independent basis, Debye-Ang):
   XX=            -26.1953   YY=             11.2173   ZZ=             14.9780
   XY=              1.6892   XZ=              2.5509   YZ=              0.9253
 Octapole moment (field-independent basis, Debye-Ang**2):
  XXX=           -134.2283  YYY=             -2.8366  ZZZ=              8.4405  XYY=            -38.8585
  XXY=              5.6262  XXZ=             -2.7851  XZZ=            -15.6562  YZZ=              8.7964
  YYZ=             -1.2130  XYZ=              3.6557
 Hexadecapole moment (field-independent basis, Debye-Ang**3):
 XXXX=          -3562.1664 YYYY=          -1609.8181 ZZZZ=           -255.0686 XXXY=             14.9551
 XXXZ=            -42.2034 YYYX=             -0.3417 YYYZ=              7.4241 ZZZX=             10.3678
 ZZZY=              3.5295 XXYY=           -836.5284 XXZZ=           -632.4126 YYZZ=           -333.7117
 XXYZ=             14.5527 YYXZ=             -4.4224 ZZXY=             23.7903
 N-N= 1.257793382072D+03 E-N=-7.775598316728D+03  KE= 2.205394481870D+03
 D1PCM: PCM CHGder 1st derivatives, ID1Alg=3 FixD1E=F DoIter=F DoCFld=F I1PDM=0.
 Calling FoFJK, ICntrl=      2127 FMM=F ISym2X=0 I1Cent= 0 IOpClX= 0 NMat=1 NMatS=1 NMatT=0.
 ***** Axes restored to original set *****
 -------------------------------------------------------------------
 Center     Atomic                   Forces (Hartrees/Bohr)
 Number     Number              X              Y              Z
 -------------------------------------------------------------------
      1        6          -0.000224797   -0.002281260   -0.000289989
      2        6          -0.000400186    0.000169988    0.000258712
      3       17          -0.000044690   -0.000016062   -0.000265405
      4        6          -0.000363336    0.000215535   -0.000086731
      5        1          -0.000013700    0.000004174    0.000076045
      6        6           0.000141259   -0.000035883    0.000114515
      7       17          -0.000083154   -0.000024190    0.000106258
      8        6          -0.000301304    0.000254733   -0.000457331
      9        1          -0.000130575   -0.000041391    0.000034464
     10        6           0.002674962   -0.001041656    0.001823925
     11       17          -0.000769508    0.000818470   -0.001130665
     12       16          -0.008448225   -0.007129000   -0.008792005
     13        8          -0.002298774   -0.012426237    0.006700142
     14        8          -0.009640841    0.016722110    0.001892232
     15        7           0.023628517    0.004050176   -0.001614907
     16        1          -0.003725646    0.000760491    0.001630740
 -------------------------------------------------------------------
 Cartesian Forces:  Max     0.023628517 RMS     0.005391118

 GradGradGradGradGradGradGradGradGradGradGradGradGradGradGradGradGradGrad
 Berny optimization.
 FormGI is forming the generalized inverse of G from B-inverse, IUseBI=4.
 Internal  Forces:  Max     0.019356341 RMS     0.004631522
 Search for a local minimum.
 Step number   1 out of a maximum of   84
 All quantities printed in internal units (Hartrees-Bohrs-Radians)
 Mixed Optimization -- RFO/linear search
 Second derivative matrix not updated -- first step.
 ITU=  0
     Eigenvalues ---    0.00230   0.01270   0.02045   0.02086   0.02112
     Eigenvalues ---    0.02171   0.02221   0.02249   0.02264   0.02287
     Eigenvalues ---    0.03205   0.10535   0.11869   0.16000   0.16000
     Eigenvalues ---    0.16000   0.16798   0.21505   0.22645   0.23495
     Eigenvalues ---    0.23500   0.24994   0.24995   0.24998   0.24999
     Eigenvalues ---    0.24999   0.25000   0.30629   0.30977   0.31512
     Eigenvalues ---    0.35456   0.35461   0.42032   0.42315   0.44155
     Eigenvalues ---    0.45338   0.46929   0.47000   0.48073   0.60833
     Eigenvalues ---    0.80765   0.85431
 RFO step:  Lambda=-9.01306729D-03 EMin= 2.30000000D-03
 Linear search not attempted -- first point.
 Iteration  1 RMS(Cart)=  0.04071686 RMS(Int)=  0.00189770
 Iteration  2 RMS(Cart)=  0.00178328 RMS(Int)=  0.00055551
 Iteration  3 RMS(Cart)=  0.00000257 RMS(Int)=  0.00055551
 Iteration  4 RMS(Cart)=  0.00000000 RMS(Int)=  0.00055551
 Variable       Old X    -DE/DX   Delta X   Delta X   Delta X     New X
                                 (Linear)    (Quad)   (Total)
    R1        2.65244   0.00050   0.00000   0.00115   0.00115   2.65359
    R2        2.65849   0.00118   0.00000   0.00270   0.00271   2.66120
    R3        3.49301  -0.00043   0.00000  -0.00181  -0.00181   3.49121
    R4        3.29757  -0.00006   0.00000  -0.00018  -0.00018   3.29739
    R5        2.63756  -0.00029   0.00000  -0.00065  -0.00066   2.63690
    R6        2.04941  -0.00003   0.00000  -0.00009  -0.00009   2.04932
    R7        2.61456  -0.00008   0.00000  -0.00024  -0.00025   2.61431
    R8        3.28746  -0.00011   0.00000  -0.00035  -0.00035   3.28711
    R9        2.62059   0.00004   0.00000   0.00003   0.00003   2.62061
   R10        2.04933  -0.00013   0.00000  -0.00035  -0.00035   2.04899
   R11        2.62474   0.00049   0.00000   0.00105   0.00106   2.62580
   R12        3.30426  -0.00136   0.00000  -0.00432  -0.00432   3.29994
   R13        2.81205  -0.00840   0.00000  -0.01028  -0.01028   2.80177
   R14        2.78813   0.01268   0.00000   0.01469   0.01469   2.80282
   R15        2.93987   0.00029   0.00000   0.00046   0.00046   2.94033
   R16        1.92970   0.00042   0.00000   0.00094   0.00094   1.93064
    A1        2.02093   0.00038   0.00000   0.00179   0.00179   2.02272
    A2        2.19519  -0.00095   0.00000  -0.00375  -0.00378   2.19141
    A3        2.06694   0.00057   0.00000   0.00215   0.00211   2.06905
    A4        2.16794   0.00042   0.00000   0.00160   0.00159   2.16954
    A5        2.13305   0.00008   0.00000   0.00031   0.00031   2.13336
    A6        1.98216  -0.00050   0.00000  -0.00192  -0.00193   1.98024
    A7        2.09398   0.00003   0.00000   0.00018   0.00018   2.09417
    A8        2.08049  -0.00016   0.00000  -0.00101  -0.00102   2.07948
    A9        2.10871   0.00014   0.00000   0.00083   0.00084   2.10954
   A10        2.08452  -0.00025   0.00000  -0.00080  -0.00080   2.08372
   A11        2.11464   0.00033   0.00000   0.00099   0.00098   2.11563
   A12        2.08399  -0.00008   0.00000  -0.00016  -0.00016   2.08383
   A13        2.11592  -0.00022   0.00000  -0.00092  -0.00093   2.11499
   A14        2.06464   0.00044   0.00000   0.00185   0.00186   2.06651
   A15        2.10262  -0.00022   0.00000  -0.00092  -0.00093   2.10169
   A16        2.15206  -0.00107   0.00000  -0.00382  -0.00384   2.14823
   A17        2.13134   0.00158   0.00000   0.00608   0.00603   2.13737
   A18        1.99964  -0.00051   0.00000  -0.00199  -0.00205   1.99759
   A19        1.77308   0.01214   0.00000   0.03020   0.02903   1.80211
   A20        1.85202  -0.00459   0.00000   0.00424   0.00215   1.85417
   A21        1.90322  -0.00319   0.00000  -0.00313  -0.00481   1.89840
   A22        1.97998  -0.00608   0.00000  -0.03916  -0.03776   1.94222
   A23        2.03151  -0.01775   0.00000  -0.11214  -0.11145   1.92005
   A24        1.90956   0.01936   0.00000   0.12160   0.12139   2.03095
   A25        1.90367  -0.00283   0.00000  -0.01673  -0.01673   1.88694
    D1        3.10151  -0.00001   0.00000   0.00114   0.00114   3.10264
    D2       -0.03191   0.00007   0.00000   0.00408   0.00407  -0.02784
    D3       -0.02278  -0.00031   0.00000  -0.01241  -0.01240  -0.03518
    D4        3.12699  -0.00023   0.00000  -0.00947  -0.00946   3.11753
    D5        0.03332  -0.00001   0.00000  -0.00174  -0.00175   0.03157
    D6       -3.08897  -0.00054   0.00000  -0.01954  -0.01958  -3.10855
    D7       -3.12424   0.00025   0.00000   0.01069   0.01073  -3.11351
    D8        0.03665  -0.00028   0.00000  -0.00710  -0.00711   0.02954
    D9       -2.16142  -0.00442   0.00000  -0.06605  -0.06621  -2.22763
   D10       -0.08770  -0.00762   0.00000  -0.09459  -0.09458  -0.18227
   D11        1.96750   0.01099   0.00000   0.04883   0.04898   2.01647
   D12        0.99789  -0.00472   0.00000  -0.07991  -0.08007   0.91782
   D13        3.07162  -0.00792   0.00000  -0.10845  -0.10844   2.96318
   D14       -1.15637   0.01069   0.00000   0.03497   0.03512  -1.12126
   D15       -3.13298  -0.00005   0.00000  -0.00212  -0.00212  -3.13510
   D16        0.00966  -0.00007   0.00000  -0.00298  -0.00297   0.00669
   D17        0.01599   0.00002   0.00000   0.00051   0.00051   0.01650
   D18       -3.12456  -0.00000   0.00000  -0.00034  -0.00034  -3.12489
   D19       -3.13667   0.00007   0.00000   0.00218   0.00218  -3.13449
   D20        0.01388  -0.00001   0.00000  -0.00081  -0.00081   0.01308
   D21        0.00598   0.00004   0.00000   0.00133   0.00132   0.00730
   D22       -3.12666  -0.00004   0.00000  -0.00167  -0.00166  -3.12832
   D23        3.12437   0.00016   0.00000   0.00567   0.00566   3.13003
   D24       -0.01280   0.00009   0.00000   0.00310   0.00309  -0.00972
   D25       -0.00826   0.00008   0.00000   0.00268   0.00268  -0.00559
   D26        3.13774   0.00001   0.00000   0.00011   0.00011   3.13785
   D27       -0.01190  -0.00007   0.00000  -0.00176  -0.00175  -0.01365
   D28        3.11172   0.00044   0.00000   0.01489   0.01486   3.12658
   D29        3.13407  -0.00014   0.00000  -0.00431  -0.00430   3.12977
   D30       -0.02549   0.00037   0.00000   0.01234   0.01232  -0.01318
   D31       -0.76272  -0.00262   0.00000  -0.09032  -0.09080  -0.85352
   D32       -2.75447  -0.00513   0.00000  -0.05909  -0.06122  -2.81569
   D33        1.25582   0.00080   0.00000  -0.01984  -0.01722   1.23860
         Item               Value     Threshold  Converged?
 Maximum Force            0.019356     0.000450     NO 
 RMS     Force            0.004632     0.000300     NO 
 Maximum Displacement     0.229988     0.001800     NO 
 RMS     Displacement     0.040661     0.001200     NO 
 Predicted change in Energy=-4.900695D-03
 GradGradGradGradGradGradGradGradGradGradGradGradGradGradGradGradGradGrad

                          Input orientation:                          
 ---------------------------------------------------------------------
 Center     Atomic      Atomic             Coordinates (Angstroms)
 Number     Number       Type             X           Y           Z
 ---------------------------------------------------------------------
      1          6           0       -1.439600    0.655516   -0.911740
      2          6           0       -2.573015    0.910664   -1.700470
      3         17           0       -4.198709    1.027395   -1.077423
      4          6           0       -2.494142    1.083746   -3.082833
      5          1           0       -3.392440    1.285274   -3.655973
      6          6           0       -1.261136    0.994329   -3.703792
      7         17           0       -1.154024    1.219592   -5.425279
      8          6           0       -0.110060    0.721487   -2.980114
      9          1           0        0.854457    0.641028   -3.468879
     10          6           0       -0.218699    0.549728   -1.605544
     11         17           0        1.288276    0.187728   -0.800949
     12         16           0       -1.432790    0.447663    0.923986
     13          8           0       -0.394692    1.407276    1.370860
     14          8           0       -2.779812    0.854992    1.392450
     15          7           0       -0.994296   -1.006557    1.261581
     16          1           0       -1.545007   -1.646118    0.685869
 ---------------------------------------------------------------------
                    Distance matrix (angstroms):
                    1          2          3          4          5
     1  C    0.000000
     2  C    1.404217   0.000000
     3  Cl   2.788983   1.744905   0.000000
     4  C    2.451344   1.395387   2.632564   0.000000
     5  H    3.426513   2.153086   2.713944   1.084454   0.000000
     6  C    2.818191   2.396106   3.940589   1.383434   2.151602
     7  Cl   4.557606   3.997896   5.311393   2.702115   2.853991
     8  C    2.459716   2.781982   4.520051   2.413634   3.398331
     9  H    3.435385   3.866204   5.603822   3.399727   4.299556
    10  C    1.408245   2.383713   4.043211   2.764995   3.849404
    11  Cl   2.769911   4.030055   5.557741   4.507386   5.591499
    12  S    1.847468   2.898664   3.462952   4.193527   5.051519
    13  O    2.620542   3.797998   4.539708   4.934344   5.854095
    14  O    2.673060   3.100326   2.853641   4.490222   5.103629
    15  N    2.772021   3.865467   4.458269   5.049043   5.931771
    16  H    2.803744   3.645346   4.159207   4.749329   5.554967
                    6          7          8          9         10
     6  C    0.000000
     7  Cl   1.739464   0.000000
     8  C    1.386769   2.704958   0.000000
     9  H    2.157716   2.862906   1.084277   0.000000
    10  C    2.384741   3.989226   1.389513   2.152212   0.000000
    11  Cl   3.946720   5.330478   2.643672   2.740717   1.746250
    12  S    4.663114   6.402090   4.131173   4.956425   2.807661
    13  O    5.164624   6.841003   4.413876   5.056737   3.102474
    14  O    5.319537   7.018372   5.124911   6.073402   3.954801
    15  N    5.360007   7.049492   4.664760   5.339445   3.353204
    16  H    5.130465   6.761013   4.593916   5.315111   3.439681
                   11         12         13         14         15
    11  Cl   0.000000
    12  S    3.232208   0.000000
    13  O    3.006066   1.482633   0.000000
    14  O    4.669644   1.483186   2.448322   0.000000
    15  N    3.300072   1.555957   2.489589   2.582742   0.000000
    16  H    3.687969   2.110263   3.334014   2.877420   1.021648
                   16
    16  H    0.000000
 Stoichiometry    C6H3Cl3NO2S(1-)
 Framework group  C1[X(C6H3Cl3NO2S)]
 Deg. of freedom    42
 Full point group                 C1      NOp   1
 Largest Abelian subgroup         C1      NOp   1
 Largest concise Abelian subgroup C1      NOp   1
                         Standard orientation:                         
 ---------------------------------------------------------------------
 Center     Atomic      Atomic             Coordinates (Angstroms)
 Number     Number       Type             X           Y           Z
 ---------------------------------------------------------------------
      1          6           0        0.399230    0.062194   -0.003967
      2          6           0       -0.397497    1.218381    0.012857
      3         17           0        0.231293    2.845421    0.058228
      4          6           0       -1.791718    1.161606    0.007379
      5          1           0       -2.371530    2.078014    0.014777
      6          6           0       -2.415713   -0.073022   -0.007283
      7         17           0       -4.153335   -0.151080   -0.024948
      8          6           0       -1.681553   -1.249498   -0.001071
      9          1           0       -2.171341   -2.216848   -0.001845
     10          6           0       -0.294761   -1.163113    0.008480
     11         17           0        0.525326   -2.704504    0.039494
     12         16           0        2.246171    0.030520   -0.034676
     13          8           0        2.551883   -0.852802   -1.185538
     14          8           0        2.680549    1.424449   -0.295677
     15          7           0        2.757812   -0.617178    1.284306
     16          1           0        2.276224   -0.168947    2.065924
 ---------------------------------------------------------------------
 Rotational constants (GHZ):           0.7028449           0.3839946           0.2615577
 Basis read from rwf:  (6D, 7F)
 There are   269 symmetry adapted cartesian basis functions of A   symmetry.
 There are   269 symmetry adapted basis functions of A   symmetry.
   269 basis functions,   524 primitive gaussians,   269 cartesian basis functions
    65 alpha electrons       65 beta electrons
       nuclear repulsion energy      1257.4208422783 Hartrees.
 NAtoms=   16 NActive=   16 NUniq=   16 SFac= 1.00D+00 NAtFMM=   60 NAOKFM=F Big=F
 Integral buffers will be    131072 words long.
 Raffenetti 2 integral format.
 Two-electron integral symmetry is turned on.
 ------------------------------------------------------------------------------
 Polarizable Continuum Model (PCM)
 =================================
 Model                : PCM.
 Atomic radii         : SMD-Coulomb.
 Polarization charges : Total charges.
 Charge compensation  : None.
 Solution method      : On-the-fly selection.
 Cavity type          : VdW (van der Waals Surface) (Alpha=1.000).
 Cavity algorithm     : GePol (No added spheres)
                        Default sphere list used, NSphG=   16.
                        Lebedev-Laikov grids with approx.  5.0 points / Ang**2.
                        Smoothing algorithm: York/Karplus (Gamma=1.0000).
                        Polarization charges: spherical gaussians, with
                                              point-specific exponents (IZeta= 3).
                        Self-potential: point-specific (ISelfS= 7).
                        Self-field    : sphere-specific E.n sum rule (ISelfD= 2).
 1st derivatives      : Analytical E(r).r(x)/FMM algorithm (CHGder, D1EAlg=3).
                        Cavity 1st derivative terms included.
 Solvent              : Water, Eps=  78.355300 Eps(inf)=   1.777849
 ------------------------------------------------------------------------------
 Spheres list:
 ISph  on   Nord     Re0    Alpha      Xe            Ye            Ze
    1   C      1    1.8500  1.000      0.399230      0.062194     -0.003967
    2   C      2    1.8500  1.000     -0.397497      1.218381      0.012857
    3  Cl      3    2.3800  1.000      0.231293      2.845421      0.058228
    4   C      4    1.8500  1.000     -1.791718      1.161606      0.007379
    5   H      5    1.2000  1.000     -2.371530      2.078014      0.014777
    6   C      6    1.8500  1.000     -2.415713     -0.073022     -0.007283
    7  Cl      7    2.3800  1.000     -4.153335     -0.151080     -0.024948
    8   C      8    1.8500  1.000     -1.681553     -1.249498     -0.001071
    9   H      9    1.2000  1.000     -2.171341     -2.216848     -0.001845
   10   C     10    1.8500  1.000     -0.294761     -1.163113      0.008480
   11  Cl     11    2.3800  1.000      0.525326     -2.704504      0.039494
   12   S     12    2.4900  1.000      2.246171      0.030520     -0.034676
   13   O     13    1.5200  1.000      2.551883     -0.852802     -1.185538
   14   O     14    1.5200  1.000      2.680549      1.424449     -0.295677
   15   N     15    1.8900  1.000      2.757812     -0.617178      1.284306
   16   H     16    1.2000  1.000      2.276224     -0.168947      2.065924
 ------------------------------------------------------------------------------
 ------------------------------------------------------------------------------
 Atomic radii for non-electrostatic terms: SMD-CDS.
 ------------------------------------------------------------------------------
 Nuclear repulsion after PCM non-electrostatic terms =     1257.4258587840 Hartrees.
 One-electron integrals computed using PRISM.
 NBasis=   269 RedAO= T EigKep=  1.25D-06  NBF=   269
 NBsUse=   268 1.00D-06 EigRej=  8.05D-07 NBFU=   268
 Initial guess from the checkpoint file:  "/jobfs/40643964.gadi-pbs/Gau-2412834.chk"
 B after Tr=    -0.000000    0.000000   -0.000000
         Rot=    0.999995    0.000591    0.000530   -0.003054 Ang=   0.36 deg.
 ExpMin= 4.05D-02 ExpMax= 2.52D+04 ExpMxC= 3.78D+03 IAcc=3 IRadAn=         5 AccDes= 0.00D+00
 Harris functional with IExCor= 1009 and IRadAn=       5 diagonalized for initial guess.
 HarFok:  IExCor= 1009 AccDes= 0.00D+00 IRadAn=         5 IDoV= 1 UseB2=F ITyADJ=14
 ICtDFT=  3500011 ScaDFX=  1.000000  1.000000  1.000000  1.000000
 FoFCou: FMM=F IPFlag=           0 FMFlag=      100000 FMFlg1=           0
         NFxFlg=           0 DoJE=T BraDBF=F KetDBF=T FulRan=T
         wScrn=  0.000000 ICntrl=       500 IOpCl=  0 I1Cent=   200000004 NGrid=           0
         NMat0=    1 NMatS0=      1 NMatT0=    0 NMatD0=    1 NMtDS0=    0 NMtDT0=    0
 Petite list used in FoFCou.
 Requested convergence on RMS density matrix=1.00D-08 within 128 cycles.
 Requested convergence on MAX density matrix=1.00D-06.
 Requested convergence on             energy=1.00D-06.
 No special actions if energy rises.
 Inv3:  Mode=1 IEnd=     9676848.
 Iteration    1 A*A^-1 deviation from unit magnitude is 4.66D-15 for   1773.
 Iteration    1 A*A^-1 deviation from orthogonality  is 2.19D-15 for   1771    640.
 Iteration    1 A^-1*A deviation from unit magnitude is 4.44D-15 for   1773.
 Iteration    1 A^-1*A deviation from orthogonality  is 1.47D-15 for   1753    114.
 Error on total polarization charges =  0.02754
 SCF Done:  E(RM062X) =  -2214.20325796     A.U. after   14 cycles
            NFock= 14  Conv=0.34D-08     -V/T= 2.0040
 SMD-CDS (non-electrostatic) energy       (kcal/mol) =       3.15
 (included in total energy above)
 D1PCM: PCM CHGder 1st derivatives, ID1Alg=3 FixD1E=F DoIter=F DoCFld=F I1PDM=0.
 Calling FoFJK, ICntrl=      2127 FMM=F ISym2X=0 I1Cent= 0 IOpClX= 0 NMat=1 NMatS=1 NMatT=0.
 ***** Axes restored to original set *****
 -------------------------------------------------------------------
 Center     Atomic                   Forces (Hartrees/Bohr)
 Number     Number              X              Y              Z
 -------------------------------------------------------------------
      1        6          -0.001288321   -0.000697431    0.000286035
      2        6          -0.000284235   -0.000387531   -0.000062086
      3       17           0.000389530   -0.000453165    0.000850535
      4        6          -0.000181164    0.000204346   -0.000001426
      5        1           0.000008190    0.000003215   -0.000000989
      6        6           0.000277584   -0.000046777   -0.000029165
      7       17          -0.000046135   -0.000062386    0.000029099
      8        6          -0.000755507    0.000093526   -0.000285523
      9        1          -0.000000107   -0.000074071    0.000021126
     10        6           0.001958619   -0.000092982    0.001998176
     11       17          -0.000255973   -0.000406434   -0.001594169
     12       16           0.004115438    0.001816863    0.001381145
     13        8           0.000747596    0.002785157    0.003325635
     14        8          -0.001419971   -0.001310512   -0.002962429
     15        7           0.000267081    0.001634453   -0.005428229
     16        1          -0.003532624   -0.003006271    0.002472265
 -------------------------------------------------------------------
 Cartesian Forces:  Max     0.005428229 RMS     0.001638407

 GradGradGradGradGradGradGradGradGradGradGradGradGradGradGradGradGradGrad
 Berny optimization.
 Using GEDIIS/GDIIS optimizer.
 FormGI is forming the generalized inverse of G from B-inverse, IUseBI=4.
 Internal  Forces:  Max     0.005323199 RMS     0.001562234
 Search for a local minimum.
 Step number   2 out of a maximum of   84
 All quantities printed in internal units (Hartrees-Bohrs-Radians)
 Mixed Optimization -- RFO/linear search
 Update second derivatives using D2CorX and points    1    2
 DE= -4.11D-03 DEPred=-4.90D-03 R= 8.39D-01
 TightC=F SS=  1.41D+00  RLast= 2.81D-01 DXNew= 5.0454D-01 8.4257D-01
 Trust test= 8.39D-01 RLast= 2.81D-01 DXMaxT set to 5.05D-01
 ITU=  1  0
 Use linear search instead of GDIIS.
     Eigenvalues ---    0.00232   0.01275   0.02045   0.02085   0.02120
     Eigenvalues ---    0.02171   0.02221   0.02249   0.02264   0.02287
     Eigenvalues ---    0.02923   0.11913   0.13671   0.16000   0.16000
     Eigenvalues ---    0.16374   0.17237   0.18549   0.22688   0.23500
     Eigenvalues ---    0.23564   0.24846   0.24996   0.24999   0.25000
     Eigenvalues ---    0.25000   0.26268   0.30621   0.30977   0.31512
     Eigenvalues ---    0.35456   0.35461   0.42023   0.42332   0.44225
     Eigenvalues ---    0.45345   0.46928   0.47001   0.48073   0.60836
     Eigenvalues ---    0.81401   0.85275
 RFO step:  Lambda=-1.44783324D-03 EMin= 2.32172963D-03
 Quartic linear search produced a step of -0.06139.
 Iteration  1 RMS(Cart)=  0.04759544 RMS(Int)=  0.00098463
 Iteration  2 RMS(Cart)=  0.00121218 RMS(Int)=  0.00007402
 Iteration  3 RMS(Cart)=  0.00000111 RMS(Int)=  0.00007402
 Iteration  4 RMS(Cart)=  0.00000000 RMS(Int)=  0.00007402
 Variable       Old X    -DE/DX   Delta X   Delta X   Delta X     New X
                                 (Linear)    (Quad)   (Total)
    R1        2.65359  -0.00077  -0.00007  -0.00138  -0.00144   2.65214
    R2        2.66120   0.00109  -0.00017   0.00288   0.00272   2.66392
    R3        3.49121  -0.00142   0.00011  -0.00620  -0.00609   3.48512
    R4        3.29739  -0.00009   0.00001  -0.00031  -0.00030   3.29709
    R5        2.63690  -0.00030   0.00004  -0.00080  -0.00076   2.63613
    R6        2.04932  -0.00001   0.00001  -0.00004  -0.00003   2.04929
    R7        2.61431  -0.00006   0.00002  -0.00020  -0.00019   2.61412
    R8        3.28711  -0.00004   0.00002  -0.00019  -0.00017   3.28694
    R9        2.62061   0.00003  -0.00000   0.00009   0.00008   2.62070
   R10        2.04899  -0.00000   0.00002  -0.00008  -0.00005   2.04893
   R11        2.62580   0.00053  -0.00007   0.00132   0.00125   2.62705
   R12        3.29994  -0.00087   0.00027  -0.00354  -0.00328   3.29666
   R13        2.80177   0.00331   0.00063   0.00166   0.00229   2.80406
   R14        2.80282   0.00001  -0.00090   0.00310   0.00220   2.80502
   R15        2.94033  -0.00027  -0.00003  -0.00031  -0.00034   2.93999
   R16        1.93064   0.00238  -0.00006   0.00520   0.00514   1.93578
    A1        2.02272   0.00057  -0.00011   0.00245   0.00232   2.02503
    A2        2.19141  -0.00422   0.00023  -0.01648  -0.01629   2.17512
    A3        2.06905   0.00365  -0.00013   0.01398   0.01380   2.08285
    A4        2.16954  -0.00192  -0.00010  -0.00671  -0.00682   2.16272
    A5        2.13336   0.00062  -0.00002   0.00214   0.00212   2.13548
    A6        1.98024   0.00130   0.00012   0.00448   0.00458   1.98482
    A7        2.09417   0.00029  -0.00001   0.00144   0.00142   2.09559
    A8        2.07948  -0.00053   0.00006  -0.00272  -0.00266   2.07681
    A9        2.10954   0.00024  -0.00005   0.00128   0.00122   2.11077
   A10        2.08372  -0.00007   0.00005  -0.00038  -0.00034   2.08338
   A11        2.11563   0.00010  -0.00006   0.00048   0.00041   2.11604
   A12        2.08383  -0.00004   0.00001  -0.00014  -0.00013   2.08369
   A13        2.11499  -0.00035   0.00006  -0.00161  -0.00156   2.11343
   A14        2.06651   0.00080  -0.00011   0.00383   0.00372   2.07022
   A15        2.10169  -0.00045   0.00006  -0.00222  -0.00217   2.09952
   A16        2.14823  -0.00156   0.00024  -0.00651  -0.00628   2.14195
   A17        2.13737   0.00282  -0.00037   0.01167   0.01127   2.14863
   A18        1.99759  -0.00126   0.00013  -0.00518  -0.00508   1.99251
   A19        1.80211   0.00398  -0.00178   0.03091   0.02928   1.83139
   A20        1.85417  -0.00324  -0.00013  -0.02304  -0.02310   1.83107
   A21        1.89840  -0.00247   0.00030  -0.01321  -0.01292   1.88549
   A22        1.94222   0.00001   0.00232  -0.00361  -0.00124   1.94098
   A23        1.92005   0.00210   0.00684  -0.00213   0.00469   1.92474
   A24        2.03095  -0.00019  -0.00745   0.01235   0.00460   2.03556
   A25        1.88694   0.00331   0.00103   0.01562   0.01665   1.90359
    D1        3.10264  -0.00044  -0.00007  -0.02088  -0.02090   3.08174
    D2       -0.02784  -0.00022  -0.00025  -0.01109  -0.01135  -0.03919
    D3       -0.03518  -0.00015   0.00076  -0.00458  -0.00390  -0.03907
    D4        3.11753   0.00007   0.00058   0.00521   0.00566   3.12319
    D5        0.03157   0.00018   0.00011   0.01031   0.01043   0.04200
    D6       -3.10855   0.00060   0.00120   0.02337   0.02468  -3.08387
    D7       -3.11351  -0.00011  -0.00066  -0.00486  -0.00569  -3.11920
    D8        0.02954   0.00032   0.00044   0.00821   0.00856   0.03811
    D9       -2.22763   0.00059   0.00406  -0.06466  -0.06052  -2.28815
   D10       -0.18227   0.00105   0.00581  -0.06440  -0.05879  -0.24106
   D11        2.01647  -0.00272  -0.00301  -0.07192  -0.07478   1.94169
   D12        0.91782   0.00089   0.00492  -0.04794  -0.04296   0.87486
   D13        2.96318   0.00135   0.00666  -0.04768  -0.04123   2.92195
   D14       -1.12126  -0.00242  -0.00216  -0.05520  -0.05723  -1.17848
   D15       -3.13510  -0.00005   0.00013  -0.00103  -0.00092  -3.13601
   D16        0.00669   0.00008   0.00018   0.00461   0.00475   0.01145
   D17        0.01650   0.00017  -0.00003   0.00785   0.00781   0.02431
   D18       -3.12489   0.00030   0.00002   0.01349   0.01348  -3.11141
   D19       -3.13449  -0.00010  -0.00013  -0.00427  -0.00438  -3.13887
   D20        0.01308   0.00008   0.00005   0.00327   0.00334   0.01641
   D21        0.00730   0.00002  -0.00008   0.00142   0.00134   0.00864
   D22       -3.12832   0.00020   0.00010   0.00897   0.00906  -3.11926
   D23        3.13003  -0.00020  -0.00035  -0.00836  -0.00869   3.12133
   D24       -0.00972  -0.00009  -0.00019  -0.00396  -0.00412  -0.01384
   D25       -0.00559  -0.00002  -0.00016  -0.00081  -0.00097  -0.00656
   D26        3.13785   0.00009  -0.00001   0.00359   0.00360   3.14146
   D27       -0.01365  -0.00003   0.00011  -0.00313  -0.00306  -0.01671
   D28        3.12658  -0.00042  -0.00091  -0.01522  -0.01613   3.11045
   D29        3.12977   0.00008   0.00026   0.00123   0.00148   3.13125
   D30       -0.01318  -0.00031  -0.00076  -0.01086  -0.01159  -0.02477
   D31       -0.85352   0.00093   0.00557  -0.06524  -0.05961  -0.91314
   D32       -2.81569  -0.00355   0.00376  -0.09366  -0.08975  -2.90545
   D33        1.23860  -0.00532   0.00106  -0.09709  -0.09623   1.14237
         Item               Value     Threshold  Converged?
 Maximum Force            0.005323     0.000450     NO 
 RMS     Force            0.001562     0.000300     NO 
 Maximum Displacement     0.233867     0.001800     NO 
 RMS     Displacement     0.047729     0.001200     NO 
 Predicted change in Energy=-7.884188D-04
 GradGradGradGradGradGradGradGradGradGradGradGradGradGradGradGradGradGrad

                          Input orientation:                          
 ---------------------------------------------------------------------
 Center     Atomic      Atomic             Coordinates (Angstroms)
 Number     Number       Type             X           Y           Z
 ---------------------------------------------------------------------
      1          6           0       -1.412807    0.666576   -0.910066
      2          6           0       -2.555927    0.893396   -1.692057
      3         17           0       -4.177279    0.956829   -1.050700
      4          6           0       -2.492211    1.066474   -3.074793
      5          1           0       -3.398861    1.244834   -3.642398
      6          6           0       -1.261503    0.999630   -3.702885
      7         17           0       -1.170242    1.218072   -5.426074
      8          6           0       -0.101364    0.745800   -2.986717
      9          1           0        0.859535    0.675458   -3.484030
     10          6           0       -0.192805    0.574002   -1.610231
     11         17           0        1.326736    0.212638   -0.833218
     12         16           0       -1.421239    0.457249    0.922242
     13          8           0       -0.359294    1.368423    1.416028
     14          8           0       -2.765577    0.916099    1.352951
     15          7           0       -1.054087   -1.020867    1.239756
     16          1           0       -1.668765   -1.640870    0.703939
 ---------------------------------------------------------------------
                    Distance matrix (angstroms):
                    1          2          3          4          5
     1  C    0.000000
     2  C    1.403452   0.000000
     3  Cl   2.783222   1.744747   0.000000
     4  C    2.451749   1.394982   2.635987   0.000000
     5  H    3.427014   2.153573   2.721356   1.084436   0.000000
     6  C    2.816675   2.393794   3.941785   1.383333   2.152227
     7  Cl   4.556019   3.996050   5.315488   2.701685   2.854638
     8  C    2.457364   2.778994   4.517275   2.413863   3.398887
     9  H    3.433498   3.863165   5.600870   3.399201   4.299209
    10  C    1.409684   2.386012   4.041740   2.770332   3.854674
    11  Cl   2.777960   4.034365   5.558354   4.509773   5.593584
    12  S    1.844246   2.883106   3.426052   4.182634   5.036588
    13  O    2.648243   3.835497   4.564117   4.980761   5.902704
    14  O    2.648300   3.052301   2.787848   4.438723   5.046050
    15  N    2.756425   3.809915   4.348769   5.004050   5.870842
    16  H    2.827514   3.598660   4.014902   4.720867   5.496469
                    6          7          8          9         10
     6  C    0.000000
     7  Cl   1.739374   0.000000
     8  C    1.386812   2.704811   0.000000
     9  H    2.156800   2.861111   1.084249   0.000000
    10  C    2.387986   3.991349   1.390176   2.151472   0.000000
    11  Cl   3.943771   5.323544   2.638426   2.731169   1.744516
    12  S    4.659560   6.398669   4.135854   4.966364   2.817109
    13  O    5.210879   6.891632   4.454026   5.096696   3.133220
    14  O    5.275481   6.970757   5.095071   6.049440   3.939117
    15  N    5.343700   7.032753   4.678874   5.371556   3.377549
    16  H    5.153465   6.782266   4.666249   5.412648   3.526967
                   11         12         13         14         15
    11  Cl   0.000000
    12  S    3.269991   0.000000
    13  O    3.039349   1.483843   0.000000
    14  O    4.692677   1.484351   2.449240   0.000000
    15  N    3.389258   1.555777   2.494497   2.587248   0.000000
    16  H    3.843354   2.123918   3.358218   2.856974   1.024369
                   16
    16  H    0.000000
 Stoichiometry    C6H3Cl3NO2S(1-)
 Framework group  C1[X(C6H3Cl3NO2S)]
 Deg. of freedom    42
 Full point group                 C1      NOp   1
 Largest Abelian subgroup         C1      NOp   1
 Largest concise Abelian subgroup C1      NOp   1
                         Standard orientation:                         
 ---------------------------------------------------------------------
 Center     Atomic      Atomic             Coordinates (Angstroms)
 Number     Number       Type             X           Y           Z
 ---------------------------------------------------------------------
      1          6           0        0.400500    0.045086   -0.020731
      2          6           0       -0.380002    1.211238    0.003449
      3         17           0        0.281606    2.824217    0.072133
      4          6           0       -1.774541    1.176415   -0.001597
      5          1           0       -2.341191    2.100920    0.012492
      6          6           0       -2.414573   -0.049845   -0.017623
      7         17           0       -4.153052   -0.104632   -0.028164
      8          6           0       -1.696375   -1.236170   -0.009203
      9          1           0       -2.200707   -2.195965   -0.002995
     10          6           0       -0.307629   -1.173672   -0.001013
     11         17           0        0.476895   -2.730688    0.058641
     12         16           0        2.244412    0.018541   -0.043653
     13          8           0        2.599712   -0.915783   -1.140280
     14          8           0        2.642398    1.409965   -0.373567
     15          7           0        2.734963   -0.541774    1.322309
     16          1           0        2.292750   -0.012197    2.079493
 ---------------------------------------------------------------------
 Rotational constants (GHZ):           0.7018475           0.3844718           0.2618458
 Basis read from rwf:  (6D, 7F)
 There are   269 symmetry adapted cartesian basis functions of A   symmetry.
 There are   269 symmetry adapted basis functions of A   symmetry.
   269 basis functions,   524 primitive gaussians,   269 cartesian basis functions
    65 alpha electrons       65 beta electrons
       nuclear repulsion energy      1257.4544998905 Hartrees.
 NAtoms=   16 NActive=   16 NUniq=   16 SFac= 1.00D+00 NAtFMM=   60 NAOKFM=F Big=F
 Integral buffers will be    131072 words long.
 Raffenetti 2 integral format.
 Two-electron integral symmetry is turned on.
 ------------------------------------------------------------------------------
 Polarizable Continuum Model (PCM)
 =================================
 Model                : PCM.
 Atomic radii         : SMD-Coulomb.
 Polarization charges : Total charges.
 Charge compensation  : None.
 Solution method      : On-the-fly selection.
 Cavity type          : VdW (van der Waals Surface) (Alpha=1.000).
 Cavity algorithm     : GePol (No added spheres)
                        Default sphere list used, NSphG=   16.
                        Lebedev-Laikov grids with approx.  5.0 points / Ang**2.
                        Smoothing algorithm: York/Karplus (Gamma=1.0000).
                        Polarization charges: spherical gaussians, with
                                              point-specific exponents (IZeta= 3).
                        Self-potential: point-specific (ISelfS= 7).
                        Self-field    : sphere-specific E.n sum rule (ISelfD= 2).
 1st derivatives      : Analytical E(r).r(x)/FMM algorithm (CHGder, D1EAlg=3).
                        Cavity 1st derivative terms included.
 Solvent              : Water, Eps=  78.355300 Eps(inf)=   1.777849
 ------------------------------------------------------------------------------
 Spheres list:
 ISph  on   Nord     Re0    Alpha      Xe            Ye            Ze
    1   C      1    1.8500  1.000      0.400500      0.045086     -0.020731
    2   C      2    1.8500  1.000     -0.380002      1.211238      0.003449
    3  Cl      3    2.3800  1.000      0.281606      2.824217      0.072133
    4   C      4    1.8500  1.000     -1.774541      1.176415     -0.001597
    5   H      5    1.2000  1.000     -2.341191      2.100920      0.012492
    6   C      6    1.8500  1.000     -2.414573     -0.049845     -0.017623
    7  Cl      7    2.3800  1.000     -4.153052     -0.104632     -0.028164
    8   C      8    1.8500  1.000     -1.696375     -1.236170     -0.009203
    9   H      9    1.2000  1.000     -2.200707     -2.195965     -0.002995
   10   C     10    1.8500  1.000     -0.307629     -1.173672     -0.001013
   11  Cl     11    2.3800  1.000      0.476895     -2.730688      0.058641
   12   S     12    2.4900  1.000      2.244412      0.018541     -0.043653
   13   O     13    1.5200  1.000      2.599712     -0.915783     -1.140280
   14   O     14    1.5200  1.000      2.642398      1.409965     -0.373567
   15   N     15    1.8900  1.000      2.734963     -0.541774      1.322309
   16   H     16    1.2000  1.000      2.292750     -0.012197      2.079493
 ------------------------------------------------------------------------------
 ------------------------------------------------------------------------------
 Atomic radii for non-electrostatic terms: SMD-CDS.
 ------------------------------------------------------------------------------
 Nuclear repulsion after PCM non-electrostatic terms =     1257.4595353686 Hartrees.
 One-electron integrals computed using PRISM.
 NBasis=   269 RedAO= T EigKep=  1.24D-06  NBF=   269
 NBsUse=   268 1.00D-06 EigRej=  8.49D-07 NBFU=   268
 Initial guess from the checkpoint file:  "/jobfs/40643964.gadi-pbs/Gau-2412834.chk"
 B after Tr=     0.000000   -0.000000    0.000000
         Rot=    0.999979    0.004395    0.000757    0.004739 Ang=   0.75 deg.
 ExpMin= 4.05D-02 ExpMax= 2.52D+04 ExpMxC= 3.78D+03 IAcc=3 IRadAn=         5 AccDes= 0.00D+00
 Harris functional with IExCor= 1009 and IRadAn=       5 diagonalized for initial guess.
 HarFok:  IExCor= 1009 AccDes= 0.00D+00 IRadAn=         5 IDoV= 1 UseB2=F ITyADJ=14
 ICtDFT=  3500011 ScaDFX=  1.000000  1.000000  1.000000  1.000000
 FoFCou: FMM=F IPFlag=           0 FMFlag=      100000 FMFlg1=           0
         NFxFlg=           0 DoJE=T BraDBF=F KetDBF=T FulRan=T
         wScrn=  0.000000 ICntrl=       500 IOpCl=  0 I1Cent=   200000004 NGrid=           0
         NMat0=    1 NMatS0=      1 NMatT0=    0 NMatD0=    1 NMtDS0=    0 NMtDT0=    0
 Petite list used in FoFCou.
 Requested convergence on RMS density matrix=1.00D-08 within 128 cycles.
 Requested convergence on MAX density matrix=1.00D-06.
 Requested convergence on             energy=1.00D-06.
 No special actions if energy rises.
 Inv3:  Mode=1 IEnd=     9752427.
 Iteration    1 A*A^-1 deviation from unit magnitude is 4.00D-15 for   1779.
 Iteration    1 A*A^-1 deviation from orthogonality  is 2.67D-15 for   1791    183.
 Iteration    1 A^-1*A deviation from unit magnitude is 3.77D-15 for   1779.
 Iteration    1 A^-1*A deviation from orthogonality  is 2.15D-15 for   1796   1709.
 Error on total polarization charges =  0.02740
 SCF Done:  E(RM062X) =  -2214.20425266     A.U. after   14 cycles
            NFock= 14  Conv=0.24D-08     -V/T= 2.0040
 SMD-CDS (non-electrostatic) energy       (kcal/mol) =       3.16
 (included in total energy above)
 D1PCM: PCM CHGder 1st derivatives, ID1Alg=3 FixD1E=F DoIter=F DoCFld=F I1PDM=0.
 Calling FoFJK, ICntrl=      2127 FMM=F ISym2X=0 I1Cent= 0 IOpClX= 0 NMat=1 NMatS=1 NMatT=0.
 ***** Axes restored to original set *****
 -------------------------------------------------------------------
 Center     Atomic                   Forces (Hartrees/Bohr)
 Number     Number              X              Y              Z
 -------------------------------------------------------------------
      1        6           0.002406052    0.000904925    0.000500306
      2        6          -0.000826080   -0.000255091    0.000320838
      3       17          -0.001078806   -0.000282212   -0.002070376
      4        6          -0.000197301   -0.000109586    0.000111963
      5        1          -0.000001274    0.000057299    0.000090484
      6        6           0.000267941   -0.000115150   -0.000028265
      7       17           0.000044478    0.000094205   -0.000061714
      8        6          -0.000473697    0.000050487   -0.000255519
      9        1          -0.000046892   -0.000022032   -0.000095672
     10        6          -0.000449303    0.000107276   -0.000070862
     11       17          -0.001129957   -0.000020273    0.001077094
     12       16           0.000216880    0.000172943    0.000935049
     13        8           0.000664116   -0.000424345   -0.000081484
     14        8           0.001536191   -0.001507619    0.000181852
     15        7           0.001309726    0.000700948   -0.003293323
     16        1          -0.002242075    0.000648226    0.002739628
 -------------------------------------------------------------------
 Cartesian Forces:  Max     0.003293323 RMS     0.001006480

 GradGradGradGradGradGradGradGradGradGradGradGradGradGradGradGradGradGrad
 Berny optimization.
 Using GEDIIS/GDIIS optimizer.
 FormGI is forming the generalized inverse of G from B-inverse, IUseBI=4.
 Internal  Forces:  Max     0.006235997 RMS     0.001539719
 Search for a local minimum.
 Step number   3 out of a maximum of   84
 All quantities printed in internal units (Hartrees-Bohrs-Radians)
 Mixed Optimization -- RFO/linear search
 Update second derivatives using D2CorX and points    1    2    3
 DE= -9.95D-04 DEPred=-7.88D-04 R= 1.26D+00
 TightC=F SS=  1.41D+00  RLast= 2.13D-01 DXNew= 8.4853D-01 6.3967D-01
 Trust test= 1.26D+00 RLast= 2.13D-01 DXMaxT set to 6.40D-01
 ITU=  1  1  0
 Use linear search instead of GDIIS.
     Eigenvalues ---    0.00134   0.01214   0.01500   0.02061   0.02134
     Eigenvalues ---    0.02169   0.02195   0.02224   0.02250   0.02268
     Eigenvalues ---    0.02291   0.11894   0.13442   0.15999   0.16000
     Eigenvalues ---    0.16232   0.17220   0.21384   0.22692   0.23506
     Eigenvalues ---    0.23551   0.24695   0.24994   0.24995   0.24998
     Eigenvalues ---    0.25001   0.30586   0.30974   0.31512   0.35456
     Eigenvalues ---    0.35461   0.40249   0.42067   0.43789   0.44843
     Eigenvalues ---    0.46924   0.46995   0.48066   0.59197   0.65048
     Eigenvalues ---    0.81975   0.87042
 RFO step:  Lambda=-1.96566982D-03 EMin= 1.33760263D-03
 Quartic linear search produced a step of  0.23952.
 Iteration  1 RMS(Cart)=  0.13645947 RMS(Int)=  0.01240945
 Iteration  2 RMS(Cart)=  0.01944869 RMS(Int)=  0.00020884
 Iteration  3 RMS(Cart)=  0.00026932 RMS(Int)=  0.00009880
 Iteration  4 RMS(Cart)=  0.00000009 RMS(Int)=  0.00009880
 Variable       Old X    -DE/DX   Delta X   Delta X   Delta X     New X
                                 (Linear)    (Quad)   (Total)
    R1        2.65214   0.00292  -0.00035   0.00518   0.00485   2.65699
    R2        2.66392  -0.00193   0.00065  -0.00070  -0.00005   2.66387
    R3        3.48512   0.00050  -0.00146  -0.00553  -0.00699   3.47813
    R4        3.29709   0.00023  -0.00007   0.00036   0.00029   3.29738
    R5        2.63613   0.00032  -0.00018  -0.00016  -0.00032   2.63582
    R6        2.04929  -0.00004  -0.00001  -0.00018  -0.00019   2.04910
    R7        2.61412   0.00010  -0.00005  -0.00007  -0.00011   2.61401
    R8        3.28694   0.00007  -0.00004  -0.00002  -0.00006   3.28688
    R9        2.62070  -0.00067   0.00002  -0.00149  -0.00149   2.61921
   R10        2.04893   0.00001  -0.00001  -0.00009  -0.00011   2.04883
   R11        2.62705  -0.00012   0.00030   0.00130   0.00157   2.62863
   R12        3.29666  -0.00050  -0.00078  -0.00635  -0.00714   3.28952
   R13        2.80406   0.00016   0.00055   0.00164   0.00218   2.80624
   R14        2.80502  -0.00178   0.00053   0.00267   0.00320   2.80822
   R15        2.93999  -0.00158  -0.00008  -0.00303  -0.00312   2.93688
   R16        1.93578  -0.00047   0.00123   0.00546   0.00670   1.94247
    A1        2.02503  -0.00053   0.00055   0.00109   0.00151   2.02654
[...]
     6         -4.18401792         -0.81658474          3.74670185
    17         -7.26717191         -0.40284329          2.63251150
     6         -3.97549618         -0.94173575          6.36014542
     1         -5.64578610         -0.83161491          7.54242078
     6         -1.58594318         -1.19941621          7.40475028
    17         -1.26273036         -1.37252883         10.67168805
     6          0.54658256         -1.30102825          5.89546293
     1          2.41253902         -1.47622268          6.72467997
     6          0.27573364         -1.17264371          3.27501602
    17          3.14137466         -1.27344642          1.64655121
    16         -2.67267205         -0.82349068         -1.33523666
     8         -0.19356456         -1.20839044         -2.55154499
     8         -4.44402452         -2.97681156         -1.70018842
     7         -3.69705762          1.84371488         -2.02763349
     1         -5.55105083          1.96225257         -1.50572541

 Electric dipole moment (dipole orientation):
 (Debye = 10**-18 statcoulomb cm , SI units = C m)
                  (au)            (Debye)         (10**-30 SI)
   Tot        0.592422D+01      0.150579D+02      0.502276D+02
   x          0.000000D+00      0.000000D+00      0.000000D+00
   y          0.000000D+00      0.000000D+00      0.000000D+00
   z          0.592422D+01      0.150579D+02      0.502276D+02

 Dipole polarizability, Alpha (dipole orientation).
 (esu units = cm**3 , SI units = C**2 m**2 J**-1)
 Alpha(0;0):
               (au)            (10**-24 esu)      (10**-40 SI)
   iso        0.200455D+03      0.297043D+02      0.330505D+02
   aniso      0.106788D+03      0.158243D+02      0.176069D+02
   xx         0.223110D+03      0.330615D+02      0.367859D+02
   yx        -0.101171D+02     -0.149920D+01     -0.166808D+01
   yy         0.132748D+03      0.196712D+02      0.218871D+02
   zx         0.513859D+01      0.761461D+00      0.847240D+00
   zy        -0.104317D+02     -0.154582D+01     -0.171996D+01
   zz         0.245507D+03      0.363804D+02      0.404786D+02

 ----------------------------------------------------------------------
 Unable to Open any file for archive entry.
 1\1\GINC-GADI-CPU-CLX-0387\Freq\RM062X\Gen\C6H3Cl3N1O2S1(1-)\YJ5695\19
 -May-2022\0\\#N Geom=AllCheck Guess=TCheck SCRF=Check GenChk RM062X/Ch
 kBas Freq\\a1 b2\\-1,1\C,-1.222474677,0.6145878307,-0.9287799129\C,-2.
 4162019072,0.6183376641,-1.6731739704\Cl,-3.9742187372,0.3316589495,-0
 .9329890976\C,-2.4582142864,0.8249399149,-3.0460292906\H,-3.4058353582
 ,0.8253952143,-3.5733522417\C,-1.2614180456,1.0236749609,-3.717815261\
 Cl,-1.2809874328,1.2908982231,-5.4367002878\C,-0.0516779123,1.00258001
 89,-3.0467401644\H,0.882014614,1.1447925032,-3.5797862878\C,-0.0420492
 785,0.7937153431,-1.6667674469\Cl,1.5602122547,0.7679783083,-0.9760332
 314\S,-1.3255916598,0.3540248373,0.8982842541\O,0.0502300382,0.4987986
 467,1.4110850689\O,-2.2296374829,1.4628195827,1.307733334\N,-1.8319972
 282,-1.090269758,1.1771876888\H,-2.8378419007,-1.1301902398,1.00562584
 68\\Version=ES64L-G16RevC.01\State=1-A\HF=-2214.2082575\RMSD=6.866e-10
 \RMSF=2.034e-05\ZeroPoint=0.0864012\Thermal=0.0984183\ETot=-2214.10983
 93\HTot=-2214.1088951\GTot=-2214.1612104\Dipole=-0.6513656,0.6001389,-
 5.8576397\DipoleDeriv=-0.809096,-0.0875372,0.0383512,-0.1083283,-0.379
 6318,0.1912763,-0.0238151,0.0508018,-0.6317019,1.2097727,0.1439365,-0.
 1926086,0.2169209,0.0562151,-0.0955755,-0.5104796,-0.0977953,0.3438404
 ,-0.8913908,-0.1103095,0.3262669,-0.1562522,-0.0835165,0.1142172,0.278
 8294,0.0974996,-0.2400591,-0.3140154,-0.0324409,0.1019962,-0.0533851,-
 0.1341192,0.0765616,0.2590601,0.0915466,-0.5520927,0.097909,-0.0064001
 ,-0.0141967,-0.0121574,0.1991623,0.0198476,-0.0175646,0.0151503,0.1004
 019,0.3726614,0.0212659,0.0157216,0.0284175,0.0532741,-0.2612799,0.017
 6683,-0.2566301,1.6237504,-0.1563908,-0.0030599,-0.0158071,-0.0070077,
 -0.1015341,0.1633595,-0.0062918,0.1747331,-1.1322391,-0.3521891,-0.005
 3991,-0.1016419,0.0339996,-0.1158486,0.0513657,-0.2803869,0.0568715,-0
 .565101,0.0974583,-0.0081378,0.0121476,-0.0052037,0.1977555,0.0214127,
 0.0199409,0.0202427,0.0929738,1.3498866,0.0642431,0.1472551,-0.0214871
 ,0.0259933,-0.0515363,0.5867324,0.0094685,0.3016197,-0.9550464,-0.0138
 831,-0.3260312,-0.0007148,-0.0770313,0.0045608,-0.2742918,0.0075497,-0
 .1268604,3.1199956,0.1078795,0.0268762,0.0416359,3.4703851,-0.1271176,
 0.0516193,-0.1847136,3.528072,-1.6675787,-0.1066476,-0.5508313,-0.0930
 838,-0.9285964,-0.019026,-0.3530269,0.0274583,-1.3698191,-1.2458092,0.
 4244437,0.3818613,0.4640369,-1.7044917,-0.5078464,0.213544,-0.189125,-
 1.3789006,-0.9854983,-0.4393504,0.2424032,-0.4280403,-1.806069,0.43747
 73,0.1340696,0.1821215,-1.4106919,0.1293312,0.0513968,-0.0917625,0.100
 6496,0.3280533,-0.017697,-0.0956074,-0.0051797,0.4168076\Polar=222.354
 7847,8.6301984,136.1287932,-1.7658051,-22.6908751,242.8810863\Quadrupo
 le=11.6776995,5.7453632,-17.4230627,3.1199654,-2.6269973,2.9876847\PG=
 C01 [X(C6H3Cl3N1O2S1)]\NImag=0\\0.60936080,0.03358258,0.15728387,-0.00
 880564,-0.04920016,0.51227293,-0.23196770,0.00074163,-0.11041489,0.509
 94690,-0.00778793,-0.06537348,0.00609226,0.02742640,0.13759414,-0.0587
 8508,0.00979391,-0.16910805,0.06054851,-0.06968782,0.61773008,-0.03323
 045,-0.00568178,0.01301424,-0.13285956,-0.01951278,0.04676627,0.195464
 04,-0.00279224,0.00189264,0.00035016,-0.01843314,-0.02696330,0.0101213
 9,0.03184276,0.02221294,-0.00306680,-0.00102934,0.00847876,0.04454882,
 0.01047854,-0.06213860,-0.06833464,-0.01772038,0.09405527,0.03558678,0
 .00566678,-0.02358736,-0.11020016,0.00553752,-0.06176777,-0.02184834,-
 0.00974559,0.04064920,0.76910152,0.01368627,0.00979169,0.00261522,-0.0
 0604908,-0.06767230,0.03778636,-0.00569197,0.00326574,0.00855176,0.047
 73804,0.14220528,-0.08044546,-0.00082867,-0.02339523,0.01588214,0.0434
 2262,-0.33881838,0.01758618,0.00666724,-0.02261914,0.04117147,-0.08423
 622,0.69451505,0.00087159,-0.00048066,0.00062552,0.00347764,-0.0005221
 2,0.00316923,0.00145160,0.00001591,0.00207607,-0.28666936,-0.00147956,
 -0.12934868,0.29920326,-0.00017214,0.00517642,0.00165577,0.00356443,0.
 00315547,0.00183973,0.00070027,-0.00254654,-0.00021173,-0.00200691,-0.
 03657200,0.00339716,0.00285852,0.02516172,0.00097645,0.00166170,-0.004
 72454,-0.02497318,0.00019119,-0.01174911,-0.00125307,-0.00062502,0.000
 44644,-0.12833391,0.00303146,-0.12585199,0.13383184,-0.00517639,0.1315
 5035,-0.08321538,-0.00550752,-0.00130061,0.04054092,-0.01193935,0.0982
 4048,0.00545781,0.00115222,-0.00486549,-0.30725994,-0.02875263,0.05256
 362,-0.01685774,-0.00358253,0.01535764,0.69406486,-0.00588957,-0.00455
 811,-0.00136865,-0.00094154,0.00368548,0.01294100,-0.00004393,0.005164
 14,0.00079441,-0.03931464,-0.06776910,0.01869669,0.00028342,0.00340872
 ,0.00026774,0.04077516,0.13614072,-0.00002562,-0.00131219,0.00373065,0
 .02380771,0.00749611,-0.02870771,-0.00100530,0.00093737,-0.00209995,0.
 12926799,0.02483755,-0.15756019,-0.01312398,-0.00228833,0.01037071,0.0
 0726097,-0.06337446,0.52669038,0.00191456,0.00019948,-0.00007281,-0.00
 340066,-0.00048753,-0.00149017,-0.00057740,-0.00019649,0.00088803,0.00
 367343,-0.00412264,0.02653319,0.00077359,0.00009167,0.00084429,-0.0392
 7923,-0.00082495,-0.00141060,0.03690759,0.00020815,-0.00074977,0.00050
 843,-0.00105891,0.00479041,-0.00001584,-0.00029029,-0.00020075,0.00028
 181,-0.00023994,0.00291298,0.00871689,0.00038340,-0.00223206,-0.000457
 20,-0.00083093,-0.02803533,0.02293306,0.00148634,0.01799955,-0.0001797
 4,0.00062816,-0.00420859,0.00248853,0.00032667,0.00399289,0.00159203,0
 .00049220,-0.00156273,0.00040705,0.00664983,-0.03814507,-0.00083648,-0
 .00058267,0.00124112,-0.00138401,0.02300559,-0.17163496,0.00257534,-0.
 03620925,0.24353124,0.03655720,-0.00196548,0.02465493,-0.02121890,0.00
 433641,-0.03638618,-0.00286293,-0.00075100,0.00217003,-0.05469421,-0.0
 0892521,0.02840803,-0.00233815,-0.00125649,0.00310029,-0.31629480,0.00
 350171,-0.13461886,0.00310970,0.00024927,-0.00156605,0.77345287,-0.009
 61595,0.00821449,0.00607678,0.00385869,-0.00323118,0.00634702,-0.00004
 591,-0.00115920,-0.00023132,-0.00096134,0.00995582,-0.00699818,-0.0011
 7274,0.00532746,0.00132595,-0.00744111,-0.06349565,0.00578709,0.004148
 61,0.00388745,0.00663385,0.04575437,0.14258977,0.08030964,0.01087561,-
 0.02173185,-0.03533087,0.00604528,-0.06277110,0.00013889,-0.00052991,0
 .00108562,-0.02598387,-0.01086985,0.07066692,0.00326377,0.00117356,-0.
 00151577,-0.05800423,0.01139415,-0.16013741,-0.02760674,0.00486797,-0.
 03830942,-0.02144512,-0.08688113,0.68345382,0.00084133,-0.00016528,-0.
 00076045,0.00025633,0.00024728,-0.00094645,0.00004670,-0.00000121,0.00
 009680,-0.00256070,-0.00002248,-0.00339972,-0.00056395,-0.00017822,0.0
 0068568,-0.01710543,-0.00337971,0.01335574,0.00063100,0.00003388,0.000
 76549,-0.28025737,-0.03559838,0.12857658,0.29351637,-0.00047383,0.0046
 8407,0.00141036,0.00038022,-0.00114279,0.00015867,0.00002900,-0.000202
 50,-0.00006176,0.00000051,0.00566716,0.00084849,0.00006792,0.00019589,
 -0.00006719,0.00071579,0.00364883,-0.00023334,0.00030725,-0.00277186,-
 0.00057527,-0.03516339,-0.04169152,0.02265567,0.03781047,0.03100853,-0
 .00093882,0.00145058,-0.00486288,-0.00073710,-0.00007746,-0.00087411,-
 0.00002720,-0.00006070,0.00016547,-0.00327694,0.00086003,-0.00143606,-
 0.00066309,-0.00016018,0.00068451,-0.01521801,-0.00197322,0.01028484,-
 0.00093409,-0.00072627,0.00113693,0.12744889,0.02223744,-0.12672371,-0
 .13217625,-0.02528676,0.13430201,-0.23638181,-0.02583687,0.11074346,-0
 .06033819,0.00011105,-0.03297773,-0.00031731,-0.00023907,-0.00040900,-
 0.01808602,-0.00604629,0.03390092,0.00026011,-0.00019669,0.00078386,0.
 03686643,0.00601345,-0.02474331,-0.00326388,-0.00017913,-0.00230929,-0
 .10801468,0.00055461,-0.02671065,0.00378096,-0.00346005,0.02430173,0.5
 2554160,-0.01808818,-0.06646629,0.02401340,-0.01082570,0.00904906,-0.0
 1305464,-0.00017844,0.00401050,0.00102336,-0.00646822,-0.00519962,0.01
 150032,-0.00003770,-0.00098566,0.00005642,0.01685537,0.00780797,0.0036
 0957,-0.00077345,0.00493075,-0.00007832,-0.01081969,-0.07153319,0.0371
 5962,0.00063493,0.00274085,0.00396824,0.03035877,0.14117078,0.06213585
 ,0.01993101,-0.17546228,0.03631417,-0.00782457,0.07545256,-0.00381444,
 0.00083152,-0.00247245,0.03512422,0.01159434,-0.06351831,0.00086220,0.
 00039909,-0.00087742,-0.09926427,-0.00192710,-0.02751281,0.00156997,0.
 00018259,0.00417478,0.05113910,0.04310439,-0.32270821,-0.00363108,0.00
 152644,-0.01213668,-0.04705998,-0.07242490,0.59252737,-0.03298966,-0.0
 0017323,-0.01197749,0.00053749,-0.00056629,0.00400283,-0.00231112,-0.0
 0034663,-0.00030863,-0.00310844,-0.00011029,-0.00063810,0.00006001,-0.
 00002115,0.00001400,0.00510938,-0.00000735,0.00097553,-0.00067876,0.00
 020716,-0.00172660,-0.02553831,0.00141616,-0.01899405,0.00111456,-0.00
 003494,0.00156024,-0.14337933,0.00143801,-0.05066420,0.20788167,-0.003
 03696,0.00311845,-0.00136401,-0.00029128,0.00389387,0.00132215,-0.0001
 1156,0.00009289,-0.00002963,0.00031670,-0.00068404,-0.00059694,0.00005
 023,-0.00032961,-0.00007240,-0.00098382,0.00450126,0.00108508,0.000115
 07,-0.00014493,0.00011940,0.00483807,0.00640527,0.00373766,0.00061792,
 -0.00252833,-0.00018697,0.00107062,-0.02495957,0.00261186,-0.00360569,
 0.01137540,0.00431553,-0.00043171,0.00886186,0.00014515,0.00101520,-0.
 00288472,0.00046959,0.00005460,0.00025755,-0.00214900,-0.00048519,0.00
 133514,-0.00008695,-0.00009223,0.00014666,0.00448947,0.00135562,-0.002
 03822,-0.00086047,0.00014048,-0.00143099,-0.04157610,0.00218560,-0.022
 42244,-0.00226447,-0.00041542,-0.00104343,-0.04689625,0.00315093,-0.06
 113487,0.07252031,-0.00698277,0.09540476,-0.06639255,-0.00379751,0.002
 66216,0.01198880,0.00484119,-0.02415589,-0.00412641,0.00038758,0.00078
 182,-0.00466238,0.00002638,-0.00320057,0.00020497,0.00018980,-0.001285
 96,-0.00250568,-0.00021339,0.00071748,0.00005249,0.00005515,-0.0003005
 1,-0.00303130,-0.00076895,0.00151663,0.00005246,-0.00014797,0.00073970
 ,0.00712385,-0.00245997,0.02089215,-0.00167835,0.00140479,-0.00346319,
 0.83991624,-0.00335553,-0.04885505,0.00431397,0.00549592,0.00101468,0.
 00015213,-0.00214486,-0.00422544,-0.00155685,-0.00134701,0.00376735,-0
 .00077023,0.00001224,0.00034978,-0.00031464,-0.00026641,-0.00043606,0.
 00101998,0.00004468,-0.00027377,-0.00075886,-0.00008140,0.00492719,-0.
 00023636,-0.00003821,0.00027715,-0.00015824,-0.00360630,-0.00035451,0.
 00312885,0.00181033,-0.00137032,-0.00041804,-0.02614384,0.69177878,0.0
 0202895,0.01357252,-0.11158271,-0.02842276,-0.00090263,-0.00994278,0.0
 0581090,0.00115221,-0.00672010,0.00282894,-0.00017519,0.00600307,0.000
 04608,-0.00020520,0.00160606,0.00047416,0.00100939,-0.00536363,0.00012
 029,-0.00099836,0.00606949,-0.00399859,-0.00070328,0.00494195,-0.00003
 961,-0.00024090,0.00182551,0.02952401,0.00185185,-0.00121338,-0.006777
 00,0.00007563,-0.00771096,0.05980833,0.03624360,0.41545459,-0.00835940
 ,-0.00368096,0.00010544,0.00321284,0.00076349,-0.00398995,-0.00049499,
 -0.00054471,-0.00094054,-0.00118861,0.00018610,-0.00036072,0.00015426,
 0.00012381,-0.00045631,-0.00006909,-0.00019269,0.00071212,0.00006510,0
 .00013415,-0.00092659,0.00157079,0.00021410,0.00005695,0.00010253,0.00
 007397,-0.00044130,-0.00727721,0.00031736,-0.00469212,-0.00385349,-0.0
 0042196,0.01330877,-0.42862867,-0.03580980,-0.13273154,0.50796128,0.00
 139480,0.00523148,0.00279220,-0.00081233,0.00108650,0.00025431,0.00025
 216,0.00069133,0.00015042,0.00018247,-0.00050201,0.00012102,0.00002258
 ,-0.00012344,0.00001816,0.00009565,0.00013540,-0.00009233,-0.00000347,
 0.00002076,0.00007164,0.00005915,-0.00058321,-0.00008124,0.00001641,0.
 00000298,0.00000074,-0.00014640,0.00000325,-0.00049728,0.00045016,0.00
 091120,0.00068740,-0.03603982,-0.07204082,-0.01273046,0.05016382,0.077
 72678,-0.03049833,-0.00430925,-0.00582930,0.00797731,0.00189988,-0.008
 47499,-0.00118353,-0.00039312,0.00100924,-0.00325546,0.00012766,-0.001
 23777,0.00015640,0.00016895,-0.00085084,-0.00021376,-0.00037663,0.0015
 6583,0.00000015,0.00023913,-0.00150912,0.00046971,0.00019985,-0.000621
 36,-0.00008095,0.00002619,-0.00018995,-0.00296542,-0.00044689,0.003032
 64,0.00877693,0.00055487,-0.00973274,-0.13794032,-0.01202740,-0.121642
 08,0.15277541,0.01506698,0.11830707,-0.00094603,0.01341711,0.00455557,
 -0.00646112,-0.00136462,0.00420609,-0.00191534,-0.00328728,-0.00834239
 ,0.00128713,-0.00068868,0.00058912,0.00001294,-0.00011162,0.00040931,0
 .00014665,0.00009380,-0.00080014,0.00005437,-0.00003495,0.00096309,-0.
 00050184,-0.00071450,0.00025919,0.00010427,-0.00008738,0.00031266,0.00
 302796,-0.00017347,0.00170356,-0.00089194,-0.00000537,0.00100554,-0.21
 169408,0.16692260,0.06229112,-0.03320088,0.03371849,0.00562157,0.23961
 898,0.00852824,-0.00069464,0.00204921,0.00202850,0.00075918,-0.0004916
 2,-0.00235025,-0.00142382,-0.00168940,-0.00045802,0.00019374,-0.000615
 52,0.00002706,0.00004243,-0.00018688,-0.00016515,-0.00022236,0.0006998
 4,-0.00004240,0.00010283,-0.00085265,0.00143948,0.00008777,-0.00028448
 ,-0.00012739,0.00009341,-0.00037489,-0.00316090,0.00014959,-0.00391536
 ,0.00070770,0.00004025,-0.00044137,0.16964757,-0.27510353,-0.07391708,
 0.00486206,0.00297322,-0.00401770,-0.20567581,0.30850557,0.02263899,-0
 .02124005,-0.01089021,0.00383156,0.00030827,-0.00022141,-0.00536351,-0
 .00392760,-0.00548827,-0.00059323,0.00060419,0.00007513,0.00003508,0.0
 0005409,-0.00025949,0.00109378,-0.00048773,0.00142446,-0.00008475,0.00
 023077,-0.00189876,0.00138995,0.00212935,-0.00171772,-0.00013096,0.000
 31078,-0.00064200,-0.00865460,-0.00153138,-0.00487941,0.00192730,-0.00
 068952,0.00109230,0.06784114,-0.08016833,-0.10014766,-0.01042605,0.004
 48642,0.01416020,-0.07392445,0.09386924,0.09587644,0.00703353,-0.00690
 280,0.00016374,-0.00368028,-0.00071024,0.00287082,0.00059769,0.0004912
 0,-0.00149285,0.00080484,0.00039020,0.00070625,-0.00005036,-0.00000427
 ,0.00030640,0.00029058,0.00006046,-0.00047393,0.00003355,-0.00013813,0
 .00057334,-0.00005418,0.00048095,0.00010324,0.00005060,-0.00003168,0.0
 0010428,0.00098268,0.00016303,-0.00016816,-0.00037636,0.00000920,0.000
 95436,-0.12000191,-0.10833835,0.01349960,-0.03157010,-0.04737365,0.000
 51921,0.01012065,0.02089045,0.00005343,0.55413411,-0.00755221,-0.00791
 647,-0.00019978,-0.00400495,-0.00022561,0.00136758,0.00244311,-0.00027
 404,0.00078328,0.00071590,0.00063031,0.00084667,-0.00003477,-0.0000328
 7,0.00029707,-0.00006008,0.00005477,-0.00119643,0.00004054,-0.00027414
 ,0.00129249,-0.00139750,0.00023298,0.00104977,0.00015114,0.00001172,0.
 00051409,0.00499613,-0.00040165,0.00357479,-0.00129374,-0.00032299,0.0
 0047364,-0.06435460,-0.27959929,0.04168594,-0.01099174,-0.01119381,0.0
 0188795,-0.00460491,-0.04159781,0.00414946,0.12728686,0.36291669,0.012
 74133,0.02002132,-0.00071334,0.00283230,0.00040016,-0.00006020,-0.0023
 9631,0.00154217,-0.00120523,-0.00016118,-0.00080318,-0.00002130,-0.000
 01866,0.00002384,-0.00013912,0.00091679,-0.00004304,0.00112703,-0.0000
 5880,0.00033437,-0.00160036,0.00102276,-0.00111294,-0.00178221,-0.0000
 6957,-0.00007517,-0.00052637,-0.00680612,0.00128908,-0.00351724,0.0014
 4771,0.00043110,0.00114725,0.00668678,0.04555783,-0.06728017,-0.010205
 42,-0.00996064,0.00611290,0.00017290,-0.01054876,0.01501122,0.05618217
 ,-0.05288128,0.07183825,0.00131719,0.00058450,0.00039420,0.00016567,-0
 .00037249,0.00069499,-0.00247399,0.00244768,-0.00345043,-0.00017552,-0
 .00013817,0.00005234,0.00000960,0.00000152,-0.00000734,0.00011068,0.00
 007977,0.00010421,-0.00001546,0.00001478,-0.00013561,0.00011610,-0.000
 10862,-0.00014938,-0.00000966,0.00001411,-0.00005470,-0.00052516,0.000
 05736,-0.00044698,0.00010267,0.00003405,0.00008771,-0.01661747,0.00684
 594,-0.00446288,0.00157563,-0.00198004,-0.00015892,0.00123829,0.003848
 85,0.00036630,-0.41831505,-0.04133917,-0.06228668,0.43349648,0.0013645
 0,-0.00077929,0.00025485,-0.00107886,-0.00042013,0.00116567,0.00078447
 ,-0.00033458,0.00046684,0.00038376,0.00000899,-0.00017134,0.00000628,0
 .00000428,0.00005002,-0.00006466,-0.00003068,0.00009144,0.00001730,0.0
 0003787,-0.00016283,0.00018169,0.00006575,-0.00007632,-0.00000116,0.00
 000641,-0.00002643,-0.00023293,0.00003773,-0.00029567,0.00012979,0.000
 00121,0.00020327,-0.04262642,-0.01985615,-0.00571803,-0.00519700,-0.00
 433962,0.00139953,0.00259656,0.00609416,0.00190203,0.01372675,-0.02200
 780,0.00582516,0.03000994,0.04151185,-0.00240124,0.00041657,-0.0008352
 2,0.00150259,0.00081631,-0.00142435,-0.00200010,0.00110789,-0.00119188
 ,-0.00034015,-0.00008878,0.00000812,0.00001164,0.00000455,-0.00007757,
 -0.00014652,0.00008624,-0.00013901,-0.00001283,-0.00002859,0.00015355,
 -0.00021278,-0.00010049,0.00029288,0.00001923,0.00001922,0.00003593,0.
 00027837,-0.00008666,0.00024572,-0.00013879,-0.00001552,0.00015285,0.0
 0870025,0.00599260,-0.00429719,-0.00178815,-0.00028732,0.00590027,0.00
 097723,0.00071742,-0.00149484,-0.07390192,-0.00364524,-0.01839112,0.06
 945317,-0.00490820,0.02106186\\-0.00000327,-0.00000141,0.00000410,0.00
 000519,0.00001380,-0.00000125,-0.00000640,0.00003789,0.00003690,-0.000
 01631,0.00002612,0.00002036,-0.00001939,0.00004243,0.00002219,-0.00000
 999,0.00000990,-0.00000260,-0.00003068,0.00001669,0.00000639,-0.000008
 91,-0.00000794,-0.00001188,-0.00001202,-0.00002590,-0.00002126,-0.0000
 0409,-0.00002150,-0.00002806,0.00000648,-0.00004652,-0.00002919,0.0000
 3928,-0.00001701,0.00000644,0.00001014,-0.00003793,-0.00000842,0.00003
 977,0.00000548,0.00000535,0.00000431,-0.00000493,-0.00000536,0.0000058
 8,0.00001084,0.00000629\\\@
 The archive entry for this job was punched.


 YOU WILL NEVER "FIND" TIME FOR ANYTHING.
 IF YOU WANT TIME, YOU MUST MAKE IT.

                        -- CHARLES BIXTON
 Job cpu time:       0 days  0 hours 57 minutes 30.9 seconds.
 Elapsed time:       0 days  0 hours  3 minutes 42.5 seconds.
 File lengths (MBytes):  RWF=    213 Int=      0 D2E=      0 Chk=     13 Scr=      1
 Normal termination of Gaussian 16 at Thu May 19 14:50:43 2022.
