 Entering Gaussian System, Link 0=g16
 AtFile(1): /home/561/yj5695/Basis/6-31pGd.gbs
 Initial command:
 /apps/gaussian/g16c01/g16/l1.exe "/jobfs/48967295.gadi-pbs/Gau-963580.inp" -scrdir="/jobfs/48967295.gadi-pbs/"
 Entering Link 1 = /apps/gaussian/g16c01/g16/l1.exe PID=    963583.
  
 Copyright (c) 1988-2019, Gaussian, Inc.  All Rights Reserved.
  
 This is part of the Gaussian(R) 16 program.  It is based on
 the Gaussian(R) 09 system (copyright 2009, Gaussian, Inc.),
 the Gaussian(R) 03 system (copyright 2003, Gaussian, Inc.),
 the Gaussian(R) 98 system (copyright 1998, Gaussian, Inc.),
 the Gaussian(R) 94 system (copyright 1995, Gaussian, Inc.),
 the Gaussian 92(TM) system (copyright 1992, Gaussian, Inc.),
 the Gaussian 90(TM) system (copyright 1990, Gaussian, Inc.),
 the Gaussian 88(TM) system (copyright 1988, Gaussian, Inc.),
 the Gaussian 86(TM) system (copyright 1986, Carnegie Mellon
 University), and the Gaussian 82(TM) system (copyright 1983,
 Carnegie Mellon University). Gaussian is a federally registered
 trademark of Gaussian, Inc.
  
 This software contains proprietary and confidential information,
 including trade secrets, belonging to Gaussian, Inc.
  
 This software is provided under written license and may be
 used, copied, transmitted, or stored only in accord with that
 written license.
  
 The following legend is applicable only to US Government
 contracts under FAR:
  
                    RESTRICTED RIGHTS LEGEND
  
 Use, reproduction and disclosure by the US Government is
 subject to restrictions as set forth in subparagraphs (a)
 and (c) of the Commercial Computer Software - Restricted
 Rights clause in FAR 52.227-19.
  
 Gaussian, Inc.
 340 Quinnipiac St., Bldg. 40, Wallingford CT 06492
  
  
 ---------------------------------------------------------------
 Warning -- This program may not be used in any manner that
 competes with the business of Gaussian, Inc. or will provide
 assistance to any competitor of Gaussian, Inc.  The licensee
 of this program is prohibited from giving any competitor of
 Gaussian, Inc. access to this program.  By using this program,
 the user acknowledges that Gaussian, Inc. is engaged in the
 business of creating and licensing software in the field of
 computational chemistry and represents and warrants to the
 licensee that it is not a competitor of Gaussian, Inc. and that
 it will not use this program in any manner prohibited above.
 ---------------------------------------------------------------
  

 Cite this work as:
 Gaussian 16, Revision C.01,
 M. J. Frisch, G. W. Trucks, H. B. Schlegel, G. E. Scuseria, 
 M. A. Robb, J. R. Cheeseman, G. Scalmani, V. Barone, 
 G. A. Petersson, H. Nakatsuji, X. Li, M. Caricato, A. V. Marenich, 
 J. Bloino, B. G. Janesko, R. Gomperts, B. Mennucci, H. P. Hratchian, 
 J. V. Ortiz, A. F. Izmaylov, J. L. Sonnenberg, D. Williams-Young, 
 F. Ding, F. Lipparini, F. Egidi, J. Goings, B. Peng, A. Petrone, 
 T. Henderson, D. Ranasinghe, V. G. Zakrzewski, J. Gao, N. Rega, 
 G. Zheng, W. Liang, M. Hada, M. Ehara, K. Toyota, R. Fukuda, 
 J. Hasegawa, M. Ishida, T. Nakajima, Y. Honda, O. Kitao, H. Nakai, 
 T. Vreven, K. Throssell, J. A. Montgomery, Jr., J. E. Peralta, 
 F. Ogliaro, M. J. Bearpark, J. J. Heyd, E. N. Brothers, K. N. Kudin, 
 V. N. Staroverov, T. A. Keith, R. Kobayashi, J. Normand, 
 K. Raghavachari, A. P. Rendell, J. C. Burant, S. S. Iyengar, 
 J. Tomasi, M. Cossi, J. M. Millam, M. Klene, C. Adamo, R. Cammi, 
 J. W. Ochterski, R. L. Martin, K. Morokuma, O. Farkas, 
 J. B. Foresman, and D. J. Fox, Gaussian, Inc., Wallingford CT, 2019.
 
 ******************************************
 Gaussian 16:  ES64L-G16RevC.01  3-Jul-2019
                30-Jun-2022 
 ******************************************
 %nproc=16
 Will use up to   16 processors via shared memory.
 %mem=50gb
 -----------------------------------------------------
 #m062X/gen 6D OPT Freq=noraman SCRF=(SMD,Solvent=h2o)
 -----------------------------------------------------
 1/18=20,19=15,26=3,38=1/1,3;
 2/9=110,12=2,17=6,18=5,40=1/2;
 3/5=7,8=2,11=2,25=1,30=1,70=32201,71=1,72=1,74=-55/1,2,3;
 4//1;
 5/5=2,38=5,53=1/2;
 6/7=2,8=2,9=2,10=2,28=1/1;
 7//1,2,3,16;
 1/18=20,19=15,26=3/3(2);
 2/9=110/2;
 99//99;
 2/9=110/2;
 3/5=7,6=1,8=2,11=2,25=1,30=1,70=32205,71=1,72=1,74=-55,82=7/1,2,3;
 4/5=5,16=3,69=1/1;
 5/5=2,38=5,53=1/2;
 7//1,2,3,16;
 1/18=20,19=15,26=3/3(-5);
 2/9=110/2;
 6/7=2,8=2,9=2,10=2,19=2,28=1/1;
 99/9=1/99;
 ---------------
 A.30.smd.a1.smd
 ---------------
 Symbolic Z-matrix:
 Charge = -1 Multiplicity = 1
 C                    -1.51605   0.6901   -0.83243 
 C                    -2.62824   0.85973  -1.68854 
 C                    -4.03382   1.0934   -1.17734 
 C                    -2.47852   0.86368  -3.06255 
 H                    -3.33769   1.00572  -3.7106 
 C                    -1.21725   0.68409  -3.66791 
 C                    -0.12307   0.5122   -2.80134 
 S                     1.50289   0.32336  -3.47272 
 C                    -0.27191   0.51704  -1.41575 
 H                     0.59996   0.39644  -0.77931 
 S                    -1.57963   0.61592   0.98612 
 O                    -0.15989   0.80104   1.38144 
 O                    -2.45973   1.76117   1.35133 
 N                    -2.05517  -0.78958   1.46409 
 H                    -3.0636   -0.85814   1.31675 
 N                    -1.08447   0.73829  -5.02712 
 C                     0.1171    0.22796  -5.65999 
 N                     1.31404   0.80755  -5.05027 
 O                     2.42112   1.26072  -2.82787 
 O                     1.86119  -1.09477  -3.48165 
 H                    -1.93947   0.69287  -5.57179 
 F                    -4.95506   0.84789  -2.12685 
 F                    -4.22923   2.36532  -0.78922 
 F                    -4.35225   0.30214  -0.13858 
 H                     0.19368  -0.86134  -5.57509 
 H                     0.10316   0.49932  -6.71319 
 H                     1.31832   1.83088  -5.10057 
 

 GradGradGradGradGradGradGradGradGradGradGradGradGradGradGradGradGradGrad
 Berny optimization.
 Initialization pass.
                           ----------------------------
                           !    Initial Parameters    !
                           ! (Angstroms and Degrees)  !
 --------------------------                            --------------------------
 ! Name  Definition              Value          Derivative Info.                !
 --------------------------------------------------------------------------------
 ! R1    R(1,2)                  1.4137         estimate D2E/DX2                !
 ! R2    R(1,9)                  1.385          estimate D2E/DX2                !
 ! R3    R(1,11)                 1.8212         estimate D2E/DX2                !
 ! R4    R(2,3)                  1.5138         estimate D2E/DX2                !
 ! R5    R(2,4)                  1.3821         estimate D2E/DX2                !
 ! R6    R(3,22)                 1.3456         estimate D2E/DX2                !
 ! R7    R(3,23)                 1.3441         estimate D2E/DX2                !
 ! R8    R(3,24)                 1.3441         estimate D2E/DX2                !
 ! R9    R(4,5)                  1.0855         estimate D2E/DX2                !
 ! R10   R(4,6)                  1.4105         estimate D2E/DX2                !
 ! R11   R(6,7)                  1.4063         estimate D2E/DX2                !
 ! R12   R(6,16)                 1.3668         estimate D2E/DX2                !
 ! R13   R(7,8)                  1.7692         estimate D2E/DX2                !
 ! R14   R(7,9)                  1.3936         estimate D2E/DX2                !
 ! R15   R(8,18)                 1.661          estimate D2E/DX2                !
 ! R16   R(8,19)                 1.4621         estimate D2E/DX2                !
 ! R17   R(8,20)                 1.4627         estimate D2E/DX2                !
 ! R18   R(9,10)                 1.0862         estimate D2E/DX2                !
 ! R19   R(11,12)                1.4853         estimate D2E/DX2                !
 ! R20   R(11,13)                1.4898         estimate D2E/DX2                !
 ! R21   R(11,14)                1.5589         estimate D2E/DX2                !
 ! R22   R(14,15)                1.0214         estimate D2E/DX2                !
 ! R23   R(16,17)                1.4508         estimate D2E/DX2                !
 ! R24   R(16,21)                1.0148         estimate D2E/DX2                !
 ! R25   R(17,18)                1.463          estimate D2E/DX2                !
 ! R26   R(17,25)                1.0953         estimate D2E/DX2                !
 ! R27   R(17,26)                1.0877         estimate D2E/DX2                !
 ! R28   R(18,27)                1.0246         estimate D2E/DX2                !
 ! A1    A(2,1,9)              117.817          estimate D2E/DX2                !
 ! A2    A(2,1,11)             125.5994         estimate D2E/DX2                !
 ! A3    A(9,1,11)             116.5419         estimate D2E/DX2                !
 ! A4    A(1,2,3)              122.9893         estimate D2E/DX2                !
 ! A5    A(1,2,4)              121.1394         estimate D2E/DX2                !
 ! A6    A(3,2,4)              115.8393         estimate D2E/DX2                !
 ! A7    A(2,3,22)             111.6689         estimate D2E/DX2                !
 ! A8    A(2,3,23)             112.2453         estimate D2E/DX2                !
 ! A9    A(2,3,24)             112.9603         estimate D2E/DX2                !
 ! A10   A(22,3,23)            106.0749         estimate D2E/DX2                !
 ! A11   A(22,3,24)            106.0067         estimate D2E/DX2                !
 ! A12   A(23,3,24)            107.4265         estimate D2E/DX2                !
 ! A13   A(2,4,5)              120.539          estimate D2E/DX2                !
 ! A14   A(2,4,6)              121.5441         estimate D2E/DX2                !
 ! A15   A(5,4,6)              117.9169         estimate D2E/DX2                !
 ! A16   A(4,6,7)              116.5408         estimate D2E/DX2                !
 ! A17   A(4,6,16)             120.5727         estimate D2E/DX2                !
 ! A18   A(7,6,16)             122.8238         estimate D2E/DX2                !
 ! A19   A(6,7,8)              119.621          estimate D2E/DX2                !
 ! A20   A(6,7,9)              121.9476         estimate D2E/DX2                !
 ! A21   A(8,7,9)              118.4135         estimate D2E/DX2                !
 ! A22   A(7,8,18)             102.992          estimate D2E/DX2                !
 ! A23   A(7,8,19)             109.961          estimate D2E/DX2                !
 ! A24   A(7,8,20)             109.3244         estimate D2E/DX2                !
 ! A25   A(18,8,19)            107.663          estimate D2E/DX2                !
 ! A26   A(18,8,20)            107.7385         estimate D2E/DX2                !
 ! A27   A(19,8,20)            118.0626         estimate D2E/DX2                !
 ! A28   A(1,9,7)              121.0077         estimate D2E/DX2                !
 ! A29   A(1,9,10)             119.2199         estimate D2E/DX2                !
 ! A30   A(7,9,10)             119.7676         estimate D2E/DX2                !
 ! A31   A(1,11,12)            103.1393         estimate D2E/DX2                !
 ! A32   A(1,11,13)            103.5387         estimate D2E/DX2                !
 ! A33   A(1,11,14)            110.7047         estimate D2E/DX2                !
 ! A34   A(12,11,13)           113.8036         estimate D2E/DX2                !
 ! A35   A(12,11,14)           108.8051         estimate D2E/DX2                !
 ! A36   A(13,11,14)           115.9587         estimate D2E/DX2                !
 ! A37   A(11,14,15)           108.5095         estimate D2E/DX2                !
 ! A38   A(6,16,17)            120.0224         estimate D2E/DX2                !
 ! A39   A(6,16,21)            116.7535         estimate D2E/DX2                !
 ! A40   A(17,16,21)           116.6116         estimate D2E/DX2                !
 ! A41   A(16,17,18)           110.8821         estimate D2E/DX2                !
 ! A42   A(16,17,25)           111.9586         estimate D2E/DX2                !
 ! A43   A(16,17,26)           108.907          estimate D2E/DX2                !
 ! A44   A(18,17,25)           107.7275         estimate D2E/DX2                !
 ! A45   A(18,17,26)           108.3723         estimate D2E/DX2                !
 ! A46   A(25,17,26)           108.91           estimate D2E/DX2                !
 ! A47   A(8,18,17)            111.9234         estimate D2E/DX2                !
 ! A48   A(8,18,27)            109.7133         estimate D2E/DX2                !
 ! A49   A(17,18,27)           112.2495         estimate D2E/DX2                !
 ! D1    D(9,1,2,3)           -178.3674         estimate D2E/DX2                !
 ! D2    D(9,1,2,4)             -0.5104         estimate D2E/DX2                !
 ! D3    D(11,1,2,3)             4.0703         estimate D2E/DX2                !
 ! D4    D(11,1,2,4)          -178.0727         estimate D2E/DX2                !
 ! D5    D(2,1,9,7)              0.0765         estimate D2E/DX2                !
 ! D6    D(2,1,9,10)           179.2815         estimate D2E/DX2                !
 ! D7    D(11,1,9,7)           177.861          estimate D2E/DX2                !
 ! D8    D(11,1,9,10)           -2.9341         estimate D2E/DX2                !
 ! D9    D(2,1,11,12)         -165.2847         estimate D2E/DX2                !
 ! D10   D(2,1,11,13)          -46.4355         estimate D2E/DX2                !
 ! D11   D(2,1,11,14)           78.4775         estimate D2E/DX2                !
 ! D12   D(9,1,11,12)           17.1253         estimate D2E/DX2                !
 ! D13   D(9,1,11,13)          135.9746         estimate D2E/DX2                !
 ! D14   D(9,1,11,14)          -99.1125         estimate D2E/DX2                !
 ! D15   D(1,2,3,22)          -162.3972         estimate D2E/DX2                !
 ! D16   D(1,2,3,23)            78.6284         estimate D2E/DX2                !
 ! D17   D(1,2,3,24)           -43.0188         estimate D2E/DX2                !
 ! D18   D(4,2,3,22)            19.6407         estimate D2E/DX2                !
 ! D19   D(4,2,3,23)           -99.3337         estimate D2E/DX2                !
 ! D20   D(4,2,3,24)           139.0191         estimate D2E/DX2                !
 ! D21   D(1,2,4,5)           -179.3182         estimate D2E/DX2                !
 ! D22   D(1,2,4,6)              0.7348         estimate D2E/DX2                !
 ! D23   D(3,2,4,5)             -1.3152         estimate D2E/DX2                !
 ! D24   D(3,2,4,6)            178.7377         estimate D2E/DX2                !
 ! D25   D(2,4,6,7)             -0.4913         estimate D2E/DX2                !
 ! D26   D(2,4,6,16)          -177.6908         estimate D2E/DX2                !
 ! D27   D(5,4,6,7)            179.5604         estimate D2E/DX2                !
 ! D28   D(5,4,6,16)             2.3608         estimate D2E/DX2                !
 ! D29   D(4,6,7,8)           -178.3806         estimate D2E/DX2                !
 ! D30   D(4,6,7,9)              0.0557         estimate D2E/DX2                !
 ! D31   D(16,6,7,8)            -1.2499         estimate D2E/DX2                !
 ! D32   D(16,6,7,9)           177.1864         estimate D2E/DX2                !
 ! D33   D(4,6,16,17)         -164.4341         estimate D2E/DX2                !
 ! D34   D(4,6,16,21)          -13.8952         estimate D2E/DX2                !
 ! D35   D(7,6,16,17)           18.5474         estimate D2E/DX2                !
 ! D36   D(7,6,16,21)          169.0863         estimate D2E/DX2                !
 ! D37   D(6,7,8,18)            14.3952         estimate D2E/DX2                !
 ! D38   D(6,7,8,19)           128.9201         estimate D2E/DX2                !
 ! D39   D(6,7,8,20)           -99.9513         estimate D2E/DX2                !
 ! D40   D(9,7,8,18)          -164.0963         estimate D2E/DX2                !
 ! D41   D(9,7,8,19)           -49.5713         estimate D2E/DX2                !
 ! D42   D(9,7,8,20)            81.5572         estimate D2E/DX2                !
 ! D43   D(6,7,9,1)              0.145          estimate D2E/DX2                !
 ! D44   D(6,7,9,10)          -179.0557         estimate D2E/DX2                !
 ! D45   D(8,7,9,1)            178.5994         estimate D2E/DX2                !
 ! D46   D(8,7,9,10)            -0.6013         estimate D2E/DX2                !
 ! D47   D(7,8,18,17)          -45.338          estimate D2E/DX2                !
 ! D48   D(7,8,18,27)           79.9564         estimate D2E/DX2                !
 ! D49   D(19,8,18,17)        -161.5154         estimate D2E/DX2                !
 ! D50   D(19,8,18,27)         -36.221          estimate D2E/DX2                !
 ! D51   D(20,8,18,17)          70.1527         estimate D2E/DX2                !
 ! D52   D(20,8,18,27)        -164.5529         estimate D2E/DX2                !
 ! D53   D(1,11,14,15)         -75.7013         estimate D2E/DX2                !
 ! D54   D(12,11,14,15)        171.6287         estimate D2E/DX2                !
 ! D55   D(13,11,14,15)         41.8379         estimate D2E/DX2                !
 ! D56   D(6,16,17,18)         -52.0388         estimate D2E/DX2                !
 ! D57   D(6,16,17,25)          68.3062         estimate D2E/DX2                !
 ! D58   D(6,16,17,26)        -171.1993         estimate D2E/DX2                !
 ! D59   D(21,16,17,18)        157.3821         estimate D2E/DX2                !
 ! D60   D(21,16,17,25)        -82.273          estimate D2E/DX2                !
 ! D61   D(21,16,17,26)         38.2216         estimate D2E/DX2                !
 ! D62   D(16,17,18,8)          66.1328         estimate D2E/DX2                !
 ! D63   D(16,17,18,27)        -57.751          estimate D2E/DX2                !
 ! D64   D(25,17,18,8)         -56.6961         estimate D2E/DX2                !
 ! D65   D(25,17,18,27)        179.4201         estimate D2E/DX2                !
 ! D66   D(26,17,18,8)        -174.3856         estimate D2E/DX2                !
 ! D67   D(26,17,18,27)         61.7306         estimate D2E/DX2                !
 --------------------------------------------------------------------------------
 Trust Radius=3.00D-01 FncErr=1.00D-07 GrdErr=1.00D-06 EigMax=2.50D+02 EigMin=1.00D-04
 Number of steps in this run=    154 maximum allowed number of steps=    162.
 GradGradGradGradGradGradGradGradGradGradGradGradGradGradGradGradGradGrad

                          Input orientation:                          
 ---------------------------------------------------------------------
 Center     Atomic      Atomic             Coordinates (Angstroms)
 Number     Number       Type             X           Y           Z
 ---------------------------------------------------------------------
      1          6           0       -1.516051    0.690098   -0.832428
      2          6           0       -2.628241    0.859732   -1.688543
      3          6           0       -4.033820    1.093403   -1.177339
      4          6           0       -2.478519    0.863680   -3.062548
      5          1           0       -3.337687    1.005717   -3.710600
      6          6           0       -1.217247    0.684090   -3.667908
      7          6           0       -0.123065    0.512199   -2.801341
      8         16           0        1.502892    0.323362   -3.472719
      9          6           0       -0.271907    0.517035   -1.415752
     10          1           0        0.599957    0.396443   -0.779307
     11         16           0       -1.579634    0.615922    0.986119
     12          8           0       -0.159892    0.801043    1.381441
     13          8           0       -2.459726    1.761170    1.351332
     14          7           0       -2.055172   -0.789581    1.464094
     15          1           0       -3.063601   -0.858144    1.316754
     16          7           0       -1.084471    0.738286   -5.027116
     17          6           0        0.117098    0.227955   -5.659993
     18          7           0        1.314044    0.807551   -5.050272
     19          8           0        2.421116    1.260722   -2.827874
     20          8           0        1.861189   -1.094772   -3.481655
     21          1           0       -1.939472    0.692869   -5.571786
     22          9           0       -4.955057    0.847892   -2.126847
     23          9           0       -4.229226    2.365315   -0.789218
     24          9           0       -4.352250    0.302138   -0.138578
     25          1           0        0.193682   -0.861335   -5.575085
     26          1           0        0.103163    0.499315   -6.713187
     27          1           0        1.318318    1.830876   -5.100573
 ---------------------------------------------------------------------
                    Distance matrix (angstroms):
                    1          2          3          4          5
     1  C    0.000000
     2  C    1.413745   0.000000
     3  C    2.573087   1.513798   0.000000
     4  C    2.435141   1.382144   2.454740   0.000000
     5  H    3.420796   2.147869   2.628631   1.085502   0.000000
     6  C    2.851187   2.437138   3.782004   1.410504   2.145118
     7  C    2.418404   2.763151   4.274247   2.395815   3.376997
     8  S    4.027362   4.531803   6.042922   4.038789   4.894221
     9  C    1.384959   2.396699   3.813270   2.775110   3.860589
    10  H    2.136948   3.385648   4.702773   3.861155   4.946588
    11  S    1.821169   2.883199   3.306292   4.154646   5.030095
    12  O    2.598594   3.939669   4.651897   5.012883   6.005760
    13  O    2.608932   3.175189   3.052517   4.504240   5.192753
    14  N    2.784621   3.603854   3.799716   4.837663   5.625424
    15  H    3.067727   3.488903   3.312153   4.741865   5.368742
    16  N    4.217107   3.680223   4.862669   2.412182   2.623303
    17  C    5.117239   4.869132   6.170357   3.726673   4.042349
    18  N    5.080693   5.181270   6.609158   4.282258   4.844852
    19  O    4.450697   5.191808   6.664718   4.921294   5.831642
    20  O    4.648647   5.214434   6.696948   4.779566   5.611843
    21  H    4.758236   3.947382   4.884453   2.572163   2.348807
    22  F    3.677932   2.367768   1.345555   2.647457   2.269156
    23  F    3.188971   2.374599   1.344091   3.238505   3.343325
    24  F    2.945499   2.384431   1.344069   3.517925   3.779379
    25  H    5.274744   5.102012   6.405696   4.053292   4.408260
    26  H    6.102588   5.730403   6.936367   4.486091   4.594717
    27  H    5.249008   5.306637   6.676901   4.416445   4.928620
                    6          7          8          9         10
     6  C    0.000000
     7  C    1.406314   0.000000
     8  S    2.750887   1.769221   0.000000
     9  C    2.448220   1.393569   2.723699   0.000000
    10  H    3.424761   2.150531   2.841672   1.086164   0.000000
    11  S    4.668612   4.059212   5.428517   2.736588   2.813453
    12  O    5.160194   4.192905   5.153242   2.813805   2.325920
    13  O    5.281726   4.925912   6.406333   3.740478   3.970360
    14  N    5.404745   4.860206   6.186322   3.630536   3.672766
    15  H    5.534832   5.242452   6.722192   4.141408   4.403308
    16  N    1.366753   2.435055   3.046762   3.708256   4.582361
    17  C    2.440684   2.882770   2.591080   4.271823   4.907406
    18  N    2.886799   2.685183   1.660956   3.976101   4.349721
    19  O    3.778339   2.652140   1.462055   3.130420   2.874061
    20  O    3.560310   2.642432   1.462724   3.378754   3.334234
    21  H    2.036280   3.317731   4.048764   4.481552   5.431797
    22  F    4.046347   4.890376   6.617523   4.748370   5.733921
    23  F    4.492815   4.933887   6.650408   4.412375   5.215128
    24  F    4.736064   5.002043   6.737925   4.280952   4.994375
    25  H    2.831322   3.111363   2.745447   4.406442   4.974591
    26  H    3.324357   3.918403   3.534237   5.310726   5.955528
    27  H    3.129974   3.017111   2.226337   4.222902   4.609445
                   11         12         13         14         15
    11  S    0.000000
    12  O    1.485334   0.000000
    13  O    1.489811   2.492386   0.000000
    14  N    1.558857   2.475682   2.585094   0.000000
    15  H    2.117628   3.344938   2.688246   1.021440   0.000000
    16  N    6.034828   6.475213   6.604712   6.738876   6.834488
    17  C    6.870242   7.070145   7.625579   7.517097   7.744124
    18  N    6.696873   6.598444   7.492080   7.505958   7.904261
    19  O    5.564918   4.958956   6.445062   6.531607   7.193723
    20  O    5.892940   5.597194   7.084100   6.315969   6.879991
    21  H    6.568221   7.178159   7.024350   7.191290   7.149915
    22  F    4.597592   5.941707   4.377040   4.897500   4.283288
    23  F    3.637655   4.870132   2.842196   4.444918   4.022995
    24  F    3.008455   4.487230   2.816071   3.006156   2.263816
    25  H    6.955310   7.161129   7.867233   7.390029   7.622818
    26  H    7.881923   8.104520   8.555533   8.554974   8.737908
    27  H    6.849968   6.727716   7.477002   7.832119   8.222781
                   16         17         18         19         20
    16  N    0.000000
    17  C    1.450772   0.000000
    18  N    2.399627   1.463001   0.000000
    19  O    4.171180   3.794207   2.523891   0.000000
    20  O    3.798087   3.088141   2.525621   2.507848   0.000000
    21  H    1.014768   2.110309   3.297043   5.183265   4.691410
    22  F    4.837872   6.212423   6.917345   7.420903   7.216000
    23  F    5.522362   6.869009   7.163173   7.042961   7.504304
    24  F    5.896305   7.103985   7.515788   7.350489   7.192659
    25  H    2.119607   1.095275   2.077455   4.124531   2.686545
    26  H    2.076154   1.087680   2.080031   4.587843   4.009310
    27  H    2.640557   2.079720   1.024569   2.589672   3.387480
                   21         22         23         24         25
    21  H    0.000000
    22  F    4.580981   0.000000
    23  F    5.559947   2.149106   0.000000
    24  F    5.957677   2.148124   2.166833   0.000000
    25  H    2.639300   6.428166   7.271720   7.181558   0.000000
    26  H    2.347896   6.836784   7.572645   7.944499   1.776186
    27  H    3.482858   7.011743   7.046180   7.688548   2.956005
                   26         27
    26  H    0.000000
    27  H    2.418715   0.000000
 Stoichiometry    C8H7F3N3O4S2(1-)
 Framework group  C1[X(C8H7F3N3O4S2)]
 Deg. of freedom    75
 Full point group                 C1      NOp   1
 Largest Abelian subgroup         C1      NOp   1
 Largest concise Abelian subgroup C1      NOp   1
                         Standard orientation:                         
 ---------------------------------------------------------------------
 Center     Atomic      Atomic             Coordinates (Angstroms)
 Number     Number       Type             X           Y           Z
 ---------------------------------------------------------------------
      1          6           0        0.929809   -0.458168   -0.013652
      2          6           0        1.088028    0.946642   -0.001377
      3          6           0        2.441215    1.624062   -0.040998
      4          6           0       -0.007543    1.789266    0.004176
      5          1           0        0.125213    2.866619    0.002482
      6          6           0       -1.325284    1.286279    0.013281
      7          6           0       -1.463784   -0.113177    0.005604
      8         16           0       -3.080164   -0.831768   -0.027347
      9          6           0       -0.359708   -0.963376   -0.009028
     10          1           0       -0.507769   -2.039194   -0.030120
     11         16           0        2.281759   -1.677667    0.027760
     12          8           0        1.609177   -2.941019   -0.369469
     13          8           0        3.245234   -1.164824   -0.986264
     14          7           0        2.835865   -1.837248    1.476047
     15          1           0        3.415325   -1.024519    1.692924
     16          7           0       -2.394331    2.136799   -0.028759
     17          6           0       -3.718680    1.655714    0.316779
     18          7           0       -4.050462    0.450513   -0.443340
     19          8           0       -3.165447   -1.819524   -1.101902
     20          8           0       -3.451022   -1.251269    1.323965
     21          1           0       -2.205385    3.117291    0.152043
     22          9           0        2.366216    2.907381    0.356479
     23          9           0        2.962206    1.647971   -1.279779
     24          9           0        3.344309    1.038830    0.764264
     25          1           0       -3.800960    1.411769    1.381367
     26          1           0       -4.447725    2.425578    0.074185
     27          1           0       -4.004146    0.604977   -1.455140
 ---------------------------------------------------------------------
 Rotational constants (GHZ):           0.4925907           0.2047748           0.1583623
 General basis read from cards:  (6D, 7F)
 There are   402 symmetry adapted cartesian basis functions of A   symmetry.
 There are   402 symmetry adapted basis functions of A   symmetry.
   402 basis functions,   716 primitive gaussians,   402 cartesian basis functions
    84 alpha electrons       84 beta electrons
       nuclear repulsion energy      2079.8220779961 Hartrees.
 NAtoms=   27 NActive=   27 NUniq=   27 SFac= 1.00D+00 NAtFMM=   60 NAOKFM=F Big=F
 Integral buffers will be    131072 words long.
 Raffenetti 2 integral format.
 Two-electron integral symmetry is turned on.
 ------------------------------------------------------------------------------
 Polarizable Continuum Model (PCM)
 =================================
 Model                : PCM.
 Atomic radii         : SMD-Coulomb.
 Polarization charges : Total charges.
 Charge compensation  : None.
 Solution method      : On-the-fly selection.
 Cavity type          : VdW (van der Waals Surface) (Alpha=1.000).
 Cavity algorithm     : GePol (No added spheres)
                        Default sphere list used, NSphG=   27.
                        Lebedev-Laikov grids with approx.  5.0 points / Ang**2.
                        Smoothing algorithm: York/Karplus (Gamma=1.0000).
                        Polarization charges: spherical gaussians, with
                                              point-specific exponents (IZeta= 3).
                        Self-potential: point-specific (ISelfS= 7).
                        Self-field    : sphere-specific E.n sum rule (ISelfD= 2).
 1st derivatives      : Analytical E(r).r(x)/FMM algorithm (CHGder, D1EAlg=3).
                        Cavity 1st derivative terms included.
 Solvent              : Water, Eps=  78.355300 Eps(inf)=   1.777849
 ------------------------------------------------------------------------------
 ------------------------------------------------------------------------------
 Atomic radii for non-electrostatic terms: SMD-CDS.
 ------------------------------------------------------------------------------
 Nuclear repulsion after PCM non-electrostatic terms =     2079.8270570007 Hartrees.
 One-electron integrals computed using PRISM.
 NBasis=   402 RedAO= T EigKep=  1.19D-06  NBF=   402
 NBsUse=   400 1.00D-06 EigRej=  5.82D-07 NBFU=   400
 ExpMin= 4.05D-02 ExpMax= 2.19D+04 ExpMxC= 3.30D+03 IAcc=3 IRadAn=         5 AccDes= 0.00D+00
 Harris functional with IExCor= 1009 and IRadAn=       5 diagonalized for initial guess.
 HarFok:  IExCor= 1009 AccDes= 0.00D+00 IRadAn=         5 IDoV= 1 UseB2=F ITyADJ=14
 ICtDFT=  3500011 ScaDFX=  1.000000  1.000000  1.000000  1.000000
 FoFCou: FMM=F IPFlag=           0 FMFlag=      100000 FMFlg1=           0
         NFxFlg=           0 DoJE=T BraDBF=F KetDBF=T FulRan=T
         wScrn=  0.000000 ICntrl=       500 IOpCl=  0 I1Cent=   200000004 NGrid=           0
         NMat0=    1 NMatS0=      1 NMatT0=    0 NMatD0=    1 NMtDS0=    0 NMtDT0=    0
 Petite list used in FoFCou.
 Requested convergence on RMS density matrix=1.00D-08 within 128 cycles.
 Requested convergence on MAX density matrix=1.00D-06.
 Requested convergence on             energy=1.00D-06.
 No special actions if energy rises.
 Inv3:  Mode=1 IEnd=    12929328.
 Iteration    1 A*A^-1 deviation from unit magnitude is 4.66D-15 for   2065.
 Iteration    1 A*A^-1 deviation from orthogonality  is 2.93D-15 for   2064    469.
 Iteration    1 A^-1*A deviation from unit magnitude is 4.44D-15 for   2065.
 Iteration    1 A^-1*A deviation from orthogonality  is 1.91D-15 for   1229    880.
 Error on total polarization charges =  0.04559
 SCF Done:  E(RM062X) =  -1869.74645305     A.U. after   16 cycles
            NFock= 16  Conv=0.61D-08     -V/T= 2.0061
 SMD-CDS (non-electrostatic) energy       (kcal/mol) =       3.12
 (included in total energy above)

 **********************************************************************

            Population analysis using the SCF Density.

 **********************************************************************

 Orbital symmetries:
       Occupied  (A) (A) (A) (A) (A) (A) (A) (A) (A) (A) (A) (A)
                 (A) (A) (A) (A) (A) (A) (A) (A) (A) (A) (A) (A)
                 (A) (A) (A) (A) (A) (A) (A) (A) (A) (A) (A) (A)
                 (A) (A) (A) (A) (A) (A) (A) (A) (A) (A) (A) (A)
                 (A) (A) (A) (A) (A) (A) (A) (A) (A) (A) (A) (A)
                 (A) (A) (A) (A) (A) (A) (A) (A) (A) (A) (A) (A)
                 (A) (A) (A) (A) (A) (A) (A) (A) (A) (A) (A) (A)
       Virtual   (A) (A) (A) (A) (A) (A) (A) (A) (A) (A) (A) (A)
                 (A) (A) (A) (A) (A) (A) (A) (A) (A) (A) (A) (A)
                 (A) (A) (A) (A) (A) (A) (A) (A) (A) (A) (A) (A)
                 (A) (A) (A) (A) (A) (A) (A) (A) (A) (A) (A) (A)
                 (A) (A) (A) (A) (A) (A) (A) (A) (A) (A) (A) (A)
                 (A) (A) (A) (A) (A) (A) (A) (A) (A) (A) (A) (A)
                 (A) (A) (A) (A) (A) (A) (A) (A) (A) (A) (A) (A)
                 (A) (A) (A) (A) (A) (A) (A) (A) (A) (A) (A) (A)
                 (A) (A) (A) (A) (A) (A) (A) (A) (A) (A) (A) (A)
                 (A) (A) (A) (A) (A) (A) (A) (A) (A) (A) (A) (A)
                 (A) (A) (A) (A) (A) (A) (A) (A) (A) (A) (A) (A)
                 (A) (A) (A) (A) (A) (A) (A) (A) (A) (A) (A) (A)
                 (A) (A) (A) (A) (A) (A) (A) (A) (A) (A) (A) (A)
                 (A) (A) (A) (A) (A) (A) (A) (A) (A) (A) (A) (A)
                 (A) (A) (A) (A) (A) (A) (A) (A) (A) (A) (A) (A)
                 (A) (A) (A) (A) (A) (A) (A) (A) (A) (A) (A) (A)
                 (A) (A) (A) (A) (A) (A) (A) (A) (A) (A) (A) (A)
                 (A) (A) (A) (A) (A) (A) (A) (A) (A) (A) (A) (A)
                 (A) (A) (A) (A) (A) (A) (A) (A) (A) (A) (A) (A)
                 (A) (A) (A) (A) (A) (A) (A) (A) (A) (A) (A) (A)
                 (A) (A) (A) (A) (A) (A) (A) (A) (A) (A) (A) (A)
                 (A) (A) (A) (A) (A) (A) (A) (A) (A) (A) (A) (A)
                 (A) (A) (A) (A) (A) (A) (A) (A) (A) (A) (A) (A)
                 (A) (A) (A) (A) (A) (A) (A) (A) (A) (A) (A) (A)
                 (A) (A) (A) (A) (A) (A) (A) (A) (A) (A) (A) (A)
                 (A) (A) (A) (A) (A) (A) (A) (A) (A) (A) (A) (A)
                 (A) (A) (A) (A)
 The electronic state is 1-A.
 Alpha  occ. eigenvalues --  -90.18473 -90.14095 -25.31122 -25.30981 -25.30673
 Alpha  occ. eigenvalues --  -19.66732 -19.66461 -19.62237 -19.62149 -14.81311
 Alpha  occ. eigenvalues --  -14.79865 -14.72017 -10.82413 -10.63796 -10.63258
 Alpha  occ. eigenvalues --  -10.61003 -10.60449 -10.59382 -10.59087 -10.58298
 Alpha  occ. eigenvalues --   -8.49502  -8.44900  -6.41707  -6.41672  -6.41561
 Alpha  occ. eigenvalues --   -6.37143  -6.37058  -6.36983  -1.47740  -1.38444
 Alpha  occ. eigenvalues --   -1.38098  -1.26583  -1.21248  -1.14861  -1.10485
 Alpha  occ. eigenvalues --   -1.09602  -1.03577  -0.99338  -0.96335  -0.92014
 Alpha  occ. eigenvalues --   -0.88005  -0.83654  -0.79854  -0.77517  -0.74115
 Alpha  occ. eigenvalues --   -0.71741  -0.70134  -0.69994  -0.68970  -0.66563
 Alpha  occ. eigenvalues --   -0.63793  -0.62360  -0.60651  -0.60155  -0.58304
 Alpha  occ. eigenvalues --   -0.57968  -0.56741  -0.56424  -0.55331  -0.54380
 Alpha  occ. eigenvalues --   -0.54085  -0.53503  -0.53417  -0.52413  -0.51950
 Alpha  occ. eigenvalues --   -0.51464  -0.51225  -0.48669  -0.47440  -0.45982
 Alpha  occ. eigenvalues --   -0.43459  -0.42980  -0.42190  -0.41176  -0.40559
 Alpha  occ. eigenvalues --   -0.40251  -0.39530  -0.37822  -0.37361  -0.35461
 Alpha  occ. eigenvalues --   -0.34348  -0.33336  -0.30993  -0.27349
 Alpha virt. eigenvalues --   -0.02915  -0.00187   0.01251   0.02547   0.02817
 Alpha virt. eigenvalues --    0.03252   0.04071   0.04310   0.04794   0.04859
 Alpha virt. eigenvalues --    0.05804   0.06493   0.06609   0.07250   0.07604
 Alpha virt. eigenvalues --    0.08347   0.08996   0.09201   0.09694   0.10085
 Alpha virt. eigenvalues --    0.10548   0.11280   0.11819   0.12510   0.12713
 Alpha virt. eigenvalues --    0.13087   0.13423   0.13688   0.13959   0.14568
 Alpha virt. eigenvalues --    0.15310   0.15689   0.16300   0.16672   0.16911
 Alpha virt. eigenvalues --    0.17996   0.18077   0.18821   0.18987   0.19585
 Alpha virt. eigenvalues --    0.19958   0.20479   0.20814   0.21263   0.21479
 Alpha virt. eigenvalues --    0.21711   0.22128   0.22248   0.23258   0.23559
 Alpha virt. eigenvalues --    0.23998   0.24509   0.24915   0.24958   0.25737
 Alpha virt. eigenvalues --    0.26055   0.26475   0.26652   0.27063   0.27562
 Alpha virt. eigenvalues --    0.27997   0.28322   0.28609   0.29129   0.29472
 Alpha virt. eigenvalues --    0.29927   0.30040   0.30505   0.30766   0.31206
 Alpha virt. eigenvalues --    0.31420   0.31886   0.32102   0.32221   0.32514
 Alpha virt. eigenvalues --    0.33342   0.34105   0.34240   0.34648   0.35192
 Alpha virt. eigenvalues --    0.35329   0.36415   0.36770   0.37152   0.38308
 Alpha virt. eigenvalues --    0.38883   0.38988   0.39235   0.39727   0.39981
 Alpha virt. eigenvalues --    0.40361   0.40865   0.42097   0.42956   0.43509
 Alpha virt. eigenvalues --    0.44267   0.45371   0.45732   0.46238   0.46689
 Alpha virt. eigenvalues --    0.47998   0.49226   0.50068   0.50582   0.53038
 Alpha virt. eigenvalues --    0.54651   0.55385   0.56105   0.57154   0.60411
 Alpha virt. eigenvalues --    0.63066   0.64497   0.65686   0.66821   0.67489
 Alpha virt. eigenvalues --    0.68576   0.71208   0.71736   0.72132   0.73424
 Alpha virt. eigenvalues --    0.73571   0.74542   0.75332   0.76195   0.78564
 Alpha virt. eigenvalues --    0.80915   0.82403   0.84219   0.84901   0.85668
 Alpha virt. eigenvalues --    0.87993   0.89903   0.90637   0.91574   0.93772
 Alpha virt. eigenvalues --    0.94467   0.96044   0.96752   0.97433   0.99122
 Alpha virt. eigenvalues --    1.00911   1.02855   1.03515   1.04764   1.05094
 Alpha virt. eigenvalues --    1.07007   1.07498   1.07974   1.10004   1.11087
 Alpha virt. eigenvalues --    1.11986   1.13842   1.14082   1.15070   1.15743
 Alpha virt. eigenvalues --    1.16493   1.17489   1.17783   1.19439   1.19666
 Alpha virt. eigenvalues --    1.20736   1.21512   1.23090   1.25652   1.25831
 Alpha virt. eigenvalues --    1.26780   1.28155   1.29444   1.31333   1.31477
 Alpha virt. eigenvalues --    1.33149   1.33413   1.34981   1.36463   1.37103
 Alpha virt. eigenvalues --    1.38225   1.39112   1.39814   1.40654   1.41348
 Alpha virt. eigenvalues --    1.42006   1.43226   1.44418   1.45657   1.46882
 Alpha virt. eigenvalues --    1.48703   1.49970   1.50515   1.51872   1.53108
 Alpha virt. eigenvalues --    1.54694   1.56669   1.57528   1.60479   1.63220
 Alpha virt. eigenvalues --    1.64633   1.66200   1.67358   1.68898   1.69960
 Alpha virt. eigenvalues --    1.71882   1.73041   1.74383   1.74828   1.75411
 Alpha virt. eigenvalues --    1.75725   1.76485   1.77057   1.77524   1.79235
 Alpha virt. eigenvalues --    1.80273   1.81566   1.82734   1.83138   1.83405
 Alpha virt. eigenvalues --    1.84152   1.84844   1.84957   1.86088   1.87647
 Alpha virt. eigenvalues --    1.88996   1.89903   1.90142   1.90923   1.91157
 Alpha virt. eigenvalues --    1.93042   1.93476   1.93974   1.96086   1.97056
 Alpha virt. eigenvalues --    1.97361   1.97949   1.99512   2.01600   2.03030
 Alpha virt. eigenvalues --    2.03202   2.04647   2.05911   2.08929   2.09230
 Alpha virt. eigenvalues --    2.09572   2.11048   2.12223   2.12810   2.13956
 Alpha virt. eigenvalues --    2.14663   2.15500   2.16931   2.17541   2.18585
 Alpha virt. eigenvalues --    2.20347   2.21254   2.22240   2.24637   2.25567
 Alpha virt. eigenvalues --    2.25885   2.27317   2.29963   2.30646   2.33775
 Alpha virt. eigenvalues --    2.34283   2.35359   2.36754   2.39748   2.41312
 Alpha virt. eigenvalues --    2.42684   2.46822   2.49516   2.51399   2.53323
 Alpha virt. eigenvalues --    2.55064   2.56843   2.60293   2.64418   2.65556
 Alpha virt. eigenvalues --    2.66941   2.69994   2.72741   2.76039   2.78303
 Alpha virt. eigenvalues --    2.79746   2.80941   2.84498   2.88157   2.90538
 Alpha virt. eigenvalues --    2.91318   2.94745   2.95650   3.00300   3.02577
 Alpha virt. eigenvalues --    3.05758   3.21280   3.21792   3.28261   3.30328
 Alpha virt. eigenvalues --    3.35863   4.00362   4.05092   4.08755   4.12982
 Alpha virt. eigenvalues --    4.20828   4.22631   4.27668   4.31770   4.35168
 Alpha virt. eigenvalues --    4.37523   4.39357   4.43551   4.44676   4.50193
 Alpha virt. eigenvalues --    4.55417   4.63129   4.78864   5.84985   6.10030
 Alpha virt. eigenvalues --    7.01964
          Condensed to atoms (all electrons):
               1          2          3          4          5          6
     1  C   56.492585 -11.567490  -0.811293  -4.286766   0.007748  -5.011114
     2  C  -11.567490  65.508542  -9.751518  -9.833938  -0.140701   2.284137
     3  C   -0.811293  -9.751518  15.563841   0.368590  -0.001680  -3.122621
     4  C   -4.286766  -9.833938   0.368590  26.867731   0.264969  -7.129037
     5  H    0.007748  -0.140701  -0.001680   0.264969   0.408958   0.114130
     6  C   -5.011114   2.284137  -3.122621  -7.129037   0.114130  37.551711
     7  C  -20.553834  -8.981294   1.740174  -3.832157   0.065144 -12.511205
     8  S   -2.126265  -0.280685  -0.104640   1.411633  -0.001713  -1.748463
     9  C   -3.835677 -22.880803   2.178475   3.700396  -0.010488  -5.492564
    10  H   -0.268056   0.000293   0.005469   0.006340   0.000010  -0.002033
    11  S    0.832748   1.339143  -1.644230   0.382708   0.001425   0.903601
    12  O   -0.247524  -0.216019   0.037906   0.025104   0.000030  -0.019557
    13  O   -0.380392   0.050561  -0.173896   0.100850   0.000041   0.139377
    14  N   -0.093548  -0.022668  -0.081625   0.077071   0.000056   0.020475
    15  H   -0.088369  -0.039262  -0.005141   0.012971   0.000000   0.000869
    16  N   -0.059440   0.385352   0.035931  -0.040423  -0.014581  -0.236995
    17  C    0.332046  -0.099041  -0.037512  -1.196236   0.005099  -0.113813
    18  N   -0.266456  -0.202215  -0.015326   0.364334   0.000230   0.639164
    19  O    0.185123  -0.006035  -0.010828  -0.063840   0.000007  -0.284806
    20  O   -0.263782   0.039743   0.002039   0.094646  -0.000002  -0.014362
    21  H    0.005209  -0.002593  -0.002516  -0.064737   0.004255  -0.026174
    22  F   -0.070086  -0.229427   0.003821   0.121761   0.005480   0.282320
    23  F   -0.124174   0.238737   0.121588  -0.090810  -0.000373  -0.048855
    24  F   -0.052139  -0.057482   0.007897   0.074783   0.000360   0.029084
    25  H    0.004185  -0.007187  -0.000398   0.003600  -0.000004  -0.064729
    26  H    0.003593  -0.004086  -0.000057   0.009154   0.000005   0.015064
    27  H    0.011175  -0.001226  -0.000245  -0.011495  -0.000001  -0.069985
               7          8          9         10         11         12
     1  C  -20.553834  -2.126265  -3.835677  -0.268056   0.832748  -0.247524
     2  C   -8.981294  -0.280685 -22.880803   0.000293   1.339143  -0.216019
     3  C    1.740174  -0.104640   2.178475   0.005469  -1.644230   0.037906
     4  C   -3.832157   1.411633   3.700396   0.006340   0.382708   0.025104
     5  H    0.065144  -0.001713  -0.010488   0.000010   0.001425   0.000030
     6  C  -12.511205  -1.748463  -5.492564  -0.002033   0.903601  -0.019557
     7  C   46.878267  -0.389398   5.333042   0.148925  -2.972455  -0.077942
     8  S   -0.389398  17.795619  -0.308619   0.025075  -0.178617   0.003961
     9  C    5.333042  -0.308619  28.492796   0.395942  -1.476466   0.216782
    10  H    0.148925   0.025075   0.395942   0.398392  -0.017309   0.000565
    11  S   -2.972455  -0.178617  -1.476466  -0.017309  16.407041   0.218141
    12  O   -0.077942   0.003961   0.216782   0.000565   0.218141   9.043235
    13  O   -0.103141  -0.003739   0.199906   0.000630   0.117334  -0.079122
    14  N   -0.051746  -0.003141  -0.054450  -0.000372   0.279878  -0.163030
    15  H   -0.000733  -0.000162   0.041680  -0.000016   0.089248   0.017442
    16  N   -0.101890  -0.021251   0.015948  -0.000476  -0.007300  -0.000021
    17  C    1.128031  -0.744911   0.150638  -0.000866   0.008973  -0.000210
    18  N   -0.268921  -0.145777  -0.244807   0.002224  -0.004581  -0.000236
    19  O   -0.051119   0.162728   0.221751   0.002577   0.004425  -0.000112
    20  O    0.172638   0.669461  -0.357918  -0.000278  -0.006804  -0.000201
    21  H    0.085450   0.005061  -0.004586   0.000002   0.000000   0.000000
    22  F    0.006772  -0.001466  -0.014927   0.000014   0.003263   0.000017
    23  F    0.041104   0.001411   0.010347   0.000001  -0.013479   0.000102
    24  F    0.019039   0.000088   0.027985   0.000012   0.072307   0.001816
    25  H    0.009190   0.026284   0.003593  -0.000002  -0.000129  -0.000000
    26  H    0.005507  -0.007062   0.000914   0.000000   0.000053   0.000000
    27  H   -0.019959   0.070002   0.026420  -0.000005  -0.000004  -0.000001
              13         14         15         16         17         18
     1  C   -0.380392  -0.093548  -0.088369  -0.059440   0.332046  -0.266456
     2  C    0.050561  -0.022668  -0.039262   0.385352  -0.099041  -0.202215
     3  C   -0.173896  -0.081625  -0.005141   0.035931  -0.037512  -0.015326
     4  C    0.100850   0.077071   0.012971  -0.040423  -1.196236   0.364334
     5  H    0.000041   0.000056   0.000000  -0.014581   0.005099   0.000230
     6  C    0.139377   0.020475   0.000869  -0.236995  -0.113813   0.639164
     7  C   -0.103141  -0.051746  -0.000733  -0.101890   1.128031  -0.268921
     8  S   -0.003739  -0.003141  -0.000162  -0.021251  -0.744911  -0.145777
     9  C    0.199906  -0.054450   0.041680   0.015948   0.150638  -0.244807
    10  H    0.000630  -0.000372  -0.000016  -0.000476  -0.000866   0.002224
    11  S    0.117334   0.279878   0.089248  -0.007300   0.008973  -0.004581
    12  O   -0.079122  -0.163030   0.017442  -0.000021  -0.000210  -0.000236
    13  O    9.003467  -0.135482  -0.007004  -0.000288   0.000508   0.000025
    14  N   -0.135482   7.985680   0.208452  -0.000598   0.000315   0.000124
    15  H   -0.007004   0.208452   0.349674  -0.000001   0.000003  -0.000000
    16  N   -0.000288  -0.000598  -0.000001   7.462673   0.314543  -0.433366
    17  C    0.000508   0.000315   0.000003   0.314543   6.088722  -0.280080
    18  N    0.000025   0.000124  -0.000000  -0.433366  -0.280080   8.780570
    19  O   -0.000030  -0.000174   0.000001   0.015821   0.093230  -0.156855
    20  O   -0.000035  -0.000025  -0.000001   0.028181  -0.123166  -0.055736
    21  H    0.000001   0.000002   0.000000   0.260238  -0.039414   0.019369
    22  F    0.000576  -0.001152   0.000071  -0.001058   0.001264  -0.000018
    23  F   -0.016306   0.001390   0.000005   0.000407  -0.000236   0.000012
    24  F   -0.018141  -0.002206   0.003439   0.000250  -0.000174   0.000005
    25  H   -0.000000   0.000003   0.000000  -0.055714   0.436539  -0.047626
    26  H    0.000000  -0.000000  -0.000000  -0.052197   0.373646  -0.013326
    27  H   -0.000000  -0.000000   0.000000   0.019449  -0.009183   0.193371
              19         20         21         22         23         24
     1  C    0.185123  -0.263782   0.005209  -0.070086  -0.124174  -0.052139
     2  C   -0.006035   0.039743  -0.002593  -0.229427   0.238737  -0.057482
     3  C   -0.010828   0.002039  -0.002516   0.003821   0.121588   0.007897
     4  C   -0.063840   0.094646  -0.064737   0.121761  -0.090810   0.074783
     5  H    0.000007  -0.000002   0.004255   0.005480  -0.000373   0.000360
     6  C   -0.284806  -0.014362  -0.026174   0.282320  -0.048855   0.029084
     7  C   -0.051119   0.172638   0.085450   0.006772   0.041104   0.019039
     8  S    0.162728   0.669461   0.005061  -0.001466   0.001411   0.000088
     9  C    0.221751  -0.357918  -0.004586  -0.014927   0.010347   0.027985
    10  H    0.002577  -0.000278   0.000002   0.000014   0.000001   0.000012
    11  S    0.004425  -0.006804   0.000000   0.003263  -0.013479   0.072307
    12  O   -0.000112  -0.000201   0.000000   0.000017   0.000102   0.001816
    13  O   -0.000030  -0.000035   0.000001   0.000576  -0.016306  -0.018141
    14  N   -0.000174  -0.000025   0.000002  -0.001152   0.001390  -0.002206
    15  H    0.000001  -0.000001   0.000000   0.000071   0.000005   0.003439
    16  N    0.015821   0.028181   0.260238  -0.001058   0.000407   0.000250
    17  C    0.093230  -0.123166  -0.039414   0.001264  -0.000236  -0.000174
    18  N   -0.156855  -0.055736   0.019369  -0.000018   0.000012   0.000005
    19  O    8.668187  -0.203329  -0.000000  -0.000003  -0.000006  -0.000007
    20  O   -0.203329   8.577664  -0.000003  -0.000008   0.000002   0.000000
    21  H   -0.000000  -0.000003   0.252060  -0.000033   0.000000   0.000001
    22  F   -0.000003  -0.000008  -0.000033   9.305572  -0.048777  -0.035335
    23  F   -0.000006   0.000002   0.000000  -0.048777   9.231174  -0.047904
    24  F   -0.000007   0.000000   0.000001  -0.035335  -0.047904   9.293338
    25  H    0.000963  -0.000697   0.000707   0.000001   0.000000  -0.000000
    26  H   -0.000706  -0.000155  -0.001306  -0.000000  -0.000000   0.000000
    27  H    0.004973   0.004268  -0.000230   0.000000   0.000000  -0.000000
              25         26         27
     1  C    0.004185   0.003593   0.011175
     2  C   -0.007187  -0.004086  -0.001226
     3  C   -0.000398  -0.000057  -0.000245
     4  C    0.003600   0.009154  -0.011495
     5  H   -0.000004   0.000005  -0.000001
     6  C   -0.064729   0.015064  -0.069985
     7  C    0.009190   0.005507  -0.019959
     8  S    0.026284  -0.007062   0.070002
     9  C    0.003593   0.000914   0.026420
    10  H   -0.000002   0.000000  -0.000005
    11  S   -0.000129   0.000053  -0.000004
    12  O   -0.000000   0.000000  -0.000001
    13  O   -0.000000   0.000000  -0.000000
    14  N    0.000003  -0.000000  -0.000000
    15  H    0.000000  -0.000000   0.000000
    16  N   -0.055714  -0.052197   0.019449
    17  C    0.436539   0.373646  -0.009183
    18  N   -0.047626  -0.013326   0.193371
    19  O    0.000963  -0.000706   0.004973
    20  O   -0.000697  -0.000155   0.004268
    21  H    0.000707  -0.001306  -0.000230
    22  F    0.000001  -0.000000   0.000000
    23  F    0.000000  -0.000000   0.000000
    24  F   -0.000000   0.000000  -0.000000
    25  H    0.424028  -0.023209   0.002492
    26  H   -0.023209   0.408398  -0.004289
    27  H    0.002492  -0.004289   0.241100
 Mulliken charges:
               1
     1  C   -1.768009
     2  C    0.477161
     3  C    1.697794
     4  C   -1.337202
     5  H    0.291597
     6  C   -0.083618
     7  C    0.282511
     8  S    1.894589
     9  C   -0.335308
    10  H    0.302944
    11  S    1.661084
    12  O   -0.761127
    13  O   -0.695700
    14  N   -0.963227
    15  H    0.416836
    16  N   -0.513194
    17  C   -0.288716
    18  N   -0.864100
    19  O   -0.581935
    20  O   -0.562140
    21  H    0.509234
    22  F   -0.328641
    23  F   -0.255359
    24  F   -0.317015
    25  H    0.288111
    26  H    0.290058
    27  H    0.543373
 Sum of Mulliken charges =  -1.00000
 Mulliken charges with hydrogens summed into heavy atoms:
               1
     1  C   -1.768009
     2  C    0.477161
     3  C    1.697794
     4  C   -1.045605
     6  C   -0.083618
     7  C    0.282511
     8  S    1.894589
     9  C   -0.032364
    11  S    1.661084
    12  O   -0.761127
    13  O   -0.695700
    14  N   -0.546392
    16  N   -0.003960
    17  C    0.289453
    18  N   -0.320727
    19  O   -0.581935
    20  O   -0.562140
    22  F   -0.328641
    23  F   -0.255359
    24  F   -0.317015
 Electronic spatial extent (au):  <R**2>=           6440.2502
 Charge=             -1.0000 electrons
 Dipole moment (field-independent basis, Debye):
    X=            -13.9189    Y=             21.3063    Z=             -0.0466  Tot=             25.4499
 Quadrupole moment (field-independent basis, Debye-Ang):
   XX=           -177.0433   YY=           -153.8878   ZZ=           -144.4693
   XY=             -7.4667   XZ=              8.7564   YZ=              3.3062
 Traceless Quadrupole moment (field-independent basis, Debye-Ang):
   XX=            -18.5765   YY=              4.5790   ZZ=             13.9975
   XY=             -7.4667   XZ=              8.7564   YZ=              3.3062
 Octapole moment (field-independent basis, Debye-Ang**2):
  XXX=            -78.3099  YYY=            182.7640  ZZZ=            -17.5224  XYY=            -84.8297
  XXY=            184.4979  XXZ=             -5.0629  XZZ=             -8.0224  YZZ=             41.0243
  YYZ=             -0.7468  XYZ=              6.2763
 Hexadecapole moment (field-independent basis, Debye-Ang**3):
 XXXX=          -5916.1119 YYYY=          -2240.7775 ZZZZ=           -501.4440 XXXY=           -133.8012
 XXXZ=            161.6345 YYYX=             89.0627 YYYZ=             25.6022 ZZZX=              9.0139
 ZZZY=             34.9321 XXYY=          -1403.4324 XXZZ=          -1065.5828 YYZZ=           -500.5213
 XXYZ=             30.6398 YYXZ=            -59.4530 ZZXY=             36.5251
 N-N= 2.079827057001D+03 E-N=-8.589639699628D+03  KE= 1.858333346176D+03
 D1PCM: PCM CHGder 1st derivatives, ID1Alg=3 FixD1E=F DoIter=F DoCFld=F I1PDM=0.
 Calling FoFJK, ICntrl=      2127 FMM=F ISym2X=0 I1Cent= 0 IOpClX= 0 NMat=1 NMatS=1 NMatT=0.
 ***** Axes restored to original set *****
 -------------------------------------------------------------------
 Center     Atomic                   Forces (Hartrees/Bohr)
 Number     Number              X              Y              Z
 -------------------------------------------------------------------
      1        6          -0.000005291    0.000000582    0.000001075
      2        6          -0.000001390    0.000001619   -0.000004644
      3        6          -0.000002774    0.000007408   -0.000007114
      4        6           0.000001010    0.000003096   -0.000001569
      5        1           0.000003280    0.000005531   -0.000003953
      6        6           0.000003155   -0.000001100   -0.000004580
      7        6           0.000001997   -0.000002524    0.000003787
      8       16           0.000004485   -0.000002841    0.000001579
      9        6          -0.000001551   -0.000002572    0.000002014
     10        1          -0.000004110   -0.000005143    0.000003621
     11       16          -0.000008702   -0.000004395   -0.000002314
     12        8          -0.000007584   -0.000004990    0.000004335
     13        8          -0.000004732   -0.000000839   -0.000001046
     14        7          -0.000009249    0.000002164   -0.000004887
     15        1          -0.000011228    0.000001254   -0.000005228
     16        7           0.000001851    0.000006020    0.000001233
     17        6           0.000011627    0.000000932    0.000003184
     18        7           0.000001774   -0.000003151    0.000008298
     19        8           0.000001344   -0.000007638    0.000008513
     20        8          -0.000001179   -0.000004967    0.000006333
     21        1           0.000007980    0.000001901   -0.000000583
     22        9           0.000001329    0.000006707   -0.000008815
     23        9           0.000002182    0.000004278   -0.000004241
     24        9          -0.000003593    0.000002515   -0.000004842
     25        1           0.000003235    0.000000096    0.000001231
     26        1           0.000007493    0.000000330    0.000002620
     27        1           0.000008640   -0.000004274    0.000005994
 -------------------------------------------------------------------
 Cartesian Forces:  Max     0.000011627 RMS     0.000004764

 GradGradGradGradGradGradGradGradGradGradGradGradGradGradGradGradGradGrad
 Berny optimization.
 FormGI is forming the generalized inverse of G from B-inverse, IUseBI=4.
 Internal  Forces:  Max     0.000004467 RMS     0.000001245
 Search for a local minimum.
 Step number   1 out of a maximum of  154
 All quantities printed in internal units (Hartrees-Bohrs-Radians)
 Mixed Optimization -- En-DIIS/RFO-DIIS
 Second derivative matrix not updated -- first step.
 ITU=  0
     Eigenvalues ---    0.00230   0.00583   0.01270   0.01328   0.01415
     Eigenvalues ---    0.01518   0.01656   0.01703   0.01959   0.02036
     Eigenvalues ---    0.02091   0.02161   0.02192   0.02233   0.03163
     Eigenvalues ---    0.03539   0.05441   0.07078   0.07591   0.09743
     Eigenvalues ---    0.09780   0.10111   0.10370   0.10715   0.11288
     Eigenvalues ---    0.11563   0.11960   0.13159   0.13876   0.14621
     Eigenvalues ---    0.15999   0.16000   0.16000   0.17158   0.19717
     Eigenvalues ---    0.20471   0.21714   0.23107   0.23950   0.24518
     Eigenvalues ---    0.24753   0.24972   0.24975   0.24987   0.25000
     Eigenvalues ---    0.25000   0.25000   0.25000   0.28280   0.30972
     Eigenvalues ---    0.34210   0.34856   0.35082   0.35260   0.35338
     Eigenvalues ---    0.36903   0.38899   0.40677   0.41796   0.43476
     Eigenvalues ---    0.43617   0.44109   0.45183   0.45273   0.47369
     Eigenvalues ---    0.48196   0.50225   0.55978   0.56298   0.56303
     Eigenvalues ---    0.60075   0.80153   0.81746   0.90475   0.90752
 RFO step:  Lambda= 0.00000000D+00 EMin= 2.30000000D-03
 Linear search not attempted -- first point.
 Iteration  1 RMS(Cart)=  0.00011088 RMS(Int)=  0.00000001
 Iteration  2 RMS(Cart)=  0.00000001 RMS(Int)=  0.00000000
 Variable       Old X    -DE/DX   Delta X   Delta X   Delta X     New X
                                 (Linear)    (Quad)   (Total)
    R1        2.67159  -0.00000   0.00000  -0.00001  -0.00001   2.67159
    R2        2.61719   0.00000   0.00000   0.00000   0.00000   2.61719
    R3        3.44151  -0.00000   0.00000  -0.00000  -0.00000   3.44151
    R4        2.86066  -0.00000   0.00000  -0.00001  -0.00001   2.86065
    R5        2.61187  -0.00000   0.00000  -0.00000  -0.00000   2.61187
    R6        2.54273  -0.00000   0.00000  -0.00000  -0.00000   2.54273
    R7        2.53996  -0.00000   0.00000  -0.00000  -0.00000   2.53996
    R8        2.53992   0.00000   0.00000   0.00000   0.00000   2.53993
    R9        2.05130   0.00000   0.00000   0.00000   0.00000   2.05130
   R10        2.66547   0.00000   0.00000   0.00000   0.00000   2.66547
   R11        2.65755   0.00000   0.00000   0.00001   0.00001   2.65756
   R12        2.58279  -0.00000   0.00000  -0.00000  -0.00000   2.58278
   R13        3.34334   0.00000   0.00000   0.00000   0.00000   3.34334
   R14        2.63346   0.00000   0.00000   0.00000   0.00000   2.63347
   R15        3.13875  -0.00000   0.00000  -0.00001  -0.00001   3.13875
   R16        2.76288  -0.00000   0.00000  -0.00000  -0.00000   2.76288
   R17        2.76415  -0.00000   0.00000  -0.00000  -0.00000   2.76415
   R18        2.05255  -0.00000   0.00000  -0.00000  -0.00000   2.05255
   R19        2.80687   0.00000   0.00000   0.00000   0.00000   2.80687
   R20        2.81533  -0.00000   0.00000  -0.00000  -0.00000   2.81533
   R21        2.94581  -0.00000   0.00000  -0.00001  -0.00001   2.94581
   R22        1.93024   0.00000   0.00000   0.00000   0.00000   1.93024
   R23        2.74156   0.00000   0.00000   0.00000   0.00000   2.74156
   R24        1.91763  -0.00000   0.00000  -0.00000  -0.00000   1.91763
   R25        2.76467  -0.00000   0.00000  -0.00001  -0.00001   2.76466
   R26        2.06977  -0.00000   0.00000  -0.00000  -0.00000   2.06977
   R27        2.05542  -0.00000   0.00000  -0.00000  -0.00000   2.05542
   R28        1.93616  -0.00000   0.00000  -0.00000  -0.00000   1.93615
    A1        2.05629  -0.00000   0.00000  -0.00000  -0.00000   2.05629
    A2        2.19212  -0.00000   0.00000  -0.00001  -0.00001   2.19211
    A3        2.03404   0.00000   0.00000   0.00001   0.00001   2.03405
    A4        2.14657  -0.00000   0.00000  -0.00002  -0.00002   2.14655
    A5        2.11428   0.00000   0.00000   0.00001   0.00001   2.11429
    A6        2.02178   0.00000   0.00000   0.00001   0.00001   2.02179
    A7        1.94899  -0.00000   0.00000  -0.00000  -0.00000   1.94899
    A8        1.95905  -0.00000   0.00000  -0.00001  -0.00001   1.95904
    A9        1.97153  -0.00000   0.00000  -0.00002  -0.00002   1.97151
   A10        1.85136   0.00000   0.00000   0.00002   0.00002   1.85137
   A11        1.85017   0.00000   0.00000   0.00001   0.00001   1.85018
   A12        1.87495   0.00000   0.00000   0.00000   0.00000   1.87495
   A13        2.10380   0.00000   0.00000  -0.00000  -0.00000   2.10380
   A14        2.12134  -0.00000   0.00000  -0.00000  -0.00000   2.12134
   A15        2.05804   0.00000   0.00000   0.00000   0.00000   2.05804
   A16        2.03402  -0.00000   0.00000  -0.00000  -0.00000   2.03402
   A17        2.10439  -0.00000   0.00000  -0.00001  -0.00001   2.10439
   A18        2.14368   0.00000   0.00000   0.00001   0.00001   2.14369
   A19        2.08778  -0.00000   0.00000  -0.00000  -0.00000   2.08778
   A20        2.12839   0.00000   0.00000   0.00000   0.00000   2.12839
   A21        2.06671   0.00000   0.00000  -0.00000  -0.00000   2.06670
   A22        1.79755  -0.00000   0.00000  -0.00001  -0.00001   1.79754
   A23        1.91918  -0.00000   0.00000  -0.00000  -0.00000   1.91918
   A24        1.90807  -0.00000   0.00000  -0.00000  -0.00000   1.90807
   A25        1.87907   0.00000   0.00000   0.00001   0.00001   1.87908
   A26        1.88039   0.00000   0.00000   0.00001   0.00001   1.88040
   A27        2.06058  -0.00000   0.00000  -0.00000  -0.00000   2.06058
   A28        2.11198  -0.00000   0.00000  -0.00000  -0.00000   2.11198
   A29        2.08078   0.00000   0.00000  -0.00000  -0.00000   2.08078
   A30        2.09034   0.00000   0.00000   0.00000   0.00000   2.09034
   A31        1.80012   0.00000   0.00000   0.00002   0.00002   1.80014
   A32        1.80709   0.00000   0.00000   0.00001   0.00001   1.80710
   A33        1.93216  -0.00000   0.00000  -0.00001  -0.00001   1.93215
   A34        1.98625  -0.00000   0.00000  -0.00000  -0.00000   1.98624
   A35        1.89901  -0.00000   0.00000  -0.00000  -0.00000   1.89901
   A36        2.02386  -0.00000   0.00000  -0.00000  -0.00000   2.02386
   A37        1.89385  -0.00000   0.00000  -0.00001  -0.00001   1.89384
   A38        2.09479  -0.00000   0.00000  -0.00001  -0.00001   2.09478
   A39        2.03773   0.00000   0.00000  -0.00001  -0.00001   2.03773
   A40        2.03526   0.00000   0.00000  -0.00001  -0.00001   2.03525
   A41        1.93526   0.00000   0.00000  -0.00000  -0.00000   1.93526
   A42        1.95405  -0.00000   0.00000  -0.00000  -0.00000   1.95404
   A43        1.90078  -0.00000   0.00000  -0.00001  -0.00001   1.90078
   A44        1.88020  -0.00000   0.00000   0.00000   0.00000   1.88020
   A45        1.89145   0.00000   0.00000   0.00001   0.00001   1.89147
   A46        1.90084  -0.00000   0.00000  -0.00000  -0.00000   1.90083
   A47        1.95343   0.00000   0.00000   0.00001   0.00001   1.95344
   A48        1.91486  -0.00000   0.00000   0.00000   0.00000   1.91486
   A49        1.95912  -0.00000   0.00000   0.00000   0.00000   1.95912
    D1       -3.11310  -0.00000   0.00000  -0.00001  -0.00001  -3.11311
    D2       -0.00891   0.00000   0.00000  -0.00000  -0.00000  -0.00891
    D3        0.07104   0.00000   0.00000   0.00002   0.00002   0.07106
    D4       -3.10795   0.00000   0.00000   0.00003   0.00003  -3.10793
    D5        0.00134   0.00000   0.00000   0.00001   0.00001   0.00135
    D6        3.12905   0.00000   0.00000   0.00001   0.00001   3.12906
    D7        3.10426  -0.00000   0.00000  -0.00001  -0.00001   3.10425
    D8       -0.05121  -0.00000   0.00000  -0.00002  -0.00002  -0.05123
    D9       -2.88476  -0.00000   0.00000  -0.00023  -0.00023  -2.88499
   D10       -0.81045  -0.00000   0.00000  -0.00022  -0.00022  -0.81067
   D11        1.36969  -0.00000   0.00000  -0.00023  -0.00023   1.36946
   D12        0.29889  -0.00000   0.00000  -0.00020  -0.00020   0.29870
   D13        2.37320   0.00000   0.00000  -0.00019  -0.00019   2.37301
   D14       -1.72984  -0.00000   0.00000  -0.00020  -0.00020  -1.73004
   D15       -2.83437   0.00000   0.00000  -0.00004  -0.00004  -2.83441
   D16        1.37232  -0.00000   0.00000  -0.00006  -0.00006   1.37227
   D17       -0.75082   0.00000   0.00000  -0.00004  -0.00004  -0.75086
   D18        0.34279   0.00000   0.00000  -0.00006  -0.00006   0.34274
   D19       -1.73370  -0.00000   0.00000  -0.00007  -0.00007  -1.73377
   D20        2.42634   0.00000   0.00000  -0.00005  -0.00005   2.42629
   D21       -3.12969   0.00000   0.00000   0.00000   0.00000  -3.12969
   D22        0.01282  -0.00000   0.00000  -0.00001  -0.00001   0.01282
   D23       -0.02296   0.00000   0.00000   0.00001   0.00001  -0.02294
   D24        3.11956  -0.00000   0.00000   0.00001   0.00001   3.11957
   D25       -0.00857  -0.00000   0.00000  -0.00000  -0.00000  -0.00857
   D26       -3.10129   0.00000   0.00000   0.00002   0.00002  -3.10127
   D27        3.13392  -0.00000   0.00000  -0.00001  -0.00001   3.13391
   D28        0.04120   0.00000   0.00000   0.00001   0.00001   0.04121
   D29       -3.11333   0.00000   0.00000   0.00002   0.00002  -3.11331
   D30        0.00097   0.00000   0.00000   0.00001   0.00001   0.00099
   D31       -0.02181  -0.00000   0.00000   0.00000   0.00000  -0.02181
   D32        3.09249  -0.00000   0.00000  -0.00000  -0.00000   3.09248
   D33       -2.86992  -0.00000   0.00000  -0.00002  -0.00002  -2.86993
   D34       -0.24252  -0.00000   0.00000  -0.00006  -0.00006  -0.24258
   D35        0.32371   0.00000   0.00000   0.00000   0.00000   0.32371
   D36        2.95111  -0.00000   0.00000  -0.00004  -0.00004   2.95107
   D37        0.25124  -0.00000   0.00000  -0.00001  -0.00001   0.25124
   D38        2.25008   0.00000   0.00000  -0.00000  -0.00000   2.25008
   D39       -1.74448  -0.00000   0.00000  -0.00001  -0.00001  -1.74449
   D40       -2.86402  -0.00000   0.00000  -0.00000  -0.00000  -2.86402
   D41       -0.86518   0.00000   0.00000   0.00000   0.00000  -0.86518
   D42        1.42344  -0.00000   0.00000  -0.00001  -0.00001   1.42343
   D43        0.00253  -0.00000   0.00000  -0.00002  -0.00002   0.00251
   D44       -3.12511  -0.00000   0.00000  -0.00002  -0.00002  -3.12513
   D45        3.11715  -0.00000   0.00000  -0.00003  -0.00003   3.11712
   D46       -0.01049  -0.00000   0.00000  -0.00002  -0.00002  -0.01052
   D47       -0.79130  -0.00000   0.00000   0.00000   0.00000  -0.79130
   D48        1.39550   0.00000   0.00000   0.00001   0.00001   1.39551
   D49       -2.81898   0.00000   0.00000   0.00001   0.00001  -2.81897
   D50       -0.63218   0.00000   0.00000   0.00002   0.00002  -0.63216
   D51        1.22440  -0.00000   0.00000  -0.00000  -0.00000   1.22439
   D52       -2.87199  -0.00000   0.00000   0.00001   0.00001  -2.87198
   D53       -1.32124   0.00000   0.00000   0.00000   0.00000  -1.32123
   D54        2.99549  -0.00000   0.00000  -0.00001  -0.00001   2.99547
   D55        0.73021   0.00000   0.00000  -0.00000  -0.00000   0.73021
   D56       -0.90825   0.00000   0.00000  -0.00000  -0.00000  -0.90825
   D57        1.19217   0.00000   0.00000  -0.00000  -0.00000   1.19217
   D58       -2.98799  -0.00000   0.00000  -0.00001  -0.00001  -2.98801
   D59        2.74684   0.00000   0.00000   0.00004   0.00004   2.74688
   D60       -1.43593   0.00000   0.00000   0.00004   0.00004  -1.43589
   D61        0.66709  -0.00000   0.00000   0.00003   0.00003   0.66712
   D62        1.15424   0.00000   0.00000   0.00001   0.00001   1.15424
   D63       -1.00794   0.00000   0.00000  -0.00000  -0.00000  -1.00795
   D64       -0.98953   0.00000   0.00000   0.00001   0.00001  -0.98952
   D65        3.13147  -0.00000   0.00000  -0.00000  -0.00000   3.13147
   D66       -3.04360   0.00000   0.00000   0.00001   0.00001  -3.04360
   D67        1.07740  -0.00000   0.00000  -0.00001  -0.00001   1.07740
         Item               Value     Threshold  Converged?
 Maximum Force            0.000004     0.000450     YES
 RMS     Force            0.000001     0.000300     YES
 Maximum Displacement     0.000569     0.001800     YES
 RMS     Displacement     0.000111     0.001200     YES
 Predicted change in Energy=-9.411103D-10
 Optimization completed.
    -- Stationary point found.
                           ----------------------------
                           !   Optimized Parameters   !
                           ! (Angstroms and Degrees)  !
 --------------------------                            --------------------------
 ! Name  Definition              Value          Derivative Info.                !
 --------------------------------------------------------------------------------
 ! R1    R(1,2)                  1.4137         -DE/DX =    0.0                 !
 ! R2    R(1,9)                  1.385          -DE/DX =    0.0                 !
 ! R3    R(1,11)                 1.8212         -DE/DX =    0.0                 !
 ! R4    R(2,3)                  1.5138         -DE/DX =    0.0                 !
 ! R5    R(2,4)                  1.3821         -DE/DX =    0.0                 !
 ! R6    R(3,22)                 1.3456         -DE/DX =    0.0                 !
 ! R7    R(3,23)                 1.3441         -DE/DX =    0.0                 !
 ! R8    R(3,24)                 1.3441         -DE/DX =    0.0                 !
 ! R9    R(4,5)                  1.0855         -DE/DX =    0.0                 !
 ! R10   R(4,6)                  1.4105         -DE/DX =    0.0                 !
 ! R11   R(6,7)                  1.4063         -DE/DX =    0.0                 !
 ! R12   R(6,16)                 1.3668         -DE/DX =    0.0                 !
 ! R13   R(7,8)                  1.7692         -DE/DX =    0.0                 !
 ! R14   R(7,9)                  1.3936         -DE/DX =    0.0                 !
 ! R15   R(8,18)                 1.661          -DE/DX =    0.0                 !
 ! R16   R(8,19)                 1.4621         -DE/DX =    0.0                 !
 ! R17   R(8,20)                 1.4627         -DE/DX =    0.0                 !
 ! R18   R(9,10)                 1.0862         -DE/DX =    0.0                 !
 ! R19   R(11,12)                1.4853         -DE/DX =    0.0                 !
 ! R20   R(11,13)                1.4898         -DE/DX =    0.0                 !
 ! R21   R(11,14)                1.5589         -DE/DX =    0.0                 !
 ! R22   R(14,15)                1.0214         -DE/DX =    0.0                 !
 ! R23   R(16,17)                1.4508         -DE/DX =    0.0                 !
 ! R24   R(16,21)                1.0148         -DE/DX =    0.0                 !
 ! R25   R(17,18)                1.463          -DE/DX =    0.0                 !
 ! R26   R(17,25)                1.0953         -DE/DX =    0.0                 !
 ! R27   R(17,26)                1.0877         -DE/DX =    0.0                 !
 ! R28   R(18,27)                1.0246         -DE/DX =    0.0                 !
 ! A1    A(2,1,9)              117.817          -DE/DX =    0.0                 !
 ! A2    A(2,1,11)             125.5994         -DE/DX =    0.0                 !
 ! A3    A(9,1,11)             116.5419         -DE/DX =    0.0                 !
 ! A4    A(1,2,3)              122.9893         -DE/DX =    0.0                 !
 ! A5    A(1,2,4)              121.1394         -DE/DX =    0.0                 !
 ! A6    A(3,2,4)              115.8393         -DE/DX =    0.0                 !
 ! A7    A(2,3,22)             111.6689         -DE/DX =    0.0                 !
 ! A8    A(2,3,23)             112.2453         -DE/DX =    0.0                 !
 ! A9    A(2,3,24)             112.9603         -DE/DX =    0.0                 !
 ! A10   A(22,3,23)            106.0749         -DE/DX =    0.0                 !
 ! A11   A(22,3,24)            106.0067         -DE/DX =    0.0                 !
 ! A12   A(23,3,24)            107.4265         -DE/DX =    0.0                 !
 ! A13   A(2,4,5)              120.539          -DE/DX =    0.0                 !
 ! A14   A(2,4,6)              121.5441         -DE/DX =    0.0                 !
 ! A15   A(5,4,6)              117.9169         -DE/DX =    0.0                 !
 ! A16   A(4,6,7)              116.5408         -DE/DX =    0.0                 !
 ! A17   A(4,6,16)             120.5727         -DE/DX =    0.0                 !
 ! A18   A(7,6,16)             122.8238         -DE/DX =    0.0                 !
 ! A19   A(6,7,8)              119.621          -DE/DX =    0.0                 !
 ! A20   A(6,7,9)              121.9476         -DE/DX =    0.0                 !
 ! A21   A(8,7,9)              118.4135         -DE/DX =    0.0                 !
 ! A22   A(7,8,18)             102.992          -DE/DX =    0.0                 !
 ! A23   A(7,8,19)             109.961          -DE/DX =    0.0                 !
 ! A24   A(7,8,20)             109.3244         -DE/DX =    0.0                 !
 ! A25   A(18,8,19)            107.663          -DE/DX =    0.0                 !
 ! A26   A(18,8,20)            107.7385         -DE/DX =    0.0                 !
 ! A27   A(19,8,20)            118.0626         -DE/DX =    0.0                 !
 ! A28   A(1,9,7)              121.0077         -DE/DX =    0.0                 !
 ! A29   A(1,9,10)             119.2199         -DE/DX =    0.0                 !
 ! A30   A(7,9,10)             119.7676         -DE/DX =    0.0                 !
 ! A31   A(1,11,12)            103.1393         -DE/DX =    0.0                 !
 ! A32   A(1,11,13)            103.5387         -DE/DX =    0.0                 !
 ! A33   A(1,11,14)            110.7047         -DE/DX =    0.0                 !
 ! A34   A(12,11,13)           113.8036         -DE/DX =    0.0                 !
 ! A35   A(12,11,14)           108.8051         -DE/DX =    0.0                 !
 ! A36   A(13,11,14)           115.9587         -DE/DX =    0.0                 !
 ! A37   A(11,14,15)           108.5095         -DE/DX =    0.0                 !
 ! A38   A(6,16,17)            120.0224         -DE/DX =    0.0                 !
 ! A39   A(6,16,21)            116.7535         -DE/DX =    0.0                 !
 ! A40   A(17,16,21)           116.6116         -DE/DX =    0.0                 !
 ! A41   A(16,17,18)           110.8821         -DE/DX =    0.0                 !
 ! A42   A(16,17,25)           111.9586         -DE/DX =    0.0                 !
 ! A43   A(16,17,26)           108.907          -DE/DX =    0.0                 !
 ! A44   A(18,17,25)           107.7275         -DE/DX =    0.0                 !
 ! A45   A(18,17,26)           108.3723         -DE/DX =    0.0                 !
 ! A46   A(25,17,26)           108.91           -DE/DX =    0.0                 !
 ! A47   A(8,18,17)            111.9234         -DE/DX =    0.0                 !
 ! A48   A(8,18,27)            109.7133         -DE/DX =    0.0                 !
 ! A49   A(17,18,27)           112.2495         -DE/DX =    0.0                 !
 ! D1    D(9,1,2,3)           -178.3674         -DE/DX =    0.0                 !
 ! D2    D(9,1,2,4)             -0.5104         -DE/DX =    0.0                 !
 ! D3    D(11,1,2,3)             4.0703         -DE/DX =    0.0                 !
 ! D4    D(11,1,2,4)          -178.0727         -DE/DX =    0.0                 !
 ! D5    D(2,1,9,7)              0.0765         -DE/DX =    0.0                 !
 ! D6    D(2,1,9,10)           179.2815         -DE/DX =    0.0                 !
 ! D7    D(11,1,9,7)           177.861          -DE/DX =    0.0                 !
 ! D8    D(11,1,9,10)           -2.9341         -DE/DX =    0.0                 !
 ! D9    D(2,1,11,12)         -165.2847         -DE/DX =    0.0                 !
 ! D10   D(2,1,11,13)          -46.4355         -DE/DX =    0.0                 !
 ! D11   D(2,1,11,14)           78.4775         -DE/DX =    0.0                 !
 ! D12   D(9,1,11,12)           17.1253         -DE/DX =    0.0                 !
 ! D13   D(9,1,11,13)          135.9746         -DE/DX =    0.0                 !
 ! D14   D(9,1,11,14)          -99.1125         -DE/DX =    0.0                 !
 ! D15   D(1,2,3,22)          -162.3972         -DE/DX =    0.0                 !
 ! D16   D(1,2,3,23)            78.6284         -DE/DX =    0.0                 !
 ! D17   D(1,2,3,24)           -43.0188         -DE/DX =    0.0                 !
 ! D18   D(4,2,3,22)            19.6407         -DE/DX =    0.0                 !
 ! D19   D(4,2,3,23)           -99.3337         -DE/DX =    0.0                 !
 ! D20   D(4,2,3,24)           139.0191         -DE/DX =    0.0                 !
 ! D21   D(1,2,4,5)           -179.3182         -DE/DX =    0.0                 !
 ! D22   D(1,2,4,6)              0.7348         -DE/DX =    0.0                 !
 ! D23   D(3,2,4,5)             -1.3152         -DE/DX =    0.0                 !
 ! D24   D(3,2,4,6)            178.7377         -DE/DX =    0.0                 !
 ! D25   D(2,4,6,7)             -0.4913         -DE/DX =    0.0                 !
 ! D26   D(2,4,6,16)          -177.6908         -DE/DX =    0.0                 !
 ! D27   D(5,4,6,7)            179.5604         -DE/DX =    0.0                 !
 ! D28   D(5,4,6,16)             2.3608         -DE/DX =    0.0                 !
 ! D29   D(4,6,7,8)           -178.3806         -DE/DX =    0.0                 !
 ! D30   D(4,6,7,9)              0.0557         -DE/DX =    0.0                 !
 ! D31   D(16,6,7,8)            -1.2499         -DE/DX =    0.0                 !
 ! D32   D(16,6,7,9)           177.1864         -DE/DX =    0.0                 !
 ! D33   D(4,6,16,17)         -164.4341         -DE/DX =    0.0                 !
 ! D34   D(4,6,16,21)          -13.8952         -DE/DX =    0.0                 !
 ! D35   D(7,6,16,17)           18.5474         -DE/DX =    0.0                 !
 ! D36   D(7,6,16,21)          169.0863         -DE/DX =    0.0                 !
 ! D37   D(6,7,8,18)            14.3952         -DE/DX =    0.0                 !
 ! D38   D(6,7,8,19)           128.9201         -DE/DX =    0.0                 !
 ! D39   D(6,7,8,20)           -99.9513         -DE/DX =    0.0                 !
 ! D40   D(9,7,8,18)          -164.0963         -DE/DX =    0.0                 !
 ! D41   D(9,7,8,19)           -49.5713         -DE/DX =    0.0                 !
 ! D42   D(9,7,8,20)            81.5572         -DE/DX =    0.0                 !
 ! D43   D(6,7,9,1)              0.145          -DE/DX =    0.0                 !
 ! D44   D(6,7,9,10)          -179.0557         -DE/DX =    0.0                 !
 ! D45   D(8,7,9,1)            178.5994         -DE/DX =    0.0                 !
 ! D46   D(8,7,9,10)            -0.6013         -DE/DX =    0.0                 !
[...]
 0038699,-0.00051472,-0.00098069,0.00019684,0.00072571,-0.00091126,-0.0
 0008460,-0.00007763,0.00008883,0.00113085,-0.00069129,0.00330697,-0.00
 364308,-0.00437428,-0.00149845,0.00387256,-0.02355027,0.00153344,0.008
 29827,-0.02867228,-0.00122835,-0.12935224,0.57160647,0.00036126,0.0001
 7779,0.00045067,0.00046793,-0.00000816,-0.00051622,-0.00084470,0.00010
 897,0.00031482,0.00024323,0.00055003,0.00139254,0.00026647,-0.00002221
 ,-0.00017010,0.00120861,-0.00125033,-0.00718576,0.00624299,-0.00839557
 ,0.01184765,0.00474684,-0.00912049,-0.07112849,-0.00113274,0.00095783,
 0.00118247,-0.00025715,0.00014787,0.00022433,-0.00008271,-0.00004997,0
 .00047508,-0.00003095,-0.00004236,-0.00021487,0.00007335,-0.00009015,-
 0.00016749,0.00004845,0.00011743,-0.00011816,-0.00001042,-0.00002057,0
 .00001938,-0.00219216,-0.00106248,0.00301680,0.00443891,0.00146361,-0.
 00088689,-0.00731717,0.03413488,-0.00191109,-0.00162080,-0.02005144,0.
 01105316,0.00108827,0.00060214,0.05744869,0.00057904,-0.00006458,0.001
 10253,-0.00046577,0.00040641,-0.00109009,0.00047885,-0.00008468,-0.000
 12934,0.00083138,-0.00002435,0.00466790,-0.00088976,-0.00034978,-0.000
 85650,0.01065763,-0.00075308,0.00077638,0.00121138,-0.00014993,0.00401
 917,-0.00166772,-0.00053966,0.00290490,0.00043638,-0.00003815,0.000063
 84,-0.00001266,0.00000400,0.00015364,0.00002040,-0.00005079,-0.0014047
 9,0.00020624,0.00001279,0.00033348,-0.00019088,0.00019947,0.00036319,-
 0.00011659,-0.00025301,0.00043839,0.00003647,0.00002161,-0.00002236,-0
 .34357026,-0.00413561,-0.17708035,-0.01305795,-0.00431513,-0.01333135,
 -0.00476659,0.00158908,-0.00003356,0.00050138,0.00011049,-0.00035758,0
 .00052994,-0.00014738,-0.00039641,0.34850531,-0.00039977,0.00001530,-0
 .00107585,0.00019680,-0.00071713,0.00094808,-0.00034098,0.00020199,0.0
 0016368,0.00149671,-0.00160251,-0.00225593,0.00016210,-0.00001096,-0.0
 0003465,0.00194246,-0.00542987,0.01234845,-0.00221640,0.00327132,-0.00
 035238,0.00149095,-0.00049939,-0.00040066,0.00060712,0.00112294,0.0003
 7325,-0.00001013,-0.00009708,0.00004500,0.00001380,0.00007903,0.001210
 72,-0.00021026,-0.00002332,-0.00023370,0.00016646,-0.00018047,-0.00030
 254,0.00007915,0.00018533,-0.00037846,-0.00003036,-0.00001723,0.000020
 02,-0.02079070,-0.00052426,-0.03109688,0.01133489,-0.00480592,0.006100
 22,-0.00260800,-0.00002869,-0.00045030,-0.00045387,-0.00015248,-0.0002
 3289,-0.00027139,0.00021683,0.00027810,0.00874998,0.00926525,0.0007527
 8,-0.00010433,0.00073815,-0.00044504,0.00029893,-0.00072120,0.00035252
 ,-0.00011755,-0.00016983,-0.00236461,0.00090941,0.00110617,0.00144209,
 -0.00040921,0.00004817,-0.03021652,-0.00139191,-0.02243767,0.00362233,
 -0.00085610,-0.00319152,-0.00002880,0.00086908,-0.00315937,-0.00186268
 ,0.00052237,-0.00006463,0.00017290,0.00000276,-0.00029625,0.00000820,-
 0.00003696,-0.00057735,0.00014219,-0.00000457,0.00010557,-0.00005389,0
 .00007021,0.00013096,-0.00005299,-0.00009716,0.00016858,0.00001248,0.0
 0000950,-0.00000788,-0.16916988,-0.01721553,-0.17065199,0.01075283,0.0
 0324918,0.01244380,0.00720608,-0.00111236,0.00117495,0.00018387,0.0001
 9384,0.00079648,0.00012702,-0.00046370,0.00036731,0.17991716,0.0160448
 3,0.18353417,-0.00492574,-0.00028080,0.00761022,-0.03679632,-0.0072291
 8,-0.03648739,-0.19177878,-0.02089015,-0.08614264,-0.00428717,0.000165
 29,0.00025197,-0.00440874,-0.00021091,0.00154000,0.00108565,0.00040903
 ,-0.00270587,-0.00117010,-0.00002617,0.00075731,0.00294686,-0.00049199
 ,-0.00109445,-0.00225570,0.00103684,-0.00293942,-0.00066821,0.00025403
 ,0.00060155,0.00140678,-0.00066077,0.00504970,-0.00124417,-0.00007949,
 -0.00136119,-0.00019516,-0.00058485,-0.00169114,0.00016244,0.00106522,
 -0.00122599,-0.00007092,-0.00037962,0.00034161,-0.00051361,-0.00047576
 ,0.00196266,0.00060307,-0.00015518,-0.00019320,-0.00051768,0.00002328,
 0.00057620,-0.00104749,-0.00031315,-0.00001754,-0.00088074,0.00074107,
 0.00025010,-0.00017882,0.00015154,-0.00013314,0.22835012,-0.00015114,0
 .00139314,0.00013719,0.00163301,0.00791120,0.00001413,-0.02368285,-0.0
 7125902,-0.01927776,0.00100214,0.00014542,-0.00059358,-0.00029257,-0.0
 0005580,0.00017812,-0.00034973,0.00007154,0.00017328,0.00014385,0.0000
 1593,0.00030098,-0.00006494,-0.00001833,0.00002497,0.00017988,-0.00045
 430,-0.00043414,-0.00003061,-0.00015078,0.00000761,-0.00000401,-0.0004
 7202,0.00000737,-0.00006574,0.00007184,-0.00002673,-0.00037086,0.00055
 236,-0.00030117,0.00009913,0.00010950,0.00002862,-0.00002327,0.0001186
 6,-0.00009792,0.00003747,0.00008097,-0.00010098,-0.00003183,-0.0000020
 5,0.00000722,0.00002999,-0.00000208,-0.00000925,0.00002929,0.00001372,
 0.00001197,0.00002095,0.00000138,-0.00001468,0.00001575,-0.00002382,0.
 00000420,0.04172228,0.09179678,-0.00042617,-0.00028371,0.00159008,-0.0
 0531915,-0.00220358,-0.00093508,-0.09921018,-0.01957680,-0.14909147,0.
 00325062,0.00114590,-0.00472358,0.00431481,-0.00042351,0.00105120,0.00
 088228,0.00024606,0.00126052,0.00004127,-0.00010481,0.00017441,0.00058
 959,-0.00010840,-0.00012228,-0.00008784,0.00015065,-0.00043251,-0.0001
 3231,0.00005496,0.00011891,0.00284960,-0.00013152,0.00105108,-0.000901
 40,-0.00009731,-0.00023055,-0.00150410,-0.00016239,-0.00108992,-0.0004
 4355,0.00055887,-0.00058582,0.00003623,-0.00080695,0.00067835,-0.00017
 526,-0.00003267,0.00021813,-0.00002541,-0.00002633,-0.00000809,-0.0000
 5762,0.00000521,0.00012329,-0.00012188,-0.00000981,-0.00000310,-0.0001
 3984,0.00008375,0.00002064,-0.00005318,0.00002363,0.00003419,0.1532501
 2,0.04365532,0.25515462,0.00015623,-0.00002428,0.00080423,-0.00320625,
 0.03469904,0.01516231,-0.08588817,0.04446742,0.01705638,-0.00355674,0.
 00137606,-0.00153409,0.00018883,0.00092518,0.00020556,0.00035918,-0.00
 211201,-0.00066616,-0.00149423,0.00019109,0.00104417,0.00298922,-0.000
 21922,-0.00108894,-0.00016485,-0.00127172,-0.00024126,-0.00011272,0.00
 003855,0.00008611,0.00144443,-0.00154860,0.00186306,-0.00118046,0.0002
 2585,-0.00067320,-0.00308751,0.00245003,-0.00416840,0.00028165,0.00110
 222,-0.00090317,-0.00010684,-0.00006302,0.00001364,-0.00058989,-0.0001
 3421,0.00103214,0.00036366,-0.00008972,-0.00011599,-0.00037706,0.00001
 475,0.00052657,-0.00096868,-0.00028524,-0.00003364,-0.00095405,0.00072
 794,0.00026212,-0.00011250,0.00006139,-0.00008442,0.00610521,-0.034256
 12,-0.02280621,0.07730439,0.00015552,0.00022116,-0.00157717,0.00825613
 ,-0.02175422,-0.01262946,0.05100107,-0.23649532,-0.05976595,0.00370714
 ,-0.00107386,0.00115228,-0.00023870,-0.00077778,0.00025773,-0.00010391
 ,0.00143931,0.00048451,0.00098508,-0.00019392,-0.00073307,-0.00253647,
 0.00016578,0.00090807,0.00075074,0.00081182,0.00057167,0.00020183,-0.0
 0005242,-0.00014725,-0.00094077,-0.00187744,-0.00305830,0.00077986,0.0
 0032357,0.00082784,0.00000699,0.00093801,0.00185745,0.00017637,-0.0004
 3356,0.00131778,-0.00007602,0.00062235,-0.00073143,0.00065122,0.000150
 25,-0.00112459,-0.00042889,0.00010093,0.00008388,0.00035985,0.00000781
 ,-0.00044310,0.00086384,0.00028486,0.00003392,0.00082031,-0.00062599,-
 0.00022023,0.00009663,-0.00008021,0.00010164,-0.02400806,-0.03745545,-
 0.04322885,-0.03693842,0.37316914,0.00006533,-0.00060732,-0.00212154,0
 .00836148,-0.01954398,0.00301298,0.01806811,-0.06163105,-0.08689207,0.
 00089351,0.00012863,0.00065765,-0.00025856,-0.00048659,0.00014570,-0.0
 0078412,0.00111284,0.00080602,0.00089213,-0.00016966,0.00027112,-0.001
 33599,0.00010504,0.00053738,0.00110722,0.00057840,-0.00001388,0.000184
 78,0.00005332,-0.00012899,0.00272846,-0.00356487,-0.00348275,-0.001029
 94,0.00054216,0.00059972,-0.00623622,0.00500654,-0.00380308,-0.0002427
 7,0.00071422,0.00046897,0.00003727,-0.00023570,0.00017326,0.00027042,0
 .00007780,-0.00048149,-0.00018441,-0.00001331,0.00005304,0.00017889,-0
 .00001724,-0.00022420,0.00046184,0.00013018,0.00000012,0.00044193,-0.0
 0034700,-0.00013171,0.00005225,-0.00002405,0.00004301,-0.01660376,-0.0
 5098686,-0.02711258,-0.00403015,0.09211824,0.10927714,0.00144356,0.000
 72863,-0.00001065,-0.00368439,-0.02176492,0.03550763,-0.09955410,-0.03
 315860,0.05470041,-0.00722334,0.00007980,-0.00127846,0.00015757,-0.000
 56570,-0.00000675,0.00079904,0.00126708,0.00066283,-0.00081227,0.00002
 749,0.00118125,0.00240087,-0.00042909,-0.00082456,0.00056376,0.0002498
 7,-0.00073073,-0.00006042,0.00001515,0.00005465,0.00020497,-0.00194614
 ,0.00080311,-0.00133835,0.00021625,-0.00048232,-0.00386128,-0.00287551
 ,-0.00414827,-0.00011310,0.00153822,-0.00206549,-0.00320933,0.00145876
 ,-0.00142431,-0.00095125,0.00005583,0.00120980,0.00051492,-0.00024051,
 0.00005790,-0.00040420,0.00003015,0.00039791,-0.00084657,-0.00025144,-
 0.00004426,-0.00070273,0.00057105,0.00017380,-0.00011820,0.00008280,-0
 .00012539,0.01040739,0.01440610,-0.03381373,0.01268639,-0.00364526,-0.
 00308098,0.09382432,0.00111111,0.00043126,-0.00009252,-0.00049198,0.00
 167896,0.01002004,-0.03972015,-0.12222273,0.08529868,-0.00305850,0.000
 26379,-0.00000684,0.00004875,0.00008938,-0.00025207,0.00069433,-0.0001
 9887,0.00035696,-0.00021114,-0.00006228,-0.00015801,0.00054946,-0.0001
 1948,-0.00018750,-0.00042911,0.00008823,-0.00008058,-0.00005859,-0.000
 01313,0.00003090,-0.00134045,-0.00470414,-0.00005215,-0.00004371,0.000
 76480,-0.00027195,-0.00413258,-0.00039565,-0.00273862,0.00120706,0.000
 23891,0.00129261,0.00221522,-0.00006681,0.00012225,-0.00043653,0.00001
 881,0.00043539,0.00020972,-0.00006382,0.00002094,-0.00011306,0.0000118
 1,0.00007474,-0.00021585,-0.00005726,-0.00000846,-0.00017164,0.0001679
 1,0.00004141,-0.00003081,0.00002233,-0.00006122,0.01000830,0.00761930,
 0.02125842,-0.00949976,-0.07724760,0.03713000,0.04397588,0.19369482,-0
 .00039956,-0.00057314,-0.00063898,0.00968760,0.02024021,-0.02096361,0.
 06061580,0.08510626,-0.19067302,0.00540174,0.00009627,0.00121029,-0.00
 027345,0.00056504,0.00067153,-0.00090578,-0.00136086,-0.00018653,0.001
 04300,0.00005079,-0.00048001,-0.00215805,0.00046052,0.00083342,0.00041
 390,-0.00101409,0.00048008,0.00017876,0.00003322,-0.00011556,0.0057156
 5,0.00026990,-0.00374772,-0.00129643,-0.00017871,0.00098878,-0.0065991
 0,-0.00250846,-0.00182551,-0.00178477,0.00074769,-0.00099090,-0.001972
 99,-0.00063608,0.00070502,0.00076833,-0.00003670,-0.00077890,-0.000395
 79,0.00023654,-0.00006920,0.00035801,-0.00005043,-0.00035762,0.0008175
 4,0.00022435,0.00004087,0.00062994,-0.00051897,-0.00018230,0.00007617,
 -0.00006655,0.00012354,-0.02158752,0.02728978,-0.07713225,-0.00171363,
 0.02396141,0.00835554,-0.04671286,-0.15219234,0.28473068,0.00122928,-0
 .00011723,0.00107795,-0.00061437,-0.00010716,-0.00174063,0.00043492,-0
 .00003579,-0.00023915,-0.00220723,-0.00033159,0.00243169,0.00006439,0.
 00012746,0.00003011,0.00144454,0.00175811,-0.01061624,0.00175191,-0.00
 045466,-0.00021304,-0.00120119,-0.00274641,0.00290381,-0.00036002,0.00
 009434,0.00053389,-0.00001140,0.00000644,0.00003320,0.00007235,0.00001
 407,-0.00128489,0.00021073,-0.00001077,0.00029985,-0.00018071,0.000173
 24,0.00031823,-0.00011011,-0.00021951,0.00037377,0.00003130,0.00001936
 ,-0.00001783,-0.01494354,0.03276083,0.01186506,-0.04634350,0.01870584,
 -0.00301487,-0.00515688,-0.03499040,0.00018166,0.00034075,0.00038031,-
 0.00047935,0.00049624,0.00054756,-0.00015707,-0.00007524,0.00066018,0.
 00044906,-0.00016592,0.00000769,-0.00000721,-0.00011673,0.00011300,0.0
 0007031,-0.00010026,-0.00004503,0.00008301,0.06741009,-0.00004473,0.00
 001122,-0.00047776,-0.00007187,0.00000965,0.00024975,-0.00013663,0.000
 01322,0.00005486,0.00046803,-0.00011745,-0.00078216,-0.00004816,0.0000
 0598,-0.00000674,-0.00046966,0.00084031,0.00267917,-0.00042325,-0.0002
 4253,-0.00112619,0.00055157,-0.00359091,0.00062191,0.00010224,-0.00010
 217,0.00014489,-0.00000045,-0.00000044,-0.00000594,0.00000308,0.000012
 38,0.00060490,-0.00010589,-0.00000127,-0.00013789,0.00008139,-0.000089
 19,-0.00016146,0.00005031,0.00011031,-0.00019455,-0.00001711,-0.000009
 29,0.00001176,0.01134543,-0.00606645,-0.00399924,0.01094924,-0.3162427
 0,0.02532869,-0.00573406,-0.01490600,-0.00025659,-0.00018036,0.0003982
 9,-0.00041822,0.00128726,0.00105810,0.00148075,0.00001057,-0.00087478,
 -0.00070298,0.00006232,-0.00000158,-0.00000220,0.00003205,-0.00003810,
 -0.00001211,0.00004068,0.00001934,-0.00002584,-0.01642546,0.34399669,-
 0.00086383,0.00007028,-0.00004738,0.00041102,0.00014939,0.00085777,-0.
 00000258,-0.00004357,0.00003705,0.00084341,0.00046580,-0.00086717,-0.0
 0003553,-0.00011921,-0.00000577,-0.00075545,-0.00209069,0.00353743,-0.
 00050456,0.00076327,0.00090109,-0.00019139,-0.00278376,-0.00100029,0.0
 0043831,0.00018227,-0.00076764,0.00001036,-0.00000595,-0.00000767,-0.0
 0004558,-0.00005795,-0.00003366,0.00001189,0.00001291,-0.00000025,0.00
 000252,-0.00000051,0.00001015,0.00000623,-0.00001293,0.00003783,0.0000
 0480,-0.00000145,-0.00000561,0.00765194,-0.01778903,0.00039345,-0.0004
 9395,0.03362174,-0.06068499,-0.00451074,-0.01827907,0.00134098,-0.0000
 5846,0.00030587,0.00022313,-0.00072735,0.00001310,-0.00022218,-0.00000
 374,-0.00065961,-0.00014217,-0.00000207,-0.00000132,-0.00000285,0.0000
 0880,-0.00000962,-0.00001405,-0.00000760,0.00001028,0.00000467,0.00177
 079,-0.02256210,0.05709727,0.00018267,-0.00003834,0.00013107,-0.000538
 34,0.00009951,-0.00019645,0.00019959,-0.00007396,0.00002842,0.00018582
 ,0.00019602,0.00173112,0.00003028,-0.00002244,-0.00003763,-0.00492237,
 0.00094768,-0.00059663,0.00015289,0.00051717,-0.00023750,-0.00210824,-
 0.00459693,0.00196741,0.00034973,-0.00012003,0.00014879,-0.00003100,0.
 00001591,0.00006887,0.00002966,0.00001640,-0.00029848,0.00005881,-0.00
 000248,0.00007795,-0.00003570,0.00003603,0.00007725,-0.00002458,-0.000
 04759,0.00007814,0.00000581,0.00000546,-0.00000431,-0.00241807,-0.0044
 4043,0.03527965,-0.04966766,0.00056450,-0.00428767,-0.00666670,0.00829
 922,-0.03276777,-0.00162527,-0.00058940,-0.00324564,0.00005021,0.00120
 406,-0.00052298,0.00098614,-0.00000291,-0.00027930,-0.00005696,0.00000
 169,0.00000204,-0.00004500,0.00005932,0.00001400,-0.00009887,-0.000041
 12,0.00008393,0.00141218,0.00022363,-0.00057142,0.06380776,-0.00016967
 ,0.00003051,-0.00013995,0.00024169,-0.00011999,0.00017314,-0.00011059,
 0.00003135,-0.00000208,0.00014606,-0.00005864,-0.00092346,-0.00001076,
 0.00001521,0.00001020,0.00263355,0.00022202,0.00010446,-0.00050339,0.0
 0019918,-0.00010758,-0.00133999,-0.00308178,-0.00102158,0.00009603,-0.
 00010452,-0.00011008,-0.00000334,0.00000050,0.00000120,0.00000186,0.00
 001957,0.00020903,-0.00003503,-0.00000366,-0.00005220,0.00002495,-0.00
 003500,-0.00005348,0.00001918,0.00004257,-0.00006947,-0.00000568,-0.00
 000400,0.00000393,0.00271943,0.00328784,-0.01909343,0.00174591,-0.0747
 1563,0.08508502,-0.00442862,0.00503105,-0.01760839,-0.00077004,-0.0000
 7489,-0.00144854,0.00040610,0.00106188,0.00065972,-0.00050652,0.000499
 51,0.00055032,0.00003455,-0.00000135,-0.00000053,0.00002843,-0.0000347
 2,-0.00000979,0.00004508,0.00001991,-0.00003830,0.00138060,-0.00524721
 ,0.02996159,-0.00249593,0.07267615,-0.00003497,-0.00000747,-0.00012736
 ,0.00025754,-0.00005910,0.00006007,-0.00018716,0.00005185,0.00002667,-
 0.00005721,-0.00009841,-0.00077532,-0.00000240,0.00000874,-0.00001199,
 0.00250803,-0.00001289,0.00176763,-0.00017062,0.00002513,0.00020518,-0
 .00015249,-0.00188547,0.00254541,-0.00002420,0.00004257,0.00001965,0.0
 0000150,0.00000406,-0.00000272,-0.00000618,-0.00000877,0.00026933,-0.0
 0004624,-0.00000195,-0.00007493,0.00003728,-0.00004104,-0.00007836,0.0
 0002102,0.00005152,-0.00007741,-0.00000639,-0.00000579,0.00000529,0.00
 303637,0.00132486,-0.01467854,-0.00200020,0.07277863,-0.32241671,-0.00
 605902,0.00261771,-0.01196831,-0.00034644,-0.00015833,-0.00075059,-0.0
 0004071,0.00044496,-0.00011013,0.00000172,0.00009215,0.00035306,0.0000
 5928,0.00000063,0.00000137,0.00004853,-0.00005440,-0.00002108,0.000065
 26,0.00002448,-0.00005588,-0.00013611,0.00106844,0.00045530,0.00274939
 ,-0.07617930,0.34535410,0.00004075,-0.00003870,-0.00016846,0.00016150,
 0.00004302,0.00000493,-0.00030754,0.00005166,0.00011854,0.00013674,-0.
 00006761,-0.00016306,0.00001310,-0.00001980,-0.00002622,-0.00033582,-0
 .00015682,0.00150415,-0.00020069,-0.00004645,0.00064218,-0.00072902,0.
 00295822,0.01290315,-0.00012239,0.00024605,0.00023037,0.00001078,0.000
 03591,-0.00001071,-0.00000999,-0.00003602,0.00042222,-0.00007228,-0.00
 000677,-0.00011594,0.00005790,-0.00006338,-0.00013072,0.00003260,0.000
 07874,-0.00011913,-0.00001027,-0.00000962,0.00000968,0.00230612,0.0002
 0496,0.00008981,-0.00425683,-0.03276281,0.00070151,-0.02764290,0.01866
 394,-0.02652200,-0.00187820,-0.00142767,-0.00108899,0.00069641,0.00363
 971,-0.00530708,0.00024241,0.00013844,-0.00032487,0.00009475,-0.000005
 55,0.00000848,0.00008250,-0.00006843,-0.00004104,0.00007586,0.00002019
 ,-0.00007348,-0.00331159,-0.00155019,-0.00238582,0.00078721,0.00085613
 ,0.00048442,0.03413890,0.00021553,-0.00002860,-0.00028608,0.00013300,-
 0.00000725,-0.00021718,-0.00036171,0.00009523,0.00012213,-0.00000878,-
 0.00007959,0.00007622,0.00003509,0.00000164,-0.00003495,-0.00036347,-0
 .00010344,0.00017775,-0.00048531,0.00052556,-0.00143298,0.00453439,-0.
 00923433,0.00384902,0.00047203,0.00007465,0.00033679,-0.00000128,0.000
 00957,0.00005926,0.00002893,-0.00004654,0.00049269,-0.00007266,-0.0000
 0308,-0.00014115,0.00007491,-0.00009612,-0.00017504,0.00003516,0.00010
 065,-0.00013442,-0.00001200,-0.00001018,0.00001226,0.00122127,0.001324
 64,0.00133297,0.00188418,-0.01053896,-0.00196253,-0.01316807,-0.421551
 23,0.02686740,-0.00184536,0.00105476,-0.00286966,-0.00118830,0.0028056
 7,-0.00037188,0.00022669,0.00018829,-0.00025271,0.00011232,-0.00000514
 ,0.00001659,0.00010231,-0.00009439,-0.00004785,0.00008832,0.00002220,-
 0.00008152,-0.00126503,0.00105457,-0.00113973,0.00028498,0.00034414,-0
 .00002284,0.00932285,0.43419729,-0.00014293,0.00024036,0.00009731,-0.0
 0010080,-0.00003101,0.00003800,0.00020687,-0.00005728,-0.00007121,-0.0
 0006288,0.00005966,0.00024902,0.00001182,0.00000647,0.00000612,0.00019
 884,0.00062891,-0.00138113,-0.00033507,-0.00199918,-0.00069036,-0.0000
 3088,0.03698847,-0.00788168,0.00041419,-0.00053898,-0.00030428,-0.0000
 1520,-0.00005279,0.00001192,0.00002756,0.00005487,-0.00029490,0.000048
 74,-0.00000483,0.00008263,-0.00004976,0.00003076,0.00009753,-0.0000183
 0,-0.00005150,0.00007222,0.00000708,0.00000387,-0.00000622,-0.00071077
 ,0.00119297,0.00088281,0.00532065,-0.01857044,0.00272647,-0.01941224,0
 .00468278,-0.04431510,0.00187414,-0.00251768,0.00243510,-0.00239146,0.
 00542926,-0.00486814,-0.00011145,-0.00008368,0.00025176,-0.00006540,0.
 00000299,-0.00000671,-0.00005435,0.00004701,0.00002578,-0.00005819,-0.
 00001486,0.00005357,-0.00451599,-0.00137313,-0.00109443,0.00060773,0.0
 0009957,0.00008625,0.01935807,-0.02417257,0.05379766\\0.00000529,-0.00
 000059,-0.00000108,0.00000139,-0.00000162,0.00000464,0.00000277,-0.000
 00741,0.00000711,-0.00000100,-0.00000310,0.00000156,-0.00000328,-0.000
 00553,0.00000395,-0.00000315,0.00000110,0.00000459,-0.00000200,0.00000
 253,-0.00000379,-0.00000449,0.00000283,-0.00000158,0.00000155,0.000002
 57,-0.00000202,0.00000411,0.00000514,-0.00000362,0.00000870,0.00000440
 ,0.00000232,0.00000759,0.00000499,-0.00000433,0.00000473,0.00000084,0.
 00000105,0.00000925,-0.00000217,0.00000489,0.00001123,-0.00000125,0.00
 000523,-0.00000185,-0.00000602,-0.00000123,-0.00001163,-0.00000093,-0.
 00000319,-0.00000177,0.00000315,-0.00000829,-0.00000134,0.00000764,-0.
 00000852,0.00000118,0.00000498,-0.00000633,-0.00000798,-0.00000190,0.0
 0000058,-0.00000133,-0.00000671,0.00000881,-0.00000218,-0.00000427,0.0
 0000424,0.00000359,-0.00000252,0.00000484,-0.00000323,-0.00000010,-0.0
 0000123,-0.00000749,-0.00000033,-0.00000262,-0.00000864,0.00000427,-0.
 00000600\\\@
 The archive entry for this job was punched.


 LIFE IS A CONTINUAL STRUGGLE AGAINST THE TENDENCY TO PRODUCE ENTROPY.
 Job cpu time:       0 days  3 hours 54 minutes 34.6 seconds.
 Elapsed time:       0 days  0 hours 16 minutes 20.2 seconds.
 File lengths (MBytes):  RWF=    584 Int=      0 D2E=      0 Chk=     21 Scr=      1
 Normal termination of Gaussian 16 at Thu Jun 30 18:49:14 2022.
