 Entering Gaussian System, Link 0=g16
 AtFile(1): /home/561/yj5695/Basis/6-31pGd.gbs
 Initial command:
 /apps/gaussian/g16c01/g16/l1.exe "/jobfs/48970299.gadi-pbs/Gau-3773540.inp" -scrdir="/jobfs/48970299.gadi-pbs/"
 Entering Link 1 = /apps/gaussian/g16c01/g16/l1.exe PID=   3773541.
  
 Copyright (c) 1988-2019, Gaussian, Inc.  All Rights Reserved.
  
 This is part of the Gaussian(R) 16 program.  It is based on
 the Gaussian(R) 09 system (copyright 2009, Gaussian, Inc.),
 the Gaussian(R) 03 system (copyright 2003, Gaussian, Inc.),
 the Gaussian(R) 98 system (copyright 1998, Gaussian, Inc.),
 the Gaussian(R) 94 system (copyright 1995, Gaussian, Inc.),
 the Gaussian 92(TM) system (copyright 1992, Gaussian, Inc.),
 the Gaussian 90(TM) system (copyright 1990, Gaussian, Inc.),
 the Gaussian 88(TM) system (copyright 1988, Gaussian, Inc.),
 the Gaussian 86(TM) system (copyright 1986, Carnegie Mellon
 University), and the Gaussian 82(TM) system (copyright 1983,
 Carnegie Mellon University). Gaussian is a federally registered
 trademark of Gaussian, Inc.
  
 This software contains proprietary and confidential information,
 including trade secrets, belonging to Gaussian, Inc.
  
 This software is provided under written license and may be
 used, copied, transmitted, or stored only in accord with that
 written license.
  
 The following legend is applicable only to US Government
 contracts under FAR:
  
                    RESTRICTED RIGHTS LEGEND
  
 Use, reproduction and disclosure by the US Government is
 subject to restrictions as set forth in subparagraphs (a)
 and (c) of the Commercial Computer Software - Restricted
 Rights clause in FAR 52.227-19.
  
 Gaussian, Inc.
 340 Quinnipiac St., Bldg. 40, Wallingford CT 06492
  
  
 ---------------------------------------------------------------
 Warning -- This program may not be used in any manner that
 competes with the business of Gaussian, Inc. or will provide
 assistance to any competitor of Gaussian, Inc.  The licensee
 of this program is prohibited from giving any competitor of
 Gaussian, Inc. access to this program.  By using this program,
 the user acknowledges that Gaussian, Inc. is engaged in the
 business of creating and licensing software in the field of
 computational chemistry and represents and warrants to the
 licensee that it is not a competitor of Gaussian, Inc. and that
 it will not use this program in any manner prohibited above.
 ---------------------------------------------------------------
  

 Cite this work as:
 Gaussian 16, Revision C.01,
 M. J. Frisch, G. W. Trucks, H. B. Schlegel, G. E. Scuseria, 
 M. A. Robb, J. R. Cheeseman, G. Scalmani, V. Barone, 
 G. A. Petersson, H. Nakatsuji, X. Li, M. Caricato, A. V. Marenich, 
 J. Bloino, B. G. Janesko, R. Gomperts, B. Mennucci, H. P. Hratchian, 
 J. V. Ortiz, A. F. Izmaylov, J. L. Sonnenberg, D. Williams-Young, 
 F. Ding, F. Lipparini, F. Egidi, J. Goings, B. Peng, A. Petrone, 
 T. Henderson, D. Ranasinghe, V. G. Zakrzewski, J. Gao, N. Rega, 
 G. Zheng, W. Liang, M. Hada, M. Ehara, K. Toyota, R. Fukuda, 
 J. Hasegawa, M. Ishida, T. Nakajima, Y. Honda, O. Kitao, H. Nakai, 
 T. Vreven, K. Throssell, J. A. Montgomery, Jr., J. E. Peralta, 
 F. Ogliaro, M. J. Bearpark, J. J. Heyd, E. N. Brothers, K. N. Kudin, 
 V. N. Staroverov, T. A. Keith, R. Kobayashi, J. Normand, 
 K. Raghavachari, A. P. Rendell, J. C. Burant, S. S. Iyengar, 
 J. Tomasi, M. Cossi, J. M. Millam, M. Klene, C. Adamo, R. Cammi, 
 J. W. Ochterski, R. L. Martin, K. Morokuma, O. Farkas, 
 J. B. Foresman, and D. J. Fox, Gaussian, Inc., Wallingford CT, 2019.
 
 ******************************************
 Gaussian 16:  ES64L-G16RevC.01  3-Jul-2019
                 1-Jul-2022 
 ******************************************
 %nproc=16
 Will use up to   16 processors via shared memory.
 %mem=50gb
 -----------------------------------------------------
 #m062X/gen 6D OPT Freq=noraman SCRF=(SMD,Solvent=h2o)
 -----------------------------------------------------
 1/18=20,19=15,26=3,38=1/1,3;
 2/9=110,12=2,17=6,18=5,40=1/2;
 3/5=7,8=2,11=2,25=1,30=1,70=32201,71=1,72=1,74=-55/1,2,3;
 4//1;
 5/5=2,38=5,53=1/2;
 6/7=2,8=2,9=2,10=2,28=1/1;
 7//1,2,3,16;
 1/18=20,19=15,26=3/3(2);
 2/9=110/2;
 99//99;
 2/9=110/2;
 3/5=7,6=1,8=2,11=2,25=1,30=1,70=32205,71=1,72=1,74=-55,82=7/1,2,3;
 4/5=5,16=3,69=1/1;
 5/5=2,38=5,53=1/2;
 7//1,2,3,16;
 1/18=20,19=15,26=3/3(-5);
 2/9=110/2;
 6/7=2,8=2,9=2,10=2,19=2,28=1/1;
 99/9=1/99;
 -----------------
 A.31.smd.a2b3.smd
 -----------------
 Symbolic Z-matrix:
 Charge = -1 Multiplicity = 1
 C                    -1.42583   0.60909  -0.82606 
 C                    -2.53716   0.52609  -1.67946 
 Cl                   -4.15971   0.53849  -1.04593 
 C                    -2.39852   0.42984  -3.05347 
 H                    -3.27224   0.38269  -3.69514 
 C                    -1.12652   0.40712  -3.6406 
 C                    -0.02493   0.467    -2.77224 
 S                     1.57861   0.25882  -3.44169 
 C                    -0.15967   0.56895  -1.38968 
 H                     0.71554   0.62156  -0.74875 
 S                    -1.56984   0.75028   0.98334 
 O                    -2.3126   -0.47823   1.35586 
 O                    -0.14785   0.75963   1.42724 
 N                    -2.4101    2.00262   1.36546 
 H                    -3.2061    2.06811   0.72787 
 N                    -1.0542    0.37178  -5.0337 
 C                     0.07243   0.61112  -5.6032 
 N                     1.27106   0.86101  -4.96914 
 O                     2.56503   1.12488  -2.80581 
 O                     1.90035  -1.16416  -3.5271 
 H                     0.12614   0.67956  -6.68586 
 H                     2.0956    1.01853  -5.55327 
 

 GradGradGradGradGradGradGradGradGradGradGradGradGradGradGradGradGradGrad
 Berny optimization.
 Initialization pass.
                           ----------------------------
                           !    Initial Parameters    !
                           ! (Angstroms and Degrees)  !
 --------------------------                            --------------------------
 ! Name  Definition              Value          Derivative Info.                !
 --------------------------------------------------------------------------------
 ! R1    R(1,2)                  1.4037         estimate D2E/DX2                !
 ! R2    R(1,9)                  1.3865         estimate D2E/DX2                !
 ! R3    R(1,11)                 1.8206         estimate D2E/DX2                !
 ! R4    R(2,3)                  1.7419         estimate D2E/DX2                !
 ! R5    R(2,4)                  1.3843         estimate D2E/DX2                !
 ! R6    R(4,5)                  1.0851         estimate D2E/DX2                !
 ! R7    R(4,6)                  1.4011         estimate D2E/DX2                !
 ! R8    R(6,7)                  1.404          estimate D2E/DX2                !
 ! R9    R(6,16)                 1.3954         estimate D2E/DX2                !
 ! R10   R(7,8)                  1.7501         estimate D2E/DX2                !
 ! R11   R(7,9)                  1.3928         estimate D2E/DX2                !
 ! R12   R(8,18)                 1.6704         estimate D2E/DX2                !
 ! R13   R(8,19)                 1.4586         estimate D2E/DX2                !
 ! R14   R(8,20)                 1.4614         estimate D2E/DX2                !
 ! R15   R(9,10)                 1.0861         estimate D2E/DX2                !
 ! R16   R(11,12)                1.4831         estimate D2E/DX2                !
 ! R17   R(11,13)                1.4897         estimate D2E/DX2                !
 ! R18   R(11,14)                1.5558         estimate D2E/DX2                !
 ! R19   R(14,15)                1.022          estimate D2E/DX2                !
 ! R20   R(16,17)                1.2849         estimate D2E/DX2                !
 ! R21   R(17,18)                1.3788         estimate D2E/DX2                !
 ! R22   R(17,21)                1.0862         estimate D2E/DX2                !
 ! R23   R(18,22)                1.0227         estimate D2E/DX2                !
 ! A1    A(2,1,9)              118.3041         estimate D2E/DX2                !
 ! A2    A(2,1,11)             123.1072         estimate D2E/DX2                !
 ! A3    A(9,1,11)             118.5859         estimate D2E/DX2                !
 ! A4    A(1,2,3)              121.0608         estimate D2E/DX2                !
 ! A5    A(1,2,4)              121.8889         estimate D2E/DX2                !
 ! A6    A(3,2,4)              117.0503         estimate D2E/DX2                !
 ! A7    A(2,4,5)              120.6195         estimate D2E/DX2                !
 ! A8    A(2,4,6)              120.5277         estimate D2E/DX2                !
 ! A9    A(5,4,6)              118.8488         estimate D2E/DX2                !
 ! A10   A(4,6,7)              116.9002         estimate D2E/DX2                !
 ! A11   A(4,6,16)             117.7621         estimate D2E/DX2                !
 ! A12   A(7,6,16)             125.3018         estimate D2E/DX2                !
 ! A13   A(6,7,8)              118.5065         estimate D2E/DX2                !
 ! A14   A(6,7,9)              122.7622         estimate D2E/DX2                !
 ! A15   A(8,7,9)              118.492          estimate D2E/DX2                !
 ! A16   A(7,8,18)              97.9434         estimate D2E/DX2                !
 ! A17   A(7,8,19)             112.4737         estimate D2E/DX2                !
 ! A18   A(7,8,20)             109.8713         estimate D2E/DX2                !
 ! A19   A(18,8,19)            108.0055         estimate D2E/DX2                !
 ! A20   A(18,8,20)            109.7619         estimate D2E/DX2                !
 ! A21   A(19,8,20)            117.0493         estimate D2E/DX2                !
 ! A22   A(1,9,7)              119.6008         estimate D2E/DX2                !
 ! A23   A(1,9,10)             119.6437         estimate D2E/DX2                !
 ! A24   A(7,9,10)             120.7549         estimate D2E/DX2                !
 ! A25   A(1,11,12)            103.0029         estimate D2E/DX2                !
 ! A26   A(1,11,13)            102.7756         estimate D2E/DX2                !
 ! A27   A(1,11,14)            110.4417         estimate D2E/DX2                !
 ! A28   A(12,11,13)           114.1039         estimate D2E/DX2                !
 ! A29   A(12,11,14)           109.5479         estimate D2E/DX2                !
 ! A30   A(13,11,14)           115.9321         estimate D2E/DX2                !
 ! A31   A(11,14,15)           108.6038         estimate D2E/DX2                !
 ! A32   A(6,16,17)            118.896          estimate D2E/DX2                !
 ! A33   A(16,17,18)           126.3119         estimate D2E/DX2                !
 ! A34   A(16,17,21)           119.795          estimate D2E/DX2                !
 ! A35   A(18,17,21)           113.8267         estimate D2E/DX2                !
 ! A36   A(8,18,17)            121.0117         estimate D2E/DX2                !
 ! A37   A(8,18,22)            115.4271         estimate D2E/DX2                !
 ! A38   A(17,18,22)           117.784          estimate D2E/DX2                !
 ! D1    D(9,1,2,3)            178.8046         estimate D2E/DX2                !
 ! D2    D(9,1,2,4)             -1.1275         estimate D2E/DX2                !
 ! D3    D(11,1,2,3)            -0.581          estimate D2E/DX2                !
 ! D4    D(11,1,2,4)           179.487          estimate D2E/DX2                !
 ! D5    D(2,1,9,7)              0.8627         estimate D2E/DX2                !
 ! D6    D(2,1,9,10)          -179.3942         estimate D2E/DX2                !
 ! D7    D(11,1,9,7)          -179.7235         estimate D2E/DX2                !
 ! D8    D(11,1,9,10)            0.0197         estimate D2E/DX2                !
 ! D9    D(2,1,11,12)           59.3836         estimate D2E/DX2                !
 ! D10   D(2,1,11,13)          178.209          estimate D2E/DX2                !
 ! D11   D(2,1,11,14)          -57.5237         estimate D2E/DX2                !
 ! D12   D(9,1,11,12)         -120.0003         estimate D2E/DX2                !
 ! D13   D(9,1,11,13)           -1.1749         estimate D2E/DX2                !
 ! D14   D(9,1,11,14)          123.0924         estimate D2E/DX2                !
 ! D15   D(1,2,4,5)           -179.0216         estimate D2E/DX2                !
 ! D16   D(1,2,4,6)              0.2408         estimate D2E/DX2                !
 ! D17   D(3,2,4,5)              1.0438         estimate D2E/DX2                !
 ! D18   D(3,2,4,6)           -179.6938         estimate D2E/DX2                !
 ! D19   D(2,4,6,7)              0.8677         estimate D2E/DX2                !
 ! D20   D(2,4,6,16)          -177.0701         estimate D2E/DX2                !
 ! D21   D(5,4,6,7)           -179.857          estimate D2E/DX2                !
 ! D22   D(5,4,6,16)             2.2052         estimate D2E/DX2                !
 ! D23   D(4,6,7,8)            173.154          estimate D2E/DX2                !
 ! D24   D(4,6,7,9)             -1.1356         estimate D2E/DX2                !
 ! D25   D(16,6,7,8)            -9.0821         estimate D2E/DX2                !
 ! D26   D(16,6,7,9)           176.6283         estimate D2E/DX2                !
 ! D27   D(4,6,16,17)          166.6046         estimate D2E/DX2                !
 ! D28   D(7,6,16,17)          -11.1419         estimate D2E/DX2                !
 ! D29   D(6,7,8,18)            29.0819         estimate D2E/DX2                !
 ! D30   D(6,7,8,19)           142.3775         estimate D2E/DX2                !
 ! D31   D(6,7,8,20)           -85.3388         estimate D2E/DX2                !
 ! D32   D(9,7,8,18)          -156.3812         estimate D2E/DX2                !
 ! D33   D(9,7,8,19)           -43.0856         estimate D2E/DX2                !
 ! D34   D(9,7,8,20)            89.1982         estimate D2E/DX2                !
 ! D35   D(6,7,9,1)              0.2685         estimate D2E/DX2                !
 ! D36   D(6,7,9,10)          -179.4717         estimate D2E/DX2                !
 ! D37   D(8,7,9,1)           -174.0219         estimate D2E/DX2                !
 ! D38   D(8,7,9,10)             6.2379         estimate D2E/DX2                !
 ! D39   D(7,8,18,17)          -37.8515         estimate D2E/DX2                !
 ! D40   D(7,8,18,22)          169.5246         estimate D2E/DX2                !
 ! D41   D(19,8,18,17)        -154.6715         estimate D2E/DX2                !
 ! D42   D(19,8,18,22)          52.7046         estimate D2E/DX2                !
 ! D43   D(20,8,18,17)          76.6558         estimate D2E/DX2                !
 ! D44   D(20,8,18,22)         -75.9681         estimate D2E/DX2                !
 ! D45   D(1,11,14,15)          41.5233         estimate D2E/DX2                !
 ! D46   D(12,11,14,15)        -71.2539         estimate D2E/DX2                !
 ! D47   D(13,11,14,15)        157.8609         estimate D2E/DX2                !
 ! D48   D(6,16,17,18)           2.5661         estimate D2E/DX2                !
 ! D49   D(6,16,17,21)        -174.28           estimate D2E/DX2                !
 ! D50   D(16,17,18,8)          26.8629         estimate D2E/DX2                !
 ! D51   D(16,17,18,22)        178.8673         estimate D2E/DX2                !
 ! D52   D(21,17,18,8)        -156.129          estimate D2E/DX2                !
 ! D53   D(21,17,18,22)         -4.1245         estimate D2E/DX2                !
 --------------------------------------------------------------------------------
 Trust Radius=3.00D-01 FncErr=1.00D-07 GrdErr=1.00D-06 EigMax=2.50D+02 EigMin=1.00D-04
 Number of steps in this run=    124 maximum allowed number of steps=    132.
 GradGradGradGradGradGradGradGradGradGradGradGradGradGradGradGradGradGrad

                          Input orientation:                          
 ---------------------------------------------------------------------
 Center     Atomic      Atomic             Coordinates (Angstroms)
 Number     Number       Type             X           Y           Z
 ---------------------------------------------------------------------
      1          6           0       -1.425833    0.609085   -0.826055
      2          6           0       -2.537159    0.526094   -1.679462
      3         17           0       -4.159711    0.538494   -1.045931
      4          6           0       -2.398519    0.429839   -3.053470
      5          1           0       -3.272244    0.382689   -3.695140
      6          6           0       -1.126525    0.407124   -3.640599
      7          6           0       -0.024930    0.467003   -2.772239
      8         16           0        1.578613    0.258818   -3.441685
      9          6           0       -0.159668    0.568950   -1.389677
     10          1           0        0.715544    0.621557   -0.748749
     11         16           0       -1.569842    0.750280    0.983335
     12          8           0       -2.312599   -0.478226    1.355858
     13          8           0       -0.147851    0.759629    1.427244
     14          7           0       -2.410104    2.002622    1.365455
     15          1           0       -3.206098    2.068114    0.727869
     16          7           0       -1.054198    0.371780   -5.033704
     17          6           0        0.072431    0.611116   -5.603197
     18          7           0        1.271055    0.861005   -4.969139
     19          8           0        2.565029    1.124883   -2.805805
     20          8           0        1.900353   -1.164162   -3.527099
     21          1           0        0.126136    0.679557   -6.685863
     22          1           0        2.095605    1.018531   -5.553272
 ---------------------------------------------------------------------
                    Distance matrix (angstroms):
                    1          2          3          4          5
     1  C    0.000000
     2  C    1.403651   0.000000
     3  Cl   2.743614   1.741893   0.000000
     4  C    2.437135   1.384335   2.672792   0.000000
     5  H    3.419377   2.150319   2.798246   1.085062   0.000000
     6  C    2.837610   2.418698   3.993717   1.401144   2.146551
     7  C    2.402155   2.740246   4.481257   2.390480   3.376967
     8  S    3.998863   4.485136   6.224646   3.999692   4.859053
     9  C    1.386526   2.395470   4.014901   2.792850   3.877884
    10  H    2.142808   3.384585   4.885011   3.878902   4.963943
    11  S    1.820595   2.841909   3.296998   4.133423   4.992136
    12  O    2.594098   3.205036   3.195956   4.502681   5.212933
    13  O    2.594852   3.926188   4.718105   5.025044   6.011883
    14  N    2.777310   3.386414   3.319575   4.690488   5.383037
    15  H    2.777191   2.936077   2.528929   4.199363   4.733713
    16  N    4.230690   3.670685   5.057108   2.394138   2.590676
    17  C    5.006584   4.713055   6.219725   3.555216   3.857423
    18  N    4.949931   5.043474   6.707369   4.161906   4.742723
    19  O    4.484689   5.259232   6.975897   5.018091   5.951094
    20  O    4.637193   5.095316   6.766063   4.609280   5.401550
    21  H    6.062254   5.672807   7.084999   4.430634   4.536688
    22  H    5.908871   6.058993   7.724994   5.176168   5.715833
                    6          7          8          9         10
     6  C    0.000000
     7  C    1.403975   0.000000
     8  S    2.716493   1.750100   0.000000
     9  C    2.455127   1.392848   2.707128   0.000000
    10  H    3.435403   2.160255   2.851030   1.086072   0.000000
    11  S    4.657795   4.070790   5.452991   2.766344   2.870483
    12  O    5.211065   4.813322   6.221028   3.642753   3.848187
    13  O    5.173499   4.211460   5.190179   2.823392   2.345093
    14  N    5.408675   5.016741   6.485315   3.835444   4.018317
    15  H    5.115371   4.993410   6.599408   4.001528   4.433081
    16  N    1.395429   2.486500   3.078795   3.757392   4.642759
    17  C    2.308874   2.836295   2.657975   4.220118   4.896873
    18  N    2.778384   2.580927   1.670430   3.865852   4.263522
    19  O    3.852224   2.672418   1.458571   3.120650   2.811656
    20  O    3.412303   2.633862   1.461398   3.437432   3.508817
    21  H    3.304090   3.922302   3.579302   5.305045   5.966581
    22  H    3.796611   3.540480   2.302877   4.756459   5.014539
                   11         12         13         14         15
    11  S    0.000000
    12  O    1.483135   0.000000
    13  O    1.489698   2.494697   0.000000
    14  N    1.555769   2.482782   2.581983   0.000000
    15  H    2.116432   2.770660   3.399137   1.021965   0.000000
    16  N    6.050943   6.567540   6.535728   6.741466   6.379964
    17  C    6.789612   7.436631   7.035459   7.527375   7.276949
    18  N    6.596583   7.392003   6.552655   7.414938   7.345605
    19  O    5.620949   6.609134   5.041015   6.551472   6.832455
    20  O    6.004278   6.485580   5.695755   7.248837   7.391089
    21  H    7.854804   8.482757   8.118127   8.544398   8.245926
    22  H    7.498979   8.331184   7.336738   8.314964   8.286279
                   16         17         18         19         20
    16  N    0.000000
    17  C    1.284872   0.000000
    18  N    2.377038   1.378831   0.000000
    19  O    4.316191   3.781852   2.534564   0.000000
    20  O    3.654907   3.286806   2.564527   2.490339   0.000000
    21  H    2.053666   1.086156   2.071450   4.604494   4.065087
    22  H    3.257222   2.064392   1.022697   2.789309   2.984568
                   21         22
    21  H    0.000000
    22  H    2.297058   0.000000
 Stoichiometry    C7H5ClN3O4S2(1-)
 Framework group  C1[X(C7H5ClN3O4S2)]
 Deg. of freedom    60
 Full point group                 C1      NOp   1
 Largest Abelian subgroup         C1      NOp   1
 Largest concise Abelian subgroup C1      NOp   1
                         Standard orientation:                         
 ---------------------------------------------------------------------
 Center     Atomic      Atomic             Coordinates (Angstroms)
 Number     Number       Type             X           Y           Z
 ---------------------------------------------------------------------
      1          6           0        1.198512   -0.121778   -0.023413
      2          6           0        1.187533    1.280199    0.044236
      3         17           0        2.672416    2.188384    0.111417
      4          6           0        0.006569    2.002272    0.062073
      5          1           0        0.022278    3.086599    0.098780
      6          6           0       -1.230144    1.345189    0.017480
      7          6           0       -1.202791   -0.057846   -0.026019
      8         16           0       -2.716451   -0.927097    0.100809
      9          6           0       -0.017050   -0.788261   -0.049183
     10          1           0       -0.033920   -1.873380   -0.091418
     11         16           0        2.731242   -1.103504   -0.062391
     12          8           0        3.402502   -0.724655    1.204721
     13          8           0        2.224725   -2.504225   -0.087366
     14          7           0        3.617850   -0.679047   -1.268284
     15          1           0        3.596566    0.339739   -1.345958
     16          7           0       -2.382534    2.130964   -0.024664
     17          6           0       -3.501641    1.576161   -0.325812
     18          7           0       -3.707659    0.235656   -0.574357
     19          8           0       -2.755777   -2.106281   -0.756750
     20          8           0       -3.064142   -1.116509    1.507549
     21          1           0       -4.389968    2.187816   -0.454226
     22          1           0       -4.660677   -0.068947   -0.786212
 ---------------------------------------------------------------------
 Rotational constants (GHZ):           0.6737049           0.2421050           0.1917408
 General basis read from cards:  (6D, 7F)
 There are   345 symmetry adapted cartesian basis functions of A   symmetry.
 There are   345 symmetry adapted basis functions of A   symmetry.
   345 basis functions,   636 primitive gaussians,   345 cartesian basis functions
    75 alpha electrons       75 beta electrons
       nuclear repulsion energy      1682.1895951294 Hartrees.
 NAtoms=   22 NActive=   22 NUniq=   22 SFac= 1.00D+00 NAtFMM=   60 NAOKFM=F Big=F
 Integral buffers will be    131072 words long.
 Raffenetti 2 integral format.
 Two-electron integral symmetry is turned on.
 ------------------------------------------------------------------------------
 Polarizable Continuum Model (PCM)
 =================================
 Model                : PCM.
 Atomic radii         : SMD-Coulomb.
 Polarization charges : Total charges.
 Charge compensation  : None.
 Solution method      : On-the-fly selection.
 Cavity type          : VdW (van der Waals Surface) (Alpha=1.000).
 Cavity algorithm     : GePol (No added spheres)
                        Default sphere list used, NSphG=   22.
                        Lebedev-Laikov grids with approx.  5.0 points / Ang**2.
                        Smoothing algorithm: York/Karplus (Gamma=1.0000).
                        Polarization charges: spherical gaussians, with
                                              point-specific exponents (IZeta= 3).
                        Self-potential: point-specific (ISelfS= 7).
                        Self-field    : sphere-specific E.n sum rule (ISelfD= 2).
 1st derivatives      : Analytical E(r).r(x)/FMM algorithm (CHGder, D1EAlg=3).
                        Cavity 1st derivative terms included.
 Solvent              : Water, Eps=  78.355300 Eps(inf)=   1.777849
 ------------------------------------------------------------------------------
 ------------------------------------------------------------------------------
 Atomic radii for non-electrostatic terms: SMD-CDS.
 ------------------------------------------------------------------------------
 Nuclear repulsion after PCM non-electrostatic terms =     1682.1929809416 Hartrees.
 One-electron integrals computed using PRISM.
 NBasis=   345 RedAO= T EigKep=  1.99D-06  NBF=   345
 NBsUse=   343 1.00D-06 EigRej=  7.62D-07 NBFU=   343
 ExpMin= 4.05D-02 ExpMax= 2.52D+04 ExpMxC= 3.78D+03 IAcc=3 IRadAn=         5 AccDes= 0.00D+00
 Harris functional with IExCor= 1009 and IRadAn=       5 diagonalized for initial guess.
 HarFok:  IExCor= 1009 AccDes= 0.00D+00 IRadAn=         5 IDoV= 1 UseB2=F ITyADJ=14
 ICtDFT=  3500011 ScaDFX=  1.000000  1.000000  1.000000  1.000000
 FoFCou: FMM=F IPFlag=           0 FMFlag=      100000 FMFlg1=           0
         NFxFlg=           0 DoJE=T BraDBF=F KetDBF=T FulRan=T
         wScrn=  0.000000 ICntrl=       500 IOpCl=  0 I1Cent=   200000004 NGrid=           0
         NMat0=    1 NMatS0=      1 NMatT0=    0 NMatD0=    1 NMtDS0=    0 NMtDT0=    0
 Petite list used in FoFCou.
 Requested convergence on RMS density matrix=1.00D-08 within 128 cycles.
 Requested convergence on MAX density matrix=1.00D-06.
 Requested convergence on             energy=1.00D-06.
 No special actions if energy rises.
 Inv3:  Mode=1 IEnd=    11477808.
 Iteration    1 A*A^-1 deviation from unit magnitude is 6.66D-15 for   1946.
 Iteration    1 A*A^-1 deviation from orthogonality  is 1.73D-15 for   1940   1101.
 Iteration    1 A^-1*A deviation from unit magnitude is 7.11D-15 for   1946.
 Iteration    1 A^-1*A deviation from orthogonality  is 1.70D-15 for   1933    335.
 Error on total polarization charges =  0.04410
 SCF Done:  E(RM062X) =  -1991.14215636     A.U. after   17 cycles
            NFock= 17  Conv=0.52D-08     -V/T= 2.0051
 SMD-CDS (non-electrostatic) energy       (kcal/mol) =       2.12
 (included in total energy above)

 **********************************************************************

            Population analysis using the SCF Density.

 **********************************************************************

 Orbital symmetries:
       Occupied  (A) (A) (A) (A) (A) (A) (A) (A) (A) (A) (A) (A)
                 (A) (A) (A) (A) (A) (A) (A) (A) (A) (A) (A) (A)
                 (A) (A) (A) (A) (A) (A) (A) (A) (A) (A) (A) (A)
                 (A) (A) (A) (A) (A) (A) (A) (A) (A) (A) (A) (A)
                 (A) (A) (A) (A) (A) (A) (A) (A) (A) (A) (A) (A)
                 (A) (A) (A) (A) (A) (A) (A) (A) (A) (A) (A) (A)
                 (A) (A) (A)
       Virtual   (A) (A) (A) (A) (A) (A) (A) (A) (A) (A) (A) (A)
                 (A) (A) (A) (A) (A) (A) (A) (A) (A) (A) (A) (A)
                 (A) (A) (A) (A) (A) (A) (A) (A) (A) (A) (A) (A)
                 (A) (A) (A) (A) (A) (A) (A) (A) (A) (A) (A) (A)
                 (A) (A) (A) (A) (A) (A) (A) (A) (A) (A) (A) (A)
                 (A) (A) (A) (A) (A) (A) (A) (A) (A) (A) (A) (A)
                 (A) (A) (A) (A) (A) (A) (A) (A) (A) (A) (A) (A)
                 (A) (A) (A) (A) (A) (A) (A) (A) (A) (A) (A) (A)
                 (A) (A) (A) (A) (A) (A) (A) (A) (A) (A) (A) (A)
                 (A) (A) (A) (A) (A) (A) (A) (A) (A) (A) (A) (A)
                 (A) (A) (A) (A) (A) (A) (A) (A) (A) (A) (A) (A)
                 (A) (A) (A) (A) (A) (A) (A) (A) (A) (A) (A) (A)
                 (A) (A) (A) (A) (A) (A) (A) (A) (A) (A) (A) (A)
                 (A) (A) (A) (A) (A) (A) (A) (A) (A) (A) (A) (A)
                 (A) (A) (A) (A) (A) (A) (A) (A) (A) (A) (A) (A)
                 (A) (A) (A) (A) (A) (A) (A) (A) (A) (A) (A) (A)
                 (A) (A) (A) (A) (A) (A) (A) (A) (A) (A) (A) (A)
                 (A) (A) (A) (A) (A) (A) (A) (A) (A) (A) (A) (A)
                 (A) (A) (A) (A) (A) (A) (A) (A) (A) (A) (A) (A)
                 (A) (A) (A) (A) (A) (A) (A) (A) (A) (A) (A) (A)
                 (A) (A) (A) (A) (A) (A) (A) (A) (A) (A) (A) (A)
                 (A) (A) (A) (A) (A) (A) (A) (A) (A) (A) (A) (A)
                 (A) (A) (A) (A)
 The electronic state is 1-A.
 Alpha  occ. eigenvalues -- -102.69134 -90.20087 -90.14592 -19.67622 -19.67365
 Alpha  occ. eigenvalues --  -19.63390 -19.61697 -14.84071 -14.78613 -14.72126
 Alpha  occ. eigenvalues --  -10.66393 -10.64983 -10.63448 -10.61627 -10.60424
 Alpha  occ. eigenvalues --  -10.60006 -10.58619  -9.83792  -8.51068  -8.45407
 Alpha  occ. eigenvalues --   -7.56196  -7.55539  -7.55497  -6.43322  -6.43209
 Alpha  occ. eigenvalues --   -6.43120  -6.37638  -6.37567  -6.37500  -1.27737
 Alpha  occ. eigenvalues --   -1.21676  -1.15703  -1.12357  -1.09972  -1.04398
 Alpha  occ. eigenvalues --   -1.01765  -0.97124  -0.96702  -0.89400  -0.88371
 Alpha  occ. eigenvalues --   -0.80131  -0.77592  -0.73297  -0.70496  -0.66168
 Alpha  occ. eigenvalues --   -0.65969  -0.64613  -0.61257  -0.59038  -0.58012
 Alpha  occ. eigenvalues --   -0.57224  -0.55793  -0.54629  -0.53355  -0.52903
 Alpha  occ. eigenvalues --   -0.51994  -0.50166  -0.48947  -0.47528  -0.45608
 Alpha  occ. eigenvalues --   -0.45003  -0.42899  -0.42112  -0.41400  -0.40984
 Alpha  occ. eigenvalues --   -0.39812  -0.39674  -0.38951  -0.38323  -0.36860
 Alpha  occ. eigenvalues --   -0.36300  -0.34254  -0.33016  -0.31242  -0.28771
 Alpha virt. eigenvalues --   -0.04180  -0.02181   0.00919   0.01995   0.02600
 Alpha virt. eigenvalues --    0.03545   0.03599   0.04111   0.04138   0.04747
 Alpha virt. eigenvalues --    0.05492   0.05647   0.06351   0.06935   0.07232
 Alpha virt. eigenvalues --    0.07592   0.07991   0.08801   0.09737   0.10081
 Alpha virt. eigenvalues --    0.10307   0.10481   0.10897   0.11320   0.11664
 Alpha virt. eigenvalues --    0.12571   0.12921   0.13395   0.13841   0.14096
 Alpha virt. eigenvalues --    0.14249   0.15496   0.15959   0.16461   0.16732
 Alpha virt. eigenvalues --    0.17137   0.17666   0.18594   0.18760   0.19577
 Alpha virt. eigenvalues --    0.20278   0.20749   0.21126   0.21669   0.21831
 Alpha virt. eigenvalues --    0.22325   0.22769   0.22872   0.23740   0.23945
 Alpha virt. eigenvalues --    0.24457   0.24817   0.25449   0.25556   0.26062
 Alpha virt. eigenvalues --    0.26385   0.26980   0.27121   0.27543   0.27704
 Alpha virt. eigenvalues --    0.28487   0.29086   0.29181   0.29749   0.30364
 Alpha virt. eigenvalues --    0.30471   0.31056   0.31386   0.31658   0.32100
 Alpha virt. eigenvalues --    0.32745   0.33245   0.33513   0.34096   0.34485
 Alpha virt. eigenvalues --    0.34953   0.35432   0.35689   0.36834   0.37418
 Alpha virt. eigenvalues --    0.38080   0.38849   0.39893   0.41273   0.41741
 Alpha virt. eigenvalues --    0.42523   0.43307   0.44866   0.47214   0.48317
 Alpha virt. eigenvalues --    0.50007   0.52377   0.55521   0.58634   0.59813
 Alpha virt. eigenvalues --    0.60644   0.62446   0.65159   0.65532   0.66069
 Alpha virt. eigenvalues --    0.66586   0.67895   0.68980   0.70657   0.70955
 Alpha virt. eigenvalues --    0.71534   0.72668   0.73869   0.74342   0.75505
 Alpha virt. eigenvalues --    0.77203   0.77758   0.79318   0.80003   0.81779
 Alpha virt. eigenvalues --    0.83686   0.85491   0.86512   0.89383   0.90778
 Alpha virt. eigenvalues --    0.92683   0.93165   0.94867   0.95979   0.96401
 Alpha virt. eigenvalues --    0.97793   0.98740   1.00229   1.01472   1.02643
 Alpha virt. eigenvalues --    1.02761   1.04231   1.05363   1.06562   1.07275
 Alpha virt. eigenvalues --    1.07784   1.08716   1.09581   1.10612   1.10679
 Alpha virt. eigenvalues --    1.12853   1.14520   1.15391   1.15911   1.16550
 Alpha virt. eigenvalues --    1.17666   1.17760   1.20414   1.21462   1.22392
 Alpha virt. eigenvalues --    1.23909   1.25355   1.25681   1.27235   1.28155
 Alpha virt. eigenvalues --    1.29446   1.32569   1.33434   1.33784   1.35197
 Alpha virt. eigenvalues --    1.36050   1.36336   1.37997   1.38772   1.39193
 Alpha virt. eigenvalues --    1.40512   1.40688   1.42845   1.43443   1.43564
 Alpha virt. eigenvalues --    1.44500   1.46967   1.48097   1.49919   1.50938
 Alpha virt. eigenvalues --    1.52010   1.52745   1.53491   1.55449   1.57324
 Alpha virt. eigenvalues --    1.57651   1.60879   1.61084   1.63990   1.71145
 Alpha virt. eigenvalues --    1.73823   1.77213   1.80422   1.80891   1.81684
 Alpha virt. eigenvalues --    1.82679   1.83680   1.84113   1.84599   1.85285
 Alpha virt. eigenvalues --    1.85988   1.87103   1.88446   1.89275   1.90199
 Alpha virt. eigenvalues --    1.91643   1.92886   1.94106   1.98142   1.98590
 Alpha virt. eigenvalues --    2.00142   2.02117   2.03742   2.06525   2.07404
 Alpha virt. eigenvalues --    2.08128   2.10088   2.13868   2.15703   2.17094
 Alpha virt. eigenvalues --    2.18474   2.19910   2.20723   2.22299   2.23387
 Alpha virt. eigenvalues --    2.25741   2.26666   2.29185   2.30153   2.30632
 Alpha virt. eigenvalues --    2.34465   2.37566   2.40317   2.41849   2.42204
 Alpha virt. eigenvalues --    2.44216   2.52697   2.59279   2.62657   2.63282
 Alpha virt. eigenvalues --    2.67682   2.68410   2.68629   2.74262   2.77104
 Alpha virt. eigenvalues --    2.79805   2.81010   2.86288   2.88266   2.91024
 Alpha virt. eigenvalues --    2.94499   2.97431   2.99709   3.06184   3.27407
 Alpha virt. eigenvalues --    3.33440   4.01054   4.01746   4.07457   4.12632
 Alpha virt. eigenvalues --    4.19312   4.23197   4.25279   4.29285   4.31088
 Alpha virt. eigenvalues --    4.34997   4.37522   4.38670   4.40568   4.43236
 Alpha virt. eigenvalues --    4.48162   4.52038   4.73863
          Condensed to atoms (all electrons):
               1          2          3          4          5          6
     1  C   52.547967  -5.531919   0.372126  -5.141167   0.045003   1.330892
     2  C   -5.531919  37.192025  -0.976071 -10.301809  -0.048289   7.437155
     3  Cl   0.372126  -0.976071  17.127102   0.274177  -0.002777  -0.159421
     4  C   -5.141167 -10.301809   0.274177  27.004618   0.345232 -15.623531
     5  H    0.045003  -0.048289  -0.002777   0.345232   0.398611  -0.095925
     6  C    1.330892   7.437155  -0.159421 -15.623531  -0.095925  33.131472
     7  C  -17.400922  -4.550209  -0.102668  -1.155225   0.055905  -9.681395
     8  S   -3.948611  -0.526348  -0.008632   2.062587   0.001385  -1.211907
     9  C  -13.586199 -18.625938   0.157692  10.765338   0.005274 -10.403786
    10  H   -0.162693  -0.028976  -0.000609   0.003949   0.000008  -0.040724
    11  S    0.677446  -0.309416   0.164449   0.207736  -0.000276   0.637712
    12  O   -0.070655   0.511244  -0.063818  -0.080481   0.000045   0.229422
    13  O   -0.368882  -0.184559   0.015470   0.034778   0.000024   0.009661
    14  N   -0.348284   0.653541  -0.058115  -0.072766  -0.000065   0.177888
    15  H    0.080834  -0.265430   0.031160   0.043833  -0.000002  -0.017506
    16  N    0.050207   0.092226  -0.002256  -0.283271  -0.001617  -0.185026
    17  C    0.260391   0.154508  -0.006188  -1.104721   0.001553   0.001311
    18  N   -0.467241   0.099522  -0.001178   0.006726   0.000074  -0.028603
    19  O   -0.136664  -0.017581  -0.000044   0.156591   0.000015   0.170125
    20  O   -0.056221   0.014483  -0.000347   0.066342   0.000012  -0.159829
    21  H    0.001456  -0.002990   0.000028   0.002341   0.000005   0.035214
    22  H    0.004444  -0.001108   0.000004  -0.001353   0.000000  -0.014877
               7          8          9         10         11         12
     1  C  -17.400922  -3.948611 -13.586199  -0.162693   0.677446  -0.070655
     2  C   -4.550209  -0.526348 -18.625938  -0.028976  -0.309416   0.511244
     3  Cl  -0.102668  -0.008632   0.157692  -0.000609   0.164449  -0.063818
     4  C   -1.155225   2.062587  10.765338   0.003949   0.207736  -0.080481
     5  H    0.055905   0.001385   0.005274   0.000008  -0.000276   0.000045
     6  C   -9.681395  -1.211907 -10.403786  -0.040724   0.637712   0.229422
     7  C   34.369345  -0.863359   7.641827   0.054936  -2.606961  -0.423607
     8  S   -0.863359  17.470825   1.407031   0.037924  -0.253533  -0.024565
     9  C    7.641827   1.407031  31.023317   0.451769  -1.360375  -0.583948
    10  H    0.054936   0.037924   0.451769   0.385756  -0.021377  -0.000388
    11  S   -2.606961  -0.253533  -1.360375  -0.021377  16.369425   0.268267
    12  O   -0.423607  -0.024565  -0.583948  -0.000388   0.268267   9.178741
    13  O   -0.087282  -0.002340   0.221803   0.002559   0.367783  -0.148719
    14  N   -0.165603  -0.011260  -0.565204  -0.001664   0.185024  -0.117686
    15  H    0.010088   0.000265   0.119618  -0.000013   0.070201  -0.022570
    16  N    0.522248  -0.162910  -0.068602  -0.000121  -0.002866  -0.000185
    17  C    1.056218  -0.650068  -0.358100  -0.000958  -0.009919   0.000912
    18  N    0.186499   0.030614  -0.023765   0.001523  -0.018420  -0.000424
    19  O   -0.657760   0.305705   0.317479   0.004996  -0.003046  -0.000290
    20  O   -0.060862   0.616139  -0.085396   0.000156  -0.003520  -0.000061
    21  H   -0.012754  -0.011997   0.003347  -0.000000   0.000012   0.000000
    22  H    0.060768  -0.042063   0.003269  -0.000001   0.000037   0.000000
              13         14         15         16         17         18
     1  C   -0.368882  -0.348284   0.080834   0.050207   0.260391  -0.467241
     2  C   -0.184559   0.653541  -0.265430   0.092226   0.154508   0.099522
     3  Cl   0.015470  -0.058115   0.031160  -0.002256  -0.006188  -0.001178
     4  C    0.034778  -0.072766   0.043833  -0.283271  -1.104721   0.006726
     5  H    0.000024  -0.000065  -0.000002  -0.001617   0.001553   0.000074
     6  C    0.009661   0.177888  -0.017506  -0.185026   0.001311  -0.028603
     7  C   -0.087282  -0.165603   0.010088   0.522248   1.056218   0.186499
     8  S   -0.002340  -0.011260   0.000265  -0.162910  -0.650068   0.030614
     9  C    0.221803  -0.565204   0.119618  -0.068602  -0.358100  -0.023765
    10  H    0.002559  -0.001664  -0.000013  -0.000121  -0.000958   0.001523
    11  S    0.367783   0.185024   0.070201  -0.002866  -0.009919  -0.018420
    12  O   -0.148719  -0.117686  -0.022570  -0.000185   0.000912  -0.000424
    13  O    9.005693  -0.142888   0.015899  -0.000072  -0.000335  -0.000531
    14  N   -0.142888   8.176682   0.176061  -0.000251   0.000762  -0.000405
    15  H    0.015899   0.176061   0.349523   0.000001  -0.000076  -0.000001
    16  N   -0.000072  -0.000251   0.000001   6.999362   0.466351  -0.102152
    17  C   -0.000335   0.000762  -0.000076   0.466351   5.836616  -0.148749
    18  N   -0.000531  -0.000405  -0.000001  -0.102152  -0.148749   8.277492
    19  O   -0.000169  -0.000476   0.000000  -0.018337  -0.017301  -0.050237
    20  O   -0.000011   0.000056  -0.000000   0.030160  -0.061936  -0.182134
    21  H    0.000000   0.000000   0.000000  -0.064887   0.424474  -0.078909
    22  H    0.000000   0.000000   0.000000   0.004513   0.005858   0.220229
              19         20         21         22
     1  C   -0.136664  -0.056221   0.001456   0.004444
     2  C   -0.017581   0.014483  -0.002990  -0.001108
     3  Cl  -0.000044  -0.000347   0.000028   0.000004
     4  C    0.156591   0.066342   0.002341  -0.001353
     5  H    0.000015   0.000012   0.000005   0.000000
     6  C    0.170125  -0.159829   0.035214  -0.014877
     7  C   -0.657760  -0.060862  -0.012754   0.060768
     8  S    0.305705   0.616139  -0.011997  -0.042063
     9  C    0.317479  -0.085396   0.003347   0.003269
    10  H    0.004996   0.000156  -0.000000  -0.000001
    11  S   -0.003046  -0.003520   0.000012   0.000037
    12  O   -0.000290  -0.000061   0.000000   0.000000
    13  O   -0.000169  -0.000011   0.000000   0.000000
    14  N   -0.000476   0.000056   0.000000   0.000000
    15  H    0.000000  -0.000000   0.000000   0.000000
    16  N   -0.018337   0.030160  -0.064887   0.004513
    17  C   -0.017301  -0.061936   0.424474   0.005858
    18  N   -0.050237  -0.182134  -0.078909   0.220229
    19  O    8.735543  -0.194470  -0.000594  -0.005471
    20  O   -0.194470   8.589587  -0.000108  -0.000535
    21  H   -0.000594  -0.000108   0.412565  -0.000884
    22  H   -0.005471  -0.000535  -0.000884   0.199052
 Mulliken charges:
               1
     1  C   -2.151307
     2  C    1.215938
     3  Cl   0.239917
     4  C   -1.209922
     5  H    0.295804
     6  C    0.461679
     7  C   -0.189227
     8  S    1.785117
     9  C   -0.456450
    10  H    0.313950
    11  S    1.641617
    12  O   -0.651236
    13  O   -0.737882
    14  N   -0.885347
    15  H    0.408114
    16  N   -0.272514
    17  C    0.149395
    18  N   -0.719927
    19  O   -0.588012
    20  O   -0.511507
    21  H    0.293682
    22  H    0.568116
 Sum of Mulliken charges =  -1.00000
 Mulliken charges with hydrogens summed into heavy atoms:
               1
     1  C   -2.151307
     2  C    1.215938
     3  Cl   0.239917
     4  C   -0.914118
     6  C    0.461679
     7  C   -0.189227
     8  S    1.785117
     9  C   -0.142500
    11  S    1.641617
    12  O   -0.651236
    13  O   -0.737882
    14  N   -0.477233
    16  N   -0.272514
    17  C    0.443077
    18  N   -0.151811
    19  O   -0.588012
    20  O   -0.511507
 Electronic spatial extent (au):  <R**2>=           5324.8910
 Charge=             -1.0000 electrons
 Dipole moment (field-independent basis, Debye):
    X=            -18.6721    Y=             12.0719    Z=             -2.8538  Tot=             22.4170
 Quadrupole moment (field-independent basis, Debye-Ang):
   XX=           -155.7158   YY=           -144.4983   ZZ=           -137.7170
   XY=             10.1094   XZ=             10.1993   YZ=             -3.8220
 Traceless Quadrupole moment (field-independent basis, Debye-Ang):
   XX=             -9.7388   YY=              1.4787   ZZ=              8.2601
   XY=             10.1094   XZ=             10.1993   YZ=             -3.8220
 Octapole moment (field-independent basis, Debye-Ang**2):
  XXX=           -385.2479  YYY=             48.8882  ZZZ=              1.2443  XYY=            -18.1753
  XXY=            132.2563  XXZ=            -45.9389  XZZ=            -23.9699  YZZ=             15.9331
  YYZ=              5.9316  XYZ=             -6.0220
 Hexadecapole moment (field-independent basis, Debye-Ang**3):
 XXXX=          -4807.6127 YYYY=          -1838.0368 ZZZZ=           -426.1485 XXXY=             77.1600
 XXXZ=            245.5149 YYYX=            103.1020 YYYZ=            -25.4814 ZZZX=             50.6318
 ZZZY=             -6.6981 XXYY=          -1236.7251 XXZZ=          -1056.1288 YYZZ=           -372.0544
 XXYZ=            -51.3094 YYXZ=             17.8745 ZZXY=             28.7160
 N-N= 1.682192980942D+03 E-N=-8.081743504387D+03  KE= 1.980955103692D+03
 D1PCM: PCM CHGder 1st derivatives, ID1Alg=3 FixD1E=F DoIter=F DoCFld=F I1PDM=0.
 Calling FoFJK, ICntrl=      2127 FMM=F ISym2X=0 I1Cent= 0 IOpClX= 0 NMat=1 NMatS=1 NMatT=0.
 ***** Axes restored to original set *****
 -------------------------------------------------------------------
 Center     Atomic                   Forces (Hartrees/Bohr)
 Number     Number              X              Y              Z
 -------------------------------------------------------------------
      1        6           0.000351648    0.001786799   -0.000227198
      2        6           0.000032488   -0.001064264   -0.000325291
      3       17          -0.001541562   -0.000627216   -0.002142633
      4        6          -0.000060007    0.000164953   -0.000030347
      5        1           0.000011967   -0.000086831    0.000026411
      6        6          -0.000044524    0.000004782   -0.000204203
      7        6          -0.000092995   -0.000134633    0.000384870
      8       16           0.000558872   -0.000176212    0.000010168
      9        6          -0.000004797    0.000909081   -0.000006159
     10        1           0.000100711   -0.000119784    0.000084540
     11       16          -0.010653449   -0.005073293   -0.007788962
     12        8           0.005885229   -0.018884203    0.001437943
     13        8          -0.013196310    0.007827983    0.005473478
     14        7           0.020142907    0.017384822   -0.001727005
     15        1          -0.001051113   -0.002041878    0.004717966
     16        7          -0.000163806   -0.000034700    0.000284048
     17        6           0.000222210    0.000052468    0.000082185
     18        7          -0.000218152   -0.000038219   -0.000039393
     19        8          -0.000198373   -0.000017868   -0.000015071
     20        8          -0.000115255    0.000143816    0.000007162
     21        1           0.000000502   -0.000003753    0.000008433
     22        1           0.000033809    0.000028151   -0.000010942
 -------------------------------------------------------------------
 Cartesian Forces:  Max     0.020142907 RMS     0.004940257

 GradGradGradGradGradGradGradGradGradGradGradGradGradGradGradGradGradGrad
 Berny optimization.
 FormGI is forming the generalized inverse of G from B-inverse, IUseBI=4.
 Internal  Forces:  Max     0.022123000 RMS     0.004341058
 Search for a local minimum.
 Step number   1 out of a maximum of  124
 All quantities printed in internal units (Hartrees-Bohrs-Radians)
 Mixed Optimization -- RFO/linear search
 Second derivative matrix not updated -- first step.
 ITU=  0
     Eigenvalues ---    0.00230   0.01362   0.01545   0.01766   0.01971
     Eigenvalues ---    0.02026   0.02121   0.02157   0.02183   0.02200
     Eigenvalues ---    0.02222   0.02228   0.02370   0.02542   0.03204
     Eigenvalues ---    0.09771   0.10267   0.11430   0.11989   0.12451
     Eigenvalues ---    0.12541   0.15050   0.15989   0.15999   0.16000
     Eigenvalues ---    0.16000   0.17031   0.21626   0.21660   0.23033
     Eigenvalues ---    0.23778   0.24079   0.24559   0.24716   0.24961
     Eigenvalues ---    0.24998   0.25000   0.25000   0.29917   0.31286
     Eigenvalues ---    0.35261   0.35271   0.35390   0.37858   0.40229
     Eigenvalues ---    0.42566   0.43911   0.44026   0.44118   0.45398
     Eigenvalues ---    0.45926   0.47286   0.47871   0.48066   0.60819
     Eigenvalues ---    0.69038   0.80192   0.82545   0.91025   0.92212
 RFO step:  Lambda=-1.26291540D-02 EMin= 2.30000000D-03
 Linear search not attempted -- first point.
 Iteration  1 RMS(Cart)=  0.06281203 RMS(Int)=  0.00323522
 Iteration  2 RMS(Cart)=  0.00388473 RMS(Int)=  0.00076614
 Iteration  3 RMS(Cart)=  0.00001375 RMS(Int)=  0.00076611
 Iteration  4 RMS(Cart)=  0.00000002 RMS(Int)=  0.00076611
 Variable       Old X    -DE/DX   Delta X   Delta X   Delta X     New X
                                 (Linear)    (Quad)   (Total)
    R1        2.65252   0.00343   0.00000   0.00774   0.00774   2.66026
    R2        2.62015   0.00021   0.00000   0.00056   0.00056   2.62072
    R3        3.44043   0.00196   0.00000   0.00761   0.00761   3.44803
    R4        3.29170   0.00065   0.00000   0.00201   0.00201   3.29371
    R5        2.61601   0.00017   0.00000   0.00053   0.00053   2.61654
    R6        2.05047  -0.00002   0.00000  -0.00006  -0.00006   2.05041
    R7        2.64778  -0.00042   0.00000  -0.00102  -0.00103   2.64675
    R8        2.65313  -0.00053   0.00000  -0.00162  -0.00163   2.65150
    R9        2.63698  -0.00027   0.00000  -0.00065  -0.00065   2.63633
   R10        3.30721   0.00015   0.00000   0.00040   0.00040   3.30761
   R11        2.63210  -0.00066   0.00000  -0.00155  -0.00155   2.63055
   R12        3.15666  -0.00003   0.00000   0.00003   0.00003   3.15669
   R13        2.75630  -0.00017   0.00000  -0.00018  -0.00018   2.75612
   R14        2.76164  -0.00014   0.00000  -0.00016  -0.00016   2.76149
   R15        2.05238   0.00012   0.00000   0.00034   0.00034   2.05272
   R16        2.80272   0.01306   0.00000   0.01558   0.01558   2.81830
   R17        2.81512  -0.01091   0.00000  -0.01339  -0.01339   2.80173
   R18        2.93998   0.00277   0.00000   0.00446   0.00446   2.94444
   R19        1.93123  -0.00228   0.00000  -0.00503  -0.00503   1.92620
   R20        2.42806   0.00008   0.00000   0.00015   0.00015   2.42820
   R21        2.60561  -0.00017   0.00000  -0.00022  -0.00022   2.60540
   R22        2.05254  -0.00001   0.00000  -0.00002  -0.00002   2.05252
   R23        1.93262   0.00004   0.00000   0.00008   0.00008   1.93270
    A1        2.06480  -0.00120   0.00000  -0.00403  -0.00404   2.06076
    A2        2.14863   0.00675   0.00000   0.02537   0.02535   2.17398
    A3        2.06971  -0.00554   0.00000  -0.02143  -0.02144   2.04827
    A4        2.11291   0.00468   0.00000   0.01749   0.01748   2.13039
    A5        2.12736  -0.00083   0.00000  -0.00252  -0.00253   2.12484
    A6        2.04291  -0.00385   0.00000  -0.01497  -0.01498   2.02794
    A7        2.10521  -0.00045   0.00000  -0.00185  -0.00185   2.10335
    A8        2.10360   0.00087   0.00000   0.00354   0.00354   2.10714
    A9        2.07430  -0.00041   0.00000  -0.00164  -0.00164   2.07266
   A10        2.04029  -0.00002   0.00000  -0.00088  -0.00089   2.03940
   A11        2.05534  -0.00006   0.00000   0.00063   0.00063   2.05597
   A12        2.18693   0.00009   0.00000   0.00036   0.00036   2.18729
   A13        2.06833   0.00006   0.00000   0.00031   0.00032   2.06864
   A14        2.14261   0.00006   0.00000  -0.00070  -0.00071   2.14190
   A15        2.06807  -0.00012   0.00000   0.00035   0.00035   2.06843
   A16        1.70943  -0.00012   0.00000  -0.00080  -0.00080   1.70863
   A17        1.96304  -0.00004   0.00000  -0.00045  -0.00045   1.96259
   A18        1.91762  -0.00005   0.00000  -0.00029  -0.00029   1.91733
   A19        1.88505   0.00005   0.00000   0.00038   0.00038   1.88543
   A20        1.91571   0.00006   0.00000   0.00023   0.00023   1.91594
   A21        2.04289   0.00008   0.00000   0.00071   0.00071   2.04360
   A22        2.08743   0.00113   0.00000   0.00447   0.00447   2.09190
   A23        2.08818  -0.00056   0.00000  -0.00221  -0.00221   2.08597
   A24        2.10757  -0.00057   0.00000  -0.00225  -0.00225   2.10532
   A25        1.79774  -0.00448   0.00000   0.01423   0.00993   1.80767
   A26        1.79377   0.00922   0.00000   0.01267   0.01141   1.80518
   A27        1.92757   0.00346   0.00000   0.02056   0.01741   1.94498
   A28        1.99149  -0.00514   0.00000  -0.03632  -0.03439   1.95710
   A29        1.91197   0.02036   0.00000   0.13503   0.13344   2.04542
   A30        2.02340  -0.02212   0.00000  -0.13625  -0.13528   1.88811
   A31        1.89549   0.00166   0.00000   0.00959   0.00959   1.90509
   A32        2.07513  -0.00004   0.00000  -0.00052  -0.00052   2.07461
   A33        2.20456   0.00001   0.00000   0.00017   0.00017   2.20473
   A34        2.09082  -0.00001   0.00000  -0.00009  -0.00009   2.09073
   A35        1.98665  -0.00000   0.00000  -0.00006  -0.00006   1.98659
   A36        2.11205  -0.00002   0.00000   0.00010   0.00010   2.11215
   A37        2.01458   0.00000   0.00000  -0.00004  -0.00004   2.01455
   A38        2.05572   0.00002   0.00000   0.00001   0.00001   2.05573
    D1        3.12073  -0.00043   0.00000  -0.01342  -0.01350   3.10723
    D2       -0.01968  -0.00018   0.00000  -0.00665  -0.00664  -0.02631
    D3       -0.01014  -0.00015   0.00000  -0.00363  -0.00358  -0.01372
    D4        3.13264   0.00010   0.00000   0.00315   0.00328   3.13592
    D5        0.01506   0.00008   0.00000   0.00346   0.00343   0.01849
    D6       -3.13102   0.00020   0.00000   0.00702   0.00698  -3.12404
    D7       -3.13677  -0.00012   0.00000  -0.00560  -0.00547   3.14094
    D8        0.00034   0.00000   0.00000  -0.00204  -0.00193  -0.00158
    D9        1.03644   0.00797   0.00000   0.01377   0.01397   1.05041
   D10        3.11033   0.00419   0.00000  -0.01564  -0.01549   3.09484
   D11       -1.00398  -0.01474   0.00000  -0.15936  -0.15975  -1.16373
   D12       -2.09440   0.00823   0.00000   0.02348   0.02371  -2.07069
   D13       -0.02051   0.00445   0.00000  -0.00593  -0.00574  -0.02625
   D14        2.14837  -0.01448   0.00000  -0.14964  -0.15001   1.99836
   D15       -3.12452  -0.00003   0.00000  -0.00053  -0.00052  -3.12503
   D16        0.00420   0.00015   0.00000   0.00442   0.00445   0.00865
   D17        0.01822   0.00021   0.00000   0.00597   0.00594   0.02416
   D18       -3.13625   0.00038   0.00000   0.01092   0.01091  -3.12534
   D19        0.01514   0.00002   0.00000   0.00106   0.00103   0.01618
   D20       -3.09046  -0.00009   0.00000  -0.00218  -0.00220  -3.09266
   D21       -3.13910   0.00019   0.00000   0.00592   0.00591  -3.13318
   D22        0.03849   0.00008   0.00000   0.00268   0.00268   0.04117
   D23        3.02211  -0.00016   0.00000  -0.00469  -0.00468   3.01742
   D24       -0.01982  -0.00014   0.00000  -0.00427  -0.00427  -0.02409
   D25       -0.15851  -0.00004   0.00000  -0.00117  -0.00117  -0.15968
   D26        3.08275  -0.00002   0.00000  -0.00075  -0.00076   3.08199
   D27        2.90780   0.00010   0.00000   0.00353   0.00352   2.91132
   D28       -0.19446  -0.00002   0.00000   0.00001   0.00001  -0.19445
   D29        0.50757   0.00005   0.00000   0.00113   0.00113   0.50870
   D30        2.48496   0.00003   0.00000   0.00100   0.00100   2.48595
   D31       -1.48944   0.00005   0.00000   0.00134   0.00133  -1.48811
   D32       -2.72937   0.00004   0.00000   0.00066   0.00067  -2.72869
   D33       -0.75198   0.00002   0.00000   0.00053   0.00054  -0.75144
   D34        1.55680   0.00005   0.00000   0.00087   0.00088   1.55768
   D35        0.00469   0.00008   0.00000   0.00199   0.00201   0.00670
   D36       -3.13237  -0.00004   0.00000  -0.00162  -0.00158  -3.13395
   D37       -3.03725   0.00009   0.00000   0.00241   0.00242  -3.03483
   D38        0.10887  -0.00003   0.00000  -0.00119  -0.00116   0.10771
   D39       -0.66063   0.00002   0.00000  -0.00019  -0.00019  -0.66082
   D40        2.95876   0.00000   0.00000  -0.00034  -0.00033   2.95843
   D41       -2.69953   0.00010   0.00000   0.00054   0.00054  -2.69899
   D42        0.91987   0.00009   0.00000   0.00039   0.00039   0.92026
   D43        1.33790  -0.00007   0.00000  -0.00080  -0.00080   1.33709
   D44       -1.32589  -0.00008   0.00000  -0.00095  -0.00095  -1.32684
   D45        0.72472   0.00546   0.00000   0.11716   0.11894   0.84366
   D46       -1.24361  -0.00232   0.00000   0.01427   0.00989  -1.23373
   D47        2.75519   0.00536   0.00000   0.05901   0.06161   2.81680
   D48        0.04479   0.00004   0.00000   0.00097   0.00097   0.04576
   D49       -3.04176   0.00003   0.00000   0.00039   0.00039  -3.04137
   D50        0.46885  -0.00001   0.00000  -0.00064  -0.00064   0.46821
   D51        3.12182   0.00000   0.00000  -0.00050  -0.00050   3.12132
   D52       -2.72496   0.00000   0.00000  -0.00009  -0.00009  -2.72506
   D53       -0.07199   0.00001   0.00000   0.00005   0.00005  -0.07194
         Item               Value     Threshold  Converged?
 Maximum Force            0.022123     0.000450     NO 
 RMS     Force            0.004341     0.000300     NO 
 Maximum Displacement     0.307955     0.001800     NO 
 RMS     Displacement     0.063725     0.001200     NO 
 Predicted change in Energy=-7.105147D-03
 GradGradGradGradGradGradGradGradGradGradGradGradGradGradGradGradGradGrad

                          Input orientation:                          
 ---------------------------------------------------------------------
 Center     Atomic      Atomic             Coordinates (Angstroms)
 Number     Number       Type             X           Y           Z
 ---------------------------------------------------------------------
      1          6           0       -1.470379    0.593312   -0.843810
      2          6           0       -2.572972    0.491097   -1.713058
      3         17           0       -4.213965    0.461102   -1.126429
      4          6           0       -2.412722    0.399115   -3.085289
      5          1           0       -3.277261    0.336561   -3.737941
      6          6           0       -1.134516    0.394495   -3.657873
      7          6           0       -0.045081    0.466490   -2.776579
      8         16           0        1.569063    0.273973   -3.425478
      9          6           0       -0.198827    0.568000   -1.396796
     10          1           0        0.668980    0.628689   -0.746279
     11         16           0       -1.592625    0.726849    0.971807
     12          8           0       -2.293570   -0.528308    1.368633
     13          8           0       -0.176998    0.739269    1.412240
     14          7           0       -2.247141    2.074132    1.400993
     15          1           0       -3.096500    2.221546    0.857088
     16          7           0       -1.045192    0.359703   -5.049659
     17          6           0        0.085831    0.611301   -5.605161
     18          7           0        1.273914    0.873239   -4.956544
     19          8           0        2.538144    1.150019   -2.776962
     20          8           0        1.905302   -1.145818   -3.506591
     21          1           0        0.152097    0.680608   -6.687065
     22          1           0        2.103902    1.039407   -5.530570
 ---------------------------------------------------------------------
                    Distance matrix (angstroms):
                    1          2          3          4          5
     1  C    0.000000
     2  C    1.407747   0.000000
     3  Cl   2.761271   1.742955   0.000000
     4  C    2.439253   1.384615   2.661851   0.000000
     5  H    3.421511   2.149431   2.777214   1.085032   0.000000
     6  C    2.841001   2.420907   3.986935   1.400601   2.145022
     7  C    2.404819   2.742611   4.483594   2.388632   3.374623
     8  S    4.000649   4.487313   6.226079   3.998250   4.856790
     9  C    1.386824   2.396351   4.025650   2.789420   3.874439
    10  H    2.141873   3.385830   4.900587   3.875637   4.960664
    11  S    1.824621   2.867954   3.368181   4.152108   5.017175
    12  O    2.613537   3.257925   3.300331   4.551015   5.271882
    13  O    2.604592   3.945855   4.776957   5.034078   6.024796
    14  N    2.799165   3.508487   3.585823   4.791642   5.521679
    15  H    2.861550   3.142322   2.877886   4.396720   4.969922
    16  N    4.233737   3.672095   5.044119   2.393834   2.589068
    17  C    5.009250   4.715098   6.210462   3.554932   3.856472
    18  N    4.952180   5.046263   6.704958   4.161451   4.741963
    19  O    4.485003   5.262088   6.984972   5.016970   5.950136
    20  O    4.637909   5.094231   6.759644   4.605393   5.395361
    21  H    6.064956   5.674739   7.073285   4.430612   4.536100
    22  H    5.911024   6.061946   7.723104   5.175834   5.715280
                    6          7          8          9         10
     6  C    0.000000
     7  C    1.403115   0.000000
     8  S    2.716225   1.750313   0.000000
     9  C    2.453179   1.392028   2.706923   0.000000
    10  H    3.432904   2.158312   2.848522   1.086253   0.000000
    11  S    4.664147   4.063629   5.434840   2.752851   2.841885
    12  O    5.240299   4.819555   6.208630   3.638329   3.819450
    13  O    5.171244   4.199764   5.164179   2.814338   2.321015
    14  N    5.445296   4.988556   6.410835   3.780430   3.899211
    15  H    5.250940   5.059142   6.625775   4.026254   4.391677
    16  N    1.395083   2.485663   3.078903   3.755413   4.640024
    17  C    2.308286   2.835311   2.657967   4.218203   4.893782
    18  N    2.777819   2.580202   1.670449   3.864446   4.260526
    19  O    3.851656   2.672127   1.458474   3.120034   2.808777
    20  O    3.411150   2.633714   1.461315   3.437406   3.506663
    21  H    3.303519   3.921305   3.579260   5.303091   5.963456
    22  H    3.796084   3.539891   2.302901   4.755299   5.011699
                   11         12         13         14         15
    11  S    0.000000
    12  O    1.491380   0.000000
    13  O    1.482611   2.467495   0.000000
    14  N    1.558128   2.603056   2.463225   0.000000
    15  H    2.123422   2.909996   3.320969   1.019301   0.000000
    16  N    6.057437   6.598597   6.531001   6.781952   6.524108
    17  C    6.788747   7.456143   7.023488   7.527870   7.381110
    18  N    6.586640   7.395887   6.533338   7.366021   7.397079
    19  O    5.594246   6.583934   5.009004   6.419365   6.789971
    20  O    5.983179   6.463718   5.664312   7.189941   7.443041
    21  H    7.855223   8.505118   8.106201   8.550728   8.357160
    22  H    7.486181   8.330335   7.314041   8.249169   8.321286
                   16         17         18         19         20
    16  N    0.000000
    17  C    1.284950   0.000000
    18  N    2.377108   1.378716   0.000000
    19  O    4.316254   3.781900   2.534850   0.000000
    20  O    3.654184   3.286630   2.564684   2.490726   0.000000
    21  H    2.053675   1.086145   2.071300   4.604615   4.065092
    22  H    3.257309   2.064328   1.022740   2.789831   2.985153
                   21         22
    21  H    0.000000
    22  H    2.296903   0.000000
 Stoichiometry    C7H5ClN3O4S2(1-)
 Framework group  C1[X(C7H5ClN3O4S2)]
 Deg. of freedom    60
 Full point group                 C1      NOp   1
 Largest Abelian subgroup         C1      NOp   1
 Largest concise Abelian subgroup C1      NOp   1
                         Standard orientation:                         
 ---------------------------------------------------------------------
 Center     Atomic      Atomic             Coordinates (Angstroms)
 Number     Number       Type             X           Y           Z
 ---------------------------------------------------------------------
      1          6           0        1.212600   -0.086266   -0.023964
      2          6           0        1.181255    1.319856    0.035962
      3         17           0        2.636858    2.275166    0.116549
      4          6           0       -0.011947    2.022259    0.043593
      5          1           0       -0.012573    3.106842    0.074765
      6          6           0       -1.239239    1.348694    0.001785
      7          6           0       -1.191992   -0.053327   -0.027129
      8         16           0       -2.692859   -0.943240    0.110881
      9          6           0        0.003802   -0.765745   -0.043875
     10          1           0        0.000658   -1.851593   -0.073344
     11         16           0        2.737779   -1.087542   -0.046711
     12          8           0        3.409205   -0.731700    1.236558
     13          8           0        2.234244   -2.482026   -0.045766
     14          7           0        3.546562   -0.863588   -1.359523
     15          1           0        3.634540    0.137238   -1.531518
     16          7           0       -2.402113    2.117774   -0.048184
     17          6           0       -3.513222    1.543823   -0.343332
     18          7           0       -3.700414    0.197970   -0.576775
     19          8           0       -2.714978   -2.132227   -0.733492
     20          8           0       -3.036534   -1.121261    1.520008
     21          1           0       -4.410098    2.141405   -0.478319
     22          1           0       -4.649122   -0.122353   -0.784961
 ---------------------------------------------------------------------
 Rotational constants (GHZ):           0.6542163           0.2437551           0.1919185
 Basis read from rwf:  (6D, 7F)
 There are   345 symmetry adapted cartesian basis functions of A   symmetry.
 There are   345 symmetry adapted basis functions of A   symmetry.
   345 basis functions,   636 primitive gaussians,   345 cartesian basis functions
    75 alpha electrons       75 beta electrons
       nuclear repulsion energy      1678.1596553403 Hartrees.
 NAtoms=   22 NActive=   22 NUniq=   22 SFac= 1.00D+00 NAtFMM=   60 NAOKFM=F Big=F
 Integral buffers will be    131072 words long.
 Raffenetti 2 integral format.
 Two-electron integral symmetry is turned on.
 ------------------------------------------------------------------------------
 Polarizable Continuum Model (PCM)
 =================================
 Model                : PCM.
 Atomic radii         : SMD-Coulomb.
 Polarization charges : Total charges.
 Charge compensation  : None.
 Solution method      : On-the-fly selection.
 Cavity type          : VdW (van der Waals Surface) (Alpha=1.000).
 Cavity algorithm     : GePol (No added spheres)
                        Default sphere list used, NSphG=   22.
                        Lebedev-Laikov grids with approx.  5.0 points / Ang**2.
                        Smoothing algorithm: York/Karplus (Gamma=1.0000).
                        Polarization charges: spherical gaussians, with
                                              point-specific exponents (IZeta= 3).
                        Self-potential: point-specific (ISelfS= 7).
                        Self-field    : sphere-specific E.n sum rule (ISelfD= 2).
 1st derivatives      : Analytical E(r).r(x)/FMM algorithm (CHGder, D1EAlg=3).
                        Cavity 1st derivative terms included.
 Solvent              : Water, Eps=  78.355300 Eps(inf)=   1.777849
 ------------------------------------------------------------------------------
 ------------------------------------------------------------------------------
 Atomic radii for non-electrostatic terms: SMD-CDS.
 ------------------------------------------------------------------------------
 Nuclear repulsion after PCM non-electrostatic terms =     1678.1632035188 Hartrees.
 One-electron integrals computed using PRISM.
 NBasis=   345 RedAO= T EigKep=  2.26D-06  NBF=   345
 NBsUse=   343 1.00D-06 EigRej=  7.65D-07 NBFU=   343
 Initial guess from the checkpoint file:  "/jobfs/48970299.gadi-pbs/Gau-3773541.chk"
 B after Tr=    -0.000000    0.000000   -0.000000
         Rot=    0.999977    0.006230   -0.000651   -0.002710 Ang=   0.78 deg.
 ExpMin= 4.05D-02 ExpMax= 2.52D+04 ExpMxC= 3.78D+03 IAcc=3 IRadAn=         5 AccDes= 0.00D+00
 Harris functional with IExCor= 1009 and IRadAn=       5 diagonalized for initial guess.
 HarFok:  IExCor= 1009 AccDes= 0.00D+00 IRadAn=         5 IDoV= 1 UseB2=F ITyADJ=14
 ICtDFT=  3500011 ScaDFX=  1.000000  1.000000  1.000000  1.000000
 FoFCou: FMM=F IPFlag=           0 FMFlag=      100000 FMFlg1=           0
         NFxFlg=           0 DoJE=T BraDBF=F KetDBF=T FulRan=T
         wScrn=  0.000000 ICntrl=       500 IOpCl=  0 I1Cent=   200000004 NGrid=           0
         NMat0=    1 NMatS0=      1 NMatT0=    0 NMatD0=    1 NMtDS0=    0 NMtDT0=    0
 Petite list used in FoFCou.
 Requested convergence on RMS density matrix=1.00D-08 within 128 cycles.
 Requested convergence on MAX density matrix=1.00D-06.
 Requested convergence on             energy=1.00D-06.
 No special actions if energy rises.
 Inv3:  Mode=1 IEnd=    11548332.
 Iteration    1 A*A^-1 deviation from unit magnitude is 4.55D-15 for   1946.
 Iteration    1 A*A^-1 deviation from orthogonality  is 2.48D-15 for   1573    376.
 Iteration    1 A^-1*A deviation from unit magnitude is 4.55D-15 for   1946.
 Iteration    1 A^-1*A deviation from orthogonality  is 1.64D-15 for   1635    239.
 Error on total polarization charges =  0.04397
 SCF Done:  E(RM062X) =  -1991.14700415     A.U. after   15 cycles
            NFock= 15  Conv=0.37D-08     -V/T= 2.0052
 SMD-CDS (non-electrostatic) energy       (kcal/mol) =       2.23
 (included in total energy above)
 D1PCM: PCM CHGder 1st derivatives, ID1Alg=3 FixD1E=F DoIter=F DoCFld=F I1PDM=0.
 Calling FoFJK, ICntrl=      2127 FMM=F ISym2X=0 I1Cent= 0 IOpClX= 0 NMat=1 NMatS=1 NMatT=0.
 ***** Axes restored to original set *****
 -------------------------------------------------------------------
 Center     Atomic                   Forces (Hartrees/Bohr)
 Number     Number              X              Y              Z
 -------------------------------------------------------------------
      1        6          -0.003912676    0.000184741   -0.001086705
      2        6           0.000990196   -0.000916935    0.000577918
      3       17           0.002093888    0.001364839    0.003348047
      4        6           0.000440293    0.000149236   -0.000197356
      5        1           0.000000063   -0.000037693    0.000000417
      6        6          -0.000125365   -0.000112616   -0.000439339
      7        6           0.000011144    0.000078117    0.000135989
      8       16           0.000199274   -0.000007521    0.000245062
      9        6           0.000593756    0.000912013    0.000687895
     10        1          -0.000107060   -0.000071378    0.000097791
     11       16           0.003096366   -0.000018335    0.002272409
     12        8          -0.002500599    0.001393128   -0.002919032
     13        8           0.004124401   -0.002194192    0.002789503
     14        7           0.001487532   -0.000267383   -0.007558320
     15        1          -0.006282595   -0.000574032    0.002185413
     16        7          -0.000147454    0.000017533    0.000096630
     17        6           0.000240181   -0.000004093   -0.000012713
     18        7          -0.000100954   -0.000044415   -0.000064555
     19        8          -0.000088501   -0.000056014   -0.000116027
     20        8          -0.000052880    0.000163889   -0.000029390
     21        1           0.000013771    0.000016202   -0.000024797
     22        1           0.000027218    0.000024909    0.000011158
 -------------------------------------------------------------------
 Cartesian Forces:  Max     0.007558320 RMS     0.001756575

 GradGradGradGradGradGradGradGradGradGradGradGradGradGradGradGradGradGrad
 Berny optimization.
 Using GEDIIS/GDIIS optimizer.
 FormGI is forming the generalized inverse of G from B-inverse, IUseBI=4.
 Internal  Forces:  Max     0.007433259 RMS     0.001968210
 Search for a local minimum.
 Step number   2 out of a maximum of  124
 All quantities printed in internal units (Hartrees-Bohrs-Radians)
 Mixed Optimization -- RFO/linear search
 Update second derivatives using D2CorX and points    1    2
 DE= -4.85D-03 DEPred=-7.11D-03 R= 6.82D-01
 TightC=F SS=  1.41D+00  RLast= 3.29D-01 DXNew= 5.0454D-01 9.8571D-01
 Trust test= 6.82D-01 RLast= 3.29D-01 DXMaxT set to 5.05D-01
 ITU=  1  0
 Use linear search instead of GDIIS.
     Eigenvalues ---    0.00237   0.01360   0.01546   0.01766   0.01970
     Eigenvalues ---    0.02027   0.02123   0.02157   0.02183   0.02200
     Eigenvalues ---    0.02223   0.02228   0.02370   0.02542   0.02967
     Eigenvalues ---    0.09781   0.11433   0.11733   0.12442   0.12532
     Eigenvalues ---    0.12835   0.15048   0.15974   0.15990   0.16000
     Eigenvalues ---    0.16000   0.17582   0.19637   0.21624   0.23094
     Eigenvalues ---    0.23775   0.24080   0.24579   0.24716   0.24925
     Eigenvalues ---    0.24960   0.24998   0.29841   0.29940   0.31346
     Eigenvalues ---    0.35261   0.35271   0.35390   0.37914   0.40538
     Eigenvalues ---    0.42558   0.43911   0.44065   0.44817   0.45513
     Eigenvalues ---    0.45988   0.47288   0.47883   0.48071   0.60816
     Eigenvalues ---    0.69037   0.80872   0.82429   0.91025   0.92212
 RFO step:  Lambda=-1.71287485D-03 EMin= 2.37352885D-03
 Quartic linear search produced a step of -0.17452.
 Iteration  1 RMS(Cart)=  0.04262601 RMS(Int)=  0.00105050
 Iteration  2 RMS(Cart)=  0.00118917 RMS(Int)=  0.00014247
 Iteration  3 RMS(Cart)=  0.00000071 RMS(Int)=  0.00014247
 Variable       Old X    -DE/DX   Delta X   Delta X   Delta X     New X
                                 (Linear)    (Quad)   (Total)
    R1        2.66026  -0.00595  -0.00135  -0.00880  -0.01013   2.65013
    R2        2.62072  -0.00051  -0.00010  -0.00090  -0.00100   2.61972
    R3        3.44803  -0.00332  -0.00133  -0.00858  -0.00990   3.43813
    R4        3.29371  -0.00087  -0.00035  -0.00162  -0.00197   3.29174
    R5        2.61654   0.00004  -0.00009   0.00002  -0.00005   2.61649
    R6        2.05041   0.00000   0.00001  -0.00001  -0.00000   2.05041
    R7        2.64675   0.00065   0.00018   0.00107   0.00124   2.64800
    R8        2.65150   0.00109   0.00028   0.00211   0.00238   2.65389
    R9        2.63633  -0.00007   0.00011  -0.00024  -0.00012   2.63620
   R10        3.30761  -0.00004  -0.00007   0.00015   0.00008   3.30769
   R11        2.63055   0.00041   0.00027   0.00044   0.00070   2.63125
   R12        3.15669   0.00007  -0.00001   0.00003   0.00003   3.15672
   R13        2.75612  -0.00016   0.00003  -0.00020  -0.00017   2.75595
   R14        2.76149  -0.00016   0.00003  -0.00020  -0.00017   2.76132
   R15        2.05272  -0.00003  -0.00006   0.00004  -0.00002   2.05270
   R16        2.81830  -0.00077  -0.00272   0.00428   0.00156   2.81986
   R17        2.80173   0.00476   0.00234   0.00053   0.00287   2.80460
   R18        2.94444  -0.00020  -0.00078   0.00117   0.00040   2.94483
   R19        1.92620   0.00397   0.00088   0.00576   0.00664   1.93284
   R20        2.42820   0.00023  -0.00003   0.00026   0.00023   2.42844
   R21        2.60540   0.00001   0.00004  -0.00021  -0.00018   2.60522
   R22        2.05252   0.00003   0.00000   0.00006   0.00006   2.05258
   R23        1.93270   0.00002  -0.00001   0.00006   0.00005   1.93274
    A1        2.06076   0.00234   0.00070   0.00547   0.00618   2.06694
    A2        2.17398  -0.00679  -0.00442  -0.01346  -0.01794   2.15604
    A3        2.04827   0.00446   0.00374   0.00823   0.01192   2.06019
    A4        2.13039  -0.00696  -0.00305  -0.01658  -0.01976   2.11063
    A5        2.12484   0.00088   0.00044   0.00120   0.00158   2.12642
    A6        2.02794   0.00608   0.00261   0.01556   0.01804   2.04598
    A7        2.10335   0.00061   0.00032   0.00145   0.00176   2.10511
    A8        2.10714  -0.00124  -0.00062  -0.00304  -0.00363   2.10351
    A9        2.07266   0.00062   0.00029   0.00156   0.00183   2.07449
   A10        2.03940  -0.00007   0.00016   0.00071   0.00086   2.04026
   A11        2.05597   0.00019  -0.00011  -0.00047  -0.00058   2.05539
   A12        2.18729  -0.00012  -0.00006  -0.00041  -0.00047   2.18682
   A13        2.06864  -0.00001  -0.00006   0.00002  -0.00003   2.06861
   A14        2.14190  -0.00013   0.00012   0.00062   0.00073   2.14263
   A15        2.06843   0.00014  -0.00006  -0.00057  -0.00062   2.06781
   A16        1.70863  -0.00002   0.00014  -0.00019  -0.00005   1.70858
   A17        1.96259   0.00005   0.00008   0.00016   0.00024   1.96283
   A18        1.91733   0.00001   0.00005  -0.00011  -0.00006   1.91726
   A19        1.88543  -0.00002  -0.00007  -0.00021  -0.00028   1.88515
   A20        1.91594  -0.00006  -0.00004  -0.00019  -0.00023   1.91571
   A21        2.04360   0.00003  -0.00012   0.00042   0.00030   2.04390
   A22        2.09190  -0.00177  -0.00078  -0.00475  -0.00553   2.08636
   A23        2.08597   0.00075   0.00039   0.00169   0.00207   2.08803
   A24        2.10532   0.00102   0.00039   0.00307   0.00346   2.10878
   A25        1.80767  -0.00070  -0.00173  -0.01151  -0.01261   1.79506
   A26        1.80518   0.00343  -0.00199   0.02327   0.02163   1.82681
   A27        1.94498  -0.00743  -0.00304  -0.02288  -0.02543   1.91955
   A28        1.95710   0.00022   0.00600  -0.00280   0.00286   1.95996
   A29        2.04542  -0.00036  -0.02329   0.02761   0.00421   2.04963
   A30        1.88811   0.00474   0.02361  -0.01417   0.00940   1.89751
   A31        1.90509   0.00294  -0.00167   0.01805   0.01638   1.92147
   A32        2.07461  -0.00006   0.00009   0.00013   0.00022   2.07483
   A33        2.20473   0.00010  -0.00003   0.00027   0.00024   2.20497
   A34        2.09073  -0.00004   0.00002  -0.00012  -0.00010   2.09063
   A35        1.98659  -0.00006   0.00001  -0.00020  -0.00019   1.98640
   A36        2.11215   0.00014  -0.00002   0.00044   0.00042   2.11257
   A37        2.01455  -0.00007   0.00001  -0.00015  -0.00014   2.01440
   A38        2.05573  -0.00006  -0.00000   0.00001   0.00001   2.05574
    D1        3.10723   0.00101   0.00236   0.03348   0.03559  -3.14036
    D2       -0.02631   0.00014   0.00116   0.00662   0.00782  -0.01849
    D3       -0.01372   0.00065   0.00063   0.01946   0.01994   0.00621
    D4        3.13592  -0.00022  -0.00057  -0.00741  -0.00783   3.12809
    D5        0.01849  -0.00021  -0.00060  -0.00967  -0.01034   0.00814
    D6       -3.12404  -0.00007  -0.00122  -0.00371  -0.00498  -3.12902
    D7        3.14094  -0.00001   0.00096   0.00308   0.00409  -3.13816
    D8       -0.00158   0.00013   0.00034   0.00904   0.00944   0.00786
    D9        1.05041  -0.00178  -0.00244   0.05478   0.05244   1.10285
   D10        3.09484  -0.00046   0.00270   0.05635   0.05903  -3.12932
   D11       -1.16373   0.00356   0.02788   0.04222   0.06993  -1.09380
   D12       -2.07069  -0.00212  -0.00414   0.04088   0.03691  -2.03378
   D13       -0.02625  -0.00080   0.00100   0.04244   0.04349   0.01724
   D14        1.99836   0.00323   0.02618   0.02832   0.05439   2.05276
   D15       -3.12503   0.00016   0.00009   0.00526   0.00542  -3.11961
   D16        0.00865   0.00000  -0.00078   0.00124   0.00052   0.00917
   D17        0.02416  -0.00061  -0.00104  -0.01998  -0.02121   0.00296
   D18       -3.12534  -0.00076  -0.00190  -0.02399  -0.02611   3.13174
   D19        0.01618  -0.00014  -0.00018  -0.00589  -0.00613   0.01005
   D20       -3.09266   0.00003   0.00038  -0.00080  -0.00044  -3.09310
   D21       -3.13318  -0.00029  -0.00103  -0.00984  -0.01095   3.13905
   D22        0.04117  -0.00013  -0.00047  -0.00475  -0.00526   0.03591
   D23        3.01742   0.00012   0.00082   0.00354   0.00438   3.02180
   D24       -0.02409   0.00010   0.00075   0.00277   0.00353  -0.02056
   D25       -0.15968  -0.00005   0.00020  -0.00198  -0.00179  -0.16148
   D26        3.08199  -0.00007   0.00013  -0.00275  -0.00264   3.07934
   D27        2.91132  -0.00009  -0.00061  -0.00329  -0.00392   2.90740
   D28       -0.19445   0.00009  -0.00000   0.00225   0.00226  -0.19219
   D29        0.50870  -0.00004  -0.00020   0.00057   0.00037   0.50907
   D30        2.48595  -0.00006  -0.00017   0.00028   0.00011   2.48606
   D31       -1.48811   0.00003  -0.00023   0.00091   0.00067  -1.48744
[...]
 .00511620,0.00049894,-0.00029811,0.00013540,-0.14177423,-0.32991191,0.
 08170939,0.17476579,0.37764127,0.01569133,0.02622075,-0.00739471,0.004
 27620,0.00005436,0.00022768,-0.00271161,0.00165943,-0.00137297,-0.0003
 0199,-0.00098722,-0.00027511,0.00003275,0.00000860,-0.00030842,0.00067
 603,0.00009369,0.00174349,0.00134290,-0.00230991,-0.00230541,-0.003783
 90,0.00048472,-0.00037403,-0.00324381,0.00090042,-0.00393856,-0.000014
 20,0.00111631,-0.00019476,0.04769216,0.08754414,-0.09854089,-0.0565477
 7,-0.10091448,0.08663164,-0.01463457,0.00062759,-0.00090817,0.00419231
 ,-0.00054148,-0.00427916,-0.00053930,-0.00003746,-0.00064905,-0.001655
 27,-0.00004566,-0.00037267,0.00022180,-0.00001070,-0.00052767,0.000077
 10,-0.00017097,0.00140245,0.00215861,0.00005477,-0.00079711,-0.0017842
 3,0.00034164,-0.00066531,-0.00340855,0.00025973,0.00311459,0.00214764,
 0.00000914,0.00051570,-0.41237583,-0.02321551,-0.11032678,-0.02472230,
 -0.00882555,-0.00746205,0.49049390,-0.00375288,0.00610421,-0.00248817,
 0.00116975,0.00152021,-0.00083971,-0.00028543,0.00046795,-0.00008102,-
 0.00027625,-0.00056965,-0.00023692,0.00002627,-0.00021910,-0.00008859,
 -0.00013647,0.00004651,0.00016225,0.00000565,-0.00017245,-0.00012837,-
 0.00042416,0.00000116,0.00004730,-0.00006421,0.00022272,-0.00051321,-0
 .00013270,-0.00007982,-0.00020473,-0.02290713,-0.07045707,-0.00827000,
 -0.03704602,-0.00417926,-0.00534529,0.02082945,0.07071890,-0.03479480,
 -0.00164899,-0.01110740,0.00897003,-0.00075806,-0.00632994,-0.00119573
 ,0.00004299,0.00085891,-0.00243548,-0.00015976,-0.00239879,0.00025812,
 0.00004163,-0.00082041,-0.00109967,-0.00022130,0.00119236,-0.00095869,
 -0.00002236,-0.00066342,-0.00337532,0.00079042,0.00034058,0.00096407,-
 0.00077576,-0.00427505,-0.00214929,-0.00003344,-0.00173830,-0.11136288
 ,-0.00998966,-0.11019576,0.00597130,0.00417763,0.01400455,0.13225354,0
 .01311713,0.11099950,0.00500890,0.00885334,0.00058190,-0.00439358,0.00
 019586,0.00231453,0.00099811,-0.00038400,-0.00112282,0.00071393,-0.000
 43091,0.00086922,-0.00009155,-0.00002675,0.00031704,0.00021204,0.00007
 661,-0.00065083,0.00012168,-0.00077761,0.00051123,0.00121967,-0.000354
 01,0.00013395,-0.00001680,0.00012545,0.00139854,0.00058794,0.00060400,
 -0.00014432,-0.15089835,0.12930484,0.03147249,0.01065719,-0.01123152,0
 .00054113,-0.04187902,0.03975276,0.00532924,0.59201013,0.00722746,-0.0
 0488781,0.00177534,0.00340232,0.00044209,-0.00032705,-0.00184281,-0.00
 016050,-0.00066086,-0.00037748,0.00033252,-0.00076832,0.00004012,0.000
 01230,-0.00026043,-0.00010757,-0.00028526,0.00103660,0.00114561,0.0005
 7031,-0.00115373,-0.00228354,0.00050303,-0.00019416,-0.00060335,-0.000
 63531,-0.00448311,-0.00054314,-0.00042552,-0.00031666,0.08358493,-0.24
 181143,-0.05240736,0.01453532,-0.04342413,-0.00662238,0.00475482,-0.00
 070010,-0.00187718,-0.07804761,0.32229786,0.01450580,-0.01851304,0.000
 92942,0.00278268,0.00031039,0.00064789,-0.00198185,-0.00152150,-0.0015
 7237,-0.00010017,0.00067697,-0.00003633,-0.00000983,-0.00000743,-0.000
 19466,0.00056717,-0.00035205,0.00143598,0.00129264,0.00171894,-0.00207
 568,-0.00308522,0.00095982,-0.00053291,-0.00242477,-0.00146788,-0.0038
 6898,-0.00007856,-0.00093794,-0.00012447,0.02333417,-0.05706455,-0.077
 01425,-0.00094527,0.00864054,0.01590573,-0.00911122,0.00546819,0.00686
 590,0.01549799,0.07696704,0.07512807,0.00115792,-0.00016094,0.00068252
 ,-0.00014252,0.00019980,0.00075243,-0.00118091,-0.00174496,-0.00297035
 ,-0.00004099,0.00010716,-0.00000052,0.00000140,-0.00000456,-0.00000216
 ,0.00004237,-0.00008200,0.00011450,0.00014746,0.00012821,-0.00015622,-
 0.00031812,0.00007074,-0.00004298,-0.00002735,-0.00003147,-0.00045346,
 -0.00000016,-0.00004979,-0.00009520,-0.02306895,-0.00793836,-0.0051773
 6,0.00294605,-0.00486881,0.00052572,-0.00013957,0.00286155,0.00058855,
 -0.41316523,-0.03288613,-0.04300130,0.43349361,-0.00077658,-0.00107103
 ,-0.00033881,0.00079952,-0.00010675,-0.00065877,-0.00076230,-0.0005012
 1,-0.00059806,-0.00030530,-0.00000708,0.00006706,0.00000836,-0.0000005
 8,-0.00002683,0.00007482,0.00004496,-0.00006189,-0.00015423,-0.0000344
 9,0.00007888,0.00021400,-0.00002453,-0.00000501,-0.00011172,0.00016169
 ,0.00003901,-0.00003274,-0.00005888,0.00007068,0.04167376,-0.01334678,
 0.00235199,-0.00309872,0.00461263,-0.00135827,0.00628785,-0.00272703,-
 0.00202069,-0.08807122,-0.03137820,-0.01406678,0.04447138,0.04440624,-
 0.00227962,-0.00068910,-0.00102389,0.00171445,-0.00056592,-0.00129841,
 -0.00162059,-0.00061934,-0.00080958,-0.00044614,0.00007169,0.00003965,
 0.00001925,-0.00000532,-0.00005709,0.00010087,0.00000063,-0.00009957,-
 0.00036996,-0.00009281,0.00026384,0.00045819,-0.00008924,-0.00009672,0
 .00004818,0.00009562,0.00041998,0.00007485,-0.00000392,0.00013203,0.01
 173361,-0.00498938,-0.00439396,0.00087759,0.00002454,-0.00159314,-0.00
 137542,-0.00029878,0.00544709,-0.05791642,-0.00932593,-0.01381033,0.04
 939714,0.01639740,0.01665518,0.00659233,0.00054037,0.00512035,-0.00544
 686,-0.00068712,-0.00950482,-0.00221586,0.00017143,0.00204171,-0.00801
 757,0.00208279,0.05356247,0.00204798,-0.00011192,0.00023435,-0.0904611
 2,-0.00053991,0.00743633,0.01465896,0.00007359,-0.02732058,-0.00404398
 ,-0.01004039,0.03924921,-0.00798527,0.00042658,0.00271476,0.00049654,-
 0.00008953,-0.00093715,0.00042520,-0.00039117,-0.00539564,-0.00062620,
 -0.00081155,0.00154483,0.00109988,0.00017193,0.00123363,-0.00060344,0.
 00080674,0.00127260,0.00012368,-0.00009459,-0.00009634,0.62164445,0.00
 156894,-0.00081223,0.00084118,0.00014544,0.00674060,-0.00189540,-0.000
 04873,-0.00019400,0.00001291,-0.00088180,0.00487697,0.00046019,-0.0000
 4705,-0.00371253,0.00032051,0.00327545,-0.06595735,-0.00185368,-0.0020
 2595,0.00800010,-0.00276656,-0.00344559,-0.00398204,0.00867287,-0.0008
 5441,0.00663560,0.00106159,0.00002740,0.00010400,0.00007418,0.00011855
 ,-0.00068526,-0.00114838,-0.00031005,-0.00026285,0.00052921,0.00022960
 ,0.00006314,0.00030613,-0.00002010,0.00012124,0.00017273,0.00002270,-0
 .00002182,0.00000113,0.10047739,0.10788914,-0.00727552,-0.00087974,-0.
 00772018,0.00301466,0.00059993,0.01548815,0.00240178,-0.00025324,-0.00
 151760,0.02706330,-0.00002340,-0.04657045,-0.00181446,0.00028519,0.000
 76351,-0.01781294,-0.01148656,-0.26656315,-0.02091442,-0.00404085,-0.0
 3542147,0.01329105,0.00372743,-0.02382501,-0.00209863,-0.00048953,-0.0
 0175685,0.00066561,-0.00009692,-0.00092932,-0.00091503,0.00079378,0.00
 825186,0.00106140,0.00133999,-0.00244175,-0.00118815,-0.00029096,-0.00
 217535,0.00101210,-0.00138209,-0.00191818,-0.00017710,0.00012252,0.000
 13970,-0.22030409,-0.03585296,0.55322780,-0.00910815,-0.00062082,-0.00
 652318,0.00131020,0.00122018,0.01350086,0.00135355,-0.00008877,-0.0008
 8618,0.01197694,-0.00061288,-0.01553216,0.00004832,0.00004760,0.000259
 04,-0.02543283,-0.00351998,0.05246880,-0.00775629,-0.00319551,-0.00237
 979,0.00565726,0.02521391,-0.09375469,0.00067660,-0.00094529,-0.006630
 81,0.00025924,-0.00020986,-0.00085454,-0.00078766,0.00055066,0.0076921
 1,0.00101657,0.00123609,-0.00227901,-0.00128838,-0.00026249,-0.0018948
 4,0.00095742,-0.00121931,-0.00186733,-0.00018624,0.00010569,0.00007662
 ,-0.42987149,-0.06932662,0.18553595,0.75301138,-0.00231155,-0.00008152
 ,-0.00161795,0.00008937,0.00093898,0.00284044,0.00035088,-0.00029983,-
 0.00018212,0.00237249,0.00348395,-0.00389393,-0.00007679,-0.00042696,0
 .00007217,-0.00588676,0.00141454,0.00883054,-0.00214379,-0.00005438,-0
 .00006119,0.01641408,0.00222060,-0.01450087,0.00057725,-0.00051448,-0.
 00197039,0.00006427,-0.00006340,-0.00020311,-0.00017983,0.00011126,0.0
 0202494,0.00025587,0.00034296,-0.00062258,-0.00034601,-0.00006563,-0.0
 0051401,0.00026248,-0.00033216,-0.00049568,-0.00004840,0.00003638,0.00
 001783,-0.07481465,-0.08294757,0.04253827,0.11472976,0.18903548,-0.000
 21798,0.00009776,0.00006114,0.00018356,-0.00031909,-0.00119223,0.00015
 826,0.00002842,-0.00031444,-0.00482511,-0.00080191,-0.00381507,0.00009
 475,0.00010058,0.00011486,0.05020616,0.00866046,-0.04425258,0.00589155
 ,0.00090029,0.00502011,-0.02768048,-0.00583772,-0.03414942,0.00087172,
 -0.00063347,-0.00102283,-0.00015291,-0.00005374,0.00010991,0.00001817,
 0.00003258,0.00119500,0.00016798,0.00022967,-0.00042707,-0.00032470,-0
 .00004059,-0.00025189,0.00014526,-0.00016586,-0.00035372,-0.00004590,0
 .00002184,0.00000408,0.18066596,0.04266778,-0.22555900,-0.13576897,-0.
 06253519,0.81820092,0.00579124,0.00136166,0.00512423,-0.00031412,-0.00
 065187,-0.00756731,-0.00175153,0.00006584,0.00083586,-0.00562183,0.000
 44375,0.01002759,0.00034298,-0.00021799,-0.00004607,0.01179375,0.00162
 880,-0.03319770,0.01325564,-0.00476251,0.02858779,-0.11051677,-0.00819
 199,0.03637883,-0.00962651,-0.00155330,0.00509588,-0.00012748,-0.00009
 769,0.00009504,0.00008999,-0.00012137,-0.00592601,-0.00071213,-0.00113
 579,0.00172014,0.00097951,0.00019998,0.00161179,-0.00074515,0.00115296
 ,0.00166995,0.00016676,-0.00008699,-0.00013863,-0.09011220,-0.02591798
 ,0.01192874,-0.23565621,-0.04089591,-0.09867421,0.72770268,0.00343408,
 0.00018550,0.00150768,-0.00059273,-0.00040906,-0.00374526,-0.00052914,
 0.00009555,0.00024401,-0.00263775,-0.00028807,0.00399046,0.00012214,0.
 00026500,0.00000189,0.00417189,-0.00673846,-0.00966449,0.00652167,0.00
 149983,-0.00022054,-0.00884956,-0.06669746,0.05615403,-0.00303415,0.00
 348060,0.00275964,-0.00013408,-0.00006786,0.00003850,0.00015288,-0.000
 65667,-0.00186495,-0.00029867,-0.00036987,0.00077038,0.00029360,0.0001
 1962,0.00053484,-0.00017967,0.00030893,0.00029357,0.00004165,-0.000042
 70,-0.00003038,-0.02522152,0.01713754,0.00457803,-0.03429369,-0.052032
 19,0.00006599,0.10129060,0.11521626,0.00347070,-0.00072356,0.00107346,
 -0.00045522,-0.00042378,-0.00357158,0.00059231,0.00005922,-0.00006763,
 -0.00168158,-0.00013484,0.00479735,0.00031894,-0.00003254,-0.00019285,
 0.00492136,0.00042804,-0.01538898,-0.00216537,0.00994025,-0.01555415,-
 0.01105856,0.05241235,-0.14057913,0.00403687,0.00067328,0.00454029,-0.
 00028705,0.00048343,0.00077616,0.00035529,0.00004237,-0.00142421,-0.00
 021822,-0.00014849,0.00040434,0.00037366,0.00002452,0.00022299,-0.0002
 1405,0.00008552,0.00032474,0.00003789,-0.00001082,0.00005734,-0.018457
 60,-0.00751074,0.03834766,-0.02512134,0.00730245,-0.17588421,-0.063370
 30,-0.11103738,0.53333551,-0.00220565,0.00073583,0.00077276,0.00173622
 ,0.00003946,0.00027731,-0.00194384,-0.00000421,0.00077032,-0.00167397,
 0.00131519,-0.00235672,-0.00083711,0.00006916,0.00061873,-0.00334544,-
 0.00143198,0.01234572,-0.01455228,-0.01840990,-0.02062059,-0.29543074,
 -0.19724689,-0.13529374,0.00096158,0.00022434,-0.00374618,-0.00040550,
 -0.00037948,-0.00011155,0.00001553,-0.00024817,-0.00383873,-0.00040619
 ,-0.00074890,0.00121925,0.00058118,0.00014876,0.00122867,-0.00042953,0
 .00075707,0.00105367,0.00010948,-0.00007751,-0.00014623,-0.00078573,-0
 .00033799,-0.00208188,0.00663363,-0.00106705,-0.00243080,-0.00674526,-
 0.00567708,-0.01459294,0.31242408,-0.00043038,-0.00021262,0.00065822,0
 .00053283,0.00003357,0.00004542,-0.00048168,0.00004427,0.00020651,-0.0
 0044138,-0.00037132,-0.00081214,-0.00023135,-0.00007399,0.00022354,-0.
 00203730,0.00107493,0.00226981,0.00297787,0.00418617,-0.00579095,-0.18
 970447,-0.23576167,-0.11805968,0.00001719,0.00010468,-0.00081081,0.000
 07194,-0.00007819,0.00008345,-0.00009338,-0.00015297,-0.00116775,-0.00
 010329,-0.00019028,0.00037570,0.00020824,0.00006657,0.00034728,-0.0001
 2638,0.00027493,0.00031520,0.00003669,-0.00002513,-0.00003521,-0.00023
 651,-0.00064397,0.00054982,0.00193122,0.00240163,-0.00005349,0.0031040
 3,0.00689482,0.00268214,0.21591273,0.25278975,-0.00024088,0.00039799,0
 .00134188,0.00053418,-0.00000377,0.00013728,-0.00017816,-0.00001823,0.
 00011748,0.00047498,0.00004307,0.00096296,0.00011050,-0.00007811,-0.00
 004707,0.00140579,0.00018903,-0.00436193,0.00444753,-0.00080321,0.0095
 2098,-0.13440656,-0.12599893,-0.15984041,-0.00059046,0.00059124,-0.000
 71462,0.00017086,-0.00030019,0.00112570,-0.00021721,-0.00001658,-0.000
 79757,-0.00005821,-0.00011658,0.00024346,0.00024020,0.00002732,0.00012
 155,-0.00006154,0.00013647,0.00025629,0.00002467,-0.00001021,-0.000017
 40,-0.00647233,-0.00151333,0.00331128,0.01912123,0.00331456,-0.0056262
 5,-0.04377870,-0.01630328,-0.02035752,0.17324081,0.14299812,0.16200178
 ,-0.00316600,-0.00136144,0.00116261,0.00198630,0.00033440,0.00117703,-
 0.00184219,0.00022687,0.00061592,0.00016381,-0.00133561,-0.00023870,-0
 .00031610,-0.00001562,0.00016029,0.00136162,0.00097820,0.00635305,-0.0
 0383070,0.02401749,0.00634472,-0.09500464,0.10491675,0.00905916,-0.001
 50667,0.00246149,-0.00473208,-0.00008720,0.00072180,-0.00013550,-0.000
 14504,-0.00057429,-0.00330046,-0.00036200,-0.00067930,0.00122533,0.000
 53642,0.00013684,0.00098266,-0.00032639,0.00062288,0.00078520,0.000096
 50,-0.00006973,-0.00013100,0.00113436,0.00068987,-0.00242750,0.0009906
 0,-0.00191131,0.00226243,0.01246856,0.01062819,-0.00641998,0.00945227,
 -0.03005339,-0.01081129,0.08017136,0.00060022,0.00081855,-0.00211930,-
 0.00139774,-0.00005276,0.00114656,0.00170403,-0.00022601,-0.00063849,0
 .00175078,0.00076695,-0.00099745,0.00040279,0.00014039,-0.00031020,-0.
 00022444,-0.00089664,-0.00231309,-0.00224139,-0.00948086,0.00078958,0.
 09545405,-0.51944653,-0.03742338,0.00369032,-0.00098366,0.00097171,0.0
 0010799,-0.00062225,0.00038626,0.00005219,0.00024637,0.00396832,0.0004
 5412,0.00086901,-0.00132660,-0.00060938,-0.00011558,-0.00115933,0.0004
 3542,-0.00073908,-0.00102928,-0.00011355,0.00006838,0.00012830,0.00571
 992,0.00094078,-0.00211455,-0.01600252,-0.00464874,-0.00216349,0.01178
 559,-0.01513775,0.01624894,0.00656647,-0.02917131,-0.00227930,-0.11182
 263,0.57894926,0.00074756,0.00061813,0.00073060,-0.00019967,-0.0001542
 4,0.00003924,0.00062851,-0.00010093,-0.00022611,0.00059035,0.00084453,
 0.00097253,0.00030588,0.00016255,-0.00020330,0.00090213,-0.00162636,-0
 .00854403,0.00635540,-0.00890659,0.01129586,0.00821785,-0.02680145,-0.
 06519882,-0.00110312,0.00033412,0.00184634,-0.00020319,-0.00006063,0.0
 0021334,-0.00006528,-0.00001037,0.00014163,-0.00000593,0.00005403,-0.0
 0004177,0.00003638,-0.00001787,-0.00014775,0.00002221,-0.00006769,-0.0
 0004578,-0.00000769,0.00000994,0.00003828,-0.00677483,-0.00285378,0.00
 482683,0.01686049,0.00557047,0.00486451,-0.02004910,0.02605688,-0.0133
 3451,-0.00441354,-0.02283489,0.01039155,-0.00084244,0.03001781,0.05092
 926,0.00013901,-0.00003483,0.00005692,-0.00019323,0.00017828,-0.000200
 83,-0.00014574,0.00000140,0.00013611,0.00030101,0.00010327,0.00106804,
 -0.00000779,-0.00006171,-0.00006919,-0.00137768,-0.00301358,0.00213760
 ,-0.00030728,0.00037463,0.00031326,-0.00243964,-0.00502637,0.00329716,
 0.00050793,0.00022779,0.00028749,-0.00005939,0.00002353,0.00011092,0.0
 0003477,-0.00003559,-0.00027342,-0.00003525,-0.00004945,0.00009078,0.0
 0004856,0.00000987,0.00008790,-0.00003022,0.00004236,0.00006363,0.0000
 0682,-0.00000668,-0.00000639,-0.00736760,-0.00215989,0.03550430,-0.053
 63176,-0.00340507,0.01204634,-0.00511968,0.00289871,-0.03607075,-0.001
 43573,-0.00022148,-0.00312971,0.00020550,0.00102054,-0.00033615,0.0701
 1070,-0.00059074,0.00004470,-0.00020348,-0.00004297,-0.00049769,0.0006
 3080,-0.00001571,0.00002129,0.00003813,0.00064474,0.00005424,0.0000029
 0,-0.00003068,0.00012482,-0.00001960,-0.00341519,0.01133831,0.00145124
 ,-0.00057593,-0.00036868,0.00039591,-0.00046247,0.00248089,-0.00082462
 ,0.00038026,-0.00111280,-0.00047205,0.00001814,-0.00001179,-0.00000532
 ,-0.00003166,0.00012299,0.00021589,0.00005505,0.00004927,-0.00010449,-
 0.00003344,-0.00000973,-0.00005814,0.00001016,-0.00002611,-0.00002031,
 -0.00000389,0.00000500,-0.00000273,0.00156315,0.00017695,0.00601710,-0
 .00502324,-0.05118930,0.01749568,-0.00017378,0.01041372,-0.00418658,-0
 .00004170,-0.00034403,0.00009029,-0.00019703,0.00071542,-0.00009909,0.
 00804439,0.02993665,-0.00003018,0.00000714,0.00002487,0.00011074,-0.00
 008098,0.00008800,0.00004858,0.00000078,-0.00004015,-0.00001978,-0.000
 00904,-0.00030177,0.00001715,0.00001775,-0.00004193,0.00032542,0.00127
 672,0.00203409,-0.00020866,-0.00003232,0.00000795,-0.00021561,-0.00206
 738,0.00312246,-0.00006776,-0.00006776,-0.00004352,0.00001311,-0.00000
 197,-0.00000368,-0.00000815,0.00000994,-0.00000366,-0.00000090,0.00000
 277,-0.00000084,0.00000446,-0.00000080,-0.00001085,-0.00000140,-0.0000
 0248,0.00000421,0.00000076,0.00000057,0.00000239,0.00849196,0.00114520
 ,-0.00797575,0.01024454,0.01772199,-0.35496675,-0.00389838,0.00179555,
 -0.01363576,-0.00021018,0.00007086,-0.00062325,-0.00006330,0.00030782,
 -0.00009064,-0.01456435,-0.02024768,0.37207046,-0.00001175,-0.00018911
 ,-0.00053556,-0.00020055,0.00002975,0.00022834,0.00028182,-0.00000463,
 -0.00009757,0.00024404,0.00007742,-0.00016608,0.00007226,-0.00001975,-
 0.00004893,-0.00013644,0.00025831,-0.00014677,-0.00076015,0.00061023,-
 0.00424138,0.01629951,-0.00110743,-0.00067137,0.00150981,0.00006031,-0
 .00006421,0.00000614,0.00003885,0.00011551,0.00003516,0.00003496,0.000
 74434,0.00008591,0.00015831,-0.00023420,-0.00010989,-0.00002507,-0.000
 21279,0.00009225,-0.00016164,-0.00021998,-0.00002203,0.00001293,0.0000
 2599,-0.00068606,-0.00117919,-0.00446916,-0.02017269,-0.00202931,0.017
 40892,-0.30554220,-0.04810739,0.16600594,-0.00171699,-0.00063174,0.000
 17430,-0.00198038,0.00266722,-0.00066582,0.00079669,-0.00007744,0.0000
 3194,0.31191554,-0.00057582,-0.00027803,-0.00005032,0.00013907,-0.0000
 9218,0.00081902,0.00021109,0.00002166,-0.00009407,0.00058585,-0.000272
 69,-0.00080685,0.00002819,0.00008180,-0.00002950,-0.00039793,0.0000616
 4,0.00194665,0.00021947,0.00224342,0.00036395,-0.00736211,-0.00229922,
 0.00876623,0.00022293,-0.00080796,-0.00067179,0.00003447,0.00013064,-0
 .00001323,-0.00005963,0.00019397,0.00036158,0.00006633,0.00007192,-0.0
 0016648,-0.00006028,-0.00003557,-0.00011935,0.00002886,-0.00005761,-0.
 00004693,-0.00000701,0.00001094,0.00001092,0.00100496,0.00653355,-0.00
 364125,-0.00971414,-0.00732961,0.00230348,-0.03722604,-0.01317728,0.03
 382620,-0.00009812,-0.00084582,-0.00034636,0.00228557,-0.00199392,-0.0
 0013457,0.00108987,-0.00192410,0.00015330,0.04958442,0.01976446,0.0004
 7851,-0.00027920,-0.00005082,-0.00013038,-0.00004419,-0.00061249,-0.00
 003906,0.00002151,0.00006033,-0.00043455,-0.00002405,0.00098855,0.0000
 5726,0.00000038,0.00001409,0.00009943,-0.00035989,-0.00361467,-0.00136
 969,0.00199804,-0.00439084,0.02339153,0.00271998,-0.01471198,0.0011313
 1,0.00015083,0.00061376,-0.00005113,0.00011148,0.00006701,0.00010226,0
 .00002513,-0.00021707,-0.00003015,-0.00001981,0.00004851,0.00004651,-0
 .00000171,0.00006147,-0.00003546,0.00001432,0.00004942,0.00000604,-0.0
 0000376,0.00000051,-0.00830479,-0.00087080,0.00001727,-0.01226681,-0.0
 0363665,0.01824491,0.17357057,0.04407483,-0.18388932,-0.00168416,-0.00
 126112,0.00285384,-0.00102615,-0.00009083,0.00154274,-0.00054965,-0.00
 009385,0.00038413,-0.17296146,-0.04243062,0.18254064\\0.00000719,-0.00
 000159,-0.00000137,-0.00001686,0.00001993,0.00001508,0.00000862,0.0000
 5195,0.00000268,0.00000061,0.00003303,0.00000172,-0.00000399,0.0000518
 0,0.00000053,0.00000332,0.00001695,0.00000164,-0.00000840,-0.00001137,
 -0.00000498,0.00000207,-0.00003863,-0.00001324,-0.00001321,-0.00001337
 ,0.00000186,0.00000563,-0.00003101,0.00000767,-0.00005297,0.00001932,0
 .00004484,-0.00001761,-0.00001920,-0.00003164,0.00002574,-0.00001987,-
 0.00002267,0.00004985,-0.00001332,-0.00002097,0.00002445,0.00002163,0.
 00001086,-0.00000458,0.00002433,-0.00000177,-0.00000402,0.00001366,-0.
 00000301,0.00000110,-0.00001990,0.00001073,0.00001142,-0.00004165,0.00
 000780,-0.00002576,-0.00002851,-0.00000849,0.00000115,0.00001012,0.000
 00064,0.00000626,-0.00002429,0.00000208\\\@
 The archive entry for this job was punched.


 LIFE IS SO UNCERTAIN - EAT DESSERT FIRST.
 Job cpu time:       0 days  1 hours 57 minutes 18.7 seconds.
 Elapsed time:       0 days  0 hours  7 minutes 23.7 seconds.
 File lengths (MBytes):  RWF=    393 Int=      0 D2E=      0 Chk=     17 Scr=      1
 Normal termination of Gaussian 16 at Fri Jul  1 00:35:36 2022.
