 Entering Gaussian System, Link 0=g16
 AtFile(1): /home/561/yj5695/Basis/6-31pGd.gbs
 Initial command:
 /apps/gaussian/g16c01/g16/l1.exe "/jobfs/48971728.gadi-pbs/Gau-2285402.inp" -scrdir="/jobfs/48971728.gadi-pbs/"
 Entering Link 1 = /apps/gaussian/g16c01/g16/l1.exe PID=   2285403.
  
 Copyright (c) 1988-2019, Gaussian, Inc.  All Rights Reserved.
  
 This is part of the Gaussian(R) 16 program.  It is based on
 the Gaussian(R) 09 system (copyright 2009, Gaussian, Inc.),
 the Gaussian(R) 03 system (copyright 2003, Gaussian, Inc.),
 the Gaussian(R) 98 system (copyright 1998, Gaussian, Inc.),
 the Gaussian(R) 94 system (copyright 1995, Gaussian, Inc.),
 the Gaussian 92(TM) system (copyright 1992, Gaussian, Inc.),
 the Gaussian 90(TM) system (copyright 1990, Gaussian, Inc.),
 the Gaussian 88(TM) system (copyright 1988, Gaussian, Inc.),
 the Gaussian 86(TM) system (copyright 1986, Carnegie Mellon
 University), and the Gaussian 82(TM) system (copyright 1983,
 Carnegie Mellon University). Gaussian is a federally registered
 trademark of Gaussian, Inc.
  
 This software contains proprietary and confidential information,
 including trade secrets, belonging to Gaussian, Inc.
  
 This software is provided under written license and may be
 used, copied, transmitted, or stored only in accord with that
 written license.
  
 The following legend is applicable only to US Government
 contracts under FAR:
  
                    RESTRICTED RIGHTS LEGEND
  
 Use, reproduction and disclosure by the US Government is
 subject to restrictions as set forth in subparagraphs (a)
 and (c) of the Commercial Computer Software - Restricted
 Rights clause in FAR 52.227-19.
  
 Gaussian, Inc.
 340 Quinnipiac St., Bldg. 40, Wallingford CT 06492
  
  
 ---------------------------------------------------------------
 Warning -- This program may not be used in any manner that
 competes with the business of Gaussian, Inc. or will provide
 assistance to any competitor of Gaussian, Inc.  The licensee
 of this program is prohibited from giving any competitor of
 Gaussian, Inc. access to this program.  By using this program,
 the user acknowledges that Gaussian, Inc. is engaged in the
 business of creating and licensing software in the field of
 computational chemistry and represents and warrants to the
 licensee that it is not a competitor of Gaussian, Inc. and that
 it will not use this program in any manner prohibited above.
 ---------------------------------------------------------------
  

 Cite this work as:
 Gaussian 16, Revision C.01,
 M. J. Frisch, G. W. Trucks, H. B. Schlegel, G. E. Scuseria, 
 M. A. Robb, J. R. Cheeseman, G. Scalmani, V. Barone, 
 G. A. Petersson, H. Nakatsuji, X. Li, M. Caricato, A. V. Marenich, 
 J. Bloino, B. G. Janesko, R. Gomperts, B. Mennucci, H. P. Hratchian, 
 J. V. Ortiz, A. F. Izmaylov, J. L. Sonnenberg, D. Williams-Young, 
 F. Ding, F. Lipparini, F. Egidi, J. Goings, B. Peng, A. Petrone, 
 T. Henderson, D. Ranasinghe, V. G. Zakrzewski, J. Gao, N. Rega, 
 G. Zheng, W. Liang, M. Hada, M. Ehara, K. Toyota, R. Fukuda, 
 J. Hasegawa, M. Ishida, T. Nakajima, Y. Honda, O. Kitao, H. Nakai, 
 T. Vreven, K. Throssell, J. A. Montgomery, Jr., J. E. Peralta, 
 F. Ogliaro, M. J. Bearpark, J. J. Heyd, E. N. Brothers, K. N. Kudin, 
 V. N. Staroverov, T. A. Keith, R. Kobayashi, J. Normand, 
 K. Raghavachari, A. P. Rendell, J. C. Burant, S. S. Iyengar, 
 J. Tomasi, M. Cossi, J. M. Millam, M. Klene, C. Adamo, R. Cammi, 
 J. W. Ochterski, R. L. Martin, K. Morokuma, O. Farkas, 
 J. B. Foresman, and D. J. Fox, Gaussian, Inc., Wallingford CT, 2019.
 
 ******************************************
 Gaussian 16:  ES64L-G16RevC.01  3-Jul-2019
                 1-Jul-2022 
 ******************************************
 %nproc=16
 Will use up to   16 processors via shared memory.
 %mem=50gb
 -----------------------------------------------------
 #m062X/gen 6D OPT Freq=noraman SCRF=(SMD,Solvent=h2o)
 -----------------------------------------------------
 1/18=20,19=15,26=3,38=1/1,3;
 2/9=110,12=2,17=6,18=5,40=1/2;
 3/5=7,8=2,11=2,25=1,30=1,70=32201,71=1,72=1,74=-55/1,2,3;
 4//1;
 5/5=2,38=5,53=1/2;
 6/7=2,8=2,9=2,10=2,28=1/1;
 7//1,2,3,16;
 1/18=20,19=15,26=3/3(2);
 2/9=110/2;
 99//99;
 2/9=110/2;
 3/5=7,6=1,8=2,11=2,25=1,30=1,70=32205,71=1,72=1,74=-55,82=7/1,2,3;
 4/5=5,16=3,69=1/1;
 5/5=2,38=5,53=1/2;
 7//1,2,3,16;
 1/18=20,19=15,26=3/3(-5);
 2/9=110/2;
 6/7=2,8=2,9=2,10=2,19=2,28=1/1;
 99/9=1/99;
 -----------------
 A.32.smd.a2b3.smd
 -----------------
 Symbolic Z-matrix:
 Charge = -1 Multiplicity = 1
 C                    -1.42929   0.63448  -0.7896 
 C                    -2.5522    0.68071  -1.6335 
 Cl                   -4.16732   0.72755  -0.97498 
 C                    -2.44186   0.68642  -3.00904 
 H                    -3.33097   0.72653  -3.6309 
 C                    -1.17653   0.64093  -3.62576 
 C                    -0.05514   0.59069  -2.77514 
 S                     1.57984   0.51187  -3.4362 
 C                    -0.18043   0.59081  -1.38692 
 H                     0.7063    0.56412  -0.75939 
 S                    -1.54097   0.62646   1.01991 
 O                    -2.36953  -0.57297   1.30296 
 O                    -0.1185    0.49493   1.45074 
 N                    -2.28237   1.89718   1.53414 
 H                    -3.08186   2.07355   0.92278 
 N                    -1.06755   0.70601  -4.98918 
 C                     0.17736   0.31368  -5.61412 
 N                     1.25823   1.07418  -4.96934 
 O                     2.45907   1.47793  -2.77403 
 O                     2.04566  -0.88257  -3.4391 
 H                     0.15739   0.59982  -6.66333 
 H                     2.11735   1.07526  -5.52728 
 H                    -1.90985   0.49362  -5.51405 
 H                     0.3458   -0.76945  -5.54136 
 

 GradGradGradGradGradGradGradGradGradGradGradGradGradGradGradGradGradGrad
 Berny optimization.
 Initialization pass.
                           ----------------------------
                           !    Initial Parameters    !
                           ! (Angstroms and Degrees)  !
 --------------------------                            --------------------------
 ! Name  Definition              Value          Derivative Info.                !
 --------------------------------------------------------------------------------
 ! R1    R(1,2)                  1.4054         estimate D2E/DX2                !
 ! R2    R(1,9)                  1.385          estimate D2E/DX2                !
 ! R3    R(1,11)                 1.813          estimate D2E/DX2                !
 ! R4    R(2,3)                  1.7448         estimate D2E/DX2                !
 ! R5    R(2,4)                  1.38           estimate D2E/DX2                !
 ! R6    R(4,5)                  1.0857         estimate D2E/DX2                !
 ! R7    R(4,6)                  1.4084         estimate D2E/DX2                !
 ! R8    R(6,7)                  1.4084         estimate D2E/DX2                !
 ! R9    R(6,16)                 1.3693         estimate D2E/DX2                !
 ! R10   R(7,8)                  1.7653         estimate D2E/DX2                !
 ! R11   R(7,9)                  1.3939         estimate D2E/DX2                !
 ! R12   R(8,18)                 1.6644         estimate D2E/DX2                !
 ! R13   R(8,19)                 1.4645         estimate D2E/DX2                !
 ! R14   R(8,20)                 1.4702         estimate D2E/DX2                !
 ! R15   R(9,10)                 1.0866         estimate D2E/DX2                !
 ! R16   R(11,12)                1.485          estimate D2E/DX2                !
 ! R17   R(11,13)                1.4921         estimate D2E/DX2                !
 ! R18   R(11,14)                1.5585         estimate D2E/DX2                !
 ! R19   R(14,15)                1.0218         estimate D2E/DX2                !
 ! R20   R(16,17)                1.4472         estimate D2E/DX2                !
 ! R21   R(16,23)                1.0149         estimate D2E/DX2                !
 ! R22   R(17,18)                1.4705         estimate D2E/DX2                !
 ! R23   R(17,21)                1.0877         estimate D2E/DX2                !
 ! R24   R(17,24)                1.0986         estimate D2E/DX2                !
 ! R25   R(18,22)                1.0244         estimate D2E/DX2                !
 ! A1    A(2,1,9)              117.5489         estimate D2E/DX2                !
 ! A2    A(2,1,11)             123.3835         estimate D2E/DX2                !
 ! A3    A(9,1,11)             119.0675         estimate D2E/DX2                !
 ! A4    A(1,2,3)              120.9205         estimate D2E/DX2                !
 ! A5    A(1,2,4)              122.329          estimate D2E/DX2                !
 ! A6    A(3,2,4)              116.75           estimate D2E/DX2                !
 ! A7    A(2,4,5)              120.3704         estimate D2E/DX2                !
 ! A8    A(2,4,6)              120.5443         estimate D2E/DX2                !
 ! A9    A(5,4,6)              119.0853         estimate D2E/DX2                !
 ! A10   A(4,6,7)              116.8738         estimate D2E/DX2                !
 ! A11   A(4,6,16)             120.3972         estimate D2E/DX2                !
 ! A12   A(7,6,16)             122.6621         estimate D2E/DX2                !
 ! A13   A(6,7,8)              120.8541         estimate D2E/DX2                !
 ! A14   A(6,7,9)              122.0015         estimate D2E/DX2                !
 ! A15   A(8,7,9)              117.1428         estimate D2E/DX2                !
 ! A16   A(7,8,18)              98.6786         estimate D2E/DX2                !
 ! A17   A(7,8,19)             110.9324         estimate D2E/DX2                !
 ! A18   A(7,8,20)             109.6656         estimate D2E/DX2                !
 ! A19   A(18,8,19)            108.0375         estimate D2E/DX2                !
 ! A20   A(18,8,20)            112.3242         estimate D2E/DX2                !
 ! A21   A(19,8,20)            115.8705         estimate D2E/DX2                !
 ! A22   A(1,9,7)              120.7017         estimate D2E/DX2                !
 ! A23   A(1,9,10)             119.1775         estimate D2E/DX2                !
 ! A24   A(7,9,10)             120.1191         estimate D2E/DX2                !
 ! A25   A(1,11,12)            103.1905         estimate D2E/DX2                !
 ! A26   A(1,11,13)            103.2887         estimate D2E/DX2                !
 ! A27   A(1,11,14)            110.795          estimate D2E/DX2                !
 ! A28   A(12,11,13)           113.9339         estimate D2E/DX2                !
 ! A29   A(12,11,14)           109.2832         estimate D2E/DX2                !
 ! A30   A(13,11,14)           115.4753         estimate D2E/DX2                !
 ! A31   A(11,14,15)           108.3932         estimate D2E/DX2                !
 ! A32   A(6,16,17)            119.0493         estimate D2E/DX2                !
 ! A33   A(6,16,23)            116.0355         estimate D2E/DX2                !
 ! A34   A(17,16,23)           115.7131         estimate D2E/DX2                !
 ! A35   A(16,17,18)           107.6225         estimate D2E/DX2                !
 ! A36   A(16,17,21)           109.2347         estimate D2E/DX2                !
 ! A37   A(16,17,24)           111.7522         estimate D2E/DX2                !
 ! A38   A(18,17,21)           107.4816         estimate D2E/DX2                !
 ! A39   A(18,17,24)           111.6026         estimate D2E/DX2                !
 ! A40   A(21,17,24)           109.0309         estimate D2E/DX2                !
 ! A41   A(8,18,17)            111.7903         estimate D2E/DX2                !
 ! A42   A(8,18,22)            109.8767         estimate D2E/DX2                !
 ! A43   A(17,18,22)           112.2207         estimate D2E/DX2                !
 ! D1    D(9,1,2,3)            179.609          estimate D2E/DX2                !
 ! D2    D(9,1,2,4)             -0.1425         estimate D2E/DX2                !
 ! D3    D(11,1,2,3)            -0.2746         estimate D2E/DX2                !
 ! D4    D(11,1,2,4)           179.9739         estimate D2E/DX2                !
 ! D5    D(2,1,9,7)             -0.1163         estimate D2E/DX2                !
 ! D6    D(2,1,9,10)           179.4195         estimate D2E/DX2                !
 ! D7    D(11,1,9,7)           179.7725         estimate D2E/DX2                !
 ! D8    D(11,1,9,10)           -0.6917         estimate D2E/DX2                !
 ! D9    D(2,1,11,12)           58.0402         estimate D2E/DX2                !
 ! D10   D(2,1,11,13)          176.954          estimate D2E/DX2                !
 ! D11   D(2,1,11,14)          -58.8209         estimate D2E/DX2                !
 ! D12   D(9,1,11,12)         -121.8418         estimate D2E/DX2                !
 ! D13   D(9,1,11,13)           -2.9279         estimate D2E/DX2                !
 ! D14   D(9,1,11,14)          121.2972         estimate D2E/DX2                !
 ! D15   D(1,2,4,5)           -179.7658         estimate D2E/DX2                !
 ! D16   D(1,2,4,6)              0.2089         estimate D2E/DX2                !
 ! D17   D(3,2,4,5)              0.4728         estimate D2E/DX2                !
 ! D18   D(3,2,4,6)           -179.5524         estimate D2E/DX2                !
 ! D19   D(2,4,6,7)             -0.0144         estimate D2E/DX2                !
 ! D20   D(2,4,6,16)          -177.1191         estimate D2E/DX2                !
 ! D21   D(5,4,6,7)            179.9607         estimate D2E/DX2                !
 ! D22   D(5,4,6,16)             2.856          estimate D2E/DX2                !
 ! D23   D(4,6,7,8)            179.2799         estimate D2E/DX2                !
 ! D24   D(4,6,7,9)             -0.2438         estimate D2E/DX2                !
 ! D25   D(16,6,7,8)            -3.6866         estimate D2E/DX2                !
 ! D26   D(16,6,7,9)           176.7898         estimate D2E/DX2                !
 ! D27   D(4,6,16,17)         -164.0624         estimate D2E/DX2                !
 ! D28   D(4,6,16,23)          -18.6076         estimate D2E/DX2                !
 ! D29   D(7,6,16,17)           19.0055         estimate D2E/DX2                !
 ! D30   D(7,6,16,23)          164.4603         estimate D2E/DX2                !
 ! D31   D(6,7,8,18)            19.5682         estimate D2E/DX2                !
 ! D32   D(6,7,8,19)           132.7559         estimate D2E/DX2                !
 ! D33   D(6,7,8,20)           -97.9866         estimate D2E/DX2                !
 ! D34   D(9,7,8,18)          -160.8857         estimate D2E/DX2                !
 ! D35   D(9,7,8,19)           -47.698          estimate D2E/DX2                !
 ! D36   D(9,7,8,20)            81.5595         estimate D2E/DX2                !
 ! D37   D(6,7,9,1)              0.315          estimate D2E/DX2                !
 ! D38   D(6,7,9,10)          -179.2163         estimate D2E/DX2                !
 ! D39   D(8,7,9,1)           -179.2254         estimate D2E/DX2                !
 ! D40   D(8,7,9,10)             1.2432         estimate D2E/DX2                !
 ! D41   D(7,8,18,17)          -53.2287         estimate D2E/DX2                !
 ! D42   D(7,8,18,22)         -178.5112         estimate D2E/DX2                !
 ! D43   D(19,8,18,17)        -168.6829         estimate D2E/DX2                !
 ! D44   D(19,8,18,22)          66.0346         estimate D2E/DX2                !
 ! D45   D(20,8,18,17)          62.2825         estimate D2E/DX2                !
 ! D46   D(20,8,18,22)         -63.0001         estimate D2E/DX2                !
 ! D47   D(1,11,14,15)          41.7551         estimate D2E/DX2                !
 ! D48   D(12,11,14,15)        -71.2906         estimate D2E/DX2                !
 ! D49   D(13,11,14,15)        158.7102         estimate D2E/DX2                !
 ! D50   D(6,16,17,18)         -53.0786         estimate D2E/DX2                !
 ! D51   D(6,16,17,21)        -169.4802         estimate D2E/DX2                !
 ! D52   D(6,16,17,24)          69.7858         estimate D2E/DX2                !
 ! D53   D(23,16,17,18)        161.3591         estimate D2E/DX2                !
 ! D54   D(23,16,17,21)         44.9576         estimate D2E/DX2                !
 ! D55   D(23,16,17,24)        -75.7764         estimate D2E/DX2                !
 ! D56   D(16,17,18,8)          73.4322         estimate D2E/DX2                !
 ! D57   D(16,17,18,22)       -162.5916         estimate D2E/DX2                !
 ! D58   D(21,17,18,8)        -169.023          estimate D2E/DX2                !
 ! D59   D(21,17,18,22)        -45.0468         estimate D2E/DX2                !
 ! D60   D(24,17,18,8)         -49.5241         estimate D2E/DX2                !
 ! D61   D(24,17,18,22)         74.4521         estimate D2E/DX2                !
 --------------------------------------------------------------------------------
 Trust Radius=3.00D-01 FncErr=1.00D-07 GrdErr=1.00D-06 EigMax=2.50D+02 EigMin=1.00D-04
 Number of steps in this run=    139 maximum allowed number of steps=    144.
 GradGradGradGradGradGradGradGradGradGradGradGradGradGradGradGradGradGrad

                          Input orientation:                          
 ---------------------------------------------------------------------
 Center     Atomic      Atomic             Coordinates (Angstroms)
 Number     Number       Type             X           Y           Z
 ---------------------------------------------------------------------
      1          6           0       -1.429293    0.634481   -0.789602
      2          6           0       -2.552196    0.680711   -1.633497
      3         17           0       -4.167316    0.727547   -0.974984
      4          6           0       -2.441855    0.686422   -3.009037
      5          1           0       -3.330969    0.726532   -3.630901
      6          6           0       -1.176534    0.640925   -3.625762
      7          6           0       -0.055135    0.590687   -2.775137
      8         16           0        1.579844    0.511872   -3.436197
      9          6           0       -0.180429    0.590807   -1.386918
     10          1           0        0.706299    0.564116   -0.759392
     11         16           0       -1.540970    0.626457    1.019906
     12          8           0       -2.369528   -0.572966    1.302962
     13          8           0       -0.118498    0.494932    1.450737
     14          7           0       -2.282371    1.897183    1.534143
     15          1           0       -3.081858    2.073550    0.922782
     16          7           0       -1.067548    0.706011   -4.989180
     17          6           0        0.177361    0.313678   -5.614123
     18          7           0        1.258226    1.074182   -4.969343
     19          8           0        2.459071    1.477930   -2.774034
     20          8           0        2.045655   -0.882567   -3.439101
     21          1           0        0.157389    0.599821   -6.663329
     22          1           0        2.117348    1.075262   -5.527275
     23          1           0       -1.909849    0.493621   -5.514055
     24          1           0        0.345799   -0.769448   -5.541362
 ---------------------------------------------------------------------
                    Distance matrix (angstroms):
                    1          2          3          4          5
     1  C    0.000000
     2  C    1.405421   0.000000
     3  Cl   2.745869   1.744834   0.000000
     4  C    2.440056   1.379970   2.667635   0.000000
     5  H    3.420208   2.144344   2.784488   1.085747   0.000000
     6  C    2.847408   2.421394   3.997362   1.408353   2.156141
     7  C    2.415073   2.747137   4.491026   2.400064   3.388491
     8  S    4.009290   4.511318   6.255712   4.048085   4.919357
     9  C    1.385047   2.386244   4.010443   2.784683   3.870372
    10  H    2.136964   3.375714   4.881118   3.871270   4.956962
    11  S    1.812969   2.840083   3.299621   4.128870   4.984387
    12  O    2.592449   3.198103   3.180002   4.492730   5.191923
    13  O    2.599380   3.933179   4.725586   5.032320   6.016365
    14  N    2.778840   3.403903   3.349147   4.704451   5.398857
    15  H    2.781034   2.958903   2.567384   4.218166   4.755265
    16  N    4.215736   3.669527   5.071764   2.410409   2.639776
    17  C    5.095121   4.840514   6.369389   3.712910   4.051172
    18  N    4.988620   5.079567   6.746226   4.205206   4.793016
    19  O    4.446206   5.200883   6.907146   4.969989   5.901134
    20  O    4.625640   5.181146   6.874980   4.773304   5.615521
    21  H    6.084359   5.713808   7.146793   4.485245   4.623885
    22  H    5.934517   6.092768   7.767964   5.222935   5.779447
    23  H    4.750919   3.937809   5.074844   2.568135   2.370675
    24  H    5.263192   5.076686   6.592496   4.037727   4.405274
                    6          7          8          9         10
     6  C    0.000000
     7  C    1.408411   0.000000
     8  S    2.765901   1.765324   0.000000
     9  C    2.450951   1.393862   2.702654   0.000000
    10  H    3.430311   2.154928   2.816220   1.086641   0.000000
    11  S    4.659963   4.075701   5.441458   2.764985   2.867055
    12  O    5.214316   4.831293   6.263708   3.658138   3.873883
    13  O    5.187639   4.227434   5.173662   2.839950   2.360031
    14  N    5.424544   5.023685   6.445159   3.828495   3.996188
    15  H    5.135360   5.003453   6.570464   3.993937   4.411149
    16  N    1.369315   2.437266   3.075407   3.711677   4.588875
    17  C    2.427695   2.861928   2.597999   4.251362   4.889878
    18  N    2.814423   2.602542   1.664382   3.890649   4.276503
    19  O    3.826701   2.666165   1.464503   3.110955   2.822419
    20  O    3.569086   2.650405   1.470187   3.367155   3.326801
    21  H    3.317809   3.894007   3.527817   5.287222   5.929507
    22  H    3.828062   3.539599   2.231351   4.759940   4.998504
    23  H    2.031034   3.309238   4.061500   4.475891   5.427340
    24  H    2.824212   3.108491   2.756151   4.403023   4.977508
                   11         12         13         14         15
    11  S    0.000000
    12  O    1.485007   0.000000
    13  O    1.492093   2.495873   0.000000
    14  N    1.558480   2.482474   2.579847   0.000000
    15  H    2.116092   2.766947   3.398864   1.021786   0.000000
    16  N    6.028231   6.551487   6.512893   6.741545   6.393661
    17  C    6.860090   7.424207   7.073375   7.723696   7.513374
    18  N    6.626240   7.430714   6.591534   7.450402   7.385946
    19  O    5.578469   6.644053   5.045675   6.420081   6.687534
    20  O    5.918089   6.486667   5.521918   7.154857   7.352281
    21  H    7.868750   8.439344   8.119432   8.650672   8.379360
    22  H    7.513341   8.336717   7.350404   8.360425   8.344553
    23  H    6.545713   6.915246   7.191472   7.196239   6.730724
    24  H    6.968406   7.365893   7.120651   8.005059   7.849626
                   16         17         18         19         20
    16  N    0.000000
    17  C    1.447162   0.000000
    18  N    2.354818   1.470502   0.000000
    19  O    4.235537   3.824629   2.534645   0.000000
    20  O    3.823396   3.106806   2.605869   2.487001   0.000000
    21  H    2.077143   1.087709   2.075199   4.603850   4.019785
    22  H    3.251070   2.085930   1.024392   2.803436   2.863338
    23  H    1.014926   2.097341   3.266567   5.250147   4.673900
    24  H    2.116467   1.098557   2.135111   4.144241   2.705884
                   21         22         23         24
    21  H    0.000000
    22  H    2.314757   0.000000
    23  H    2.367611   4.069004   0.000000
    24  H    1.780226   2.557643   2.585350   0.000000
 Stoichiometry    C7H7ClN3O4S2(1-)
 Framework group  C1[X(C7H7ClN3O4S2)]
 Deg. of freedom    66
 Full point group                 C1      NOp   1
 Largest Abelian subgroup         C1      NOp   1
 Largest concise Abelian subgroup C1      NOp   1
                         Standard orientation:                         
 ---------------------------------------------------------------------
 Center     Atomic      Atomic             Coordinates (Angstroms)
 Number     Number       Type             X           Y           Z
 ---------------------------------------------------------------------
      1          6           0        1.244404   -0.120618   -0.008056
      2          6           0        1.227337    1.284672   -0.016639
      3         17           0        2.713016    2.199487    0.001144
      4          6           0        0.052472    2.008345   -0.034208
      5          1           0        0.076437    3.093782   -0.044247
      6          6           0       -1.193037    1.350979   -0.039906
      7          6           0       -1.169759   -0.057183   -0.027224
      8         16           0       -2.670069   -0.987376   -0.013814
      9          6           0        0.024316   -0.776128   -0.014847
     10          1           0        0.006687   -1.862621   -0.018095
     11         16           0        2.770158   -1.099612    0.014304
     12          8           0        3.455354   -0.631144    1.245681
     13          8           0        2.274870   -2.504816    0.094512
     14          7           0        3.656628   -0.770997   -1.224664
     15          1           0        3.639828    0.239651   -1.374182
     16          7           0       -2.355731    2.070194   -0.116688
     17          6           0       -3.605117    1.424737    0.224921
     18          7           0       -3.702296    0.192839   -0.572173
     19          8           0       -2.628731   -2.061357   -1.008613
     20          8           0       -2.984639   -1.399131    1.362032
     21          1           0       -4.432257    2.068348   -0.066135
     22          1           0       -4.659422   -0.170412   -0.608770
     23          1           0       -2.287895    3.053741    0.124367
     24          1           0       -3.674815    1.216548    1.301317
 ---------------------------------------------------------------------
 Rotational constants (GHZ):           0.6606382           0.2388882           0.1887238
 General basis read from cards:  (6D, 7F)
 There are   349 symmetry adapted cartesian basis functions of A   symmetry.
 There are   349 symmetry adapted basis functions of A   symmetry.
   349 basis functions,   644 primitive gaussians,   349 cartesian basis functions
    76 alpha electrons       76 beta electrons
       nuclear repulsion energy      1720.8124177833 Hartrees.
 NAtoms=   24 NActive=   24 NUniq=   24 SFac= 1.00D+00 NAtFMM=   60 NAOKFM=F Big=F
 Integral buffers will be    131072 words long.
 Raffenetti 2 integral format.
 Two-electron integral symmetry is turned on.
 ------------------------------------------------------------------------------
 Polarizable Continuum Model (PCM)
 =================================
 Model                : PCM.
 Atomic radii         : SMD-Coulomb.
 Polarization charges : Total charges.
 Charge compensation  : None.
 Solution method      : On-the-fly selection.
 Cavity type          : VdW (van der Waals Surface) (Alpha=1.000).
 Cavity algorithm     : GePol (No added spheres)
                        Default sphere list used, NSphG=   24.
                        Lebedev-Laikov grids with approx.  5.0 points / Ang**2.
                        Smoothing algorithm: York/Karplus (Gamma=1.0000).
                        Polarization charges: spherical gaussians, with
                                              point-specific exponents (IZeta= 3).
                        Self-potential: point-specific (ISelfS= 7).
                        Self-field    : sphere-specific E.n sum rule (ISelfD= 2).
 1st derivatives      : Analytical E(r).r(x)/FMM algorithm (CHGder, D1EAlg=3).
                        Cavity 1st derivative terms included.
 Solvent              : Water, Eps=  78.355300 Eps(inf)=   1.777849
 ------------------------------------------------------------------------------
 ------------------------------------------------------------------------------
 Atomic radii for non-electrostatic terms: SMD-CDS.
 ------------------------------------------------------------------------------
 Nuclear repulsion after PCM non-electrostatic terms =     1720.8147771947 Hartrees.
 One-electron integrals computed using PRISM.
 NBasis=   349 RedAO= T EigKep=  1.77D-06  NBF=   349
 NBsUse=   347 1.00D-06 EigRej=  7.43D-07 NBFU=   347
 ExpMin= 4.05D-02 ExpMax= 2.52D+04 ExpMxC= 3.78D+03 IAcc=3 IRadAn=         5 AccDes= 0.00D+00
 Harris functional with IExCor= 1009 and IRadAn=       5 diagonalized for initial guess.
 HarFok:  IExCor= 1009 AccDes= 0.00D+00 IRadAn=         5 IDoV= 1 UseB2=F ITyADJ=14
 ICtDFT=  3500011 ScaDFX=  1.000000  1.000000  1.000000  1.000000
 FoFCou: FMM=F IPFlag=           0 FMFlag=      100000 FMFlg1=           0
         NFxFlg=           0 DoJE=T BraDBF=F KetDBF=T FulRan=T
         wScrn=  0.000000 ICntrl=       500 IOpCl=  0 I1Cent=   200000004 NGrid=           0
         NMat0=    1 NMatS0=      1 NMatT0=    0 NMatD0=    1 NMtDS0=    0 NMtDT0=    0
 Petite list used in FoFCou.
 Requested convergence on RMS density matrix=1.00D-08 within 128 cycles.
 Requested convergence on MAX density matrix=1.00D-06.
 Requested convergence on             energy=1.00D-06.
 No special actions if energy rises.
 Inv3:  Mode=1 IEnd=    11940075.
 Iteration    1 A*A^-1 deviation from unit magnitude is 6.11D-15 for   1985.
 Iteration    1 A*A^-1 deviation from orthogonality  is 1.89D-15 for   1989    178.
 Iteration    1 A^-1*A deviation from unit magnitude is 5.44D-15 for   1979.
 Iteration    1 A^-1*A deviation from orthogonality  is 2.37D-15 for   1933   1091.
 Error on total polarization charges =  0.04649
 SCF Done:  E(RM062X) =  -1992.35261878     A.U. after   17 cycles
            NFock= 17  Conv=0.41D-08     -V/T= 2.0052
 SMD-CDS (non-electrostatic) energy       (kcal/mol) =       1.48
 (included in total energy above)

 **********************************************************************

            Population analysis using the SCF Density.

 **********************************************************************

 Orbital symmetries:
       Occupied  (A) (A) (A) (A) (A) (A) (A) (A) (A) (A) (A) (A)
                 (A) (A) (A) (A) (A) (A) (A) (A) (A) (A) (A) (A)
                 (A) (A) (A) (A) (A) (A) (A) (A) (A) (A) (A) (A)
                 (A) (A) (A) (A) (A) (A) (A) (A) (A) (A) (A) (A)
                 (A) (A) (A) (A) (A) (A) (A) (A) (A) (A) (A) (A)
                 (A) (A) (A) (A) (A) (A) (A) (A) (A) (A) (A) (A)
                 (A) (A) (A) (A)
       Virtual   (A) (A) (A) (A) (A) (A) (A) (A) (A) (A) (A) (A)
                 (A) (A) (A) (A) (A) (A) (A) (A) (A) (A) (A) (A)
                 (A) (A) (A) (A) (A) (A) (A) (A) (A) (A) (A) (A)
                 (A) (A) (A) (A) (A) (A) (A) (A) (A) (A) (A) (A)
                 (A) (A) (A) (A) (A) (A) (A) (A) (A) (A) (A) (A)
                 (A) (A) (A) (A) (A) (A) (A) (A) (A) (A) (A) (A)
                 (A) (A) (A) (A) (A) (A) (A) (A) (A) (A) (A) (A)
                 (A) (A) (A) (A) (A) (A) (A) (A) (A) (A) (A) (A)
                 (A) (A) (A) (A) (A) (A) (A) (A) (A) (A) (A) (A)
                 (A) (A) (A) (A) (A) (A) (A) (A) (A) (A) (A) (A)
                 (A) (A) (A) (A) (A) (A) (A) (A) (A) (A) (A) (A)
                 (A) (A) (A) (A) (A) (A) (A) (A) (A) (A) (A) (A)
                 (A) (A) (A) (A) (A) (A) (A) (A) (A) (A) (A) (A)
                 (A) (A) (A) (A) (A) (A) (A) (A) (A) (A) (A) (A)
                 (A) (A) (A) (A) (A) (A) (A) (A) (A) (A) (A) (A)
                 (A) (A) (A) (A) (A) (A) (A) (A) (A) (A) (A) (A)
                 (A) (A) (A) (A) (A) (A) (A) (A) (A) (A) (A) (A)
                 (A) (A) (A) (A) (A) (A) (A) (A) (A) (A) (A) (A)
                 (A) (A) (A) (A) (A) (A) (A) (A) (A) (A) (A) (A)
                 (A) (A) (A) (A) (A) (A) (A) (A) (A) (A) (A) (A)
                 (A) (A) (A) (A) (A) (A) (A) (A) (A) (A) (A) (A)
                 (A) (A) (A) (A) (A) (A) (A) (A) (A) (A) (A) (A)
                 (A) (A) (A) (A) (A) (A) (A)
 The electronic state is 1-A.
 Alpha  occ. eigenvalues -- -102.68784 -90.18312 -90.14237 -19.66435 -19.66135
 Alpha  occ. eigenvalues --  -19.63107 -19.61339 -14.81175 -14.79870 -14.71789
 Alpha  occ. eigenvalues --  -10.64552 -10.63882 -10.63214 -10.60387 -10.59402
 Alpha  occ. eigenvalues --  -10.59191 -10.57920  -9.83442  -8.49383  -8.45054
 Alpha  occ. eigenvalues --   -7.55844  -7.55191  -7.55150  -6.41574  -6.41537
 Alpha  occ. eigenvalues --   -6.41452  -6.37283  -6.37211  -6.37149  -1.26132
 Alpha  occ. eigenvalues --   -1.21248  -1.14189  -1.10408  -1.09572  -1.03702
 Alpha  occ. eigenvalues --   -1.01245  -0.96420  -0.96114  -0.88289  -0.87435
 Alpha  occ. eigenvalues --   -0.79692  -0.76996  -0.74014  -0.70179  -0.66096
 Alpha  occ. eigenvalues --   -0.64386  -0.63534  -0.60528  -0.59219  -0.58746
 Alpha  occ. eigenvalues --   -0.56795  -0.55695  -0.54754  -0.53169  -0.52758
 Alpha  occ. eigenvalues --   -0.52382  -0.51548  -0.50453  -0.48583  -0.46357
 Alpha  occ. eigenvalues --   -0.44567  -0.44076  -0.42529  -0.42044  -0.41409
 Alpha  occ. eigenvalues --   -0.39973  -0.39448  -0.39361  -0.38782  -0.37898
 Alpha  occ. eigenvalues --   -0.36284  -0.35761  -0.33959  -0.32504  -0.29591
 Alpha  occ. eigenvalues --   -0.27388
 Alpha virt. eigenvalues --   -0.02009  -0.00097   0.01145   0.02166   0.02562
 Alpha virt. eigenvalues --    0.03479   0.03693   0.04312   0.04673   0.05360
 Alpha virt. eigenvalues --    0.05588   0.06414   0.06830   0.07382   0.07688
 Alpha virt. eigenvalues --    0.07779   0.09170   0.09548   0.09769   0.10578
 Alpha virt. eigenvalues --    0.10680   0.11230   0.11367   0.12083   0.13053
 Alpha virt. eigenvalues --    0.13241   0.13561   0.13671   0.14109   0.14428
 Alpha virt. eigenvalues --    0.15241   0.15468   0.16216   0.16859   0.17061
 Alpha virt. eigenvalues --    0.17698   0.18585   0.18718   0.19204   0.19947
 Alpha virt. eigenvalues --    0.20056   0.20482   0.21009   0.21351   0.21861
 Alpha virt. eigenvalues --    0.22244   0.23057   0.23349   0.23592   0.24033
 Alpha virt. eigenvalues --    0.24365   0.24561   0.25019   0.25510   0.25977
 Alpha virt. eigenvalues --    0.26214   0.26604   0.27064   0.27746   0.28035
 Alpha virt. eigenvalues --    0.28513   0.28997   0.29225   0.29282   0.29915
 Alpha virt. eigenvalues --    0.30370   0.30910   0.31118   0.31338   0.31798
 Alpha virt. eigenvalues --    0.32512   0.32744   0.33424   0.33898   0.34188
 Alpha virt. eigenvalues --    0.34750   0.35230   0.35978   0.36894   0.37433
 Alpha virt. eigenvalues --    0.38460   0.38996   0.39543   0.39920   0.41204
 Alpha virt. eigenvalues --    0.42750   0.43441   0.43577   0.44496   0.45240
 Alpha virt. eigenvalues --    0.48272   0.49556   0.52749   0.56212   0.58628
 Alpha virt. eigenvalues --    0.60652   0.61305   0.62843   0.65007   0.66025
 Alpha virt. eigenvalues --    0.66454   0.67156   0.68143   0.68886   0.70518
 Alpha virt. eigenvalues --    0.71515   0.71971   0.72796   0.73721   0.74394
 Alpha virt. eigenvalues --    0.75400   0.76575   0.77459   0.78272   0.79494
 Alpha virt. eigenvalues --    0.81561   0.83375   0.84919   0.87415   0.89282
 Alpha virt. eigenvalues --    0.89794   0.91007   0.92759   0.93436   0.94755
 Alpha virt. eigenvalues --    0.96102   0.97154   0.98637   1.00914   1.01053
 Alpha virt. eigenvalues --    1.02368   1.02733   1.04457   1.04790   1.06511
 Alpha virt. eigenvalues --    1.07327   1.07849   1.09136   1.09556   1.10414
 Alpha virt. eigenvalues --    1.12438   1.12756   1.13851   1.15322   1.15800
 Alpha virt. eigenvalues --    1.16615   1.17108   1.17580   1.19669   1.19936
 Alpha virt. eigenvalues --    1.21020   1.21584   1.23050   1.23435   1.26025
 Alpha virt. eigenvalues --    1.27476   1.28101   1.30970   1.32161   1.33495
 Alpha virt. eigenvalues --    1.33815   1.35707   1.37063   1.37519   1.38330
 Alpha virt. eigenvalues --    1.38971   1.39452   1.40488   1.40748   1.42381
 Alpha virt. eigenvalues --    1.43463   1.44734   1.46448   1.47985   1.48281
 Alpha virt. eigenvalues --    1.50156   1.51249   1.52645   1.53189   1.54402
 Alpha virt. eigenvalues --    1.56820   1.57980   1.60181   1.61427   1.63342
 Alpha virt. eigenvalues --    1.69514   1.71944   1.75693   1.76687   1.78441
 Alpha virt. eigenvalues --    1.79818   1.81923   1.82499   1.83967   1.84255
 Alpha virt. eigenvalues --    1.85158   1.85603   1.86747   1.87878   1.88847
 Alpha virt. eigenvalues --    1.90375   1.90717   1.91638   1.95595   1.96425
 Alpha virt. eigenvalues --    1.97926   1.99146   2.00007   2.01403   2.03136
 Alpha virt. eigenvalues --    2.04167   2.04571   2.07920   2.09222   2.11053
 Alpha virt. eigenvalues --    2.13859   2.15250   2.17657   2.18324   2.19238
 Alpha virt. eigenvalues --    2.21605   2.22971   2.24287   2.26463   2.29560
 Alpha virt. eigenvalues --    2.29677   2.31028   2.32086   2.34795   2.37328
 Alpha virt. eigenvalues --    2.38942   2.41767   2.42328   2.44370   2.52305
 Alpha virt. eigenvalues --    2.56082   2.57481   2.62356   2.63118   2.64743
 Alpha virt. eigenvalues --    2.69130   2.71078   2.77094   2.79061   2.80014
 Alpha virt. eigenvalues --    2.82804   2.88465   2.88748   2.93665   2.97387
 Alpha virt. eigenvalues --    2.97568   3.00045   3.17571   3.32478   4.01509
 Alpha virt. eigenvalues --    4.02884   4.08097   4.09529   4.19874   4.22386
 Alpha virt. eigenvalues --    4.24773   4.29886   4.31253   4.35997   4.37720
 Alpha virt. eigenvalues --    4.41150   4.43086   4.47590   4.50604   4.54481
 Alpha virt. eigenvalues --    4.73351
          Condensed to atoms (all electrons):
               1          2          3          4          5          6
     1  C   55.410657  -7.489422   0.433216  -7.185720   0.054365  -0.830863
     2  C   -7.489422  39.970122  -1.150063  -7.638326  -0.009779   4.311722
     3  Cl   0.433216  -1.150063  17.155656   0.239453  -0.002696   0.021254
     4  C   -7.185720  -7.638326   0.239453  25.496432   0.277412  -7.283722
     5  H    0.054365  -0.009779  -0.002696   0.277412   0.405111  -0.095967
     6  C   -0.830863   4.311722   0.021254  -7.283722  -0.095967  30.109662
     7  C  -15.384165  -5.503564  -0.192914  -4.895113   0.083337 -14.311360
     8  S   -4.226642  -0.161832  -0.022933   1.742576   0.000855  -0.907155
     9  C  -10.735747 -18.346365   0.153569   6.900519  -0.000803  -6.474860
    10  H   -0.163350  -0.031938  -0.000478   0.005232   0.000009  -0.026005
    11  S    0.183985  -0.253441   0.214406   0.369352  -0.000539   0.903846
    12  O   -0.206280   0.513748  -0.057341  -0.028106   0.000039   0.204002
    13  O   -0.407527  -0.202409   0.016920   0.032019   0.000023  -0.000340
    14  N   -0.474015   0.678493  -0.052367  -0.025259  -0.000123   0.150702
    15  H    0.092324  -0.272099   0.028838   0.033171  -0.000001  -0.010374
    16  N    0.206982   0.108576  -0.000128  -0.281697  -0.009199  -0.501483
    17  C    0.178719  -0.005776  -0.002050  -0.979457   0.004690  -0.451641
    18  N   -0.633133   0.142697  -0.001736   0.569930   0.000335   0.928797
    19  O   -0.153777  -0.015916  -0.000510   0.049576   0.000014  -0.044177
    20  O   -0.095610   0.030473  -0.000661   0.001520   0.000014  -0.267986
    21  H    0.002741  -0.002798   0.000021   0.012376   0.000003   0.037442
    22  H    0.007865  -0.001480   0.000003  -0.010330  -0.000000  -0.061706
    23  H    0.006612   0.024514  -0.000581  -0.059954   0.003653  -0.058280
    24  H   -0.002040   0.010478  -0.000073  -0.035789   0.000001  -0.166621
               7          8          9         10         11         12
     1  C  -15.384165  -4.226642 -10.735747  -0.163350   0.183985  -0.206280
     2  C   -5.503564  -0.161832 -18.346365  -0.031938  -0.253441   0.513748
     3  Cl  -0.192914  -0.022933   0.153569  -0.000478   0.214406  -0.057341
     4  C   -4.895113   1.742576   6.900519   0.005232   0.369352  -0.028106
     5  H    0.083337   0.000855  -0.000803   0.000009  -0.000539   0.000039
     6  C  -14.311360  -0.907155  -6.474860  -0.026005   0.903846   0.204002
     7  C   40.448873  -0.442905   8.992133   0.053343  -3.117234  -0.451426
     8  S   -0.442905  17.825624   0.303881   0.036810  -0.365141  -0.024241
     9  C    8.992133   0.303881  27.595536   0.439309  -1.489688  -0.525869
    10  H    0.053343   0.036810   0.439309   0.395874  -0.020393  -0.000278
    11  S   -3.117234  -0.365141  -1.489688  -0.020393  16.930568   0.312590
    12  O   -0.451426  -0.024241  -0.525869  -0.000278   0.312590   9.205294
    13  O   -0.091681  -0.005374   0.266755   0.003363   0.392182  -0.145630
    14  N   -0.204080  -0.012439  -0.542357  -0.001674   0.253566  -0.110841
    15  H    0.011245   0.000065   0.116204  -0.000012   0.071920  -0.022731
    16  N    0.646075  -0.167324  -0.039387  -0.000503   0.005381  -0.000006
    17  C    1.343140  -0.588125  -0.083981  -0.000403  -0.005400   0.000426
    18  N   -1.251167   0.309382  -0.036589   0.001782  -0.022942  -0.000456
    19  O   -0.063828   0.226734   0.138968   0.003715  -0.012692  -0.000251
    20  O    0.005322   0.686096  -0.104619  -0.000193  -0.007537  -0.000162
    21  H   -0.019837  -0.008272   0.003422  -0.000000   0.000044   0.000000
    22  H    0.120791  -0.042048   0.006919  -0.000001   0.000080   0.000000
    23  H    0.074444   0.008756  -0.006064   0.000002  -0.000082   0.000001
    24  H    0.110228   0.021620   0.000192   0.000001  -0.000409  -0.000001
              13         14         15         16         17         18
     1  C   -0.407527  -0.474015   0.092324   0.206982   0.178719  -0.633133
     2  C   -0.202409   0.678493  -0.272099   0.108576  -0.005776   0.142697
     3  Cl   0.016920  -0.052367   0.028838  -0.000128  -0.002050  -0.001736
     4  C    0.032019  -0.025259   0.033171  -0.281697  -0.979457   0.569930
     5  H    0.000023  -0.000123  -0.000001  -0.009199   0.004690   0.000335
     6  C   -0.000340   0.150702  -0.010374  -0.501483  -0.451641   0.928797
     7  C   -0.091681  -0.204080   0.011245   0.646075   1.343140  -1.251167
     8  S   -0.005374  -0.012439   0.000065  -0.167324  -0.588125   0.309382
     9  C    0.266755  -0.542357   0.116204  -0.039387  -0.083981  -0.036589
    10  H    0.003363  -0.001674  -0.000012  -0.000503  -0.000403   0.001782
    11  S    0.392182   0.253566   0.071920   0.005381  -0.005400  -0.022942
    12  O   -0.145630  -0.110841  -0.022731  -0.000006   0.000426  -0.000456
    13  O    9.012178  -0.140995   0.016155   0.000215  -0.000167  -0.000670
    14  N   -0.140995   8.193691   0.176992   0.000117   0.000044  -0.000686
    15  H    0.016155   0.176992   0.351001   0.000008  -0.000011  -0.000002
    16  N    0.000215   0.000117   0.000008   7.383639   0.245912  -0.258022
    17  C   -0.000167   0.000044  -0.000011   0.245912   5.995721  -0.243088
    18  N   -0.000670  -0.000686  -0.000002  -0.258022  -0.243088   8.459040
    19  O   -0.000800  -0.000417  -0.000001  -0.015104   0.067708  -0.072452
    20  O    0.000024  -0.000016  -0.000000   0.042795  -0.062003  -0.210231
    21  H    0.000000   0.000000   0.000000  -0.041620   0.376012  -0.018675
    22  H    0.000000   0.000000   0.000000   0.015954  -0.010422   0.220123
    23  H    0.000000   0.000003   0.000000   0.282718  -0.041269   0.008740
    24  H   -0.000001  -0.000001  -0.000000  -0.043749   0.466523  -0.088463
              19         20         21         22         23         24
     1  C   -0.153777  -0.095610   0.002741   0.007865   0.006612  -0.002040
     2  C   -0.015916   0.030473  -0.002798  -0.001480   0.024514   0.010478
     3  Cl  -0.000510  -0.000661   0.000021   0.000003  -0.000581  -0.000073
     4  C    0.049576   0.001520   0.012376  -0.010330  -0.059954  -0.035789
     5  H    0.000014   0.000014   0.000003  -0.000000   0.003653   0.000001
     6  C   -0.044177  -0.267986   0.037442  -0.061706  -0.058280  -0.166621
     7  C   -0.063828   0.005322  -0.019837   0.120791   0.074444   0.110228
     8  S    0.226734   0.686096  -0.008272  -0.042048   0.008756   0.021620
     9  C    0.138968  -0.104619   0.003422   0.006919  -0.006064   0.000192
    10  H    0.003715  -0.000193  -0.000000  -0.000001   0.000002   0.000001
    11  S   -0.012692  -0.007537   0.000044   0.000080  -0.000082  -0.000409
    12  O   -0.000251  -0.000162   0.000000   0.000000   0.000001  -0.000001
    13  O   -0.000800   0.000024   0.000000   0.000000   0.000000  -0.000001
    14  N   -0.000417  -0.000016   0.000000   0.000000   0.000003  -0.000001
    15  H   -0.000001  -0.000000   0.000000   0.000000   0.000000  -0.000000
    16  N   -0.015104   0.042795  -0.041620   0.015954   0.282718  -0.043749
    17  C    0.067708  -0.062003   0.376012  -0.010422  -0.041269   0.466523
    18  N   -0.072452  -0.210231  -0.018675   0.220123   0.008740  -0.088463
    19  O    8.691918  -0.182607  -0.000397  -0.006127   0.000051   0.000434
    20  O   -0.182607   8.699512  -0.000858  -0.004185   0.000279   0.011509
    21  H   -0.000397  -0.000858   0.408645  -0.004384  -0.002497  -0.028772
    22  H   -0.006127  -0.004185  -0.004384   0.224541  -0.000013   0.001766
    23  H    0.000051   0.000279  -0.002497  -0.000013   0.254102   0.001525
    24  H    0.000434   0.011509  -0.028772   0.001766   0.001525   0.467911
 Mulliken charges:
               1
     1  C   -2.589175
     2  C    1.294385
     3  Cl   0.221194
     4  C   -1.306094
     5  H    0.289246
     6  C    0.825112
     7  C    0.040342
     8  S    1.812034
     9  C   -0.531079
    10  H    0.305789
    11  S    1.657574
    12  O   -0.662482
    13  O   -0.744241
    14  N   -0.888339
    15  H    0.407310
    16  N   -0.580151
    17  C   -0.205104
    18  N   -0.802515
    19  O   -0.610063
    20  O   -0.540874
    21  H    0.287405
    22  H    0.542652
    23  H    0.503342
    24  H    0.273731
 Sum of Mulliken charges =  -1.00000
 Mulliken charges with hydrogens summed into heavy atoms:
               1
     1  C   -2.589175
     2  C    1.294385
     3  Cl   0.221194
     4  C   -1.016848
     6  C    0.825112
     7  C    0.040342
     8  S    1.812034
     9  C   -0.225290
    11  S    1.657574
    12  O   -0.662482
    13  O   -0.744241
    14  N   -0.481029
    16  N   -0.076809
    17  C    0.356032
    18  N   -0.259862
    19  O   -0.610063
    20  O   -0.540874
 Electronic spatial extent (au):  <R**2>=           5456.6119
 Charge=             -1.0000 electrons
 Dipole moment (field-independent basis, Debye):
    X=            -20.0707    Y=             17.6529    Z=             -0.1498  Tot=             26.7297
 Quadrupole moment (field-independent basis, Debye-Ang):
   XX=           -163.8301   YY=           -132.7752   ZZ=           -141.8403
   XY=             -1.2566   XZ=             -2.9473   YZ=              0.4497
 Traceless Quadrupole moment (field-independent basis, Debye-Ang):
   XX=            -17.6816   YY=             13.3733   ZZ=              4.3083
   XY=             -1.2566   XZ=             -2.9473   YZ=              0.4497
 Octapole moment (field-independent basis, Debye-Ang**2):
  XXX=           -381.1491  YYY=            115.5661  ZZZ=              6.1202  XYY=            -55.6546
  XXY=            158.1741  XXZ=             -9.5759  XZZ=            -18.0655  YZZ=             19.6814
  YYZ=             12.4595  XYZ=            -19.6378
 Hexadecapole moment (field-independent basis, Debye-Ang**3):
 XXXX=          -5132.6884 YYYY=          -1701.1895 ZZZZ=           -434.6836 XXXY=             63.7406
 XXXZ=             66.9933 YYYX=            -38.0073 YYYZ=             -1.4826 ZZZX=             18.2842
 ZZZY=             -4.3703 XXYY=          -1216.9482 XXZZ=          -1102.1483 YYZZ=           -392.4120
 XXYZ=             -6.7278 YYXZ=             -8.4588 ZZXY=             20.6582
 N-N= 1.720814777195D+03 E-N=-8.162804168571D+03  KE= 1.982112991213D+03
 D1PCM: PCM CHGder 1st derivatives, ID1Alg=3 FixD1E=F DoIter=F DoCFld=F I1PDM=0.
 Calling FoFJK, ICntrl=      2127 FMM=F ISym2X=0 I1Cent= 0 IOpClX= 0 NMat=1 NMatS=1 NMatT=0.
 ***** Axes restored to original set *****
 -------------------------------------------------------------------
 Center     Atomic                   Forces (Hartrees/Bohr)
 Number     Number              X              Y              Z
 -------------------------------------------------------------------
      1        6           0.001161919    0.001933541    0.000199174
      2        6          -0.000431165   -0.001085662   -0.000310146
      3       17          -0.001313025    0.000091842   -0.001801825
      4        6          -0.000025565    0.000233150    0.000171812
      5        1           0.000003165   -0.000038132    0.000054323
      6        6          -0.000057649    0.000009221   -0.000512644
      7        6           0.000073619   -0.000204745    0.000504568
      8       16           0.000582509   -0.000118823   -0.000106290
      9        6           0.000067273    0.000915114   -0.000091293
     10        1           0.000129111   -0.000118807    0.000087487
     11       16          -0.010979636   -0.003402528   -0.007680253
     12        8           0.004374579   -0.019295716    0.000030844
     13        8          -0.012847518    0.007949878    0.005145449
     14        7           0.020803258    0.015534615   -0.000176954
     15        1          -0.001100643   -0.002399289    0.003845865
     16        7          -0.000055596   -0.000112812    0.000533538
     17        6           0.000144714   -0.000027951   -0.000056884
     18        7          -0.000129652    0.000027056    0.000119558
     19        8          -0.000174371   -0.000055618    0.000005560
     20        8          -0.000120384    0.000081514    0.000013417
     21        1          -0.000004081    0.000012904    0.000020290
     22        1          -0.000027869    0.000001771    0.000024019
     23        1          -0.000039151    0.000039409   -0.000013386
     24        1          -0.000033841    0.000030068   -0.000006230
 -------------------------------------------------------------------
 Cartesian Forces:  Max     0.020803258 RMS     0.004635463

 GradGradGradGradGradGradGradGradGradGradGradGradGradGradGradGradGradGrad
 Berny optimization.
 FormGI is forming the generalized inverse of G from B-inverse, IUseBI=4.
 Internal  Forces:  Max     0.020749842 RMS     0.003921009
 Search for a local minimum.
 Step number   1 out of a maximum of  139
 All quantities printed in internal units (Hartrees-Bohrs-Radians)
 Mixed Optimization -- RFO/linear search
 Second derivative matrix not updated -- first step.
 ITU=  0
     Eigenvalues ---    0.00230   0.01318   0.01360   0.01518   0.01695
     Eigenvalues ---    0.01764   0.02053   0.02082   0.02112   0.02158
     Eigenvalues ---    0.02192   0.02228   0.02236   0.02962   0.03168
     Eigenvalues ---    0.05696   0.07129   0.07580   0.09285   0.09854
     Eigenvalues ---    0.10153   0.11170   0.11675   0.11937   0.12212
     Eigenvalues ---    0.13284   0.14031   0.15999   0.16000   0.16000
     Eigenvalues ---    0.17157   0.19372   0.19974   0.21717   0.23109
     Eigenvalues ---    0.23960   0.24739   0.24990   0.25000   0.25000
     Eigenvalues ---    0.25000   0.25121   0.28589   0.30993   0.33825
     Eigenvalues ---    0.33842   0.35079   0.35204   0.35309   0.37280
     Eigenvalues ---    0.38497   0.40661   0.42029   0.43645   0.44054
     Eigenvalues ---    0.44105   0.45158   0.45445   0.47393   0.48490
     Eigenvalues ---    0.49704   0.60165   0.79356   0.81864   0.87462
     Eigenvalues ---    0.89745
 RFO step:  Lambda=-1.18018784D-02 EMin= 2.30000000D-03
 Linear search not attempted -- first point.
 Iteration  1 RMS(Cart)=  0.05427947 RMS(Int)=  0.00273339
 Iteration  2 RMS(Cart)=  0.00324491 RMS(Int)=  0.00072073
 Iteration  3 RMS(Cart)=  0.00000973 RMS(Int)=  0.00072071
 Iteration  4 RMS(Cart)=  0.00000001 RMS(Int)=  0.00072071
 Variable       Old X    -DE/DX   Delta X   Delta X   Delta X     New X
                                 (Linear)    (Quad)   (Total)
    R1        2.65586   0.00294   0.00000   0.00667   0.00667   2.66253
    R2        2.61736   0.00021   0.00000   0.00051   0.00051   2.61787
    R3        3.42601   0.00115   0.00000   0.00437   0.00437   3.43038
    R4        3.29726   0.00054   0.00000   0.00167   0.00167   3.29893
    R5        2.60777   0.00006   0.00000   0.00028   0.00028   2.60805
    R6        2.05177  -0.00004   0.00000  -0.00010  -0.00010   2.05167
    R7        2.66140  -0.00013   0.00000  -0.00037  -0.00037   2.66103
    R8        2.66151  -0.00034   0.00000  -0.00109  -0.00110   2.66042
    R9        2.58763  -0.00049   0.00000  -0.00099  -0.00099   2.58663
   R10        3.33598   0.00014   0.00000   0.00046   0.00046   3.33644
   R11        2.63402  -0.00080   0.00000  -0.00184  -0.00184   2.63218
   R12        3.14523  -0.00010   0.00000  -0.00017  -0.00017   3.14505
   R13        2.76751  -0.00013   0.00000  -0.00015  -0.00015   2.76736
   R14        2.77825  -0.00012   0.00000  -0.00014  -0.00014   2.77811
   R15        2.05345   0.00016   0.00000   0.00044   0.00044   2.05389
   R16        2.80626   0.01314   0.00000   0.01582   0.01582   2.82207
   R17        2.81965  -0.01146   0.00000  -0.01423  -0.01423   2.80541
   R18        2.94510   0.00257   0.00000   0.00418   0.00418   2.94928
   R19        1.93090  -0.00184   0.00000  -0.00408  -0.00408   1.92682
   R20        2.73474   0.00008   0.00000   0.00019   0.00019   2.73493
   R21        1.91793   0.00004   0.00000   0.00008   0.00008   1.91801
   R22        2.77885  -0.00003   0.00000   0.00001   0.00001   2.77885
   R23        2.05547  -0.00002   0.00000  -0.00006  -0.00006   2.05541
   R24        2.07597  -0.00002   0.00000  -0.00006  -0.00006   2.07591
   R25        1.93582  -0.00004   0.00000  -0.00008  -0.00008   1.93574
    A1        2.05161  -0.00077   0.00000  -0.00249  -0.00250   2.04912
    A2        2.15345   0.00568   0.00000   0.02147   0.02146   2.17490
    A3        2.07812  -0.00491   0.00000  -0.01899  -0.01901   2.05911
    A4        2.11046   0.00406   0.00000   0.01522   0.01522   2.12568
    A5        2.13504  -0.00098   0.00000  -0.00317  -0.00317   2.13188
    A6        2.03767  -0.00308   0.00000  -0.01205  -0.01205   2.02562
    A7        2.10086  -0.00044   0.00000  -0.00194  -0.00194   2.09892
    A8        2.10389   0.00080   0.00000   0.00337   0.00336   2.10726
    A9        2.07843  -0.00036   0.00000  -0.00143  -0.00143   2.07700
   A10        2.03983   0.00003   0.00000  -0.00051  -0.00051   2.03932
   A11        2.10133  -0.00002   0.00000   0.00056   0.00056   2.10189
   A12        2.14086  -0.00001   0.00000  -0.00001  -0.00001   2.14084
   A13        2.10930   0.00015   0.00000   0.00077   0.00077   2.11007
   A14        2.12933  -0.00006   0.00000  -0.00104  -0.00104   2.12829
   A15        2.04453  -0.00009   0.00000   0.00027   0.00027   2.04480
   A16        1.72227  -0.00019   0.00000  -0.00106  -0.00106   1.72121
   A17        1.93614  -0.00006   0.00000  -0.00066  -0.00066   1.93548
   A18        1.91403   0.00000   0.00000  -0.00011  -0.00011   1.91391
   A19        1.88561   0.00008   0.00000   0.00044   0.00044   1.88605
   A20        1.96043   0.00009   0.00000   0.00049   0.00049   1.96092
   A21        2.02232   0.00005   0.00000   0.00063   0.00063   2.02295
   A22        2.10664   0.00097   0.00000   0.00383   0.00383   2.11047
   A23        2.08004  -0.00048   0.00000  -0.00187  -0.00187   2.07817
   A24        2.09647  -0.00049   0.00000  -0.00193  -0.00193   2.09454
   A25        1.80101  -0.00379   0.00000   0.01729   0.01308   1.81410
   A26        1.80273   0.00802   0.00000   0.00603   0.00451   1.80724
   A27        1.93374   0.00278   0.00000   0.01723   0.01400   1.94773
   A28        1.98852  -0.00512   0.00000  -0.03572  -0.03373   1.95479
   A29        1.90735   0.01993   0.00000   0.13462   0.13304   2.04039
   A30        2.01542  -0.02075   0.00000  -0.13066  -0.12990   1.88552
   A31        1.89182   0.00086   0.00000   0.00503   0.00503   1.89684
   A32        2.07780   0.00005   0.00000  -0.00010  -0.00010   2.07770
   A33        2.02520  -0.00003   0.00000   0.00015   0.00015   2.02535
   A34        2.01957  -0.00000   0.00000   0.00030   0.00030   2.01987
   A35        1.87837  -0.00004   0.00000  -0.00012  -0.00012   1.87825
   A36        1.90651  -0.00001   0.00000  -0.00010  -0.00010   1.90641
   A37        1.95044   0.00001   0.00000  -0.00006  -0.00005   1.95039
   A38        1.87591   0.00001   0.00000   0.00007   0.00007   1.87598
   A39        1.94783   0.00003   0.00000   0.00016   0.00016   1.94800
   A40        1.90295  -0.00000   0.00000   0.00003   0.00003   1.90298
   A41        1.95111  -0.00001   0.00000   0.00003   0.00004   1.95114
   A42        1.91771  -0.00002   0.00000  -0.00019  -0.00019   1.91752
   A43        1.95862   0.00001   0.00000  -0.00014  -0.00014   1.95848
    D1        3.13477  -0.00004   0.00000  -0.00187  -0.00189   3.13288
    D2       -0.00249  -0.00001   0.00000  -0.00145  -0.00145  -0.00394
    D3       -0.00479   0.00020   0.00000   0.00760   0.00768   0.00289
    D4        3.14114   0.00023   0.00000   0.00802   0.00812  -3.13393
    D5       -0.00203  -0.00008   0.00000  -0.00128  -0.00129  -0.00332
    D6        3.13146   0.00010   0.00000   0.00401   0.00398   3.13544
    D7        3.13762  -0.00030   0.00000  -0.01028  -0.01016   3.12746
    D8       -0.01207  -0.00012   0.00000  -0.00499  -0.00489  -0.01697
    D9        1.01299   0.00812   0.00000   0.02513   0.02537   1.03836
   D10        3.08843   0.00416   0.00000  -0.00493  -0.00483   3.08360
   D11       -1.02662  -0.01425   0.00000  -0.14862  -0.14897  -1.17559
   D12       -2.12654   0.00836   0.00000   0.03472   0.03497  -2.09157
   D13       -0.05110   0.00441   0.00000   0.00466   0.00478  -0.04632
   D14        2.11704  -0.01401   0.00000  -0.13903  -0.13937   1.97766
   D15       -3.13751  -0.00003   0.00000  -0.00063  -0.00063  -3.13814
   D16        0.00365   0.00010   0.00000   0.00333   0.00334   0.00699
   D17        0.00825  -0.00002   0.00000  -0.00029  -0.00027   0.00798
   D18       -3.13378   0.00011   0.00000   0.00367   0.00370  -3.13008
   D19       -0.00025  -0.00009   0.00000  -0.00235  -0.00237  -0.00262
   D20       -3.09131  -0.00011   0.00000  -0.00326  -0.00327  -3.09458
   D21        3.14091   0.00004   0.00000   0.00155   0.00155  -3.14072
   D22        0.04985   0.00002   0.00000   0.00065   0.00066   0.05050
   D23        3.12902  -0.00001   0.00000  -0.00038  -0.00038   3.12865
   D24       -0.00426  -0.00000   0.00000  -0.00034  -0.00034  -0.00460
   D25       -0.06434   0.00002   0.00000   0.00056   0.00056  -0.06378
   D26        3.08556   0.00002   0.00000   0.00061   0.00060   3.08616
   D27       -2.86343  -0.00001   0.00000   0.00000  -0.00000  -2.86343
   D28       -0.32476   0.00002   0.00000   0.00068   0.00068  -0.32408
   D29        0.33171  -0.00003   0.00000  -0.00094  -0.00094   0.33077
   D30        2.87037  -0.00000   0.00000  -0.00026  -0.00026   2.87011
   D31        0.34153   0.00002   0.00000   0.00013   0.00012   0.34165
   D32        2.31703  -0.00000   0.00000  -0.00011  -0.00011   2.31691
   D33       -1.71019   0.00001   0.00000   0.00013   0.00012  -1.71006
   D34       -2.80799   0.00002   0.00000   0.00008   0.00008  -2.80790
   D35       -0.83249  -0.00001   0.00000  -0.00016  -0.00015  -0.83264
   D36        1.42348   0.00001   0.00000   0.00008   0.00008   1.42357
   D37        0.00550   0.00009   0.00000   0.00218   0.00220   0.00770
   D38       -3.12792  -0.00010   0.00000  -0.00315  -0.00311  -3.13103
   D39       -3.12807   0.00009   0.00000   0.00223   0.00223  -3.12584
   D40        0.02170  -0.00009   0.00000  -0.00311  -0.00308   0.01861
   D41       -0.92902  -0.00002   0.00000  -0.00054  -0.00054  -0.92955
   D42       -3.11561  -0.00001   0.00000  -0.00025  -0.00025  -3.11585
   D43       -2.94407   0.00011   0.00000   0.00050   0.00050  -2.94357
   D44        1.15252   0.00012   0.00000   0.00080   0.00080   1.15332
   D45        1.08703  -0.00008   0.00000  -0.00105  -0.00105   1.08599
   D46       -1.09956  -0.00008   0.00000  -0.00075  -0.00075  -1.10031
   D47        0.72876   0.00581   0.00000   0.11728   0.11879   0.84755
   D48       -1.24426  -0.00235   0.00000   0.01161   0.00728  -1.23698
   D49        2.77002   0.00434   0.00000   0.05029   0.05311   2.82313
   D50       -0.92640   0.00001   0.00000   0.00049   0.00049  -0.92591
   D51       -2.95799   0.00002   0.00000   0.00051   0.00051  -2.95747
   D52        1.21799   0.00002   0.00000   0.00058   0.00058   1.21857
   D53        2.81625  -0.00002   0.00000  -0.00014  -0.00015   2.81610
   D54        0.78466  -0.00001   0.00000  -0.00012  -0.00012   0.78454
   D55       -1.32255  -0.00000   0.00000  -0.00005  -0.00005  -1.32260
   D56        1.28163   0.00004   0.00000   0.00070   0.00070   1.28233
   D57       -2.83776   0.00002   0.00000   0.00037   0.00037  -2.83739
   D58       -2.95001   0.00001   0.00000   0.00056   0.00056  -2.94945
   D59       -0.78622  -0.00001   0.00000   0.00024   0.00024  -0.78598
   D60       -0.86436   0.00004   0.00000   0.00074   0.00074  -0.86362
   D61        1.29943   0.00001   0.00000   0.00041   0.00042   1.29985
         Item               Value     Threshold  Converged?
 Maximum Force            0.020750     0.000450     NO 
 RMS     Force            0.003921     0.000300     NO 
 Maximum Displacement     0.297427     0.001800     NO 
 RMS     Displacement     0.054962     0.001200     NO 
 Predicted change in Energy=-6.584906D-03
 GradGradGradGradGradGradGradGradGradGradGradGradGradGradGradGradGradGrad

                          Input orientation:                          
 ---------------------------------------------------------------------
 Center     Atomic      Atomic             Coordinates (Angstroms)
 Number     Number       Type             X           Y           Z
 ---------------------------------------------------------------------
      1          6           0       -1.472591    0.625778   -0.805914
      2          6           0       -2.589409    0.660925   -1.664184
      3         17           0       -4.222432    0.690588   -1.047834
      4          6           0       -2.459722    0.668369   -3.038176
      5          1           0       -3.341544    0.699011   -3.670780
      6          6           0       -1.187747    0.632239   -3.641231
      7          6           0       -0.076017    0.592168   -2.778421
      8         16           0        1.567526    0.525022   -3.419888
      9          6           0       -0.218144    0.593586   -1.392802
     10          1           0        0.662394    0.571911   -0.756034
     11         16           0       -1.565565    0.602511    1.006833
     12          8           0       -2.344578   -0.634677    1.311267
     13          8           0       -0.146486    0.483509    1.426325
     14          7           0       -2.124979    1.945993    1.570639
     15          1           0       -2.970600    2.189434    1.055561
     16          7           0       -1.064082    0.695273   -5.002963
     17          6           0        0.191143    0.312015   -5.612961
     18          7           0        1.258201    1.082566   -4.957199
     19          8           0        2.430402    1.499361   -2.748585
     20          8           0        2.043963   -0.865740   -3.414880
     21          1           0        0.180745    0.596181   -6.662811
     22          1           0        2.123447    1.089981   -5.505454
     23          1           0       -1.898761    0.475291   -5.536889
     24          1           0        0.367479   -0.769550   -5.536316
 ---------------------------------------------------------------------
                    Distance matrix (angstroms):
                    1          2          3          4          5
     1  C    0.000000
     2  C    1.408952   0.000000
     3  Cl   2.761223   1.745719   0.000000
     4  C    2.441155   1.380119   2.658778   0.000000
     5  H    3.421375   2.143265   2.766926   1.085696   0.000000
     6  C    2.849597   2.423673   3.992296   1.408155   2.155035
     7  C    2.417092   2.750162   4.494149   2.399027   3.386944
     8  S    4.010651   4.514540   6.259207   4.047837   4.918556
     9  C    1.385319   2.387693   4.020290   2.781640   3.867289
    10  H    2.136246   3.377407   4.894973   3.868473   4.954131
    11  S    1.815279   2.861119   3.359816   4.143182   5.004346
    12  O    2.613726   3.254510   3.293633   4.541899   5.252947
    13  O    2.600324   3.943424   4.772598   5.031601   6.019578
    14  N    2.795815   3.511578   3.582144   4.794326   5.523357
    15  H    2.855545   3.143033   2.870173   4.396967   4.969633
    16  N    4.217456   3.670865   5.061447   2.410171   2.638476
    17  C    5.096485   4.842111   6.361080   3.712625   4.049902
    18  N    4.989894   5.081912   6.743450   4.204421   4.791622
    19  O    4.446399   5.203594   6.914251   4.968674   5.899692
    20  O    4.625741   5.183027   6.876974   4.772690   5.614055
    21  H    6.085856   5.715261   7.136165   4.485003   4.622698
    22  H    5.935710   6.095117   7.765312   5.222132   5.777977
    23  H    4.752515   3.938185   5.059389   2.568175   2.369396
    24  H    5.263981   5.077681   6.583750   4.037497   4.403834
                    6          7          8          9         10
     6  C    0.000000
     7  C    1.407832   0.000000
     8  S    2.766228   1.765566   0.000000
     9  C    2.448889   1.392890   2.702295   0.000000
    10  H    3.427976   2.153070   2.813820   1.086872   0.000000
    11  S    4.663489   4.067801   5.423848   2.752066   2.841203
    12  O    5.241237   4.834983   6.247663   3.652716   3.843367
    13  O    5.175564   4.206740   5.140558   2.822185   2.329118
    14  N    5.456001   4.994539   6.368604   3.774521   3.882133
    15  H    5.259589   5.062537   6.587450   4.014626   4.370000
    16  N    1.368788   2.436287   3.075789   3.709342   4.586103
    17  C    2.427261   2.860852   2.597956   4.249299   4.886651
    18  N    2.813757   2.601480   1.664290   3.888910   4.273820
    19  O    3.826188   2.665712   1.464424   3.110205   2.820687
    20  O    3.569190   2.650451   1.470114   3.366832   3.323407
    21  H    3.317230   3.892869   3.527715   5.285084   5.926431
    22  H    3.827383   3.538668   2.231101   4.758505   4.996005
    23  H    2.030688   3.308354   4.061935   4.473469   5.424521
    24  H    2.824020   3.107563   2.755957   4.401114   4.973689
                   11         12         13         14         15
    11  S    0.000000
    12  O    1.493378   0.000000
    13  O    1.484561   2.468844   0.000000
    14  N    1.560694   2.602951   2.464574   0.000000
    15  H    2.120100   2.903944   3.320131   1.019630   0.000000
    16  N    6.031396   6.578597   6.497890   6.775106   6.524802
    17  C    6.855077   7.434449   7.049464   7.722591   7.615149
    18  N    6.616176   7.431191   6.563641   7.402978   7.433787
    19  O    5.556550   6.620948   5.010207   6.293383   6.642179
    20  O    5.893725   6.453615   5.482317   7.081054   7.380025
    21  H    7.865944   8.454477   8.096536   8.656100   8.487797
    22  H    7.500421   8.330989   7.319150   8.297770   8.378844
    23  H    6.553435   6.951836   7.180312   7.261619   6.895471
    24  H    6.959311   7.366331   7.093143   8.005956   7.959346
                   16         17         18         19         20
    16  N    0.000000
    17  C    1.447264   0.000000
    18  N    2.354802   1.470505   0.000000
    19  O    4.235587   3.824751   2.534906   0.000000
    20  O    3.823443   3.106704   2.606159   2.487366   0.000000
    21  H    2.077139   1.087678   2.075234   4.604113   4.019683
    22  H    3.250944   2.085807   1.024348   2.803951   2.863854
    23  H    1.014966   2.097651   3.266685   5.250239   4.674009
    24  H    2.116492   1.098523   2.135204   4.144279   2.705613
                   21         22         23         24
    21  H    0.000000
    22  H    2.314607   0.000000
    23  H    2.367838   4.069028   0.000000
    24  H    1.780192   2.557779   2.585628   0.000000
 Stoichiometry    C7H7ClN3O4S2(1-)
 Framework group  C1[X(C7H7ClN3O4S2)]
 Deg. of freedom    66
 Full point group                 C1      NOp   1
 Largest Abelian subgroup         C1      NOp   1
 Largest concise Abelian subgroup C1      NOp   1
                         Standard orientation:                         
 ---------------------------------------------------------------------
 Center     Atomic      Atomic             Coordinates (Angstroms)
 Number     Number       Type             X           Y           Z
 ---------------------------------------------------------------------
      1          6           0        1.257279   -0.087343   -0.009750
      2          6           0        1.223207    1.321131   -0.023413
      3         17           0        2.684089    2.276670   -0.005979
      4          6           0        0.037372    2.026840   -0.045703
      5          1           0        0.046931    3.112413   -0.059002
      6          6           0       -1.200114    1.354881   -0.047292
      7          6           0       -1.159484   -0.052239   -0.028540
      8         16           0       -2.647670   -1.002051   -0.008984
      9          6           0        0.043267   -0.754620   -0.014691
     10          1           0        0.038024   -1.841471   -0.010288
     11         16           0        2.775444   -1.081699    0.031093
     12          8           0        3.453333   -0.651767    1.290379
     13          8           0        2.275193   -2.476785    0.117142
     14          7           0        3.589895   -0.941300   -1.292812
     15          1           0        3.677685    0.049092   -1.518776
     16          7           0       -2.371281    2.059101   -0.124894
     17          6           0       -3.612106    1.399281    0.220889
     18          7           0       -3.694589    0.163133   -0.571274
     19          8           0       -2.592794   -2.079282   -0.999490
     20          8           0       -2.954905   -1.411653    1.369082
     21          1           0       -4.447554    2.031307   -0.071709
     22          1           0       -4.647142   -0.212048   -0.605493
     23          1           0       -2.315313    3.044457    0.111956
     24          1           0       -3.677839    1.194624    1.298176
 ---------------------------------------------------------------------
 Rotational constants (GHZ):           0.6435828           0.2405796           0.1890128
 Basis read from rwf:  (6D, 7F)
 There are   349 symmetry adapted cartesian basis functions of A   symmetry.
 There are   349 symmetry adapted basis functions of A   symmetry.
   349 basis functions,   644 primitive gaussians,   349 cartesian basis functions
    76 alpha electrons       76 beta electrons
       nuclear repulsion energy      1717.4651341714 Hartrees.
 NAtoms=   24 NActive=   24 NUniq=   24 SFac= 1.00D+00 NAtFMM=   60 NAOKFM=F Big=F
 Integral buffers will be    131072 words long.
 Raffenetti 2 integral format.
 Two-electron integral symmetry is turned on.
 ------------------------------------------------------------------------------
 Polarizable Continuum Model (PCM)
 =================================
 Model                : PCM.
 Atomic radii         : SMD-Coulomb.
 Polarization charges : Total charges.
 Charge compensation  : None.
 Solution method      : On-the-fly selection.
 Cavity type          : VdW (van der Waals Surface) (Alpha=1.000).
 Cavity algorithm     : GePol (No added spheres)
                        Default sphere list used, NSphG=   24.
                        Lebedev-Laikov grids with approx.  5.0 points / Ang**2.
                        Smoothing algorithm: York/Karplus (Gamma=1.0000).
                        Polarization charges: spherical gaussians, with
                                              point-specific exponents (IZeta= 3).
                        Self-potential: point-specific (ISelfS= 7).
                        Self-field    : sphere-specific E.n sum rule (ISelfD= 2).
 1st derivatives      : Analytical E(r).r(x)/FMM algorithm (CHGder, D1EAlg=3).
                        Cavity 1st derivative terms included.
 Solvent              : Water, Eps=  78.355300 Eps(inf)=   1.777849
 ------------------------------------------------------------------------------
 ------------------------------------------------------------------------------
 Atomic radii for non-electrostatic terms: SMD-CDS.
 ------------------------------------------------------------------------------
 Nuclear repulsion after PCM non-electrostatic terms =     1717.4676382181 Hartrees.
 One-electron integrals computed using PRISM.
 NBasis=   349 RedAO= T EigKep=  1.91D-06  NBF=   349
 NBsUse=   347 1.00D-06 EigRej=  7.51D-07 NBFU=   347
 Initial guess from the checkpoint file:  "/jobfs/48971728.gadi-pbs/Gau-2285403.chk"
 B after Tr=     0.000000    0.000000    0.000000
         Rot=    0.999989    0.004189   -0.000469   -0.002159 Ang=   0.54 deg.
 ExpMin= 4.05D-02 ExpMax= 2.52D+04 ExpMxC= 3.78D+03 IAcc=3 IRadAn=         5 AccDes= 0.00D+00
 Harris functional with IExCor= 1009 and IRadAn=       5 diagonalized for initial guess.
 HarFok:  IExCor= 1009 AccDes= 0.00D+00 IRadAn=         5 IDoV= 1 UseB2=F ITyADJ=14
 ICtDFT=  3500011 ScaDFX=  1.000000  1.000000  1.000000  1.000000
 FoFCou: FMM=F IPFlag=           0 FMFlag=      100000 FMFlg1=           0
         NFxFlg=           0 DoJE=T BraDBF=F KetDBF=T FulRan=T
         wScrn=  0.000000 ICntrl=       500 IOpCl=  0 I1Cent=   200000004 NGrid=           0
         NMat0=    1 NMatS0=      1 NMatT0=    0 NMatD0=    1 NMtDS0=    0 NMtDT0=    0
 Petite list used in FoFCou.
 Requested convergence on RMS density matrix=1.00D-08 within 128 cycles.
 Requested convergence on MAX density matrix=1.00D-06.
 Requested convergence on             energy=1.00D-06.
 No special actions if energy rises.
 Inv3:  Mode=1 IEnd=    12012003.
 Iteration    1 A*A^-1 deviation from unit magnitude is 5.33D-15 for   2001.
 Iteration    1 A*A^-1 deviation from orthogonality  is 1.98D-15 for   1991   1858.
 Iteration    1 A^-1*A deviation from unit magnitude is 5.33D-15 for   2001.
 Iteration    1 A^-1*A deviation from orthogonality  is 4.56D-15 for   1934    382.
 Error on total polarization charges =  0.04638
 SCF Done:  E(RM062X) =  -1992.35723120     A.U. after   14 cycles
            NFock= 14  Conv=0.89D-08     -V/T= 2.0052
 SMD-CDS (non-electrostatic) energy       (kcal/mol) =       1.57
 (included in total energy above)
 D1PCM: PCM CHGder 1st derivatives, ID1Alg=3 FixD1E=F DoIter=F DoCFld=F I1PDM=0.
 Calling FoFJK, ICntrl=      2127 FMM=F ISym2X=0 I1Cent= 0 IOpClX= 0 NMat=1 NMatS=1 NMatT=0.
 ***** Axes restored to original set *****
 -------------------------------------------------------------------
 Center     Atomic                   Forces (Hartrees/Bohr)
 Number     Number              X              Y              Z
 -------------------------------------------------------------------
      1        6          -0.003908679    0.000622394   -0.000802762
      2        6           0.000898460   -0.000866607    0.000137255
      3       17           0.001897973    0.000796028    0.002798934
      4        6           0.000278042    0.000094587   -0.000151466
      5        1           0.000023819    0.000013836   -0.000082214
      6        6          -0.000169582    0.000085294   -0.000627295
      7        6          -0.000059821    0.000061090    0.000250792
      8       16           0.000077704   -0.000060435    0.000129618
      9        6           0.000717902    0.000516338    0.000608567
     10        1          -0.000143304   -0.000052865    0.000081160
     11       16           0.003793685   -0.000371444    0.001345930
     12        8          -0.002255802    0.001844149   -0.002247143
     13        8           0.003935765   -0.002822774    0.002773766
     14        7           0.000773763    0.000209812   -0.006679911
     15        1          -0.005837014   -0.000121227    0.002309335
     16        7          -0.000054419   -0.000121819    0.000374933
     17        6           0.000097225    0.000026375   -0.000060899
     18        7          -0.000005754   -0.000044869    0.000033472
     19        8          -0.000083206   -0.000101186   -0.000081364
     20        8          -0.000059063    0.000143507   -0.000026195
     21        1           0.000023134    0.000033761   -0.000017427
     22        1           0.000106089    0.000038907   -0.000044695
     23        1          -0.000009551    0.000046987   -0.000034119
     24        1          -0.000037367    0.000030161    0.000011728
 -------------------------------------------------------------------
 Cartesian Forces:  Max     0.006679911 RMS     0.001571198

 GradGradGradGradGradGradGradGradGradGradGradGradGradGradGradGradGradGrad
 Berny optimization.
 Using GEDIIS/GDIIS optimizer.
 FormGI is forming the generalized inverse of G from B-inverse, IUseBI=4.
 Internal  Forces:  Max     0.006048897 RMS     0.001600051
 Search for a local minimum.
 Step number   2 out of a maximum of  139
 All quantities printed in internal units (Hartrees-Bohrs-Radians)
 Mixed Optimization -- RFO/linear search
 Update second derivatives using D2CorX and points    1    2
 DE= -4.61D-03 DEPred=-6.58D-03 R= 7.00D-01
 TightC=F SS=  1.41D+00  RLast= 3.14D-01 DXNew= 5.0454D-01 9.4305D-01
 Trust test= 7.00D-01 RLast= 3.14D-01 DXMaxT set to 5.05D-01
 ITU=  1  0
 Use linear search instead of GDIIS.
     Eigenvalues ---    0.00235   0.01318   0.01359   0.01518   0.01694
     Eigenvalues ---    0.01764   0.02052   0.02081   0.02111   0.02157
     Eigenvalues ---    0.02191   0.02228   0.02235   0.02945   0.02964
     Eigenvalues ---    0.05697   0.07129   0.07581   0.09284   0.09857
     Eigenvalues ---    0.11174   0.11682   0.11783   0.12195   0.12958
     Eigenvalues ---    0.13281   0.14029   0.16000   0.16000   0.16068
     Eigenvalues ---    0.17576   0.19368   0.19940   0.20012   0.23172
     Eigenvalues ---    0.23959   0.24740   0.24914   0.24990   0.24999
     Eigenvalues ---    0.25116   0.28586   0.28745   0.31025   0.33831
     Eigenvalues ---    0.33842   0.35079   0.35204   0.35309   0.37290
     Eigenvalues ---    0.38544   0.40877   0.42023   0.43645   0.44078
     Eigenvalues ---    0.44642   0.45158   0.45501   0.47393   0.48501
     Eigenvalues ---    0.49702   0.60142   0.80103   0.81765   0.87462
     Eigenvalues ---    0.89745
 RFO step:  Lambda=-1.40313506D-03 EMin= 2.34683700D-03
 Quartic linear search produced a step of -0.16559.
 Iteration  1 RMS(Cart)=  0.03706018 RMS(Int)=  0.00087111
 Iteration  2 RMS(Cart)=  0.00100973 RMS(Int)=  0.00011672
 Iteration  3 RMS(Cart)=  0.00000065 RMS(Int)=  0.00011672
 Variable       Old X    -DE/DX   Delta X   Delta X   Delta X     New X
                                 (Linear)    (Quad)   (Total)
    R1        2.66253  -0.00476  -0.00110  -0.00724  -0.00833   2.65420
    R2        2.61787  -0.00039  -0.00009  -0.00069  -0.00077   2.61710
    R3        3.43038  -0.00250  -0.00072  -0.00695  -0.00767   3.42271
    R4        3.29893  -0.00077  -0.00028  -0.00158  -0.00185   3.29708
    R5        2.60805   0.00007  -0.00005   0.00003  -0.00001   2.60804
    R6        2.05167   0.00003   0.00002   0.00004   0.00005   2.05172
    R7        2.66103   0.00046   0.00006   0.00094   0.00100   2.66203
    R8        2.66042   0.00093   0.00018   0.00191   0.00208   2.66250
[...]
 1088576,0.00030075,0.00479787,0.00057383,-0.00003946,-0.00130006,0.000
 24553,0.00018079,-0.00164050,-0.00013658,-0.00023246,0.00031216,0.0004
 6571,-0.00002671,0.00033916,-0.00014936,0.00018365,0.00036177,0.000025
 11,-0.00004564,-0.00006130,0.74913970,0.00279924,-0.00096216,0.0047202
 8,0.00076671,0.00477063,-0.00645507,-0.00026103,-0.00014882,-0.0001377
 1,-0.00793934,0.00965780,0.00432211,-0.00011027,-0.00244119,0.00016789
 ,0.00731695,-0.04370589,-0.03395740,0.00849473,0.00611772,0.00370341,-
 0.00494209,-0.00176251,0.00525071,-0.00201877,0.00489797,-0.00041010,0
 .00009311,0.00026741,-0.00019265,0.00018401,-0.00022676,-0.00470153,-0
 .00072374,-0.00085405,0.00140483,0.00077673,-0.00000149,0.00097436,-0.
 00042807,0.00061909,0.00114247,0.00009843,-0.00006143,-0.00002700,0.00
 494685,0.11431247,-0.00681701,-0.00046642,-0.01534465,-0.00084989,0.00
 012164,0.01833096,0.00227327,-0.00023397,-0.00092740,0.03052697,0.0004
 4524,-0.04547156,-0.00179351,0.00008535,0.00164346,0.01014738,0.008983
 00,-0.32542400,-0.02545672,0.00239215,-0.03955274,0.01660261,0.0003881
 6,-0.01369232,0.00213308,-0.00012155,0.00278055,0.00028734,0.00012027,
 -0.00032991,-0.00075207,-0.00029121,0.01725740,0.00231135,0.00316098,-
 0.00499123,-0.00279458,-0.00001877,-0.00392875,0.00189036,-0.00244263,
 -0.00458761,-0.00039015,0.00022595,0.00022540,0.07364960,0.11660280,0.
 70121065,-0.00239442,-0.00007464,-0.00378686,0.00050309,0.00012267,0.0
 0500531,0.00088999,-0.00006197,-0.00063392,0.00576036,-0.00009876,-0.0
 0961420,-0.00010313,0.00005624,-0.00000862,-0.00209982,-0.00231128,0.0
 3528507,-0.00470943,-0.00127634,-0.00333764,-0.00500893,0.00914072,-0.
 05000419,-0.00103220,0.00028870,-0.00036468,0.00009683,0.00003685,-0.0
 0036331,-0.00028711,-0.00010013,0.00456912,0.00059650,0.00080510,-0.00
 128848,-0.00078068,0.00000109,-0.00105920,0.00049733,-0.00062440,-0.00
 121289,-0.00010122,0.00006487,0.00006769,-0.20140225,0.04705791,0.0400
 2651,0.47465168,-0.00224742,0.00000506,-0.00097191,0.00069390,0.001847
 65,0.00329833,-0.00025882,-0.00025249,0.00017104,0.00301189,0.00287738
 ,-0.00133690,-0.00003585,-0.00078349,0.00003444,-0.00654823,-0.0063859
 7,0.01373480,-0.00285038,0.00069181,0.00140967,0.01036998,0.00918404,-
 0.01043572,0.00084506,-0.00034177,-0.00140487,-0.00001190,-0.00001988,
 -0.00000086,-0.00011107,-0.00001412,0.00032389,0.00003762,-0.00000173,
 -0.00005590,-0.00004677,0.00000462,-0.00000951,0.00005410,-0.00002876,
 -0.00002865,0.00000300,-0.00000145,-0.00002942,0.06279057,-0.07930116,
 -0.04599621,-0.02903155,0.57260712,-0.00069853,-0.00002582,0.00175802,
 0.00173417,0.00020473,-0.00037389,0.00001055,0.00012165,-0.00031644,-0
 .00344183,-0.00113422,-0.00324859,0.00010910,-0.00011803,0.00015593,0.
 03862874,-0.01103674,-0.02690801,0.00423744,0.00199359,0.00656989,-0.0
 3047266,-0.01411693,-0.02617948,0.00010909,0.00025363,-0.00140289,-0.0
 0006404,0.00002407,0.00006678,0.00000240,0.00002133,-0.00182797,-0.000
 26052,-0.00036709,0.00055582,0.00027282,0.00000095,0.00041618,-0.00019
 642,0.00027491,0.00050852,0.00004301,-0.00001721,-0.00001910,0.0461641
 2,-0.02617153,-0.13240800,-0.00640821,-0.04683341,0.66534603,-0.000675
 95,0.00085150,0.00337219,0.00116372,0.00002357,-0.00006483,-0.00097339
 ,-0.00002250,0.00032504,-0.00063257,0.00072862,0.00122932,0.00007582,-
 0.00014814,0.00004006,0.00354251,0.00058462,-0.00772158,0.00988285,-0.
 00807187,0.03239557,-0.09946226,-0.00757167,0.01310532,-0.00730491,-0.
 00141524,-0.00102783,0.00003041,-0.00021248,-0.00020867,-0.00033061,0.
 00025243,-0.00333928,-0.00041467,-0.00074873,0.00096174,0.00054998,-0.
 00000188,0.00088314,-0.00034781,0.00063555,0.00111256,0.00009160,-0.00
 004462,-0.00011291,-0.05489052,-0.01849594,-0.01553730,-0.13599705,-0.
 07356969,-0.03861452,0.60831270,-0.00033451,-0.00008522,0.00060648,0.0
 0025612,-0.00011317,0.00020030,-0.00011306,0.00003265,0.00003057,-0.00
 001123,-0.00024864,0.00010831,0.00002918,0.00006801,-0.00002065,-0.000
 13660,0.00061287,-0.00137593,0.00375778,0.00358489,0.00381583,-0.00721
 744,-0.06741638,0.02448752,-0.00089547,0.00027285,-0.00064375,-0.00002
 021,-0.00002334,-0.00004325,-0.00005109,-0.00010303,-0.00059778,-0.000
 07576,-0.00011136,0.00021350,0.00009171,0.00002489,0.00015105,-0.00005
 621,0.00012125,0.00015246,0.00001642,-0.00001295,-0.00001278,-0.001014
 86,0.01034746,0.00465072,-0.04840830,-0.11501335,-0.02753526,0.0909830
 2,0.19977504,0.00271449,-0.00066312,-0.00149522,-0.00167265,0.00000082
 ,-0.00224247,0.00099852,-0.00005396,-0.00026979,-0.00110179,-0.0001778
 3,0.00234683,0.00023662,0.00009030,-0.00013483,0.00065106,0.00265615,-
 0.00724222,-0.00188236,0.00786405,-0.01702290,-0.01368612,0.05735163,-
 0.17004733,0.00369682,0.00018934,0.00372543,-0.00022371,0.00018017,0.0
 0057820,0.00021594,-0.00007312,0.00234096,0.00029071,0.00054958,-0.000
 71514,-0.00031578,-0.00000369,-0.00068028,0.00021727,-0.00046236,-0.00
 075144,-0.00006472,0.00003993,0.00010405,0.00836867,0.00571873,0.01325
 587,-0.01431800,-0.03518313,-0.11677936,-0.09824686,0.00548315,0.49517
 508,-0.00351631,0.00101055,0.00072009,0.00203210,-0.00023374,0.0014369
 4,-0.00189153,0.00007226,0.00075030,-0.00083183,0.00136276,-0.00269942
 ,-0.00074733,0.00013974,0.00053627,-0.00218887,-0.00308430,0.01316122,
 -0.01600946,-0.01912881,-0.01746308,-0.23901074,-0.18671963,-0.1210644
 8,0.00136489,0.00040194,-0.00518778,-0.00037216,-0.00045273,-0.0002101
 0,-0.00007213,0.00010146,-0.00366770,-0.00040379,-0.00079015,0.0011053
 4,0.00056814,-0.00000412,0.00116102,-0.00034955,0.00063580,0.00109602,
 0.00009359,-0.00006725,-0.00015844,0.00009481,0.00075994,-0.00431270,0
 .00351861,0.00083852,-0.00201798,-0.00347325,-0.00878850,-0.01155441,0
 .25108286,-0.00144189,-0.00000764,0.00071684,0.00091158,-0.00009028,0.
 00078542,-0.00059931,0.00005310,0.00025486,-0.00031653,-0.00002644,-0.
 00168450,-0.00032387,0.00000548,0.00028063,-0.00244835,-0.00012664,0.0
 0456004,-0.00033346,0.00248086,-0.00677099,-0.18065375,-0.26733900,-0.
 13377679,0.00063014,0.00045493,-0.00198395,0.00013555,-0.00015993,-0.0
 0007345,-0.00012128,-0.00006749,-0.00152882,-0.00015225,-0.00029302,0.
 00047533,0.00025350,0.00002675,0.00045030,-0.00013981,0.00031697,0.000
 45839,0.00004144,-0.00002960,-0.00005690,-0.00062725,0.00002882,-0.000
 90435,0.00079510,0.00278576,-0.00025459,0.00245202,0.00419361,0.003266
 59,0.20702728,0.29265723,-0.00063475,0.00054309,0.00126098,0.00051340,
 -0.00005659,0.00035198,-0.00010770,-0.00002948,0.00008239,0.00032166,-
 0.00022263,0.00045780,0.00005166,-0.00010242,-0.00001027,0.00043515,0.
 00119195,-0.00325068,0.00430990,-0.00098368,0.00901105,-0.11730325,-0.
 13420813,-0.16572686,-0.00046455,0.00044320,-0.00123903,0.00025100,-0.
 00049953,0.00107871,-0.00026019,0.00006761,-0.00044706,0.00000437,-0.0
 0006077,0.00012524,0.00017471,0.00000369,0.00002858,-0.00001260,0.0000
 6925,0.00016760,0.00001439,-0.00000370,-0.00001291,-0.00211013,-0.0004
 5135,0.00115154,0.01002434,0.00684507,-0.00700600,-0.03625255,-0.02419
 542,-0.01561856,0.15369126,0.15864095,0.16581269,-0.00491534,-0.001165
 14,0.00124297,0.00261426,0.00009487,0.00269762,-0.00182603,0.00032252,
 0.00066361,0.00068588,-0.00178372,-0.00203971,-0.00043672,0.00000585,0
 .00022041,-0.00034354,0.00067895,0.01011539,-0.00658168,0.02561028,0.0
 0393960,-0.11559488,0.13609361,0.00335379,-0.00037102,0.00178911,-0.00
 608437,-0.00004147,0.00077602,-0.00010630,-0.00024537,-0.00018046,-0.0
 0362478,-0.00041133,-0.00083675,0.00125931,0.00057997,0.00001063,0.001
 05892,-0.00031207,0.00058999,0.00096197,0.00009563,-0.00006748,-0.0001
 5410,0.00037504,0.00155251,-0.00474304,0.00150841,-0.00065970,0.001325
 38,0.00898302,0.00927912,-0.00573002,0.01177979,-0.02483251,-0.0089253
 2,0.10472752,0.00235712,0.00050871,-0.00152749,-0.00154426,0.00002140,
 -0.00088918,0.00126023,-0.00020497,-0.00049293,0.00058935,0.00058014,0
 .00144077,0.00045162,0.00001394,-0.00033371,0.00137963,-0.00066117,-0.
 00586588,0.00104131,-0.00674454,0.00206548,0.12581758,-0.47072693,-0.0
 0037915,0.00176812,-0.00014188,0.00256592,-0.00003286,-0.00057705,0.00
 027156,0.00018165,-0.00010041,0.00285846,0.00033595,0.00072526,-0.0009
 2553,-0.00044503,0.00003322,-0.00084066,0.00025163,-0.00047640,-0.0008
 1314,-0.00007529,0.00004666,0.00011656,0.00119296,-0.00017528,0.002563
 15,-0.00591341,-0.00416618,-0.00206838,0.00834680,-0.01524295,0.006700
 69,0.00906580,-0.03376794,-0.00251672,-0.14971013,0.52734935,0.0006897
 0,0.00010567,0.00052049,-0.00031992,-0.00003968,-0.00023182,0.00049525
 ,-0.00007296,-0.00020319,0.00034888,0.00058485,0.00113373,0.00027062,0
 .00005024,-0.00018052,0.00090109,-0.00158052,-0.00730886,0.00717336,-0
 .00660985,0.01206397,0.00240916,0.00128337,-0.07084026,-0.00144472,0.0
 0072886,0.00159308,-0.00024903,0.00019284,0.00028406,-0.00009355,-0.00
 004349,0.00047360,0.00003534,0.00011765,-0.00013157,-0.00002249,0.0000
 0421,-0.00022812,0.00006630,-0.00011120,-0.00015543,-0.00001475,0.0000
 0941,0.00003469,-0.00194771,-0.00149976,0.00298853,0.00743730,0.003315
 64,0.00096510,-0.01680724,0.02915479,-0.00698805,-0.00270692,-0.023109
 68,0.01075420,0.00616484,-0.00030069,0.05143874,0.00016123,-0.00003599
 ,0.00015837,-0.00034228,0.00010522,-0.00029264,-0.00017613,-0.00000985
 ,0.00018163,0.00021692,0.00020295,0.00177880,0.00000517,-0.00004858,-0
 .00005313,-0.00545260,0.00007495,-0.00006514,0.00013098,0.00034357,-0.
 00002377,-0.00295346,-0.00359173,0.00177357,0.00028091,-0.00003994,0.0
 0013028,-0.00002991,0.00000823,0.00006374,0.00002514,0.00001821,-0.000
 28255,-0.00003216,-0.00004728,0.00007297,0.00005499,-0.00000149,0.0000
 7574,-0.00002997,0.00003852,0.00007896,0.00000661,-0.00000715,-0.00000
 874,-0.00162581,-0.00516449,0.03715350,-0.05181632,0.00160898,-0.00694
 741,-0.00397099,0.00515064,-0.02988879,-0.00114366,-0.00050369,-0.0028
 7827,0.00002857,0.00106919,-0.00062876,0.06245099,-0.00006110,-0.00001
 317,-0.00010210,0.00007423,-0.00008142,0.00012862,0.00007254,-0.000001
 86,-0.00006453,0.00007637,-0.00002390,-0.00061995,0.00000445,0.0000102
 7,0.00000798,0.00218839,0.00052921,-0.00050246,-0.00029794,0.00017831,
 -0.00006170,-0.00178808,-0.00366832,0.00037259,0.00008612,-0.00006766,
 -0.00003399,-0.00000246,0.00000314,0.00001223,-0.00000314,0.00000965,0
 .00015220,0.00002212,0.00003453,-0.00005033,-0.00002479,0.00000004,-0.
 00004147,0.00001501,-0.00002389,-0.00003820,-0.00000341,0.00000294,0.0
 0000450,0.00114331,0.00292182,-0.01525586,0.00193459,-0.07586161,0.087
 15347,-0.00311573,0.00429923,-0.02308654,-0.00079914,-0.00020355,-0.00
 185635,0.00038237,0.00134443,0.00023672,-0.00098843,0.07522368,0.00001
 067,-0.00000959,-0.00010628,0.00007640,-0.00003758,0.00010379,0.000103
 47,-0.00000237,-0.00007794,-0.00008331,-0.00005722,-0.00065627,0.00001
 259,0.00000882,-0.00001094,0.00228269,0.00035982,0.00143704,-0.0000517
 0,0.00001199,0.00024731,-0.00032752,-0.00190255,0.00267895,-0.00004340
 ,0.00005236,0.00003204,0.00000234,0.00000091,0.00000075,-0.00000949,-0
 .00000965,0.00021743,0.00002376,0.00004484,-0.00006187,-0.00003575,0.0
 0000042,-0.00006350,0.00002324,-0.00003582,-0.00006390,-0.00000522,0.0
 0000372,0.00000725,0.00256471,0.00089455,-0.01264151,-0.00440489,0.074
 27426,-0.32060591,-0.00369226,0.00165056,-0.01404798,-0.00032564,-0.00
 008289,-0.00078126,-0.00007647,0.00031888,-0.00006767,0.00416228,-0.07
 733829,0.34304698,0.00063273,-0.00011739,-0.00028176,-0.00035258,0.000
 06309,-0.00059103,0.00014667,-0.00000832,-0.00003187,-0.00036583,0.000
 08173,0.00066983,0.00005774,-0.00002888,-0.00002481,0.00023387,0.00014
 725,-0.00213969,-0.00002633,0.00069223,-0.00399530,0.01384624,0.000275
 25,-0.00224132,0.00099941,0.00028751,0.00038085,0.00000810,0.00003774,
 0.00012334,0.00006834,-0.00007569,0.00038096,0.00003964,0.00009349,-0.
 00010477,-0.00005651,0.00000687,-0.00011045,0.00004670,-0.00008760,-0.
 00015777,-0.00001269,0.00000581,0.00001881,-0.00430840,-0.00306129,-0.
 00225694,-0.01617202,0.00567045,0.01375925,-0.31604154,-0.01120893,0.1
 6728327,-0.00104932,-0.00040156,0.00031013,-0.00122625,0.00149417,-0.0
 0095663,0.00098079,0.00066747,0.00010980,0.32279971,0.00038261,-0.0002
 0206,0.00008972,-0.00013048,0.00007502,-0.00016002,0.00013964,0.000002
 05,-0.00005574,-0.00006466,-0.00008710,-0.00001376,0.00001705,-0.00001
 682,-0.00001792,0.00009514,-0.00030324,0.00031576,0.00110117,0.0012131
 9,0.00091992,-0.01035515,-0.00386662,0.02121606,-0.00066811,0.00051000
 ,0.00033647,0.00002120,0.00007872,-0.00001035,-0.00003110,-0.00005353,
 0.00021196,0.00001348,0.00002452,-0.00003718,-0.00003634,-0.00000030,-
 0.00006778,0.00002854,-0.00003766,-0.00008586,-0.00000580,0.00000421,0
 .00000952,0.00079320,-0.00050533,-0.00143304,-0.01824676,-0.00463399,0
 .00796389,0.01948274,-0.00761149,-0.02469567,-0.00056444,-0.00104528,-
 0.00147234,0.00173540,0.00011978,-0.00287147,0.00063742,0.00093530,0.0
 0049403,0.00560472,0.01554992,0.00027952,-0.00019518,-0.00027885,-0.00
 025812,0.00005402,-0.00050276,0.00002995,-0.00000167,0.00003090,-0.000
 40409,0.00004321,0.00073520,0.00003719,-0.00001819,0.00002531,-0.00052
 106,-0.00003391,-0.00267210,-0.00200929,0.00172670,-0.00491542,0.03023
 583,-0.00034531,-0.02309093,0.00156134,0.00042695,0.00035405,-0.000046
 71,0.00006291,0.00006609,0.00010685,-0.00005621,0.00010784,0.00000412,
 0.00004249,-0.00002504,-0.00001542,-0.00000217,-0.00002946,0.00001030,
 -0.00004643,-0.00007580,-0.00000558,0.00000034,0.00000798,-0.00593363,
 -0.00250399,-0.00008137,-0.01301949,0.00116346,0.01199289,0.16703687,0
 .00242953,-0.16280004,-0.00233164,-0.00036308,0.00313876,-0.00159215,-
 0.00145610,0.00346676,-0.00044447,0.00038129,0.00069327,-0.17129846,-0
 .00053595,0.17324703,0.00067073,-0.00001799,0.00129638,-0.00013548,0.0
 0060540,-0.00160862,-0.00030435,0.00000666,0.00013858,0.00002232,0.000
 37868,0.00405943,-0.00033469,-0.00021336,-0.00043869,0.00954595,0.0014
 3545,-0.00163034,0.00181735,-0.00053369,0.00365347,-0.00196601,-0.0002
 4140,0.00210709,0.00023533,-0.00017571,0.00008785,-0.00002051,0.000016
 19,0.00012083,0.00007514,-0.00004401,-0.00155175,-0.00021668,-0.000290
 61,0.00046218,0.00023062,0.00001639,0.00037795,-0.00016117,0.00021684,
 0.00040014,0.00003453,-0.00001890,-0.00002628,-0.33165590,-0.06512227,
 -0.16348227,-0.01539274,-0.00722148,-0.01358698,-0.00361954,0.00113775
 ,0.00166112,0.00049983,0.00015114,-0.00021051,0.00053228,-0.00015492,-
 0.00043668,0.00106875,-0.00050458,-0.00009540,-0.00057583,0.00001440,-
 0.00094617,0.33960927,-0.00035153,0.00000475,-0.00116293,-0.00001004,-
 0.00069237,0.00121522,0.00013526,0.00008598,-0.00004040,0.00178895,-0.
 00125614,-0.00199269,0.00014047,0.00000947,-0.00022149,0.00398724,-0.0
 0462665,0.01480128,-0.00266094,0.00266162,0.00010472,0.00125309,-0.000
 38839,-0.00030469,0.00069161,0.00124986,0.00050543,-0.00001370,-0.0000
 7409,0.00010400,-0.00002212,-0.00001767,0.00122121,0.00014871,0.000196
 34,-0.00034494,-0.00020997,-0.00002594,-0.00024282,0.00014485,-0.00018
 607,-0.00033947,-0.00003163,0.00001647,0.00001467,-0.08462199,-0.02002
 324,-0.06979747,0.01164486,-0.00290943,0.00541773,-0.00200744,-0.00054
 693,-0.00039996,-0.00033887,-0.00011192,-0.00015106,-0.00031748,0.0001
 8905,0.00017279,0.00002692,0.00043921,0.00009376,-0.00016787,0.0003297
 9,0.00000286,0.07039056,0.02645206,0.00066791,-0.00007000,0.00077539,-
 0.00021341,0.00043679,-0.00098867,-0.00021595,-0.00004003,0.00016495,-
 0.00222609,0.00088159,0.00237569,0.00103051,-0.00041993,-0.00015415,-0
 .03044880,-0.00697158,-0.02310448,0.00362054,-0.00062604,-0.00349789,0
 .00007384,0.00049688,-0.00261164,-0.00184696,0.00034236,-0.00015594,0.
 00016907,0.00003184,-0.00030153,0.00002403,-0.00001845,-0.00052924,-0.
 00006419,-0.00008654,0.00014174,0.00013649,0.00000090,0.00009459,-0.00
 004229,0.00006255,0.00012206,0.00001041,-0.00001085,-0.00001332,-0.158
 63753,-0.05125259,-0.16037021,0.01060773,0.00581229,0.01171379,0.00634
 189,-0.00017764,-0.00031176,0.00018058,0.00014915,0.00072529,0.0002177
 1,-0.00047789,0.00044376,-0.00042791,0.00052969,0.00043974,0.00097783,
 0.00013951,0.00091834,0.16963815,0.05187756,0.17417226,0.00121027,0.00
 001838,0.00116521,-0.00031114,-0.00019887,-0.00214553,-0.00025747,0.00
 005502,0.00014930,-0.00218937,-0.00052299,0.00277150,0.00005929,0.0001
 5387,0.00001103,0.00125000,0.00189679,-0.01133300,0.00172429,-0.000254
 85,0.00012440,-0.00062981,-0.00405596,0.00601071,-0.00032514,-0.000006
 11,0.00054783,-0.00001961,0.00001063,0.00003980,0.00010191,0.00003677,
 -0.00127152,-0.00016512,-0.00022917,0.00034945,0.00020637,-0.00000456,
 0.00029915,-0.00014284,0.00017566,0.00032845,0.00002632,-0.00001706,-0
 .00001914,-0.01873449,0.03342018,0.01218419,-0.05072545,0.03666876,-0.
 00368697,-0.00449756,-0.03236955,-0.00764927,0.00002532,0.00049775,-0.
 00094216,0.00039533,0.00127279,-0.00036345,0.00216224,0.00092183,-0.00
 022090,0.00032738,0.00003611,-0.00047568,0.00004079,0.00040104,0.00042
 645,0.07046851,0.00019390,-0.00001138,-0.00047570,-0.00025001,0.000002
 12,0.00007375,0.00008811,-0.00001608,-0.00003408,0.00022152,-0.0001235
 4,-0.00054045,-0.00002913,0.00000733,-0.00000126,-0.00027473,0.0010153
 7,0.00169836,-0.00016327,-0.00031380,-0.00140180,0.00070324,-0.0035271
 7,0.00428030,0.00001677,-0.00008317,0.00041411,-0.00000382,-0.00000332
 ,0.00000425,-0.00000324,-0.00001222,0.00062724,0.00008480,0.00012833,-
 0.00019579,-0.00010540,0.00000176,-0.00014788,0.00006514,-0.00008605,-
 0.00016898,-0.00001512,0.00000790,0.00001025,0.01055308,-0.00377187,-0
 .00277792,0.03419883,-0.30028807,0.02624926,-0.00891497,-0.01680393,-0
 .00529175,-0.00044436,0.00026519,-0.00099463,0.00063212,0.00205376,0.0
 0028224,0.00115383,-0.00598639,0.00126704,0.00002975,-0.00047909,-0.00
 077559,0.00016944,-0.00077575,-0.00060957,-0.03790648,0.32880008,-0.00
 077993,-0.00006921,-0.00000848,0.00036361,0.00021780,0.00082661,0.0000
 1733,-0.00002212,-0.00002437,0.00071737,0.00048880,-0.00083395,-0.0000
 2934,-0.00012724,0.00000093,-0.00053659,-0.00205181,0.00342446,-0.0004
 5922,0.00096714,0.00095183,-0.00039450,-0.00415489,0.00008139,0.000367
 27,0.00023129,-0.00073705,0.00000812,-0.00000306,-0.00001092,-0.000038
 38,-0.00003414,-0.00011574,-0.00001003,-0.00002929,0.00006547,0.000025
 92,0.00000141,0.00002341,-0.00000483,0.00001040,0.00002057,0.00000345,
 -0.00000036,0.00000143,0.00921097,-0.01714148,0.00090691,-0.00319849,0
 .03190361,-0.06297333,-0.00517784,-0.01853232,-0.00037905,-0.00013874,
 0.00055151,-0.00005419,-0.00014526,-0.00001403,0.00017476,-0.00368825,
 0.03007248,0.00028049,0.00017673,-0.00023978,-0.00031265,0.00001051,-0
 .00053331,-0.00004881,0.00370014,-0.02149141,0.05874026\\-0.00000896,0
 .00000277,0.00000673,0.00001359,0.00001097,-0.00000823,0.00000286,0.00
 000130,0.00001582,-0.00001019,-0.00000947,0.00001728,-0.00000181,-0.00
 000522,0.00000526,-0.00000034,-0.00000296,-0.00001382,0.00000381,0.000
 00062,-0.00001472,-0.00001213,-0.00000420,-0.00001215,0.00000354,0.000
 00402,0.00000935,0.00000571,0.00001049,-0.00000597,0.00003744,-0.00002
 797,-0.00000181,0.00001580,0.00002285,0.00000717,-0.00001425,0.0000267
 5,-0.00000859,0.00000911,0.00004406,0.00001086,0.00000808,0.00001122,-
 0.00000324,-0.00000185,-0.00003464,0.00001252,-0.00001562,-0.00000243,
 0.00000070,0.00000015,-0.00000610,-0.00000260,0.00000158,0.00000453,-0
 .00000742,0.00000071,-0.00000219,-0.00000013,-0.00001279,-0.00002111,-
 0.00000299,-0.00000924,-0.00001618,-0.00001237,-0.00000843,0.00000565,
 0.00000182,-0.00000676,-0.00001275,0.00000651\\\@
 The archive entry for this job was punched.


 TO DETECT ERRORS, THE PROGRAMMER MUST HAVE A CONNIVING MIND,
 ONE THAT DELIGHTS IN UNCOVERING FLAWS WHERE BEAUTY AND
 PERFECTION WERE ONCE THOUGHT TO LIE.

             -- THE PSYCHOLOGY OF COMPUTER PROGRAMMING
                GERALD M. WEINBERG
 Job cpu time:       0 days  2 hours 11 minutes 53.8 seconds.
 Elapsed time:       0 days  0 hours  8 minutes 18.9 seconds.
 File lengths (MBytes):  RWF=    427 Int=      0 D2E=      0 Chk=     17 Scr=      1
 Normal termination of Gaussian 16 at Fri Jul  1 00:40:18 2022.
