 Entering Gaussian System, Link 0=g16
 AtFile(1): /home/561/yj5695/Basis/6-31pGd.gbs
 Initial command:
 /apps/gaussian/g16c01/g16/l1.exe "/jobfs/49796083.gadi-pbs/Gau-4188159.inp" -scrdir="/jobfs/49796083.gadi-pbs/"
 Entering Link 1 = /apps/gaussian/g16c01/g16/l1.exe PID=   4188160.
  
 Copyright (c) 1988-2019, Gaussian, Inc.  All Rights Reserved.
  
 This is part of the Gaussian(R) 16 program.  It is based on
 the Gaussian(R) 09 system (copyright 2009, Gaussian, Inc.),
 the Gaussian(R) 03 system (copyright 2003, Gaussian, Inc.),
 the Gaussian(R) 98 system (copyright 1998, Gaussian, Inc.),
 the Gaussian(R) 94 system (copyright 1995, Gaussian, Inc.),
 the Gaussian 92(TM) system (copyright 1992, Gaussian, Inc.),
 the Gaussian 90(TM) system (copyright 1990, Gaussian, Inc.),
 the Gaussian 88(TM) system (copyright 1988, Gaussian, Inc.),
 the Gaussian 86(TM) system (copyright 1986, Carnegie Mellon
 University), and the Gaussian 82(TM) system (copyright 1983,
 Carnegie Mellon University). Gaussian is a federally registered
 trademark of Gaussian, Inc.
  
 This software contains proprietary and confidential information,
 including trade secrets, belonging to Gaussian, Inc.
  
 This software is provided under written license and may be
 used, copied, transmitted, or stored only in accord with that
 written license.
  
 The following legend is applicable only to US Government
 contracts under FAR:
  
                    RESTRICTED RIGHTS LEGEND
  
 Use, reproduction and disclosure by the US Government is
 subject to restrictions as set forth in subparagraphs (a)
 and (c) of the Commercial Computer Software - Restricted
 Rights clause in FAR 52.227-19.
  
 Gaussian, Inc.
 340 Quinnipiac St., Bldg. 40, Wallingford CT 06492
  
  
 ---------------------------------------------------------------
 Warning -- This program may not be used in any manner that
 competes with the business of Gaussian, Inc. or will provide
 assistance to any competitor of Gaussian, Inc.  The licensee
 of this program is prohibited from giving any competitor of
 Gaussian, Inc. access to this program.  By using this program,
 the user acknowledges that Gaussian, Inc. is engaged in the
 business of creating and licensing software in the field of
 computational chemistry and represents and warrants to the
 licensee that it is not a competitor of Gaussian, Inc. and that
 it will not use this program in any manner prohibited above.
 ---------------------------------------------------------------
  

 Cite this work as:
 Gaussian 16, Revision C.01,
 M. J. Frisch, G. W. Trucks, H. B. Schlegel, G. E. Scuseria, 
 M. A. Robb, J. R. Cheeseman, G. Scalmani, V. Barone, 
 G. A. Petersson, H. Nakatsuji, X. Li, M. Caricato, A. V. Marenich, 
 J. Bloino, B. G. Janesko, R. Gomperts, B. Mennucci, H. P. Hratchian, 
 J. V. Ortiz, A. F. Izmaylov, J. L. Sonnenberg, D. Williams-Young, 
 F. Ding, F. Lipparini, F. Egidi, J. Goings, B. Peng, A. Petrone, 
 T. Henderson, D. Ranasinghe, V. G. Zakrzewski, J. Gao, N. Rega, 
 G. Zheng, W. Liang, M. Hada, M. Ehara, K. Toyota, R. Fukuda, 
 J. Hasegawa, M. Ishida, T. Nakajima, Y. Honda, O. Kitao, H. Nakai, 
 T. Vreven, K. Throssell, J. A. Montgomery, Jr., J. E. Peralta, 
 F. Ogliaro, M. J. Bearpark, J. J. Heyd, E. N. Brothers, K. N. Kudin, 
 V. N. Staroverov, T. A. Keith, R. Kobayashi, J. Normand, 
 K. Raghavachari, A. P. Rendell, J. C. Burant, S. S. Iyengar, 
 J. Tomasi, M. Cossi, J. M. Millam, M. Klene, C. Adamo, R. Cammi, 
 J. W. Ochterski, R. L. Martin, K. Morokuma, O. Farkas, 
 J. B. Foresman, and D. J. Fox, Gaussian, Inc., Wallingford CT, 2019.
 
 ******************************************
 Gaussian 16:  ES64L-G16RevC.01  3-Jul-2019
                 1-Jul-2022 
 ******************************************
 %nproc=16
 Will use up to   16 processors via shared memory.
 %mem=50gb
 -----------------------------------------------------
 #m062X/gen 6D OPT Freq=noraman SCRF=(SMD,Solvent=h2o)
 -----------------------------------------------------
 1/18=20,19=15,26=3,38=1/1,3;
 2/9=110,12=2,17=6,18=5,40=1/2;
 3/5=7,8=2,11=2,25=1,30=1,70=32201,71=1,72=1,74=-55/1,2,3;
 4//1;
 5/5=2,38=5,53=1/2;
 6/7=2,8=2,9=2,10=2,28=1/1;
 7//1,2,3,16;
 1/18=20,19=15,26=3/3(2);
 2/9=110/2;
 99//99;
 2/9=110/2;
 3/5=7,6=1,8=2,11=2,25=1,30=1,70=32205,71=1,72=1,74=-55,82=7/1,2,3;
 4/5=5,16=3,69=1/1;
 5/5=2,38=5,53=1/2;
 7//1,2,3,16;
 1/18=20,19=15,26=3/3(-5);
 2/9=110/2;
 6/7=2,8=2,9=2,10=2,19=2,28=1/1;
 99/9=1/99;
 -----------------
 A.33.smd.a1c3.smd
 -----------------
 Symbolic Z-matrix:
 Charge = -1 Multiplicity = 1
 C                    -1.63735   1.07476  -0.93259 
 C                    -2.76643   0.56398  -1.60861 
 C                    -4.13852   0.47103  -0.97816 
 C                    -2.67542   0.14294  -2.92714 
 H                    -3.54705  -0.24297  -3.44566 
 C                    -1.45291   0.20105  -3.6126 
 C                    -0.32848   0.7044   -2.94203 
 C                     0.94737   0.8665   -3.68756 
 C                    -0.43312   1.1332   -1.62092 
 S                    -1.60951   1.62261   0.80306 
 O                    -0.34952   2.40465   0.89591 
 O                    -2.83959   2.45557   0.93012 
 N                    -1.51336   0.40079   1.76866 
 H                    -2.42844  -0.0516    1.80739 
 N                    -1.34351  -0.1719   -4.93882 
 C                    -0.03431  -0.67494  -5.33099 
 N                     0.95378   0.3203   -4.9242 
 H                    -2.10411  -0.76272  -5.26766 
 F                    -4.93728  -0.38083  -1.64871 
 F                    -4.78108   1.65205  -0.97066 
 F                    -4.10576   0.02379   0.28973 
 H                     1.83982   0.34018  -5.42513 
 C                     0.01744  -0.90633  -6.83655 
 C                    -1.04885  -1.86982  -7.29858 
 C                    -0.72695  -3.19049  -7.62663 
 H                     0.31008  -3.51563  -7.57478 
 C                    -1.7203   -4.08774  -8.02454 
 H                    -1.45363  -5.10948  -8.27963 
 C                    -3.04897  -3.67174  -8.0965 
 H                    -3.82296  -4.36725  -8.40798 
 C                    -3.38032  -2.35453  -7.77013 
 H                    -4.41314  -2.02272  -7.8281 
 C                    -2.38653  -1.4615   -7.37413 
 H                    -2.64586  -0.43424  -7.12599 
 H                     0.17549  -1.62243  -4.80925 
 H                     1.01308  -1.2776   -7.10065 
 H                    -0.12307   0.06873  -7.3166 
 O                     1.90674   1.50502  -3.23489 
 H                     0.44775   1.53173  -1.12875 
 

 GradGradGradGradGradGradGradGradGradGradGradGradGradGradGradGradGradGrad
 Berny optimization.
 Initialization pass.
                           ----------------------------
                           !    Initial Parameters    !
                           ! (Angstroms and Degrees)  !
 --------------------------                            --------------------------
 ! Name  Definition              Value          Derivative Info.                !
 --------------------------------------------------------------------------------
 ! R1    R(1,2)                  1.4116         estimate D2E/DX2                !
 ! R2    R(1,9)                  1.3883         estimate D2E/DX2                !
 ! R3    R(1,10)                 1.8203         estimate D2E/DX2                !
 ! R4    R(2,3)                  1.5129         estimate D2E/DX2                !
 ! R5    R(2,4)                  1.3871         estimate D2E/DX2                !
 ! R6    R(3,19)                 1.3466         estimate D2E/DX2                !
 ! R7    R(3,20)                 1.3445         estimate D2E/DX2                !
 ! R8    R(3,21)                 1.3448         estimate D2E/DX2                !
 ! R9    R(4,5)                  1.0851         estimate D2E/DX2                !
 ! R10   R(4,6)                  1.4028         estimate D2E/DX2                !
 ! R11   R(6,7)                  1.4026         estimate D2E/DX2                !
 ! R12   R(6,15)                 1.382          estimate D2E/DX2                !
 ! R13   R(7,8)                  1.4866         estimate D2E/DX2                !
 ! R14   R(7,9)                  1.3929         estimate D2E/DX2                !
 ! R15   R(8,17)                 1.3519         estimate D2E/DX2                !
 ! R16   R(8,38)                 1.2381         estimate D2E/DX2                !
 ! R17   R(9,39)                 1.0849         estimate D2E/DX2                !
 ! R18   R(10,11)                1.4859         estimate D2E/DX2                !
 ! R19   R(10,12)                1.491          estimate D2E/DX2                !
 ! R20   R(10,13)                1.5603         estimate D2E/DX2                !
 ! R21   R(13,14)                1.0215         estimate D2E/DX2                !
 ! R22   R(15,16)                1.4563         estimate D2E/DX2                !
 ! R23   R(15,18)                1.0177         estimate D2E/DX2                !
 ! R24   R(16,17)                1.4602         estimate D2E/DX2                !
 ! R25   R(16,23)                1.5241         estimate D2E/DX2                !
 ! R26   R(16,35)                1.1018         estimate D2E/DX2                !
 ! R27   R(17,22)                1.018          estimate D2E/DX2                !
 ! R28   R(23,24)                1.5096         estimate D2E/DX2                !
 ! R29   R(23,36)                1.0949         estimate D2E/DX2                !
 ! R30   R(23,37)                1.0959         estimate D2E/DX2                !
 ! R31   R(24,25)                1.3984         estimate D2E/DX2                !
 ! R32   R(24,33)                1.4006         estimate D2E/DX2                !
 ! R33   R(25,26)                1.088          estimate D2E/DX2                !
 ! R34   R(25,27)                1.3965         estimate D2E/DX2                !
 ! R35   R(27,28)                1.0863         estimate D2E/DX2                !
 ! R36   R(27,29)                1.3941         estimate D2E/DX2                !
 ! R37   R(29,30)                1.0862         estimate D2E/DX2                !
 ! R38   R(29,31)                1.3969         estimate D2E/DX2                !
 ! R39   R(31,32)                1.0864         estimate D2E/DX2                !
 ! R40   R(31,33)                1.3935         estimate D2E/DX2                !
 ! R41   R(33,34)                1.0882         estimate D2E/DX2                !
 ! A1    A(2,1,9)              118.1371         estimate D2E/DX2                !
 ! A2    A(2,1,10)             125.2933         estimate D2E/DX2                !
 ! A3    A(9,1,10)             116.5398         estimate D2E/DX2                !
 ! A4    A(1,2,3)              123.2352         estimate D2E/DX2                !
 ! A5    A(1,2,4)              120.8348         estimate D2E/DX2                !
 ! A6    A(3,2,4)              115.9116         estimate D2E/DX2                !
 ! A7    A(2,3,19)             111.6742         estimate D2E/DX2                !
 ! A8    A(2,3,20)             112.4443         estimate D2E/DX2                !
 ! A9    A(2,3,21)             113.0305         estimate D2E/DX2                !
 ! A10   A(19,3,20)            105.9604         estimate D2E/DX2                !
 ! A11   A(19,3,21)            105.8753         estimate D2E/DX2                !
 ! A12   A(20,3,21)            107.3673         estimate D2E/DX2                !
 ! A13   A(2,4,5)              120.6272         estimate D2E/DX2                !
 ! A14   A(2,4,6)              120.6034         estimate D2E/DX2                !
 ! A15   A(5,4,6)              118.7684         estimate D2E/DX2                !
 ! A16   A(4,6,7)              118.6787         estimate D2E/DX2                !
 ! A17   A(4,6,15)             121.7851         estimate D2E/DX2                !
 ! A18   A(7,6,15)             119.4832         estimate D2E/DX2                !
 ! A19   A(6,7,8)              119.1695         estimate D2E/DX2                !
 ! A20   A(6,7,9)              120.2447         estimate D2E/DX2                !
 ! A21   A(8,7,9)              120.4357         estimate D2E/DX2                !
 ! A22   A(7,8,17)             114.7562         estimate D2E/DX2                !
 ! A23   A(7,8,38)             122.5404         estimate D2E/DX2                !
 ! A24   A(17,8,38)            122.6234         estimate D2E/DX2                !
 ! A25   A(1,9,7)              121.4974         estimate D2E/DX2                !
 ! A26   A(1,9,39)             119.6581         estimate D2E/DX2                !
 ! A27   A(7,9,39)             118.8403         estimate D2E/DX2                !
 ! A28   A(1,10,11)            103.3534         estimate D2E/DX2                !
 ! A29   A(1,10,12)            103.6961         estimate D2E/DX2                !
 ! A30   A(1,10,13)            110.8152         estimate D2E/DX2                !
 ! A31   A(11,10,12)           113.5927         estimate D2E/DX2                !
 ! A32   A(11,10,13)           108.7371         estimate D2E/DX2                !
 ! A33   A(12,10,13)           115.8222         estimate D2E/DX2                !
 ! A34   A(10,13,14)           108.3638         estimate D2E/DX2                !
 ! A35   A(6,15,16)            115.0115         estimate D2E/DX2                !
 ! A36   A(6,15,18)            114.0526         estimate D2E/DX2                !
 ! A37   A(16,15,18)           112.6027         estimate D2E/DX2                !
 ! A38   A(15,16,17)           107.3297         estimate D2E/DX2                !
 ! A39   A(15,16,23)           110.4246         estimate D2E/DX2                !
 ! A40   A(15,16,35)           109.9201         estimate D2E/DX2                !
 ! A41   A(17,16,23)           110.8355         estimate D2E/DX2                !
 ! A42   A(17,16,35)           108.9863         estimate D2E/DX2                !
 ! A43   A(23,16,35)           109.3136         estimate D2E/DX2                !
 ! A44   A(8,17,16)            121.802          estimate D2E/DX2                !
 ! A45   A(8,17,22)            116.5087         estimate D2E/DX2                !
 ! A46   A(16,17,22)           117.721          estimate D2E/DX2                !
 ! A47   A(16,23,24)           112.0406         estimate D2E/DX2                !
 ! A48   A(16,23,36)           108.7003         estimate D2E/DX2                !
 ! A49   A(16,23,37)           107.0548         estimate D2E/DX2                !
 ! A50   A(24,23,36)           110.613          estimate D2E/DX2                !
 ! A51   A(24,23,37)           110.0751         estimate D2E/DX2                !
 ! A52   A(36,23,37)           108.2177         estimate D2E/DX2                !
 ! A53   A(23,24,25)           120.7974         estimate D2E/DX2                !
 ! A54   A(23,24,33)           120.3343         estimate D2E/DX2                !
 ! A55   A(25,24,33)           118.8501         estimate D2E/DX2                !
 ! A56   A(24,25,26)           119.3705         estimate D2E/DX2                !
 ! A57   A(24,25,27)           120.6584         estimate D2E/DX2                !
 ! A58   A(26,25,27)           119.9703         estimate D2E/DX2                !
 ! A59   A(25,27,28)           119.7755         estimate D2E/DX2                !
 ! A60   A(25,27,29)           120.0605         estimate D2E/DX2                !
 ! A61   A(28,27,29)           120.1638         estimate D2E/DX2                !
 ! A62   A(27,29,30)           120.1889         estimate D2E/DX2                !
 ! A63   A(27,29,31)           119.694          estimate D2E/DX2                !
 ! A64   A(30,29,31)           120.1167         estimate D2E/DX2                !
 ! A65   A(29,31,32)           120.069          estimate D2E/DX2                !
 ! A66   A(29,31,33)           120.1003         estimate D2E/DX2                !
 ! A67   A(32,31,33)           119.8303         estimate D2E/DX2                !
 ! A68   A(24,33,31)           120.6366         estimate D2E/DX2                !
 ! A69   A(24,33,34)           119.3742         estimate D2E/DX2                !
 ! A70   A(31,33,34)           119.9881         estimate D2E/DX2                !
 ! D1    D(9,1,2,3)           -178.8867         estimate D2E/DX2                !
 ! D2    D(9,1,2,4)             -0.5134         estimate D2E/DX2                !
 ! D3    D(10,1,2,3)             3.1713         estimate D2E/DX2                !
 ! D4    D(10,1,2,4)          -178.4555         estimate D2E/DX2                !
 ! D5    D(2,1,9,7)              0.0609         estimate D2E/DX2                !
 ! D6    D(2,1,9,39)           179.3171         estimate D2E/DX2                !
 ! D7    D(10,1,9,7)           178.1834         estimate D2E/DX2                !
 ! D8    D(10,1,9,39)           -2.5604         estimate D2E/DX2                !
 ! D9    D(2,1,10,11)         -164.4789         estimate D2E/DX2                !
 ! D10   D(2,1,10,12)          -45.7124         estimate D2E/DX2                !
 ! D11   D(2,1,10,13)           79.197          estimate D2E/DX2                !
 ! D12   D(9,1,10,11)           17.5496         estimate D2E/DX2                !
 ! D13   D(9,1,10,12)          136.3161         estimate D2E/DX2                !
 ! D14   D(9,1,10,13)          -98.7745         estimate D2E/DX2                !
 ! D15   D(1,2,3,19)          -162.0325         estimate D2E/DX2                !
 ! D16   D(1,2,3,20)            79.0001         estimate D2E/DX2                !
 ! D17   D(1,2,3,21)           -42.7711         estimate D2E/DX2                !
 ! D18   D(4,2,3,19)            19.5204         estimate D2E/DX2                !
 ! D19   D(4,2,3,20)           -99.447          estimate D2E/DX2                !
 ! D20   D(4,2,3,21)           138.7818         estimate D2E/DX2                !
 ! D21   D(1,2,4,5)           -179.5888         estimate D2E/DX2                !
 ! D22   D(1,2,4,6)              0.7779         estimate D2E/DX2                !
 ! D23   D(3,2,4,5)             -1.1016         estimate D2E/DX2                !
 ! D24   D(3,2,4,6)            179.2652         estimate D2E/DX2                !
 ! D25   D(2,4,6,7)             -0.5722         estimate D2E/DX2                !
 ! D26   D(2,4,6,15)          -177.9086         estimate D2E/DX2                !
 ! D27   D(5,4,6,7)            179.7879         estimate D2E/DX2                !
 ! D28   D(5,4,6,15)             2.4515         estimate D2E/DX2                !
 ! D29   D(4,6,7,8)           -175.4444         estimate D2E/DX2                !
 ! D30   D(4,6,7,9)              0.122          estimate D2E/DX2                !
 ! D31   D(15,6,7,8)             1.9547         estimate D2E/DX2                !
 ! D32   D(15,6,7,9)           177.5211         estimate D2E/DX2                !
 ! D33   D(4,6,15,16)         -151.6671         estimate D2E/DX2                !
 ! D34   D(4,6,15,18)          -19.3935         estimate D2E/DX2                !
 ! D35   D(7,6,15,16)           31.0174         estimate D2E/DX2                !
 ! D36   D(7,6,15,18)          163.291          estimate D2E/DX2                !
 ! D37   D(6,7,8,17)            -9.2563         estimate D2E/DX2                !
 ! D38   D(6,7,8,38)           167.5697         estimate D2E/DX2                !
 ! D39   D(9,7,8,17)           175.186          estimate D2E/DX2                !
 ! D40   D(9,7,8,38)            -7.9881         estimate D2E/DX2                !
 ! D41   D(6,7,9,1)              0.1297         estimate D2E/DX2                !
 ! D42   D(6,7,9,39)          -179.1324         estimate D2E/DX2                !
 ! D43   D(8,7,9,1)            175.6396         estimate D2E/DX2                !
 ! D44   D(8,7,9,39)            -3.6225         estimate D2E/DX2                !
 ! D45   D(7,8,17,16)          -17.5024         estimate D2E/DX2                !
 ! D46   D(7,8,17,22)         -174.5623         estimate D2E/DX2                !
 ! D47   D(38,8,17,16)         165.6746         estimate D2E/DX2                !
 ! D48   D(38,8,17,22)           8.6147         estimate D2E/DX2                !
 ! D49   D(1,10,13,14)         -75.4553         estimate D2E/DX2                !
 ! D50   D(11,10,13,14)        171.5986         estimate D2E/DX2                !
 ! D51   D(12,10,13,14)         42.2786         estimate D2E/DX2                !
 ! D52   D(6,15,16,17)         -52.7497         estimate D2E/DX2                !
 ! D53   D(6,15,16,23)        -173.6665         estimate D2E/DX2                !
 ! D54   D(6,15,16,35)          65.6474         estimate D2E/DX2                !
 ! D55   D(18,15,16,17)        174.297          estimate D2E/DX2                !
 ! D56   D(18,15,16,23)         53.3802         estimate D2E/DX2                !
 ! D57   D(18,15,16,35)        -67.3059         estimate D2E/DX2                !
 ! D58   D(15,16,17,8)          47.5944         estimate D2E/DX2                !
 ! D59   D(15,16,17,22)       -155.6102         estimate D2E/DX2                !
 ! D60   D(23,16,17,8)         168.2515         estimate D2E/DX2                !
 ! D61   D(23,16,17,22)        -34.9531         estimate D2E/DX2                !
 ! D62   D(35,16,17,8)         -71.4052         estimate D2E/DX2                !
 ! D63   D(35,16,17,22)         85.3902         estimate D2E/DX2                !
 ! D64   D(15,16,23,24)        -57.785          estimate D2E/DX2                !
 ! D65   D(15,16,23,36)        179.6663         estimate D2E/DX2                !
 ! D66   D(15,16,23,37)         62.982          estimate D2E/DX2                !
 ! D67   D(17,16,23,24)       -176.5889         estimate D2E/DX2                !
 ! D68   D(17,16,23,36)         60.8625         estimate D2E/DX2                !
 ! D69   D(17,16,23,37)        -55.8219         estimate D2E/DX2                !
 ! D70   D(35,16,23,24)         63.2628         estimate D2E/DX2                !
 ! D71   D(35,16,23,36)        -59.2859         estimate D2E/DX2                !
 ! D72   D(35,16,23,37)       -175.9702         estimate D2E/DX2                !
 ! D73   D(16,23,24,25)       -103.8656         estimate D2E/DX2                !
 ! D74   D(16,23,24,33)         74.5644         estimate D2E/DX2                !
 ! D75   D(36,23,24,25)         17.5898         estimate D2E/DX2                !
 ! D76   D(36,23,24,33)       -163.9802         estimate D2E/DX2                !
 ! D77   D(37,23,24,25)        137.1329         estimate D2E/DX2                !
 ! D78   D(37,23,24,33)        -44.4371         estimate D2E/DX2                !
 ! D79   D(23,24,25,26)         -1.7941         estimate D2E/DX2                !
 ! D80   D(23,24,25,27)        178.5346         estimate D2E/DX2                !
 ! D81   D(33,24,25,26)        179.753          estimate D2E/DX2                !
 ! D82   D(33,24,25,27)          0.0817         estimate D2E/DX2                !
 ! D83   D(23,24,33,31)       -178.5065         estimate D2E/DX2                !
 ! D84   D(23,24,33,34)          1.8709         estimate D2E/DX2                !
 ! D85   D(25,24,33,31)         -0.0462         estimate D2E/DX2                !
 ! D86   D(25,24,33,34)       -179.6688         estimate D2E/DX2                !
 ! D87   D(24,25,27,28)        179.7779         estimate D2E/DX2                !
 ! D88   D(24,25,27,29)         -0.0882         estimate D2E/DX2                !
 ! D89   D(26,25,27,28)          0.1086         estimate D2E/DX2                !
 ! D90   D(26,25,27,29)       -179.7575         estimate D2E/DX2                !
 ! D91   D(25,27,29,30)        179.8571         estimate D2E/DX2                !
 ! D92   D(25,27,29,31)          0.0575         estimate D2E/DX2                !
 ! D93   D(28,27,29,30)         -0.0085         estimate D2E/DX2                !
 ! D94   D(28,27,29,31)       -179.808          estimate D2E/DX2                !
 ! D95   D(27,29,31,32)        179.7428         estimate D2E/DX2                !
 ! D96   D(27,29,31,33)         -0.0223         estimate D2E/DX2                !
 ! D97   D(30,29,31,32)         -0.0569         estimate D2E/DX2                !
 ! D98   D(30,29,31,33)       -179.822          estimate D2E/DX2                !
 ! D99   D(29,31,33,24)          0.017          estimate D2E/DX2                !
 ! D100  D(29,31,33,34)        179.6373         estimate D2E/DX2                !
 ! D101  D(32,31,33,24)       -179.7487         estimate D2E/DX2                !
 ! D102  D(32,31,33,34)         -0.1284         estimate D2E/DX2                !
 --------------------------------------------------------------------------------
 Trust Radius=3.00D-01 FncErr=1.00D-07 GrdErr=1.00D-06 EigMax=2.50D+02 EigMin=1.00D-04
 Number of steps in this run=    223 maximum allowed number of steps=    234.
 GradGradGradGradGradGradGradGradGradGradGradGradGradGradGradGradGradGrad

                          Input orientation:                          
 ---------------------------------------------------------------------
 Center     Atomic      Atomic             Coordinates (Angstroms)
 Number     Number       Type             X           Y           Z
 ---------------------------------------------------------------------
      1          6           0       -1.637352    1.074762   -0.932594
      2          6           0       -2.766432    0.563984   -1.608614
      3          6           0       -4.138520    0.471025   -0.978157
      4          6           0       -2.675420    0.142943   -2.927144
      5          1           0       -3.547054   -0.242970   -3.445656
      6          6           0       -1.452908    0.201051   -3.612600
      7          6           0       -0.328479    0.704399   -2.942029
      8          6           0        0.947368    0.866503   -3.687555
      9          6           0       -0.433121    1.133199   -1.620921
     10         16           0       -1.609508    1.622605    0.803063
     11          8           0       -0.349522    2.404646    0.895905
     12          8           0       -2.839589    2.455568    0.930117
     13          7           0       -1.513358    0.400790    1.768658
     14          1           0       -2.428439   -0.051599    1.807388
     15          7           0       -1.343505   -0.171901   -4.938823
     16          6           0       -0.034312   -0.674935   -5.330987
     17          7           0        0.953775    0.320296   -4.924198
     18          1           0       -2.104108   -0.762716   -5.267655
     19          9           0       -4.937278   -0.380831   -1.648711
     20          9           0       -4.781075    1.652053   -0.970657
     21          9           0       -4.105755    0.023794    0.289727
     22          1           0        1.839824    0.340175   -5.425128
     23          6           0        0.017437   -0.906328   -6.836546
     24          6           0       -1.048850   -1.869820   -7.298579
     25          6           0       -0.726951   -3.190492   -7.626630
     26          1           0        0.310078   -3.515633   -7.574783
     27          6           0       -1.720296   -4.087741   -8.024544
     28          1           0       -1.453630   -5.109478   -8.279630
     29          6           0       -3.048972   -3.671743   -8.096504
     30          1           0       -3.822961   -4.367247   -8.407979
     31          6           0       -3.380316   -2.354529   -7.770128
     32          1           0       -4.413144   -2.022723   -7.828100
     33          6           0       -2.386529   -1.461500   -7.374129
     34          1           0       -2.645857   -0.434240   -7.125990
     35          1           0        0.175490   -1.622429   -4.809254
     36          1           0        1.013083   -1.277601   -7.100648
     37          1           0       -0.123074    0.068726   -7.316599
     38          8           0        1.906739    1.505022   -3.234886
     39          1           0        0.447746    1.531733   -1.128750
 ---------------------------------------------------------------------
                    Distance matrix (angstroms):
                    1          2          3          4          5
     1  C    0.000000
     2  C    1.411637   0.000000
     3  C    2.573405   1.512859   0.000000
     4  C    2.433948   1.387112   2.459034   0.000000
     5  H    3.420360   2.152967   2.635939   1.085140   0.000000
     6  C    2.824858   2.423433   3.771696   1.402769   2.147201
     7  C    2.426550   2.782324   4.292746   2.413211   3.392694
     8  C    3.783379   4.266828   5.776114   3.771784   4.635653
     9  C    1.388302   2.401770   3.818586   2.777540   3.862652
    10  S    1.820278   2.876689   3.300725   4.152109   5.028525
    11  O    2.602020   3.937271   4.648387   5.014061   6.006932
    12  O    2.611837   3.166796   3.044198   4.500405   5.189413
    13  N    2.786822   3.605939   3.800184   4.844319   5.633775
    14  H    3.066270   3.487442   3.310102   4.744959   5.374234
    15  N    4.205994   3.695476   4.890024   2.433100   2.662748
    16  C    4.997703   4.780739   6.091377   3.663719   4.010040
    17  N    4.818305   4.989231   6.444023   4.146171   4.770830
    18  H    4.731484   3.948086   4.905175   2.573831   2.381577
    19  F    3.677103   2.367880   1.346594   2.650421   2.276124
    20  F    3.196515   2.376903   1.344530   3.246388   3.352542
    21  F    2.948155   2.385223   1.344849   3.522544   3.786343
    22  H    5.728284   5.986106   7.452065   5.163938   5.768607
    23  C    6.443578   6.102706   7.313672   4.861674   4.964250
    24  C    7.038655   6.422553   7.414402   5.079999   4.871620
    25  C    7.989452   7.380521   8.321520   6.082227   5.841353
    26  H    8.305594   7.855149   8.899379   6.625626   6.529738
    27  C    8.772347   7.993566   8.733941   6.692865   6.251842
    28  H    9.605078   8.855172   9.574036   7.598013   7.171655
    29  C    8.708822   7.753317   8.307858   6.435344   5.799565
    30  H    9.501249   8.465498   8.871906   7.190147   6.458362
    31  C    7.845370   6.845351   7.395235   5.494428   4.815344
    32  H    8.052791   6.934315   7.294924   5.632865   4.808685
    33  C    6.963280   6.122751   6.907430   4.736388   4.273703
    34  H    6.453861   5.608246   6.390884   4.238434   3.793890
    35  H    5.058629   4.866149   6.137633   3.845330   4.197576
    36  H    7.113600   6.916546   8.190336   5.748142   5.935004
    37  H    6.637821   6.309811   7.514087   5.078119   5.177354
    38  O    4.248088   5.036749   6.535069   4.790214   5.730947
    39  H    2.143580   3.390833   4.709736   3.862269   4.947328
                    6          7          8          9         10
     6  C    0.000000
     7  C    1.402628   0.000000
     8  C    2.491941   1.486564   0.000000
     9  C    2.423974   1.392891   2.499571   0.000000
    10  S    4.641489   4.063232   5.222543   2.738449   0.000000
    11  O    5.138084   4.197740   5.005588   2.820989   1.485857
    12  O    5.257567   4.936171   6.179730   3.748005   1.490996
    13  N    5.385303   4.866897   6.003526   3.632159   1.560273
    14  H    5.512872   5.247697   6.514091   4.139848   2.117139
    15  N    1.382002   2.405279   2.809280   3.679750   6.021650
    16  C    2.394289   2.774206   2.457762   4.146443   6.736950
    17  N    2.743471   2.391799   1.351913   3.673681   6.408428
    18  H    2.022898   3.273197   3.802969   4.436819   6.541254
    19  F    4.041817   4.908302   6.351518   4.751893   4.593365
    20  F    4.490208   4.960843   6.388559   4.426822   3.633977
    21  F    4.721988   5.017498   6.485598   4.285977   3.008481
    22  H    3.761210   3.316621   2.023032   4.501906   7.234147
    23  C    3.712416   4.228636   3.731467   5.618311   8.210120
    24  C    4.247141   5.111269   4.950944   6.452367   8.840134
    25  C    5.304905   6.105280   5.897361   7.406023   9.747027
    26  H    5.711458   6.299114   5.892351   7.590287  10.013721
    27  C    6.158773   7.122761   7.104255   8.361903  10.514132
    28  H    7.069858   7.972272   7.909759   9.184272  11.306660
    29  C    6.136069   7.288368   7.483665   8.477224  10.454878
    30  H    7.034356   8.234659   8.510616   9.370703  11.208077
    31  C    5.246992   6.479297   6.765449   7.659174   9.615246
    32  H    5.610580   6.927869   7.363887   8.020567   9.779865
    33  C    4.217206   5.345110   5.488651   6.606638   8.773935
    34  H    3.764390   4.916530   5.140626   6.136681   8.256786
    35  H    2.721900   3.025664   2.837038   4.257859   6.724178
    36  H    4.520398   4.798148   4.031216   6.158804   8.818040
    37  H    3.937712   4.425284   3.866815   5.802584   8.399580
    38  O    3.623567   2.392271   1.238147   2.866719   5.355637
    39  H    3.398928   2.138922   2.690657   1.084891   2.823553
                   11         12         13         14         15
    11  O    0.000000
    12  O    2.490823   0.000000
    13  N    2.476217   2.585373   0.000000
    14  H    3.344523   2.687850   1.021533   0.000000
    15  N    6.455281   6.601993   6.734028   6.833953   0.000000
    16  C    6.953946   7.541290   7.331420   7.554918   1.456304
    17  N    6.317966   7.295341   7.133551   7.542674   2.349461
    18  H    7.148442   7.022155   7.156286   7.118083   1.017698
    19  F    5.939820   4.369876   4.900262   4.283373   4.876853
    20  F    4.867146   2.833363   4.443814   4.019311   5.557881
    21  F    4.488340   2.815457   3.008303   2.263265   5.916592
    22  H    7.000767   8.170736   7.937132   8.407190   3.260720
    23  C    8.419502   8.932301   8.837501   9.023883   2.448040
    24  C    9.268748   9.467162   9.358751   9.387642   2.922020
    25  C   10.202040  10.467051  10.088963  10.087042   4.088562
    26  H   10.355546  10.858590  10.293842  10.369385   4.567621
    27  C   11.117757  11.146913  10.774810  10.651704   4.999745
    28  H   11.910985  11.998760  11.460136  11.326090   5.962616
    29  C   11.183602  10.911813  10.782628  10.563029   5.012830
    30  H   12.020215  11.606802  11.473116  11.176906   5.981946
    31  C   10.340966   9.956088  10.102760   9.896382   4.114456
    32  H   10.593530   9.961804  10.314065  10.033295   4.603927
    33  C    9.353606   9.192888   9.371292   9.289232   2.946469
    34  H    8.813809   8.560922   9.005254   8.944212   2.559031
    35  H    7.002986   7.659056   7.086222   7.282026   2.104321
    36  H    8.908451   9.657785   9.373606   9.628097   3.383721
    37  H    8.541254   9.004710   9.197013   9.411500   2.683500
    38  O    4.792022   6.385798   6.160507   6.829448   4.034793
    39  H    2.344534   3.987352   3.676946   4.404576   4.541762
                   16         17         18         19         20
    16  C    0.000000
    17  N    1.460232   0.000000
    18  H    2.072624   3.262135   0.000000
    19  F    6.138789   6.776791   4.611881   0.000000
    20  F    6.852672   7.091725   5.609051   2.148668   0.000000
    21  F    6.975478   7.271298   5.959000   2.147718   2.166992
    22  H    2.133471   1.018042   4.098264   7.791681   8.087004
    23  C    1.524116   2.457318   2.642536   7.192981   7.998730
    24  C    2.515642   3.800632   2.542420   7.018402   8.147128
    25  C    3.475306   4.738524   3.654507   7.833043   9.175410
    26  H    3.636315   4.706835   4.327781   8.513522   9.810163
    27  C    4.663157   6.016111   4.336305   8.046204   9.595360
    28  H    5.511273   6.821801   5.328176   8.858047  10.498156
    29  C    5.071205   6.482429   4.166244   7.481299   9.062046
    30  H    6.120042   7.544998   5.080230   7.925965   9.615805
    31  C    4.468354   5.834240   3.228769   6.617504   8.015462
    32  H    5.217880   6.536528   3.670851   6.415245   7.788702
    33  C    3.213415   4.509389   2.237251   6.360391   7.512158
    34  H    3.178071   4.286556   1.963364   5.937512   6.841045
    35  H    1.101802   2.095977   2.479073   6.137670   7.072807
    36  H    2.142882   2.700690   3.652650   8.120013   8.929274
    37  H    2.122161   2.635616   2.968832   7.450075   8.029625
    38  O    3.593540   2.272772   5.036038   7.274130   7.062238
    39  H    4.770803   4.016101   5.376522   5.738183   5.232594
                   21         22         23         24         25
    21  F    0.000000
    22  H    8.252852   0.000000
    23  C    8.285506   2.620489   0.000000
    24  C    8.397192   4.091251   1.509556   0.000000
    25  C    9.187854   4.888819   2.528982   1.398360   0.000000
    26  H    9.689048   4.672087   2.727472   2.152133   1.088041
    27  C    9.577173   6.248028   3.814767   2.428382   1.396469
    28  H   10.335286   6.978090   4.681132   3.409060   2.153364
    29  C    9.225110   6.865279   4.317161   2.807864   2.417471
    30  H    9.747374   7.945084   5.403334   3.894047   3.403019
    31  C    8.434687   6.325371   3.809670   2.427557   2.785637
    32  H    8.377460   7.103321   4.675421   3.409142   3.871988
    33  C    7.993530   4.990661   2.525127   1.400649   2.409848
    34  H    7.571919   4.859422   2.720254   2.154323   3.395551
    35  H    6.858478   2.645964   2.155851   2.785130   3.348258
    36  H    9.083709   2.471450   1.094945   2.154407   2.638850
    37  H    8.586033   2.739401   1.095867   2.148336   3.329157
    38  O    7.125098   2.481634   4.728216   6.052988   6.947776
    39  H    5.002032   4.670820   6.221595   7.202580   8.117990
                   26         27         28         29         30
    26  H    0.000000
    27  C    2.156852   0.000000
    28  H    2.479479   1.086336   0.000000
    29  C    3.402908   1.394135   2.155396   0.000000
    30  H    4.301334   2.155538   2.486184   1.086187   0.000000
    31  C    3.873671   2.413383   3.400214   1.396912   2.157272
    32  H    4.960018   3.399165   4.300077   2.156913   2.486236
    33  C    3.395794   2.786404   3.872722   2.417815   3.402286
    34  H    4.293478   3.874549   4.960861   3.403796   4.300885
    35  H    3.354174   4.473238   5.182379   5.040125   6.039243
    36  H    2.393284   4.027633   4.707223   4.819122   5.885775
    37  H    3.619656   4.508716   5.432458   4.812509   5.878616
    38  O    6.825761   8.208240   8.971796   8.659867   9.699170
    39  H    8.188174   9.155920   9.942635   9.372982  10.296799
                   31         32         33         34         35
    31  C    0.000000
    32  H    1.086365   0.000000
    33  C    1.393531   2.151332   0.000000
    34  H    2.154496   2.477810   1.088158   0.000000
    35  H    4.684709   5.507198   3.628832   3.839148   0.000000
    36  H    4.572738   5.525245   3.415549   3.754962   2.463931
    37  H    4.085031   4.800051   2.732788   2.579485   3.039066
    38  O    7.963511   8.572253   6.660761   6.295042   3.905996
    39  H    8.594475   9.007980   7.483136   7.028678   4.854788
                   36         37         38         39
    36  H    0.000000
    37  H    1.774848   0.000000
    38  O    4.846208   4.779484   0.000000
    39  H    6.623861   6.384019   2.562261   0.000000
 Stoichiometry    C16H13F3N3O3S(1-)
 Framework group  C1[X(C16H13F3N3O3S)]
 Deg. of freedom   111
 Full point group                 C1      NOp   1
 Largest Abelian subgroup         C1      NOp   1
 Largest concise Abelian subgroup C1      NOp   1
                         Standard orientation:                         
 ---------------------------------------------------------------------
 Center     Atomic      Atomic             Coordinates (Angstroms)
 Number     Number       Type             X           Y           Z
 ---------------------------------------------------------------------
      1          6           0       -2.391794    0.339493    0.042473
      2          6           0       -1.684195   -0.866774   -0.149737
      3          6           0       -2.353645   -2.222726   -0.194165
      4          6           0       -0.310820   -0.862159   -0.344415
      5          1           0        0.228819   -1.790917   -0.498459
      6          6           0        0.407301    0.342841   -0.338160
      7          6           0       -0.292711    1.542596   -0.143386
      8          6           0        0.440387    2.832480   -0.236321
      9          6           0       -1.673145    1.527316    0.041855
     10         16           0       -4.181489    0.471831    0.347248
     11          8           0       -4.468018    1.907115    0.091052
     12          8           0       -4.780557   -0.445970   -0.663607
     13          7           0       -4.515250    0.152356    1.837546
     14          1           0       -4.451926   -0.858305    1.972017
     15          7           0        1.768918    0.380018   -0.571715
     16          6           0        2.473005    1.484150    0.065446
     17          7           0        1.784996    2.715176   -0.313362
     18          1           0        2.237586   -0.513083   -0.435960
     19          9           0       -1.470456   -3.220087    0.002217
     20          9           0       -2.933029   -2.470483   -1.381890
     21          9           0       -3.296956   -2.375023    0.752190
     22          1           0        2.318697    3.581839   -0.291746
     23          6           0        3.928995    1.516554   -0.383968
     24          6           0        4.644844    0.222941   -0.079201
     25          6           0        5.538277    0.134434    0.992879
     26          1           0        5.739208    1.018495    1.594459
     27          6           0        6.175828   -1.071759    1.290792
     28          1           0        6.870030   -1.123424    2.124782
     29          6           0        5.923605   -2.204426    0.518094
     30          1           0        6.420108   -3.143098    0.746525
     31          6           0        5.032170   -2.125903   -0.554538
     32          1           0        4.834323   -3.003697   -1.163246
     33          6           0        4.398190   -0.920519   -0.849577
     34          1           0        3.708627   -0.859927   -1.689171
     35          1           0        2.432141    1.373193    1.160885
     36          1           0        4.428978    2.358490    0.105998
     37          1           0        3.927882    1.700367   -1.464308
     38          8           0       -0.139113    3.924772   -0.300246
     39          1           0       -2.193576    2.469688    0.176300
 ---------------------------------------------------------------------
 Rotational constants (GHZ):           0.3354774           0.1019561           0.0829786
 General basis read from cards:  (6D, 7F)
 There are   524 symmetry adapted cartesian basis functions of A   symmetry.
 There are   524 symmetry adapted basis functions of A   symmetry.
   524 basis functions,   908 primitive gaussians,   524 cartesian basis functions
    99 alpha electrons       99 beta electrons
       nuclear repulsion energy      2545.0112867144 Hartrees.
 NAtoms=   39 NActive=   39 NUniq=   39 SFac= 1.00D+00 NAtFMM=   60 NAOKFM=F Big=F
 Integral buffers will be    131072 words long.
 Raffenetti 2 integral format.
 Two-electron integral symmetry is turned on.
 ------------------------------------------------------------------------------
 Polarizable Continuum Model (PCM)
 =================================
 Model                : PCM.
 Atomic radii         : SMD-Coulomb.
 Polarization charges : Total charges.
 Charge compensation  : None.
 Solution method      : On-the-fly selection.
 Cavity type          : VdW (van der Waals Surface) (Alpha=1.000).
 Cavity algorithm     : GePol (No added spheres)
                        Default sphere list used, NSphG=   39.
                        Lebedev-Laikov grids with approx.  5.0 points / Ang**2.
                        Smoothing algorithm: York/Karplus (Gamma=1.0000).
                        Polarization charges: spherical gaussians, with
                                              point-specific exponents (IZeta= 3).
                        Self-potential: point-specific (ISelfS= 7).
                        Self-field    : sphere-specific E.n sum rule (ISelfD= 2).
 1st derivatives      : Analytical E(r).r(x)/FMM algorithm (CHGder, D1EAlg=3).
                        Cavity 1st derivative terms included.
 Solvent              : Water, Eps=  78.355300 Eps(inf)=   1.777849
 ------------------------------------------------------------------------------
 ------------------------------------------------------------------------------
 Atomic radii for non-electrostatic terms: SMD-CDS.
 ------------------------------------------------------------------------------
 Nuclear repulsion after PCM non-electrostatic terms =     2545.0208361810 Hartrees.
 One-electron integrals computed using PRISM.
 NBasis=   524 RedAO= T EigKep=  1.20D-06  NBF=   524
 NBsUse=   521 1.00D-06 EigRej=  8.26D-07 NBFU=   521
 ExpMin= 4.05D-02 ExpMax= 2.19D+04 ExpMxC= 3.30D+03 IAcc=3 IRadAn=         5 AccDes= 0.00D+00
 Harris functional with IExCor= 1009 and IRadAn=       5 diagonalized for initial guess.
 HarFok:  IExCor= 1009 AccDes= 0.00D+00 IRadAn=         5 IDoV= 1 UseB2=F ITyADJ=14
 ICtDFT=  3500011 ScaDFX=  1.000000  1.000000  1.000000  1.000000
 FoFCou: FMM=F IPFlag=           0 FMFlag=      100000 FMFlg1=           0
         NFxFlg=           0 DoJE=T BraDBF=F KetDBF=T FulRan=T
         wScrn=  0.000000 ICntrl=       500 IOpCl=  0 I1Cent=   200000004 NGrid=           0
         NMat0=    1 NMatS0=      1 NMatT0=    0 NMatD0=    1 NMtDS0=    0 NMtDT0=    0
 Petite list used in FoFCou.
 Requested convergence on RMS density matrix=1.00D-08 within 128 cycles.
 Requested convergence on MAX density matrix=1.00D-06.
 Requested convergence on             energy=1.00D-06.
 No special actions if energy rises.
 Inv3:  Mode=1 IEnd=    25666875.
 Iteration    1 A*A^-1 deviation from unit magnitude is 6.66D-15 for   2918.
 Iteration    1 A*A^-1 deviation from orthogonality  is 2.51D-15 for   2923   2828.
 Iteration    1 A^-1*A deviation from unit magnitude is 6.44D-15 for   2918.
 Iteration    1 A^-1*A deviation from orthogonality  is 7.88D-14 for   1542   1506.
 Error on total polarization charges =  0.06512
 SCF Done:  E(RM062X) =  -1704.82879649     A.U. after   17 cycles
            NFock= 17  Conv=0.26D-08     -V/T= 2.0071
 SMD-CDS (non-electrostatic) energy       (kcal/mol) =       5.99
 (included in total energy above)

 **********************************************************************

            Population analysis using the SCF Density.

 **********************************************************************

 Orbital symmetries:
       Occupied  (A) (A) (A) (A) (A) (A) (A) (A) (A) (A) (A) (A)
                 (A) (A) (A) (A) (A) (A) (A) (A) (A) (A) (A) (A)
                 (A) (A) (A) (A) (A) (A) (A) (A) (A) (A) (A) (A)
                 (A) (A) (A) (A) (A) (A) (A) (A) (A) (A) (A) (A)
                 (A) (A) (A) (A) (A) (A) (A) (A) (A) (A) (A) (A)
                 (A) (A) (A) (A) (A) (A) (A) (A) (A) (A) (A) (A)
                 (A) (A) (A) (A) (A) (A) (A) (A) (A) (A) (A) (A)
                 (A) (A) (A) (A) (A) (A) (A) (A) (A) (A) (A) (A)
                 (A) (A) (A)
       Virtual   (A) (A) (A) (A) (A) (A) (A) (A) (A) (A) (A) (A)
                 (A) (A) (A) (A) (A) (A) (A) (A) (A) (A) (A) (A)
                 (A) (A) (A) (A) (A) (A) (A) (A) (A) (A) (A) (A)
                 (A) (A) (A) (A) (A) (A) (A) (A) (A) (A) (A) (A)
                 (A) (A) (A) (A) (A) (A) (A) (A) (A) (A) (A) (A)
                 (A) (A) (A) (A) (A) (A) (A) (A) (A) (A) (A) (A)
                 (A) (A) (A) (A) (A) (A) (A) (A) (A) (A) (A) (A)
                 (A) (A) (A) (A) (A) (A) (A) (A) (A) (A) (A) (A)
                 (A) (A) (A) (A) (A) (A) (A) (A) (A) (A) (A) (A)
                 (A) (A) (A) (A) (A) (A) (A) (A) (A) (A) (A) (A)
                 (A) (A) (A) (A) (A) (A) (A) (A) (A) (A) (A) (A)
                 (A) (A) (A) (A) (A) (A) (A) (A) (A) (A) (A) (A)
                 (A) (A) (A) (A) (A) (A) (A) (A) (A) (A) (A) (A)
                 (A) (A) (A) (A) (A) (A) (A) (A) (A) (A) (A) (A)
                 (A) (A) (A) (A) (A) (A) (A) (A) (A) (A) (A) (A)
                 (A) (A) (A) (A) (A) (A) (A) (A) (A) (A) (A) (A)
                 (A) (A) (A) (A) (A) (A) (A) (A) (A) (A) (A) (A)
                 (A) (A) (A) (A) (A) (A) (A) (A) (A) (A) (A) (A)
                 (A) (A) (A) (A) (A) (A) (A) (A) (A) (A) (A) (A)
                 (A) (A) (A) (A) (A) (A) (A) (A) (A) (A) (A) (A)
                 (A) (A) (A) (A) (A) (A) (A) (A) (A) (A) (A) (A)
                 (A) (A) (A) (A) (A) (A) (A) (A) (A) (A) (A) (A)
                 (A) (A) (A) (A) (A) (A) (A) (A) (A) (A) (A) (A)
                 (A) (A) (A) (A) (A) (A) (A) (A) (A) (A) (A) (A)
                 (A) (A) (A) (A) (A) (A) (A) (A) (A) (A) (A) (A)
                 (A) (A) (A) (A) (A) (A) (A) (A) (A) (A) (A) (A)
                 (A) (A) (A) (A) (A) (A) (A) (A) (A) (A) (A) (A)
                 (A) (A) (A) (A) (A) (A) (A) (A) (A) (A) (A) (A)
                 (A) (A) (A) (A) (A) (A) (A) (A) (A) (A) (A) (A)
                 (A) (A) (A) (A) (A) (A) (A) (A) (A) (A) (A) (A)
                 (A) (A) (A) (A) (A) (A) (A) (A) (A) (A) (A) (A)
                 (A) (A) (A) (A) (A) (A) (A) (A) (A) (A) (A) (A)
                 (A) (A) (A) (A) (A) (A) (A) (A) (A) (A) (A) (A)
                 (A) (A) (A) (A) (A) (A) (A) (A) (A) (A) (A) (A)
                 (A) (A) (A) (A) (A) (A) (A) (A) (A) (A) (A) (A)
                 (A) (A)
 The electronic state is 1-A.
 Alpha  occ. eigenvalues --  -90.13870 -25.30957 -25.30804 -25.30511 -19.63367
 Alpha  occ. eigenvalues --  -19.62055 -19.61972 -14.79925 -14.78834 -14.71872
 Alpha  occ. eigenvalues --  -10.82193 -10.67699 -10.63449 -10.62069 -10.60537
 Alpha  occ. eigenvalues --  -10.58968 -10.57811 -10.57728 -10.57659 -10.56694
 Alpha  occ. eigenvalues --  -10.55605 -10.55572 -10.55523 -10.55448 -10.55425
 Alpha  occ. eigenvalues --  -10.55358  -8.44683  -6.36927  -6.36838  -6.36764
 Alpha  occ. eigenvalues --   -1.47546  -1.38254  -1.37909  -1.21020  -1.17764
 Alpha  occ. eigenvalues --   -1.09852  -1.09368  -1.02382  -0.98732  -0.96741
 Alpha  occ. eigenvalues --   -0.96087  -0.91329  -0.89220  -0.86035  -0.84461
 Alpha  occ. eigenvalues --   -0.82853  -0.81430  -0.76145  -0.74127  -0.72817
 Alpha  occ. eigenvalues --   -0.70348  -0.69883  -0.69375  -0.68625  -0.68445
 Alpha  occ. eigenvalues --   -0.66401  -0.64207  -0.61490  -0.61186  -0.58913
 Alpha  occ. eigenvalues --   -0.58602  -0.58087  -0.58047  -0.56476  -0.55528
 Alpha  occ. eigenvalues --   -0.54840  -0.54663  -0.53858  -0.53201  -0.52618
 Alpha  occ. eigenvalues --   -0.52359  -0.51807  -0.51657  -0.51258  -0.50891
 Alpha  occ. eigenvalues --   -0.49462  -0.48722  -0.48252  -0.47591  -0.47071
 Alpha  occ. eigenvalues --   -0.45836  -0.44195  -0.43275  -0.43023  -0.41911
 Alpha  occ. eigenvalues --   -0.40038  -0.39935  -0.39684  -0.38869  -0.37508
 Alpha  occ. eigenvalues --   -0.36016  -0.35425  -0.33828  -0.33491  -0.33171
 Alpha  occ. eigenvalues --   -0.31113  -0.30798  -0.30277  -0.27115
 Alpha virt. eigenvalues --   -0.03554   0.00357   0.01181   0.01504   0.01654
 Alpha virt. eigenvalues --    0.02446   0.02651   0.03330   0.03805   0.03928
 Alpha virt. eigenvalues --    0.04511   0.04607   0.05036   0.05138   0.05629
 Alpha virt. eigenvalues --    0.05887   0.06513   0.06794   0.07062   0.07413
 Alpha virt. eigenvalues --    0.07999   0.08481   0.08564   0.09350   0.09603
 Alpha virt. eigenvalues --    0.09858   0.10465   0.10666   0.11108   0.11711
 Alpha virt. eigenvalues --    0.12107   0.12276   0.12899   0.12908   0.13416
 Alpha virt. eigenvalues --    0.13777   0.14091   0.14572   0.14949   0.15683
 Alpha virt. eigenvalues --    0.15720   0.16030   0.16465   0.16550   0.16880
 Alpha virt. eigenvalues --    0.17087   0.17426   0.17727   0.18364   0.18530
 Alpha virt. eigenvalues --    0.18757   0.19233   0.19610   0.19826   0.20044
 Alpha virt. eigenvalues --    0.20351   0.20707   0.21113   0.21162   0.21305
 Alpha virt. eigenvalues --    0.21612   0.21973   0.22465   0.22847   0.23058
 Alpha virt. eigenvalues --    0.23145   0.23334   0.23694   0.23978   0.24382
 Alpha virt. eigenvalues --    0.24885   0.24971   0.25296   0.25713   0.25910
 Alpha virt. eigenvalues --    0.25958   0.26621   0.26790   0.26977   0.27408
 Alpha virt. eigenvalues --    0.27482   0.27663   0.28042   0.28353   0.28752
 Alpha virt. eigenvalues --    0.28885   0.29322   0.29541   0.29976   0.30324
 Alpha virt. eigenvalues --    0.30511   0.30636   0.30793   0.31169   0.31589
 Alpha virt. eigenvalues --    0.31969   0.32072   0.32663   0.32868   0.32963
 Alpha virt. eigenvalues --    0.33382   0.33508   0.34254   0.34504   0.34747
 Alpha virt. eigenvalues --    0.35058   0.35181   0.35195   0.36042   0.36294
 Alpha virt. eigenvalues --    0.36486   0.36781   0.37227   0.37585   0.38000
 Alpha virt. eigenvalues --    0.38534   0.39097   0.39519   0.39600   0.40025
 Alpha virt. eigenvalues --    0.40604   0.41148   0.41292   0.41639   0.42382
 Alpha virt. eigenvalues --    0.42864   0.43179   0.43490   0.44066   0.44627
 Alpha virt. eigenvalues --    0.45441   0.46034   0.46430   0.47700   0.47790
 Alpha virt. eigenvalues --    0.49029   0.49390   0.49684   0.50888   0.51456
 Alpha virt. eigenvalues --    0.52466   0.53322   0.54650   0.55188   0.56453
 Alpha virt. eigenvalues --    0.60556   0.63007   0.63501   0.65646   0.67033
 Alpha virt. eigenvalues --    0.67334   0.68937   0.70872   0.71490   0.73003
 Alpha virt. eigenvalues --    0.73532   0.73900   0.74058   0.74450   0.74894
 Alpha virt. eigenvalues --    0.76201   0.77240   0.77741   0.78116   0.78650
 Alpha virt. eigenvalues --    0.79638   0.79907   0.80426   0.81329   0.82128
 Alpha virt. eigenvalues --    0.82946   0.83367   0.84444   0.85380   0.85722
 Alpha virt. eigenvalues --    0.86462   0.87635   0.88418   0.89362   0.90310
 Alpha virt. eigenvalues --    0.90943   0.91495   0.92349   0.93416   0.94135
 Alpha virt. eigenvalues --    0.95672   0.96960   0.97342   0.97389   0.98728
 Alpha virt. eigenvalues --    0.99777   1.01267   1.01994   1.02609   1.02713
 Alpha virt. eigenvalues --    1.02911   1.04693   1.06024   1.07150   1.07655
 Alpha virt. eigenvalues --    1.08575   1.09054   1.09410   1.10822   1.11791
 Alpha virt. eigenvalues --    1.12695   1.13016   1.14545   1.14876   1.16041
 Alpha virt. eigenvalues --    1.16538   1.17564   1.17856   1.19034   1.19387
 Alpha virt. eigenvalues --    1.20168   1.20858   1.21246   1.22206   1.22558
 Alpha virt. eigenvalues --    1.23341   1.23981   1.25440   1.25890   1.26427
 Alpha virt. eigenvalues --    1.27991   1.28187   1.29276   1.30030   1.31038
 Alpha virt. eigenvalues --    1.31793   1.33474   1.34174   1.34765   1.36571
 Alpha virt. eigenvalues --    1.37302   1.38362   1.38901   1.39373   1.40214
 Alpha virt. eigenvalues --    1.40965   1.41185   1.42046   1.43161   1.44144
 Alpha virt. eigenvalues --    1.44624   1.45170   1.46303   1.46692   1.47967
 Alpha virt. eigenvalues --    1.49012   1.50301   1.51576   1.52039   1.52408
 Alpha virt. eigenvalues --    1.53527   1.53674   1.54344   1.54860   1.56089
 Alpha virt. eigenvalues --    1.57868   1.60358   1.61902   1.63054   1.64073
 Alpha virt. eigenvalues --    1.66749   1.67831   1.68810   1.70362   1.71776
 Alpha virt. eigenvalues --    1.72830   1.74164   1.74812   1.75130   1.75323
 Alpha virt. eigenvalues --    1.76626   1.77196   1.77598   1.78071   1.78919
 Alpha virt. eigenvalues --    1.80042   1.80719   1.81956   1.83146   1.83896
 Alpha virt. eigenvalues --    1.84826   1.85150   1.85713   1.87579   1.88644
 Alpha virt. eigenvalues --    1.88887   1.89225   1.90182   1.90903   1.91083
 Alpha virt. eigenvalues --    1.91665   1.92660   1.93015   1.93304   1.94731
 Alpha virt. eigenvalues --    1.95675   1.96134   1.97142   1.97399   1.98412
 Alpha virt. eigenvalues --    2.01052   2.01322   2.01796   2.02724   2.03029
 Alpha virt. eigenvalues --    2.03474   2.04705   2.07136   2.07407   2.08415
 Alpha virt. eigenvalues --    2.09300   2.09858   2.10209   2.11831   2.12553
 Alpha virt. eigenvalues --    2.12973   2.13852   2.15077   2.15762   2.16568
 Alpha virt. eigenvalues --    2.16683   2.17809   2.18054   2.18849   2.19266
 Alpha virt. eigenvalues --    2.20521   2.21513   2.22243   2.23242   2.25169
 Alpha virt. eigenvalues --    2.25750   2.26921   2.27667   2.27878   2.31202
 Alpha virt. eigenvalues --    2.31764   2.33254   2.33831   2.34580   2.35148
 Alpha virt. eigenvalues --    2.36449   2.41416   2.42488   2.43015   2.44051
 Alpha virt. eigenvalues --    2.46180   2.48241   2.48662   2.50245   2.52286
 Alpha virt. eigenvalues --    2.53238   2.57113   2.57542   2.59244   2.61030
 Alpha virt. eigenvalues --    2.63541   2.64168   2.65861   2.66514   2.68357
 Alpha virt. eigenvalues --    2.69848   2.70867   2.72444   2.73871   2.75499
 Alpha virt. eigenvalues --    2.77615   2.78605   2.79212   2.80595   2.81460
 Alpha virt. eigenvalues --    2.82361   2.85135   2.87127   2.89013   2.91470
 Alpha virt. eigenvalues --    2.92612   2.95056   2.95553   2.97279   3.01632
 Alpha virt. eigenvalues --    3.06619   3.08574   3.10836   3.15424   3.20255
 Alpha virt. eigenvalues --    3.21688   3.28442   3.30297   3.33491   3.41863
 Alpha virt. eigenvalues --    3.43015   4.05410   4.13320   4.22811   4.26586
 Alpha virt. eigenvalues --    4.28535   4.31121   4.32295   4.34709   4.35079
 Alpha virt. eigenvalues --    4.36856   4.37654   4.40133   4.41044   4.44312
 Alpha virt. eigenvalues --    4.44358   4.50558   4.51811   4.55494   4.63175
 Alpha virt. eigenvalues --    4.66910   4.76079   4.77302   4.87750   5.87272
 Alpha virt. eigenvalues --    6.10891   7.02162
          Condensed to atoms (all electrons):
               1          2          3          4          5          6
     1  C   30.633199 -15.030294  -0.265011   3.342783  -0.016311  -0.318847
     2  C  -15.030294  54.153461   0.463289 -10.021227  -0.005840 -16.097378
     3  C   -0.265011   0.463289  11.515834  -4.006018   0.017409  -1.799536
     4  C    3.342783 -10.021227  -4.006018  19.696888   0.271400   6.296720
     5  H   -0.016311  -0.005840   0.017409   0.271400   0.411454  -0.017559
     6  C   -0.318847 -16.097378  -1.799536   6.296720  -0.017559  26.603581
     7  C   -9.782528  -0.078528   1.892622 -12.832633   0.065181 -10.522561
     8  C   -2.052967   3.645413   0.027168  -1.156273   0.009867  -2.350357
     9  C    2.978554  -9.543661  -1.999038   5.537005  -0.019462   5.347978
    10  S    0.002385  -0.969687  -1.503106   0.968002  -0.000817   0.261176
    11  O   -0.292855  -0.168963  -0.000039   0.028526   0.000026  -0.014990
    12  O   -0.285619  -0.130962  -0.167577   0.132831  -0.000041   0.056499
    13  N   -0.073230  -0.085211  -0.093267   0.119275   0.000020   0.084389
    14  H   -0.094021  -0.012562  -0.028057   0.013206   0.000000   0.003241
    15  N    0.215899   0.293957   0.028926  -0.082127  -0.012622  -0.642990
    16  C   -0.623190  -1.112735  -0.016980  -1.087564  -0.000763  -0.676327
    17  N   -0.343541   0.288427   0.010959  -0.022045   0.000462   0.501756
    18  H    0.004478   0.046024   0.004465  -0.007628   0.004754  -0.062062
    19  F    0.026235  -0.279829  -0.021837   0.222108   0.004921   0.131479
    20  F   -0.119929   0.257695   0.101884  -0.094634  -0.000391  -0.049428
    21  F    0.037133  -0.146033   0.072750   0.040499   0.000277  -0.004785
    22  H    0.002390   0.000640   0.000077   0.001785  -0.000000  -0.010278
    23  C   -0.037123   0.219784   0.010390  -0.204383   0.000143  -0.652959
    24  C   -0.123198   0.076928  -0.004588   0.223049   0.002722   0.215430
    25  C   -0.037730  -0.013542   0.000649  -0.209751  -0.000425  -0.044858
    26  H    0.000019  -0.000131  -0.000002  -0.000285   0.000000   0.000009
    27  C    0.005482  -0.007430  -0.000815   0.038474   0.000194   0.012024
    28  H    0.000001  -0.000000  -0.000000   0.000049  -0.000000  -0.000073
    29  C   -0.001047   0.021859   0.001988  -0.035583  -0.000328   0.006633
    30  H    0.000000  -0.000030  -0.000001  -0.000284   0.000000   0.000326
    31  C   -0.002162   0.040733   0.001230   0.160814   0.001985  -0.063319
    32  H   -0.000023   0.000283  -0.000005   0.002702   0.000000  -0.003083
    33  C    0.114878  -0.055943   0.002288  -0.147055  -0.003838   0.175911
    34  H    0.000450   0.002746  -0.000019   0.029869   0.000010  -0.043460
    35  H    0.006361   0.009260   0.000616   0.049569  -0.000003   0.027403
    36  H    0.000043  -0.000583  -0.000029   0.001009   0.000000   0.008661
    37  H   -0.000225   0.001796   0.000048   0.006545  -0.000000  -0.008711
    38  O    0.070202  -0.016183  -0.003117   0.022351   0.000014   0.049632
    39  H   -0.105506   0.001718   0.002047  -0.004346   0.000011   0.011638
               7          8          9         10         11         12
     1  C   -9.782528  -2.052967   2.978554   0.002385  -0.292855  -0.285619
     2  C   -0.078528   3.645413  -9.543661  -0.969687  -0.168963  -0.130962
     3  C    1.892622   0.027168  -1.999038  -1.503106  -0.000039  -0.167577
     4  C  -12.832633  -1.156273   5.537005   0.968002   0.028526   0.132831
     5  H    0.065181   0.009867  -0.019462  -0.000817   0.000026  -0.000041
     6  C  -10.522561  -2.350357   5.347978   0.261176  -0.014990   0.056499
     7  C   48.876633  -4.230422  -9.543570  -2.392352  -0.102568  -0.126230
     8  C   -4.230422  13.679955  -1.829913  -0.265464   0.004919  -0.014521
     9  C   -9.543570  -1.829913  14.844218   1.178479   0.174430   0.304207
    10  S   -2.392352  -0.265464   1.178479  16.286555   0.295681   0.159889
    11  O   -0.102568   0.004919   0.174430   0.295681   9.051334  -0.076877
    12  O   -0.126230  -0.014521   0.304207   0.159889  -0.076877   9.032608
    13  N   -0.211219  -0.024325   0.065045   0.284477  -0.154656  -0.132831
    14  H    0.000642  -0.000381   0.032835   0.095090   0.017786  -0.006659
    15  N    0.209691   0.052592  -0.013220   0.007238   0.000270   0.000096
    16  C    4.513461  -2.295549  -1.090172  -0.043804  -0.002855  -0.000678
    17  N   -0.644281   0.423918   0.030731  -0.018083  -0.001028  -0.000326
    18  H    0.025796   0.017282  -0.006082   0.000081   0.000000   0.000000
    19  F   -0.001462  -0.000911   0.028147   0.001559   0.000049   0.000048
    20  F    0.039170   0.004070   0.009173  -0.009027  -0.000023  -0.018340
    21  F    0.032331   0.000883   0.022834   0.067374   0.001757  -0.019182
    22  H    0.111868  -0.106110   0.003428   0.000006   0.000000   0.000000
    23  C   -0.209001   0.734434   0.023152  -0.003076  -0.000116  -0.000114
    24  C   -0.401594   0.017666  -0.013840  -0.002093  -0.000018  -0.000023
    25  C    0.113543  -0.070478  -0.041442  -0.000990  -0.000004  -0.000006
    26  H    0.000631  -0.000123   0.000044   0.000000  -0.000000   0.000000
    27  C   -0.016824  -0.001136   0.006838   0.000146   0.000000   0.000001
    28  H    0.000012   0.000003   0.000001   0.000000  -0.000000  -0.000000
    29  C    0.016494   0.006827  -0.003288  -0.000043   0.000000  -0.000001
    30  H   -0.000003  -0.000003   0.000000   0.000000   0.000000   0.000000
    31  C   -0.093128   0.028825   0.010587   0.000102   0.000001   0.000003
    32  H   -0.000166   0.000017   0.000014  -0.000000  -0.000000  -0.000000
    33  C    0.089350   0.133018   0.043085   0.002528   0.000019   0.000029
    34  H    0.000020   0.000488   0.000361  -0.000003  -0.000000  -0.000000
    35  H   -0.047963   0.023901   0.018204  -0.000064   0.000000  -0.000000
    36  H   -0.011609   0.007098   0.001662  -0.000001  -0.000000  -0.000000
    37  H   -0.001626   0.016782  -0.001157  -0.000007  -0.000000  -0.000000
    38  O   -0.100987   0.221329  -0.064161   0.008687  -0.000070   0.000100
    39  H    0.052683  -0.040540   0.378448  -0.007079  -0.001637   0.000521
              13         14         15         16         17         18
     1  C   -0.073230  -0.094021   0.215899  -0.623190  -0.343541   0.004478
     2  C   -0.085211  -0.012562   0.293957  -1.112735   0.288427   0.046024
     3  C   -0.093267  -0.028057   0.028926  -0.016980   0.010959   0.004465
     4  C    0.119275   0.013206  -0.082127  -1.087564  -0.022045  -0.007628
     5  H    0.000020   0.000000  -0.012622  -0.000763   0.000462   0.004754
     6  C    0.084389   0.003241  -0.642990  -0.676327   0.501756  -0.062062
     7  C   -0.211219   0.000642   0.209691   4.513461  -0.644281   0.025796
     8  C   -0.024325  -0.000381   0.052592  -2.295549   0.423918   0.017282
     9  C    0.065045   0.032835  -0.013220  -1.090172   0.030731  -0.006082
    10  S    0.284477   0.095090   0.007238  -0.043804  -0.018083   0.000081
    11  O   -0.154656   0.017786   0.000270  -0.002855  -0.001028   0.000000
    12  O   -0.132831  -0.006659   0.000096  -0.000678  -0.000326   0.000000
    13  N    7.997784   0.207470  -0.000390  -0.001680  -0.000732   0.000001
    14  H    0.207470   0.352588  -0.000003   0.000011  -0.000001   0.000000
    15  N   -0.000390  -0.000003   7.551930  -0.419006  -0.023814   0.267182
    16  C   -0.001680   0.000011  -0.419006  11.285378  -0.379556  -0.107860
    17  N   -0.000732  -0.000001  -0.023814  -0.379556   7.649617   0.009301
    18  H    0.000001   0.000000   0.267182  -0.107860   0.009301   0.298605
    19  F   -0.001075   0.000079  -0.000480  -0.000065   0.000059  -0.000033
    20  F    0.000945  -0.000015   0.000220  -0.001038   0.000032   0.000001
    21  F   -0.002987   0.003675   0.000633   0.000281  -0.000054   0.000002
    22  H    0.000000  -0.000000   0.008327  -0.009070   0.253517  -0.000048
    23  C   -0.000264  -0.000003   0.054874  -1.918477  -0.025994   0.004282
    24  C   -0.000087   0.000000  -0.210635   1.032590  -0.057465  -0.053755
    25  C   -0.000026   0.000000  -0.149129   0.313417  -0.041736  -0.020646
    26  H   -0.000000  -0.000000   0.001131   0.014918  -0.000062  -0.000009
    27  C    0.000003  -0.000000   0.004888   0.047983   0.004304  -0.000286
    28  H    0.000000  -0.000000   0.000056  -0.000239  -0.000003  -0.000000
    29  C   -0.000002   0.000000   0.013721  -0.093293   0.002440   0.003168
    30  H    0.000000  -0.000000  -0.000022  -0.000399   0.000001  -0.000001
    31  C    0.000008   0.000000  -0.005469  -0.024021   0.020814  -0.009099
    32  H   -0.000000   0.000000   0.000403   0.000782  -0.000020   0.000009
    33  C    0.000079  -0.000000   0.366213  -1.249828   0.115132   0.110003
    34  H    0.000000   0.000000   0.010496   0.013044  -0.002120  -0.000072
    35  H    0.000010   0.000000  -0.045814   0.313745  -0.036193   0.000026
    36  H   -0.000000   0.000000   0.000248   0.004663  -0.001538  -0.000053
    37  H    0.000000  -0.000000   0.023723  -0.123472   0.012570   0.000124
    38  O   -0.000029   0.000001  -0.014834   0.118486  -0.138704   0.000067
    39  H   -0.000531  -0.000015  -0.000950   0.002458   0.000312   0.000002
              19         20         21         22         23         24
     1  C    0.026235  -0.119929   0.037133   0.002390  -0.037123  -0.123198
     2  C   -0.279829   0.257695  -0.146033   0.000640   0.219784   0.076928
     3  C   -0.021837   0.101884   0.072750   0.000077   0.010390  -0.004588
     4  C    0.222108  -0.094634   0.040499   0.001785  -0.204383   0.223049
     5  H    0.004921  -0.000391   0.000277  -0.000000   0.000143   0.002722
     6  C    0.131479  -0.049428  -0.004785  -0.010278  -0.652959   0.215430
     7  C   -0.001462   0.039170   0.032331   0.111868  -0.209001  -0.401594
     8  C   -0.000911   0.004070   0.000883  -0.106110   0.734434   0.017666
     9  C    0.028147   0.009173   0.022834   0.003428   0.023152  -0.013840
    10  S    0.001559  -0.009027   0.067374   0.000006  -0.003076  -0.002093
    11  O    0.000049  -0.000023   0.001757   0.000000  -0.000116  -0.000018
    12  O    0.000048  -0.018340  -0.019182   0.000000  -0.000114  -0.000023
    13  N   -0.001075   0.000945  -0.002987   0.000000  -0.000264  -0.000087
    14  H    0.000079  -0.000015   0.003675  -0.000000  -0.000003   0.000000
    15  N   -0.000480   0.000220   0.000633   0.008327   0.054874  -0.210635
    16  C   -0.000065  -0.001038   0.000281  -0.009070  -1.918477   1.032590
    17  N    0.000059   0.000032  -0.000054   0.253517  -0.025994  -0.057465
    18  H   -0.000033   0.000001   0.000002  -0.000048   0.004282  -0.053755
    19  F    9.308295  -0.047850  -0.036325   0.000000  -0.000074   0.000386
    20  F   -0.047850   9.231197  -0.047406  -0.000000   0.000031   0.000065
    21  F   -0.036325  -0.047406   9.297017  -0.000000   0.000069  -0.000044
    22  H    0.000000  -0.000000  -0.000000   0.240829  -0.028138   0.001671
    23  C   -0.000074   0.000031   0.000069  -0.028138  10.084208  -2.911660
    24  C    0.000386   0.000065  -0.000044   0.001671  -2.911660  11.928034
    25  C    0.000010   0.000001   0.000005   0.001907   1.873482  -2.756597
    26  H   -0.000000   0.000000   0.000000  -0.000001  -0.046507   0.072644
    27  C    0.000016   0.000000  -0.000002   0.000321  -0.427655   0.381442
    28  H    0.000000   0.000000  -0.000000  -0.000000  -0.003741   0.044673
    29  C   -0.000112  -0.000002   0.000002  -0.000032   0.115846  -0.816224
    30  H   -0.000000  -0.000000   0.000000   0.000000   0.001753  -0.013744
    31  C   -0.000227  -0.000017  -0.000037   0.000143  -0.505157   0.514629
    32  H    0.000000   0.000000  -0.000000   0.000000  -0.003180   0.031062
    33  C    0.000116  -0.000063   0.000076  -0.001304  -0.183440  -1.687733
    34  H    0.000002   0.000000  -0.000000  -0.000001   0.005826   0.108241
    35  H    0.000003   0.000000  -0.000000   0.001429  -0.163255   0.118420
    36  H   -0.000000  -0.000000  -0.000000   0.002006   0.389636  -0.128399
    37  H    0.000000   0.000000  -0.000000  -0.000319   0.419193  -0.065909
    38  O    0.000000  -0.000005  -0.000002   0.008200  -0.027673   0.003572
    39  H    0.000014   0.000001   0.000012  -0.000004  -0.000193   0.000009
              25         26         27         28         29         30
     1  C   -0.037730   0.000019   0.005482   0.000001  -0.001047   0.000000
     2  C   -0.013542  -0.000131  -0.007430  -0.000000   0.021859  -0.000030
     3  C    0.000649  -0.000002  -0.000815  -0.000000   0.001988  -0.000001
     4  C   -0.209751  -0.000285   0.038474   0.000049  -0.035583  -0.000284
     5  H   -0.000425   0.000000   0.000194  -0.000000  -0.000328   0.000000
     6  C   -0.044858   0.000009   0.012024  -0.000073   0.006633   0.000326
     7  C    0.113543   0.000631  -0.016824   0.000012   0.016494  -0.000003
     8  C   -0.070478  -0.000123  -0.001136   0.000003   0.006827  -0.000003
     9  C   -0.041442   0.000044   0.006838   0.000001  -0.003288   0.000000
    10  S   -0.000990   0.000000   0.000146   0.000000  -0.000043   0.000000
    11  O   -0.000004  -0.000000   0.000000  -0.000000   0.000000   0.000000
    12  O   -0.000006   0.000000   0.000001  -0.000000  -0.000001   0.000000
    13  N   -0.000026  -0.000000   0.000003   0.000000  -0.000002   0.000000
    14  H    0.000000  -0.000000  -0.000000  -0.000000   0.000000  -0.000000
    15  N   -0.149129   0.001131   0.004888   0.000056   0.013721  -0.000022
    16  C    0.313417   0.014918   0.047983  -0.000239  -0.093293  -0.000399
    17  N   -0.041736  -0.000062   0.004304  -0.000003   0.002440   0.000001
    18  H   -0.020646  -0.000009  -0.000286  -0.000000   0.003168  -0.000001
    19  F    0.000010  -0.000000   0.000016   0.000000  -0.000112  -0.000000
    20  F    0.000001   0.000000   0.000000   0.000000  -0.000002  -0.000000
    21  F    0.000005   0.000000  -0.000002  -0.000000   0.000002   0.000000
    22  H    0.001907  -0.000001   0.000321  -0.000000  -0.000032   0.000000
    23  C    1.873482  -0.046507  -0.427655  -0.003741   0.115846   0.001753
    24  C   -2.756597   0.072644   0.381442   0.044673  -0.816224  -0.013744
    25  C   12.591634   0.193738  -0.645888  -0.056178   0.286742   0.018368
    26  H    0.193738   0.457500   0.013885  -0.003179   0.005889  -0.000113
    27  C   -0.645888   0.013885   5.890609   0.356508   0.449088  -0.031932
    28  H   -0.056178  -0.003179   0.356508   0.449102  -0.033959  -0.003169
    29  C    0.286742   0.005889   0.449088  -0.033959   5.379003   0.347047
    30  H    0.018368  -0.000113  -0.031932  -0.003169   0.347047   0.450951
    31  C   -0.800047  -0.012045   0.122008   0.013921   0.250927  -0.037420
    32  H   -0.013272   0.000013   0.012231  -0.000117  -0.029166  -0.003176
    33  C   -4.003444   0.055393   0.061170  -0.010711   0.384625   0.026883
    34  H    0.016345  -0.000123  -0.001433   0.000014  -0.013348  -0.000122
    35  H   -0.134658  -0.000030   0.002747   0.000001  -0.004041  -0.000000
    36  H    0.096319   0.002703   0.008812  -0.000005   0.001164  -0.000000
    37  H   -0.059640   0.000059   0.000770   0.000002   0.000833  -0.000000
    38  O    0.000818  -0.000001   0.000065  -0.000000  -0.000002  -0.000000
    39  H    0.000001   0.000000   0.000001  -0.000000  -0.000000   0.000000
              31         32         33         34         35         36
     1  C   -0.002162  -0.000023   0.114878   0.000450   0.006361   0.000043
     2  C    0.040733   0.000283  -0.055943   0.002746   0.009260  -0.000583
     3  C    0.001230  -0.000005   0.002288  -0.000019   0.000616  -0.000029
     4  C    0.160814   0.002702  -0.147055   0.029869   0.049569   0.001009
     5  H    0.001985   0.000000  -0.003838   0.000010  -0.000003   0.000000
     6  C   -0.063319  -0.003083   0.175911  -0.043460   0.027403   0.008661
     7  C   -0.093128  -0.000166   0.089350   0.000020  -0.047963  -0.011609
     8  C    0.028825   0.000017   0.133018   0.000488   0.023901   0.007098
     9  C    0.010587   0.000014   0.043085   0.000361   0.018204   0.001662
    10  S    0.000102  -0.000000   0.002528  -0.000003  -0.000064  -0.000001
    11  O    0.000001  -0.000000   0.000019  -0.000000   0.000000  -0.000000
    12  O    0.000003  -0.000000   0.000029  -0.000000  -0.000000  -0.000000
    13  N    0.000008  -0.000000   0.000079   0.000000   0.000010  -0.000000
    14  H    0.000000   0.000000  -0.000000   0.000000   0.000000   0.000000
    15  N   -0.005469   0.000403   0.366213   0.010496  -0.045814   0.000248
    16  C   -0.024021   0.000782  -1.249828   0.013044   0.313745   0.004663
    17  N    0.020814  -0.000020   0.115132  -0.002120  -0.036193  -0.001538
    18  H   -0.009099   0.000009   0.110003  -0.000072   0.000026  -0.000053
    19  F   -0.000227   0.000000   0.000116   0.000002   0.000003  -0.000000
    20  F   -0.000017   0.000000  -0.000063   0.000000   0.000000  -0.000000
    21  F   -0.000037  -0.000000   0.000076  -0.000000  -0.000000  -0.000000
    22  H    0.000143   0.000000  -0.001304  -0.000001   0.001429   0.002006
    23  C   -0.505157  -0.003180  -0.183440   0.005826  -0.163255   0.389636
    24  C    0.514629   0.031062  -1.687733   0.108241   0.118420  -0.128399
    25  C   -0.800047  -0.013272  -4.003444   0.016345  -0.134658   0.096319
    26  H   -0.012045   0.000013   0.055393  -0.000123  -0.000030   0.002703
    27  C    0.122008   0.012231   0.061170  -0.001433   0.002747   0.008812
    28  H    0.013921  -0.000117  -0.010711   0.000014   0.000001  -0.000005
    29  C    0.250927  -0.029166   0.384625  -0.013348  -0.004041   0.001164
    30  H   -0.037420  -0.003176   0.026883  -0.000122  -0.000000  -0.000000
    31  C    6.635418   0.342806  -0.472914   0.015665   0.019542  -0.002703
    32  H    0.342806   0.448668  -0.031339  -0.002960   0.000000   0.000002
    33  C   -0.472914  -0.031339  12.162027   0.141451   0.076397  -0.064370
    34  H    0.015665  -0.002960   0.141451   0.455801   0.000081  -0.000018
    35  H    0.019542   0.000000   0.076397   0.000081   0.497255  -0.002717
    36  H   -0.002703   0.000002  -0.064370  -0.000018  -0.002717   0.445313
    37  H    0.003507  -0.000002   0.076157   0.000807   0.003864  -0.025143
    38  O   -0.000035  -0.000000  -0.002741   0.000000   0.000122   0.000188
    39  H   -0.000001  -0.000000  -0.000027  -0.000000  -0.000001  -0.000000
              37         38         39
     1  C   -0.000225   0.070202  -0.105506
     2  C    0.001796  -0.016183   0.001718
     3  C    0.000048  -0.003117   0.002047
     4  C    0.006545   0.022351  -0.004346
     5  H   -0.000000   0.000014   0.000011
     6  C   -0.008711   0.049632   0.011638
     7  C   -0.001626  -0.100987   0.052683
     8  C    0.016782   0.221329  -0.040540
     9  C   -0.001157  -0.064161   0.378448
    10  S   -0.000007   0.008687  -0.007079
    11  O   -0.000000  -0.000070  -0.001637
    12  O   -0.000000   0.000100   0.000521
    13  N    0.000000  -0.000029  -0.000531
    14  H   -0.000000   0.000001  -0.000015
    15  N    0.023723  -0.014834  -0.000950
    16  C   -0.123472   0.118486   0.002458
    17  N    0.012570  -0.138704   0.000312
    18  H    0.000124   0.000067   0.000002
    19  F    0.000000   0.000000   0.000014
    20  F    0.000000  -0.000005   0.000001
    21  F   -0.000000  -0.000002   0.000012
    22  H   -0.000319   0.008200  -0.000004
    23  C    0.419193  -0.027673  -0.000193
    24  C   -0.065909   0.003572   0.000009
    25  C   -0.059640   0.000818   0.000001
    26  H    0.000059  -0.000001   0.000000
    27  C    0.000770   0.000065   0.000001
    28  H    0.000002  -0.000000  -0.000000
    29  C    0.000833  -0.000002  -0.000000
    30  H   -0.000000  -0.000000   0.000000
    31  C    0.003507  -0.000035  -0.000001
    32  H   -0.000002  -0.000000  -0.000000
    33  C    0.076157  -0.002741  -0.000027
    34  H    0.000807   0.000000  -0.000000
    35  H    0.003864   0.000122  -0.000001
    36  H   -0.025143   0.000188  -0.000000
    37  H    0.440785  -0.000068  -0.000000
    38  O   -0.000068   8.524535   0.007901
    39  H   -0.000000   0.007901   0.413440
 Mulliken charges:
               1
     1  C   -1.835136
     2  C    0.252739
     3  C    1.754406
     4  C   -1.293621
     5  H    0.287552
     6  C   -0.410927
     7  C    1.311124
     8  C    1.383018
     9  C   -0.870456
    10  S    1.596241
    11  O   -0.758101
    12  O   -0.706844
    13  N   -0.976963
    14  H    0.415091
    15  N   -0.491208
    16  C   -0.382599
    17  N   -0.587054
    18  H    0.471980
    19  F   -0.333246
    20  F   -0.256317
    21  F   -0.320753
    22  H    0.516761
    23  C   -0.584918
    24  C    0.474377
    25  C   -0.406491
    26  H    0.244034
    27  C   -0.286610
    28  H    0.247034
    29  C   -0.263824
    30  H    0.245089
    31  C   -0.155868
    32  H    0.247515
    33  C   -0.222079
    34  H    0.261961
    35  H    0.265782
    36  H    0.267640
    37  H    0.278716
    38  O   -0.667658
    39  H    0.289613
 Sum of Mulliken charges =  -1.00000
 Mulliken charges with hydrogens summed into heavy atoms:
               1
     1  C   -1.835136
     2  C    0.252739
     3  C    1.754406
     4  C   -1.006069
     6  C   -0.410927
     7  C    1.311124
     8  C    1.383018
     9  C   -0.580843
    10  S    1.596241
    11  O   -0.758101
    12  O   -0.706844
    13  N   -0.561872
    15  N   -0.019227
    16  C   -0.116817
    17  N   -0.070293
    19  F   -0.333246
    20  F   -0.256317
    21  F   -0.320753
    23  C   -0.038561
    24  C    0.474377
    25  C   -0.162457
    27  C   -0.039577
    29  C   -0.018735
    31  C    0.091647
    33  C    0.039882
    38  O   -0.667658
 Electronic spatial extent (au):  <R**2>=          12142.9407
 Charge=             -1.0000 electrons
 Dipole moment (field-independent basis, Debye):
    X=             32.8586    Y=             -7.2827    Z=              0.0386  Tot=             33.6560
 Quadrupole moment (field-independent basis, Debye-Ang):
[...]
 0,-0.00001833,-0.00000954,-0.00003454,0.00127397,0.00214149,0.00049943
 ,-0.00066450,-0.00154718,0.00065009,0.00253836,0.00760225,-0.00006579,
 0.00015118,0.00070187,0.00008363,0.00023746,0.00083935,-0.00014848,-0.
 00010933,-0.00017364,0.00013552,-0.00014569,-0.00022536,-0.00002106,0.
 00009765,-0.00031466,-0.00001402,-0.00001736,0.00002763,0.01421189,-0.
 00941861,0.00122551,0.04008568,-0.23169358,0.09947261,-0.01075061,-0.0
 2730041,0.00114244,0.00012713,-0.00049853,-0.00029599,0.00012617,0.000
 04332,-0.00001022,0.00012488,-0.00006669,-0.00003165,0.00008007,0.0000
 4283,-0.00010386,0.00033110,-0.00181062,-0.00028501,-0.00087495,0.0039
 6152,-0.00192244,-0.00012657,0.00080537,-0.00022720,-0.00004969,-0.000
 03966,-0.00033318,0.00009436,-0.00007802,-0.00013817,-0.00003048,-0.00
 003229,-0.00001343,0.00001306,0.00000328,-0.00002738,0.00004152,0.0000
 5063,0.00002648,-0.00000527,-0.00000643,0.00000102,-0.00005530,0.00000
 975,-0.00006236,-0.00000410,0.00000247,0.00001698,0.00010642,-0.000001
 57,0.00007007,-0.00001075,0.00002073,0.00004574,-0.04216371,0.26347600
 ,-0.00094765,-0.00027352,0.00023511,0.00040429,0.00048946,0.00076417,0
 .00013047,0.00002575,-0.00000494,0.00058551,0.00031915,-0.00072374,0.0
 0003408,-0.00008849,0.00001497,-0.00000754,-0.00131257,0.00391082,-0.0
 0090866,0.00191357,0.00109595,0.00107208,-0.00068855,0.00260785,0.0004
 0643,-0.00006006,-0.00114325,-0.00005468,-0.00010940,-0.00023472,0.000
 05108,0.00003961,0.00004105,-0.00002932,0.00004392,0.00007074,0.000016
 59,-0.00001930,0.00011098,0.00000681,0.00000405,-0.00001412,0.00614621
 ,-0.01180227,0.00475533,-0.02120733,0.10179505,-0.11160321,-0.00116761
 ,-0.01360295,0.00604732,-0.00017033,-0.00000089,0.00022141,-0.00003320
 ,-0.00001782,-0.00000313,-0.00004530,0.00001690,0.00000019,-0.00002773
 ,-0.00000898,0.00002580,0.00005444,-0.00028078,0.00002775,-0.00672268,
 0.02723496,-0.01794568,0.00147807,0.00136707,0.00119895,-0.00031749,-0
 .00018445,-0.00028958,0.00017349,-0.00017025,-0.00016104,-0.00043281,-
 0.00029776,-0.00005483,-0.00001141,-0.00001920,-0.00002000,0.00029971,
 -0.00036802,0.00012705,0.00002206,-0.00001471,-0.00002191,0.00018103,0
 .00051233,0.00008061,-0.00001085,-0.00000737,-0.00001867,-0.00089302,-
 0.00021932,-0.00011338,0.00004710,-0.00005634,-0.00003728,0.02269544,-
 0.10306226,0.11603757,0.00003436,0.00002141,0.00003854,-0.00003948,-0.
 00001645,-0.00005081,0.00003300,-0.00000733,-0.00001479,-0.00005339,0.
 00008382,0.00008602,0.00000229,-0.00000348,0.00000051,-0.00004781,-0.0
 0033152,-0.00058091,0.00017096,0.00004646,-0.00006329,0.00027342,-0.00
 004318,0.00016474,0.00000700,0.00000725,0.00000339,-0.00000408,-0.0000
 2087,-0.00007033,0.00001310,0.00001004,0.00001617,-0.00001121,0.000012
 16,0.00001778,0.00000097,-0.00000769,0.00002640,0.00000115,0.00000107,
 -0.00000234,0.00079243,-0.00045812,0.00044235,-0.00195324,0.00041141,-
 0.00018920,0.00066961,-0.00051518,-0.00095986,0.00008111,0.00003584,-0
 .00023780,-0.00001060,-0.00000179,0.00000198,-0.00000861,0.00000592,0.
 00000270,-0.00000804,-0.00000407,0.00001225,0.00000306,0.00042325,0.00
 033410,-0.27866993,0.07427109,0.06298943,-0.01978710,0.00495408,0.0029
 6047,0.00147992,0.00211660,-0.00036447,0.00001637,-0.00040719,0.000641
 92,-0.00029273,-0.00022920,-0.00089480,-0.00001149,-0.00003553,0.00004
 574,0.00020036,-0.00036764,0.00018215,-0.00005103,-0.00006073,0.000142
 69,-0.00020010,0.00065535,-0.00093830,-0.00020962,-0.00019494,-0.00010
 565,-0.00157440,-0.00331882,0.00006403,0.00001074,-0.00003327,0.000313
 16,0.00035193,0.00002113,0.00023820,0.30218802,-0.00001656,-0.00001554
 ,-0.00005440,0.00007116,-0.00002209,0.00003473,-0.00005003,-0.00000234
 ,0.00001305,0.00003268,-0.00009999,-0.00017899,-0.00000683,0.00001641,
 -0.00000474,0.00030159,0.00062693,0.00015126,-0.00003683,-0.00002056,-
 0.00001203,0.00004253,-0.00005131,0.00002724,-0.00002474,-0.00000860,0
 .00002417,0.00000583,0.00002509,0.00008871,-0.00001628,-0.00001209,-0.
 00001916,0.00001356,-0.00001556,-0.00002313,-0.00000096,0.00000964,-0.
 00003203,-0.00000147,-0.00000153,0.00000269,-0.00005116,0.00046542,-0.
 00195872,0.00275903,-0.00267155,0.00042135,0.00080439,0.00002243,-0.00
 040789,0.00008377,-0.00020160,0.00002938,0.00001550,0.00000487,-0.0000
 0159,0.00001547,-0.00000881,-0.00000265,0.00001141,0.00000681,-0.00001
 665,-0.00039680,-0.00032693,-0.00037209,0.07511783,-0.07326799,-0.0182
 0746,-0.02272776,0.00620811,0.00595840,-0.00085324,0.00027136,-0.00067
 076,0.00048777,-0.00009065,-0.00004120,0.00028624,0.00059767,0.0002227
 6,0.00006343,0.00000472,0.00002657,-0.00055286,0.00006750,-0.00013039,
 0.00002981,-0.00002287,-0.00004516,-0.00032459,-0.00004883,-0.00092737
 ,-0.00014968,-0.00014703,-0.00013276,-0.00115396,-0.00234489,-0.000377
 08,-0.00014857,0.00013626,0.00012352,-0.00037015,0.00026111,-0.0002539
 8,-0.07797795,0.07697177,-0.00012476,-0.00010073,-0.00016887,0.0002819
 0,0.00013564,0.00010286,-0.00018863,-0.00001372,0.00004754,0.00006488,
 -0.00026768,-0.00082899,-0.00000683,-0.00000805,0.00001056,0.00192537,
 0.00020380,0.00095072,-0.00018690,0.00000225,0.00001187,0.00034958,0.0
 0003298,-0.00023080,-0.00003902,-0.00003663,-0.00002376,0.00001532,0.0
 0009085,0.00032032,-0.00005835,-0.00004372,-0.00007314,0.00005137,-0.0
 0005655,-0.00008155,-0.00000395,0.00003576,-0.00011429,-0.00000496,-0.
 00000635,0.00000997,-0.00095744,-0.00170780,-0.00854635,0.03222429,-0.
 01184057,-0.00838961,0.00140035,0.00048998,0.00137921,-0.00027568,-0.0
 0004793,0.00006912,0.00005725,0.00001721,-0.00000853,0.00006347,-0.000
 03972,-0.00001517,0.00005015,0.00003008,-0.00007078,-0.00083272,-0.000
 39463,-0.00011494,0.05939979,-0.01648014,-0.06333302,-0.01226657,0.003
 03297,0.00226056,0.00000995,0.00053990,0.00021464,0.00015479,0.0000361
 7,0.00015193,0.00020666,0.00006455,-0.00016810,0.00000883,-0.00001666,
 -0.00000072,-0.00021274,0.00018595,-0.00006806,-0.00003545,-0.00003014
 ,0.00007869,-0.00031466,-0.00025731,-0.00083714,-0.00011942,-0.0001146
 6,-0.00008813,-0.00103266,-0.00170052,-0.00011500,-0.00004595,-0.00014
 225,0.00037879,-0.00033816,0.00052696,0.00150771,-0.06502843,0.0249244
 4,0.07179728,-0.00007991,-0.00002746,-0.00001324,0.00006246,0.00005530
 ,0.00006828,-0.00002057,-0.00000421,0.00001406,0.00005153,0.00000139,-
 0.00014320,0.00000258,-0.00000784,0.00000163,0.00009385,-0.00000643,0.
 00039944,-0.00003496,0.00008904,0.00005031,-0.00002356,0.00002709,0.00
 002582,0.00001796,-0.00000965,-0.00005575,0.00000004,0.00000741,0.0000
 3833,-0.00000723,-0.00000467,-0.00000902,0.00000714,-0.00000710,-0.000
 01013,0.00000026,0.00000366,-0.00001114,-0.00000034,-0.00000053,0.0000
 0055,0.00063756,-0.00109588,0.00014320,-0.00118958,-0.00094767,0.00142
 002,0.00003182,0.00044163,-0.00052738,-0.00005725,-0.00014131,-0.00002
 357,0.00000735,0.00000167,-0.00000130,0.00000884,-0.00000471,-0.000004
 66,0.00000426,0.00000318,-0.00000765,-0.00007420,0.00009753,0.00003896
 ,-0.06152526,0.04768825,-0.02350671,0.00371794,-0.01965175,0.01012011,
 -0.00271531,-0.00199090,-0.00145067,0.00003624,-0.00008931,0.00017511,
 0.00078440,-0.00075294,-0.00013994,-0.00018901,-0.00020884,-0.00006433
 ,-0.00019555,-0.00000464,-0.00004930,-0.00001649,0.00001900,-0.0000390
 9,0.00018222,-0.00015916,0.00025317,0.00000937,0.00005726,0.00002370,0
 .00099899,-0.00114661,0.00035817,-0.00012190,0.00042005,-0.00017983,0.
 00079632,-0.00030452,0.00000934,-0.00342604,0.02473408,-0.01408339,0.0
 6223536,0.00009928,0.00002728,-0.00002335,-0.00004258,-0.00005653,-0.0
 0007969,-0.00001649,-0.00000718,0.00000660,-0.00006096,0.00001413,0.00
 008337,-0.00000415,0.00001172,-0.00000382,-0.00007427,0.00013056,-0.00
 019802,0.00008038,-0.00016708,-0.00017137,0.00006042,0.00013410,-0.000
 13341,-0.00004149,-0.00001029,0.00012156,0.00000711,0.00000950,0.00002
 639,-0.00000549,-0.00000316,-0.00000397,0.00000190,-0.00000332,-0.0000
 0728,-0.00000280,0.00000414,-0.00001373,-0.00000057,-0.00000101,0.0000
 0188,-0.00066534,0.00074701,-0.00027259,-0.00082510,0.00254851,-0.0023
 6022,0.00036218,0.00139349,-0.00048773,0.00006177,-0.00001169,0.000068
 50,0.00000493,0.00000312,0.00000047,0.00000612,-0.00000195,-0.00000022
 ,0.00000264,0.00000105,-0.00000273,-0.00000633,0.00003424,0.00034027,0
 .04449538,-0.25855959,0.10550513,0.00480083,-0.01933142,0.00856094,-0.
 00399772,-0.00161319,-0.00108819,-0.00003325,0.00019957,0.00012134,0.0
 0090157,-0.00082591,0.00006577,-0.00022723,-0.00026721,-0.00013988,-0.
 00021075,0.00017344,-0.00005703,-0.00009467,0.00002382,0.00003697,-0.0
 0001996,-0.00017864,-0.00035365,-0.00003267,0.00000719,0.00000783,0.00
 227128,0.00133995,0.00050507,-0.00067703,0.00040229,0.00001455,-0.0000
 3424,0.00066375,-0.00082470,0.00089128,-0.00631648,0.00295199,-0.04705
 226,0.27943296,0.00004712,0.00001601,0.00001045,-0.00003635,0.00000781
 ,-0.00006949,-0.00001176,0.00000498,0.00000389,-0.00004721,0.00006511,
 0.00013469,0.00000222,-0.00000955,0.00000228,-0.00015634,-0.00048678,0
 .00009274,0.00000475,0.00011212,0.00001111,0.00012094,-0.00043045,-0.0
 0003613,-0.00001193,-0.00000905,0.00004297,0.00000111,0.00000416,-0.00
 000363,-0.00000005,-0.00000236,-0.00000063,0.00000028,-0.00000259,0.00
 000048,-0.00000170,-0.00000327,0.00000028,-0.00000017,0.00000052,0.000
 00153,-0.00069225,0.00042896,0.00278591,-0.00747707,0.03123952,-0.0199
 8391,0.00082057,0.00057893,0.00234895,0.00015073,0.00009847,-0.0001875
 2,0.00000207,-0.00000085,-0.00000012,0.00000481,-0.00000364,-0.0000012
 1,0.00000398,-0.00000125,-0.00000174,-0.00028998,-0.00003968,-0.000088
 81,-0.02120881,0.10381169,-0.09894180,0.00225892,-0.01075991,0.0046981
 0,-0.00198827,-0.00122326,-0.00009584,-0.00010548,0.00007609,0.0000567
 1,-0.00008454,-0.00066820,-0.00014966,-0.00006784,-0.00014036,-0.00014
 583,0.00015600,-0.00020233,0.00012009,-0.00001857,0.00000049,-0.000014
 12,0.00011748,0.00014348,0.00008882,0.00000900,0.00001587,-0.00003374,
 0.00002548,-0.00090939,0.00019421,0.00016818,0.00023995,-0.00003206,0.
 00037875,-0.00161332,-0.00576391,0.00071996,-0.00819421,0.00392817,0.0
 2718317,-0.11229987,0.11103708,-0.00376188,-0.00020971,0.00086137,-0.0
 0128232,0.00038888,0.00348005,0.00445969,0.00018127,-0.00202530,-0.000
 70082,-0.00074562,-0.00297398,-0.00083668,0.00006618,0.00055439,-0.001
 28130,0.00287638,0.01425974,-0.05472237,-0.02995282,-0.00265361,-0.411
 49615,-0.20046483,-0.11738298,0.00145011,-0.00266982,-0.00865260,-0.00
 057017,-0.00120910,-0.00435827,0.00076223,0.00074256,0.00119948,-0.000
 68911,0.00095184,0.00131613,0.00017152,-0.00057516,0.00154881,0.000063
 40,0.00009362,-0.00018783,-0.00210710,-0.00195332,-0.00635623,0.011357
 10,0.00334673,0.00531468,-0.00578617,-0.02592951,-0.06060766,0.0005031
 7,-0.00066218,0.00101462,-0.00128813,-0.00042540,0.00004824,-0.0015746
 7,0.00080802,0.00052420,-0.00084810,-0.00031650,0.00122627,-0.00173251
 ,-0.00169786,0.00008115,-0.00093582,-0.00126477,0.00071151,0.00062062,
 0.00070730,-0.00062692,-0.00029381,-0.00002688,-0.00010526,0.00002527,
 0.00001028,-0.00000753,0.00002281,-0.00004953,0.00004528,-0.00002799,-
 0.00006153,-0.00000804,-0.00012018,-0.00011448,-0.00004968,-0.00001429
 ,-0.00001928,-0.00001363,-0.00008912,0.00003882,0.00003367,-0.00006493
 ,-0.00003065,-0.00001713,-0.00005373,-0.00039198,-0.00007058,0.0000181
 6,0.00001405,-0.00000456,-0.00312301,-0.00223337,-0.00107625,0.0000305
 1,-0.00001673,-0.00011309,-0.00000925,0.00008023,0.00002182,0.47414428
 ,-0.00167278,-0.00059887,0.00122645,-0.00000229,0.00031929,0.00142274,
 0.00148744,0.00017697,-0.00063942,0.00016403,-0.00171153,-0.00087473,-
 0.00029538,-0.00003233,0.00021944,-0.00110978,0.00341334,0.00349650,-0
 .02535889,0.00811318,-0.00175278,-0.20199187,-0.19873651,-0.08111559,0
 .00155072,-0.00150039,-0.00472384,-0.00033553,-0.00051981,-0.00175066,
 0.00035156,0.00031571,0.00043132,-0.00028942,0.00040450,0.00054347,0.0
 0008671,-0.00020078,0.00060854,0.00002374,0.00003382,-0.00007729,-0.00
 261648,-0.00176417,-0.00230849,0.00594684,0.01026805,-0.00216568,-0.03
 279671,-0.01103290,-0.05356264,-0.00008677,-0.00040963,0.00095076,-0.0
 0043914,-0.00012709,0.00003817,-0.00057266,0.00030147,0.00017479,-0.00
 028854,-0.00011873,0.00040391,0.00004680,-0.00467317,0.00527609,-0.001
 90361,-0.00179890,0.00033399,0.00076150,0.00049394,-0.00069334,-0.0002
 7700,-0.00008393,-0.00008067,0.00002816,0.00000758,-0.00002626,-0.0000
 0830,-0.00005957,0.00006558,-0.00002751,-0.00005325,-0.00000696,-0.000
 08544,-0.00010665,-0.00004388,-0.00001029,-0.00001553,-0.00001443,-0.0
 0007444,0.00004887,0.00003142,-0.00005315,-0.00002578,-0.00001893,-0.0
 0011818,-0.00032517,-0.00000161,0.00001638,0.00002153,-0.00001650,-0.0
 0141442,-0.00137383,-0.00001602,0.00006518,0.00000087,0.00000561,-0.00
 002851,0.00005098,0.00015469,0.26079973,0.20078109,-0.00059237,0.00046
 488,0.00163554,0.00089381,0.00023272,0.00008162,-0.00027238,0.00004248
 ,0.00027626,0.00075147,0.00049879,0.00106728,0.00025726,-0.00001766,-0
 .00010064,0.00265374,-0.00091758,-0.00620093,0.00835177,0.00478547,0.0
 2030637,-0.13305256,-0.09024978,-0.15000349,0.00123061,0.00022631,-0.0
 0351389,-0.00033984,-0.00000724,0.00030680,0.00009002,-0.00007030,-0.0
 0023118,0.00008895,-0.00005383,-0.00003041,0.00003636,0.00007612,-0.00
 007900,-0.00000032,-0.00000455,0.00000506,-0.00267235,-0.00082805,0.00
 162443,0.01392134,0.00372125,-0.00191476,-0.06062192,-0.04970484,-0.04
 675659,-0.00053298,0.00008293,0.00072075,0.00016438,0.00005490,-0.0000
 1356,0.00011060,-0.00007971,-0.00004858,0.00004353,0.00001563,-0.00008
 057,-0.00182773,0.00111813,0.00486502,-0.00238325,-0.00225876,0.000475
 21,0.00065830,0.00067991,-0.00106795,-0.00031568,-0.00009509,-0.000086
 67,0.00003190,0.00000919,-0.00001449,0.00005676,-0.00002113,0.00007810
 ,-0.00002421,-0.00005866,-0.00001088,-0.00015203,-0.00007115,-0.000070
 92,-0.00001149,-0.00001666,-0.00001700,-0.00013175,-0.00002604,0.00004
 802,-0.00006244,-0.00003028,-0.00001659,-0.00006777,-0.00037930,-0.000
 01628,0.00002195,0.00002773,-0.00003446,-0.00289724,-0.00229827,-0.000
 72151,0.00005250,0.00002254,0.00008267,-0.00000029,0.00010306,-0.00000
 478,0.17478241,0.13414242,0.17813211,-0.01647674,-0.00792307,-0.009582
 62,-0.00264732,-0.00110300,0.00341351,0.00024893,-0.00036323,-0.000934
 69,0.00033023,0.00047569,0.00056590,-0.00003287,0.00006980,-0.00009816
 ,0.00076467,-0.00098066,0.00201170,0.00700366,0.00031784,-0.00021661,-
 0.00204821,0.00022419,-0.00008544,-0.26137019,-0.08347148,-0.10908450,
 -0.00366281,-0.00088501,-0.00078736,0.00199661,-0.00066946,-0.00314030
 ,0.00065296,-0.00019552,0.00022551,0.00013842,0.00067013,-0.00053101,-
 0.00001907,0.00003741,0.00007798,0.00046845,0.00014450,0.00004470,-0.0
 0006702,-0.00003059,-0.00008632,0.00013621,-0.00000474,-0.00018405,0.0
 0000052,0.00005900,0.00012001,-0.00057398,-0.00020004,-0.00002815,-0.0
 0015041,0.00016983,0.00010021,-0.00002110,-0.00001662,0.00014515,0.000
 05812,-0.00006527,-0.00000346,-0.00001339,-0.00000524,-0.00000635,-0.0
 0000075,-0.00000378,-0.00000723,-0.00000019,-0.00000140,0.00000054,0.0
 0000004,0.00000023,-0.00000019,0.00000022,0.00000098,-0.00000015,0.000
 00012,0.00000010,0.00000009,-0.00000049,0.00000046,0.00000018,0.000000
 02,0.00000007,-0.00000007,-0.00000021,-0.00000092,0.00000054,0.0000001
 8,0.00000009,-0.00000041,0.00000033,0.00000135,0.00000127,-0.00000051,
 0.00000079,-0.00000033,0.00000285,-0.00000573,0.00001144,-0.00000144,0
 .00000108,0.00000578,-0.00000008,-0.00000196,0.00000099,-0.00021928,0.
 00052829,0.00176094,0.27550350,-0.00134729,0.00455201,-0.00076412,-0.0
 0115826,0.00520601,-0.00159529,-0.00004592,0.00032411,-0.00024216,0.00
 019005,-0.00082842,0.00045378,0.00003471,-0.00035244,0.00011008,-0.000
 45114,0.00569961,-0.00250913,-0.00601853,0.00228704,-0.00520686,-0.000
 21518,-0.00425281,0.00098605,-0.08557557,-0.07436961,-0.04570479,0.000
 31887,-0.00305039,0.00052934,0.00019952,-0.00068483,-0.00166814,0.0006
 9829,-0.00023606,-0.00072352,0.00001927,-0.00011772,0.00092470,0.00006
 237,-0.00005264,-0.00003561,-0.00033298,0.00000175,0.00021925,0.000153
 55,-0.00001993,0.00002851,0.00002775,0.00005279,-0.00017003,0.00008471
 ,-0.00010969,-0.00000135,0.00024731,-0.00005211,0.00005144,0.00001994,
 0.00001331,0.00008006,0.00002738,-0.00000294,0.00006078,-0.00006500,0.
 00018529,-0.00010316,-0.00000814,-0.00000874,0.00000421,0.00000473,-0.
 00000050,-0.00000285,-0.00000029,0.00000147,-0.00000139,0.00000075,0.,
 -0.00000043,-0.00000138,-0.00000101,0.00000054,-0.00000024,-0.00000049
 ,-0.00000008,-0.00000003,-0.00000183,0.00000051,0.00000003,-0.00000018
 ,-0.00000025,0.00000078,0.00000159,-0.00000007,-0.00000016,-0.00000004
 ,-0.00000006,-0.00000062,-0.00000190,-0.00000042,0.00000033,-0.0000003
 1,-0.00000009,-0.00001256,-0.00001407,-0.00000188,0.00000160,0.0000002
 7,-0.00000131,0.00000034,0.00000186,0.00000147,-0.00008486,0.00051735,
 0.00088440,0.09322587,0.06531421,0.01226629,0.00474669,0.01184703,0.00
 359632,-0.00149606,-0.00146280,0.00013561,0.00024647,0.00094527,0.0004
 4765,0.00025988,-0.00074084,-0.00010410,0.00010926,0.00003929,0.002325
 72,-0.00237446,-0.00376832,-0.02407690,-0.00960314,-0.00843244,-0.0011
 6675,0.00065592,-0.00051229,-0.11004655,-0.04719288,-0.11381945,0.0022
 9090,0.00094558,-0.00147642,-0.00030416,-0.00076568,-0.00236990,-0.000
 56723,0.00007830,0.00053759,-0.00030083,-0.00003971,-0.00032752,-0.000
 03535,0.00003435,0.00011829,-0.00138926,-0.00071477,-0.00039309,-0.000
 47918,0.00008033,0.00007570,-0.00008940,0.00011546,0.00076607,0.000097
 31,0.00001592,-0.00039251,0.00051186,0.00026423,0.00001014,0.00010473,
 -0.00015196,-0.00012458,0.00000570,0.00001748,-0.00012817,0.00006832,-
 0.00000482,0.00006223,0.00006330,0.00000240,0.00000038,0.00000720,0.00
 000134,0.00000633,0.00000237,0.00001237,0.00000031,0.00000027,-0.00000
 061,0.00000030,-0.00000747,-0.00000333,-0.00000334,-0.00000021,-0.0000
 0065,0.00000003,0.00000377,-0.00000838,0.00000294,-0.00000023,-0.00000
 055,0.00000008,0.00000656,0.00001024,-0.00000049,-0.00000079,-0.000000
 10,-0.00000007,0.00000121,-0.00000759,-0.00000856,-0.00000049,-0.00000
 198,0.00000309,0.00007451,0.00001538,-0.00000644,0.00000381,-0.0000063
 7,-0.00002569,-0.00000281,-0.00000025,-0.00000353,0.00026730,0.0003638
 0,0.00132989,0.11629097,0.05439788,0.11825146\\-0.00001155,-0.00000085
 ,-0.00000279,0.00000245,0.00000237,0.00000570,0.00000262,-0.00000742,0
 .00000651,0.00000341,-0.00000528,-0.00000704,-0.00000082,-0.00000563,0
 .00000132,-0.00001092,0.00000003,0.00000896,-0.00000258,0.00000324,0.0
 0000154,-0.00000903,0.00000806,-0.00002138,0.00000401,0.00000154,-0.00
 000920,-0.00000166,-0.00000131,-0.00001556,-0.00000725,0.00000484,0.00
 000981,0.00000273,0.00000483,0.00001037,0.00000675,0.00001763,0.000003
 06,0.00000236,0.00000006,-0.00000393,0.00000193,0.00000240,-0.00000706
 ,-0.00000615,0.00000342,-0.00000372,0.00000668,0.00000147,0.00001366,0
 .00000026,-0.00000345,0.00000277,0.00000247,-0.00000418,0.00000023,-0.
 00000464,-0.00000669,-0.00000359,0.00000346,-0.00000695,0.00000286,-0.
 00000737,0.00001171,-0.00000682,-0.00000057,0.00000221,-0.00000058,0.0
 0000297,-0.00000182,0.00000108,-0.00000375,-0.00001250,-0.00000244,0.0
 0000691,0.00000607,0.00000179,0.00001958,0.00000433,0.00000923,0.00000
 843,-0.00000309,0.00000138,-0.00000214,0.00000176,-0.00000063,0.000008
 05,-0.00001003,0.00000577,-0.00000630,-0.00001942,0.00000003,0.0000004
 8,-0.00000834,0.00000406,0.00000657,0.00000160,0.00000659,-0.00000552,
 -0.00000527,-0.00000179,-0.00000064,0.00000192,-0.00000076,0.00000053,
 0.00000639,-0.00000106,-0.00000492,-0.00000035,-0.00000450,-0.00000213
 ,0.00000972,-0.00000097,-0.00000473,0.00000698,-0.00000290\\\@
 The archive entry for this job was punched.


 FRICTION IS A DRAG,
 AND ENTROPY AIN'T WHAT IT USED TO BE.
 Job cpu time:       0 days  9 hours 27 minutes  8.5 seconds.
 Elapsed time:       0 days  0 hours 37 minutes 53.7 seconds.
 File lengths (MBytes):  RWF=   1303 Int=      0 D2E=      0 Chk=     34 Scr=      1
 Normal termination of Gaussian 16 at Fri Jul  1 10:40:47 2022.
