 Entering Gaussian System, Link 0=g16
 AtFile(1): /home/561/yj5695/Basis/6-31pGd.gbs
 Initial command:
 /apps/gaussian/g16c01/g16/l1.exe "/jobfs/48973455.gadi-pbs/Gau-3125693.inp" -scrdir="/jobfs/48973455.gadi-pbs/"
 Entering Link 1 = /apps/gaussian/g16c01/g16/l1.exe PID=   3125694.
  
 Copyright (c) 1988-2019, Gaussian, Inc.  All Rights Reserved.
  
 This is part of the Gaussian(R) 16 program.  It is based on
 the Gaussian(R) 09 system (copyright 2009, Gaussian, Inc.),
 the Gaussian(R) 03 system (copyright 2003, Gaussian, Inc.),
 the Gaussian(R) 98 system (copyright 1998, Gaussian, Inc.),
 the Gaussian(R) 94 system (copyright 1995, Gaussian, Inc.),
 the Gaussian 92(TM) system (copyright 1992, Gaussian, Inc.),
 the Gaussian 90(TM) system (copyright 1990, Gaussian, Inc.),
 the Gaussian 88(TM) system (copyright 1988, Gaussian, Inc.),
 the Gaussian 86(TM) system (copyright 1986, Carnegie Mellon
 University), and the Gaussian 82(TM) system (copyright 1983,
 Carnegie Mellon University). Gaussian is a federally registered
 trademark of Gaussian, Inc.
  
 This software contains proprietary and confidential information,
 including trade secrets, belonging to Gaussian, Inc.
  
 This software is provided under written license and may be
 used, copied, transmitted, or stored only in accord with that
 written license.
  
 The following legend is applicable only to US Government
 contracts under FAR:
  
                    RESTRICTED RIGHTS LEGEND
  
 Use, reproduction and disclosure by the US Government is
 subject to restrictions as set forth in subparagraphs (a)
 and (c) of the Commercial Computer Software - Restricted
 Rights clause in FAR 52.227-19.
  
 Gaussian, Inc.
 340 Quinnipiac St., Bldg. 40, Wallingford CT 06492
  
  
 ---------------------------------------------------------------
 Warning -- This program may not be used in any manner that
 competes with the business of Gaussian, Inc. or will provide
 assistance to any competitor of Gaussian, Inc.  The licensee
 of this program is prohibited from giving any competitor of
 Gaussian, Inc. access to this program.  By using this program,
 the user acknowledges that Gaussian, Inc. is engaged in the
 business of creating and licensing software in the field of
 computational chemistry and represents and warrants to the
 licensee that it is not a competitor of Gaussian, Inc. and that
 it will not use this program in any manner prohibited above.
 ---------------------------------------------------------------
  

 Cite this work as:
 Gaussian 16, Revision C.01,
 M. J. Frisch, G. W. Trucks, H. B. Schlegel, G. E. Scuseria, 
 M. A. Robb, J. R. Cheeseman, G. Scalmani, V. Barone, 
 G. A. Petersson, H. Nakatsuji, X. Li, M. Caricato, A. V. Marenich, 
 J. Bloino, B. G. Janesko, R. Gomperts, B. Mennucci, H. P. Hratchian, 
 J. V. Ortiz, A. F. Izmaylov, J. L. Sonnenberg, D. Williams-Young, 
 F. Ding, F. Lipparini, F. Egidi, J. Goings, B. Peng, A. Petrone, 
 T. Henderson, D. Ranasinghe, V. G. Zakrzewski, J. Gao, N. Rega, 
 G. Zheng, W. Liang, M. Hada, M. Ehara, K. Toyota, R. Fukuda, 
 J. Hasegawa, M. Ishida, T. Nakajima, Y. Honda, O. Kitao, H. Nakai, 
 T. Vreven, K. Throssell, J. A. Montgomery, Jr., J. E. Peralta, 
 F. Ogliaro, M. J. Bearpark, J. J. Heyd, E. N. Brothers, K. N. Kudin, 
 V. N. Staroverov, T. A. Keith, R. Kobayashi, J. Normand, 
 K. Raghavachari, A. P. Rendell, J. C. Burant, S. S. Iyengar, 
 J. Tomasi, M. Cossi, J. M. Millam, M. Klene, C. Adamo, R. Cammi, 
 J. W. Ochterski, R. L. Martin, K. Morokuma, O. Farkas, 
 J. B. Foresman, and D. J. Fox, Gaussian, Inc., Wallingford CT, 2019.
 
 ******************************************
 Gaussian 16:  ES64L-G16RevC.01  3-Jul-2019
                 1-Jul-2022 
 ******************************************
 %nproc=16
 Will use up to   16 processors via shared memory.
 %mem=50gb
 -----------------------------------------------------
 #m062X/gen 6D OPT Freq=noraman SCRF=(SMD,Solvent=h2o)
 -----------------------------------------------------
 1/18=20,19=15,26=3,38=1/1,3;
 2/9=110,12=2,17=6,18=5,40=1/2;
 3/5=7,8=2,11=2,25=1,30=1,70=32201,71=1,72=1,74=-55/1,2,3;
 4//1;
 5/5=2,38=5,53=1/2;
 6/7=2,8=2,9=2,10=2,28=1/1;
 7//1,2,3,16;
 1/18=20,19=15,26=3/3(2);
 2/9=110/2;
 99//99;
 2/9=110/2;
 3/5=7,6=1,8=2,11=2,25=1,30=1,70=32205,71=1,72=1,74=-55,82=7/1,2,3;
 4/5=5,16=3,69=1/1;
 5/5=2,38=5,53=1/2;
 7//1,2,3,16;
 1/18=20,19=15,26=3/3(-5);
 2/9=110/2;
 6/7=2,8=2,9=2,10=2,19=2,28=1/1;
 99/9=1/99;
 ---------------
 A.34.smd.a1.smd
 ---------------
 Symbolic Z-matrix:
 Charge = -1 Multiplicity = 1
 C                    -1.55499   0.92108  -0.89399 
 C                    -2.681     0.73965  -1.71323 
 Cl                   -4.29416   0.76755  -1.04733 
 C                    -2.57436   0.51589  -3.07519 
 H                    -3.46196   0.37252  -3.68382 
 C                    -1.30493   0.46528  -3.66542 
 C                    -0.16719   0.65582  -2.86256 
 C                     1.16833   0.68579  -3.49868 
 C                    -0.30439   0.8792   -1.4937 
 S                    -1.66546   1.19519   0.89477 
 O                    -0.2454    1.30082   1.31488 
 O                    -2.42233   2.47712   1.00191 
 N                    -2.32002  -0.03003   1.60416 
 H                    -3.3305    0.01486   1.45892 
 N                    -1.14951   0.29136  -5.02826 
 C                     0.08436  -0.30993  -5.47541 
 N                     1.18444   0.36826  -4.82181 
 H                    -1.97926  -0.01047  -5.53063 
 O                     2.1931    1.03162  -2.90166 
 H                     0.58546   1.02852  -0.89112 
 H                     2.0962    0.33269  -5.26863 
 C                     0.13113  -1.83054  -5.17595 
 H                     0.17824  -0.17206  -6.55402 
 H                     0.06671  -2.04041  -4.10781 
 Cl                    1.67001  -2.51772  -5.76378 
 Cl                   -1.2451   -2.64727  -5.96716 
 

 GradGradGradGradGradGradGradGradGradGradGradGradGradGradGradGradGradGrad
 Berny optimization.
 Initialization pass.
                           ----------------------------
                           !    Initial Parameters    !
                           ! (Angstroms and Degrees)  !
 --------------------------                            --------------------------
 ! Name  Definition              Value          Derivative Info.                !
 --------------------------------------------------------------------------------
 ! R1    R(1,2)                  1.4043         estimate D2E/DX2                !
 ! R2    R(1,9)                  1.3876         estimate D2E/DX2                !
 ! R3    R(1,10)                 1.813          estimate D2E/DX2                !
 ! R4    R(2,3)                  1.7454         estimate D2E/DX2                !
 ! R5    R(2,4)                  1.3843         estimate D2E/DX2                !
 ! R6    R(4,5)                  1.0857         estimate D2E/DX2                !
 ! R7    R(4,6)                  1.4008         estimate D2E/DX2                !
 ! R8    R(6,7)                  1.4055         estimate D2E/DX2                !
 ! R9    R(6,15)                 1.3827         estimate D2E/DX2                !
 ! R10   R(7,8)                  1.4796         estimate D2E/DX2                !
 ! R11   R(7,9)                  1.3937         estimate D2E/DX2                !
 ! R12   R(8,17)                 1.3608         estimate D2E/DX2                !
 ! R13   R(8,19)                 1.2354         estimate D2E/DX2                !
 ! R14   R(9,20)                 1.085          estimate D2E/DX2                !
 ! R15   R(10,11)                1.4847         estimate D2E/DX2                !
 ! R16   R(10,12)                1.4925         estimate D2E/DX2                !
 ! R17   R(10,13)                1.5598         estimate D2E/DX2                !
 ! R18   R(13,14)                1.0219         estimate D2E/DX2                !
 ! R19   R(15,16)                1.4436         estimate D2E/DX2                !
 ! R20   R(15,18)                1.0159         estimate D2E/DX2                !
 ! R21   R(16,17)                1.4482         estimate D2E/DX2                !
 ! R22   R(16,22)                1.5505         estimate D2E/DX2                !
 ! R23   R(16,23)                1.0914         estimate D2E/DX2                !
 ! R24   R(17,21)                1.016          estimate D2E/DX2                !
 ! R25   R(22,24)                1.0905         estimate D2E/DX2                !
 ! R26   R(22,25)                1.7849         estimate D2E/DX2                !
 ! R27   R(22,26)                1.7852         estimate D2E/DX2                !
 ! A1    A(2,1,9)              117.8169         estimate D2E/DX2                !
 ! A2    A(2,1,10)             123.111          estimate D2E/DX2                !
 ! A3    A(9,1,10)             119.0712         estimate D2E/DX2                !
 ! A4    A(1,2,3)              121.0946         estimate D2E/DX2                !
 ! A5    A(1,2,4)              122.2138         estimate D2E/DX2                !
 ! A6    A(3,2,4)              116.6874         estimate D2E/DX2                !
 ! A7    A(2,4,5)              120.6555         estimate D2E/DX2                !
 ! A8    A(2,4,6)              119.3515         estimate D2E/DX2                !
 ! A9    A(5,4,6)              119.9912         estimate D2E/DX2                !
 ! A10   A(4,6,7)              119.2084         estimate D2E/DX2                !
 ! A11   A(4,6,15)             121.4464         estimate D2E/DX2                !
 ! A12   A(7,6,15)             119.2821         estimate D2E/DX2                !
 ! A13   A(6,7,8)              119.1988         estimate D2E/DX2                !
 ! A14   A(6,7,9)              120.2041         estimate D2E/DX2                !
 ! A15   A(8,7,9)              120.5222         estimate D2E/DX2                !
 ! A16   A(7,8,17)             115.087          estimate D2E/DX2                !
 ! A17   A(7,8,19)             123.137          estimate D2E/DX2                !
 ! A18   A(17,8,19)            121.6945         estimate D2E/DX2                !
 ! A19   A(1,9,7)              121.2009         estimate D2E/DX2                !
 ! A20   A(1,9,20)             119.669          estimate D2E/DX2                !
 ! A21   A(7,9,20)             119.1291         estimate D2E/DX2                !
 ! A22   A(1,10,11)            103.3944         estimate D2E/DX2                !
 ! A23   A(1,10,12)            103.39           estimate D2E/DX2                !
 ! A24   A(1,10,13)            110.8262         estimate D2E/DX2                !
 ! A25   A(11,10,12)           113.8042         estimate D2E/DX2                !
 ! A26   A(11,10,13)           109.1831         estimate D2E/DX2                !
 ! A27   A(12,10,13)           115.4183         estimate D2E/DX2                !
 ! A28   A(10,13,14)           108.411          estimate D2E/DX2                !
 ! A29   A(6,15,16)            116.9867         estimate D2E/DX2                !
 ! A30   A(6,15,18)            115.6581         estimate D2E/DX2                !
 ! A31   A(16,15,18)           114.9111         estimate D2E/DX2                !
 ! A32   A(15,16,17)           108.3253         estimate D2E/DX2                !
 ! A33   A(15,16,22)           111.9901         estimate D2E/DX2                !
 ! A34   A(15,16,23)           109.0877         estimate D2E/DX2                !
 ! A35   A(17,16,22)           110.4375         estimate D2E/DX2                !
 ! A36   A(17,16,23)           108.7551         estimate D2E/DX2                !
 ! A37   A(22,16,23)           108.189          estimate D2E/DX2                !
 ! A38   A(8,17,16)            122.6229         estimate D2E/DX2                !
 ! A39   A(8,17,21)            116.5136         estimate D2E/DX2                !
 ! A40   A(16,17,21)           117.8274         estimate D2E/DX2                !
 ! A41   A(16,22,24)           112.0954         estimate D2E/DX2                !
 ! A42   A(16,22,25)           109.8751         estimate D2E/DX2                !
 ! A43   A(16,22,26)           109.8658         estimate D2E/DX2                !
 ! A44   A(24,22,25)           107.4233         estimate D2E/DX2                !
 ! A45   A(24,22,26)           107.4892         estimate D2E/DX2                !
 ! A46   A(25,22,26)           110.0316         estimate D2E/DX2                !
 ! D1    D(9,1,2,3)            179.6685         estimate D2E/DX2                !
 ! D2    D(9,1,2,4)              0.4266         estimate D2E/DX2                !
 ! D3    D(10,1,2,3)             0.0203         estimate D2E/DX2                !
 ! D4    D(10,1,2,4)          -179.2215         estimate D2E/DX2                !
 ! D5    D(2,1,9,7)             -0.4117         estimate D2E/DX2                !
 ! D6    D(2,1,9,20)           179.2105         estimate D2E/DX2                !
 ! D7    D(10,1,9,7)           179.2511         estimate D2E/DX2                !
 ! D8    D(10,1,9,20)           -1.1267         estimate D2E/DX2                !
 ! D9    D(2,1,10,11)          178.9257         estimate D2E/DX2                !
 ! D10   D(2,1,10,12)          -62.181          estimate D2E/DX2                !
 ! D11   D(2,1,10,13)           62.0556         estimate D2E/DX2                !
 ! D12   D(9,1,10,11)           -0.7183         estimate D2E/DX2                !
 ! D13   D(9,1,10,12)          118.175          estimate D2E/DX2                !
 ! D14   D(9,1,10,13)         -117.5884         estimate D2E/DX2                !
 ! D15   D(1,2,4,5)            179.6031         estimate D2E/DX2                !
 ! D16   D(1,2,4,6)              0.0825         estimate D2E/DX2                !
 ! D17   D(3,2,4,5)              0.3297         estimate D2E/DX2                !
 ! D18   D(3,2,4,6)           -179.1909         estimate D2E/DX2                !
 ! D19   D(2,4,6,7)             -0.6049         estimate D2E/DX2                !
 ! D20   D(2,4,6,15)          -177.6951         estimate D2E/DX2                !
 ! D21   D(5,4,6,7)            179.8713         estimate D2E/DX2                !
 ! D22   D(5,4,6,15)             2.7811         estimate D2E/DX2                !
 ! D23   D(4,6,7,8)           -176.2482         estimate D2E/DX2                !
 ! D24   D(4,6,7,9)              0.6203         estimate D2E/DX2                !
 ! D25   D(15,6,7,8)             0.9057         estimate D2E/DX2                !
 ! D26   D(15,6,7,9)           177.7742         estimate D2E/DX2                !
 ! D27   D(4,6,15,16)         -154.0118         estimate D2E/DX2                !
 ! D28   D(4,6,15,18)          -13.747          estimate D2E/DX2                !
 ! D29   D(7,6,15,16)           28.9001         estimate D2E/DX2                !
 ! D30   D(7,6,15,18)          169.1649         estimate D2E/DX2                !
 ! D31   D(6,7,8,17)            -7.2166         estimate D2E/DX2                !
 ! D32   D(6,7,8,19)           169.5482         estimate D2E/DX2                !
 ! D33   D(9,7,8,17)           175.9251         estimate D2E/DX2                !
 ! D34   D(9,7,8,19)            -7.3101         estimate D2E/DX2                !
 ! D35   D(6,7,9,1)             -0.1045         estimate D2E/DX2                !
 ! D36   D(6,7,9,20)          -179.7288         estimate D2E/DX2                !
 ! D37   D(8,7,9,1)            176.7222         estimate D2E/DX2                !
 ! D38   D(8,7,9,20)            -2.902          estimate D2E/DX2                !
 ! D39   D(7,8,17,16)          -16.9425         estimate D2E/DX2                !
 ! D40   D(7,8,17,21)         -176.7802         estimate D2E/DX2                !
 ! D41   D(19,8,17,16)         166.2413         estimate D2E/DX2                !
 ! D42   D(19,8,17,21)           6.4037         estimate D2E/DX2                !
 ! D43   D(1,10,13,14)         -77.918          estimate D2E/DX2                !
 ! D44   D(11,10,13,14)        168.8312         estimate D2E/DX2                !
 ! D45   D(12,10,13,14)         39.1528         estimate D2E/DX2                !
 ! D46   D(6,15,16,17)         -48.4531         estimate D2E/DX2                !
 ! D47   D(6,15,16,22)          73.5828         estimate D2E/DX2                !
 ! D48   D(6,15,16,23)        -166.6834         estimate D2E/DX2                !
 ! D49   D(18,15,16,17)        170.9904         estimate D2E/DX2                !
 ! D50   D(18,15,16,22)        -66.9738         estimate D2E/DX2                !
 ! D51   D(18,15,16,23)         52.76           estimate D2E/DX2                !
 ! D52   D(15,16,17,8)          43.7042         estimate D2E/DX2                !
 ! D53   D(15,16,17,21)       -156.7074         estimate D2E/DX2                !
 ! D54   D(22,16,17,8)         -79.2774         estimate D2E/DX2                !
 ! D55   D(22,16,17,21)         80.311          estimate D2E/DX2                !
 ! D56   D(23,16,17,8)         162.146          estimate D2E/DX2                !
 ! D57   D(23,16,17,21)        -38.2656         estimate D2E/DX2                !
 ! D58   D(15,16,22,24)        -61.1476         estimate D2E/DX2                !
 ! D59   D(15,16,22,25)        179.4864         estimate D2E/DX2                !
 ! D60   D(15,16,22,26)         58.295          estimate D2E/DX2                !
 ! D61   D(17,16,22,24)         59.6722         estimate D2E/DX2                !
 ! D62   D(17,16,22,25)        -59.6938         estimate D2E/DX2                !
 ! D63   D(17,16,22,26)        179.1148         estimate D2E/DX2                !
 ! D64   D(23,16,22,24)        178.5936         estimate D2E/DX2                !
 ! D65   D(23,16,22,25)         59.2275         estimate D2E/DX2                !
 ! D66   D(23,16,22,26)        -61.9638         estimate D2E/DX2                !
 --------------------------------------------------------------------------------
 Trust Radius=3.00D-01 FncErr=1.00D-07 GrdErr=1.00D-06 EigMax=2.50D+02 EigMin=1.00D-04
 Number of steps in this run=    149 maximum allowed number of steps=    156.
 GradGradGradGradGradGradGradGradGradGradGradGradGradGradGradGradGradGrad

                          Input orientation:                          
 ---------------------------------------------------------------------
 Center     Atomic      Atomic             Coordinates (Angstroms)
 Number     Number       Type             X           Y           Z
 ---------------------------------------------------------------------
      1          6           0       -1.554987    0.921081   -0.893991
      2          6           0       -2.680999    0.739647   -1.713231
      3         17           0       -4.294160    0.767545   -1.047334
      4          6           0       -2.574363    0.515889   -3.075194
      5          1           0       -3.461964    0.372524   -3.683816
      6          6           0       -1.304933    0.465279   -3.665416
      7          6           0       -0.167192    0.655823   -2.862558
      8          6           0        1.168328    0.685794   -3.498682
      9          6           0       -0.304394    0.879198   -1.493695
     10         16           0       -1.665463    1.195187    0.894770
     11          8           0       -0.245402    1.300819    1.314877
     12          8           0       -2.422330    2.477120    1.001911
     13          7           0       -2.320017   -0.030029    1.604155
     14          1           0       -3.330501    0.014862    1.458916
     15          7           0       -1.149510    0.291355   -5.028261
     16          6           0        0.084363   -0.309930   -5.475410
     17          7           0        1.184438    0.368262   -4.821810
     18          1           0       -1.979262   -0.010467   -5.530631
     19          8           0        2.193099    1.031620   -2.901661
     20          1           0        0.585458    1.028520   -0.891117
     21          1           0        2.096200    0.332693   -5.268629
     22          6           0        0.131134   -1.830535   -5.175951
     23          1           0        0.178241   -0.172063   -6.554021
     24          1           0        0.066708   -2.040411   -4.107814
     25         17           0        1.670012   -2.517722   -5.763783
     26         17           0       -1.245095   -2.647272   -5.967164
 ---------------------------------------------------------------------
                    Distance matrix (angstroms):
                    1          2          3          4          5
     1  C    0.000000
     2  C    1.404270   0.000000
     3  Cl   2.747755   1.745418   0.000000
     4  C    2.441507   1.384335   2.670814   0.000000
     5  H    3.423536   2.151253   2.792782   1.085730   0.000000
     6  C    2.819766   2.404134   3.985122   1.400848   2.159103
     7  C    2.423137   2.765358   4.509921   2.420592   3.407381
     8  C    3.775741   4.243590   5.987868   3.770404   4.644569
     9  C    1.387581   2.390799   4.016209   2.790321   3.876028
    10  S    1.813010   2.835577   3.296163   4.128942   4.986746
    11  O    2.595826   3.926383   4.717718   5.031192   6.016223
    12  O    2.601535   3.233840   3.259724   4.526845   5.240821
    13  N    2.780398   3.424582   3.400553   4.717947   5.424825
    14  H    3.083805   3.318084   2.788630   4.623951   5.156830
    15  N    4.201566   3.679110   5.095425   2.427981   2.676110
    16  C    5.019189   4.785690   6.319832   3.675845   4.031375
    17  N    4.820562   4.974213   6.664918   4.147414   4.783733
    18  H    4.748286   3.953182   5.105292   2.580769   2.399128
    19  O    4.253364   5.025380   6.752244   4.798415   5.746818
    20  H    2.143142   3.380689   4.889088   3.875236   4.960960
    21  H    5.728423   5.968928   7.671058   5.163223   5.779827
    22  C    5.361863   5.148238   6.586253   4.151939   4.471050
    23  H    6.019550   5.695587   7.156035   4.489136   4.667520
    24  H    4.661436   4.583955   6.022319   3.817883   4.295760
    25  Cl   6.777969   6.778549   8.283068   5.869074   6.246356
    26  Cl   6.210174   5.623965   6.720305   4.487319   4.387181
                    6          7          8          9         10
     6  C    0.000000
     7  C    1.405469   0.000000
     8  C    2.488664   1.479583   0.000000
     9  C    2.426681   1.393738   2.495253   0.000000
    10  S    4.632283   4.080839   5.252835   2.767151   0.000000
    11  O    5.159850   4.227659   5.054428   2.840655   1.484662
    12  O    5.203847   4.830827   6.029678   3.642397   1.492541
    13  N    5.389258   5.005654   6.222532   3.806062   1.559751
    14  H    5.528524   5.393746   6.728104   4.315358   2.117494
    15  N    1.382661   2.405838   2.804918   3.681431   6.013769
    16  C    2.409807   2.796954   2.464528   4.173633   6.775431
    17  N    2.746566   2.397554   1.360792   3.681579   6.440887
    18  H    2.039628   3.293350   3.810632   4.460217   6.545063
    19  O    3.624954   2.390340   1.235389   2.871075   5.415546
    20  H    3.404050   2.142887   2.693807   1.085004   2.878162
    21  H    3.762390   3.319116   2.029369   4.506844   7.271966
    22  C    3.100769   3.409217   3.197016   4.592532   7.016866
    23  H    3.309086   3.798897   3.324348   5.190856   7.794428
    24  H    2.890605   2.979102   3.002799   3.936426   6.204463
    25  Cl   4.706563   4.675876   3.955361   5.802671   8.321503
    26  Cl   3.871640   4.659495   4.798681   5.773459   7.875744
                   11         12         13         14         15
    11  O    0.000000
    12  O    2.494123   0.000000
    13  N    2.481706   2.580496   0.000000
    14  H    3.345485   2.663896   1.021855   0.000000
    15  N    6.486280   6.539160   6.742575   6.849572   0.000000
    16  C    6.986505   7.483772   7.481954   7.736386   1.443582
    17  N    6.369696   7.167411   7.330271   7.743196   2.344323
    18  H    7.182390   7.004178   7.142945   7.119007   1.015855
    19  O    4.878314   6.215266   6.465113   7.110456   4.030317
    20  H    2.372949   3.837810   3.973499   4.678129   4.546371
    21  H    7.054284   8.020932   8.177390   8.649275   3.254861
    22  C    7.216509   7.952487   7.431003   7.707780   2.482797
    23  H    8.016758   8.418625   8.533305   8.749478   2.074999
    24  H    6.377053   7.260350   6.508816   6.837665   2.786313
    25  Cl   8.267859   9.352557   8.740450   9.142565   4.047420
    26  Cl   8.343556   8.730022   8.082715   8.159812   3.086455
                   16         17         18         19         20
    16  C    0.000000
    17  N    1.448207   0.000000
    18  H    2.085971   3.264178   0.000000
    19  O    3.587577   2.268130   5.040439   0.000000
    20  H    4.801905   4.030517   5.402071   2.574258   0.000000
    21  H    2.122077   1.015983   4.098267   2.469904   4.682855
    22  C    1.550517   2.463650   2.809309   4.197145   5.171113
    23  H    1.091431   2.074835   2.393378   4.341456   5.803077
    24  H    2.205719   2.749694   3.214199   3.926031   4.476000
    25  Cl   2.733457   3.074410   4.433722   4.589465   6.123313
    26  Cl   2.733578   4.038306   2.771697   5.895145   6.529060
                   21         22         23         24         25
    21  H    0.000000
    22  C    2.923975   0.000000
    23  H    2.363383   2.156809   0.000000
    24  H    3.331359   1.090466   3.080112   0.000000
    25  Cl   2.924325   1.784914   2.889978   2.353857   0.000000
    26  Cl   4.531269   1.785240   2.914952   2.355056   2.925063
                   26
    26  Cl   0.000000
 Stoichiometry    C9H7Cl3N3O3S(1-)
 Framework group  C1[X(C9H7Cl3N3O3S)]
 Deg. of freedom    72
 Full point group                 C1      NOp   1
 Largest Abelian subgroup         C1      NOp   1
 Largest concise Abelian subgroup C1      NOp   1
                         Standard orientation:                         
 ---------------------------------------------------------------------
 Center     Atomic      Atomic             Coordinates (Angstroms)
 Number     Number       Type             X           Y           Z
 ---------------------------------------------------------------------
      1          6           0        2.054311   -0.187026   -0.052602
      2          6           0        1.730300    1.134362   -0.400349
      3         17           0        2.916874    2.410291   -0.297726
      4          6           0        0.463025    1.496434   -0.823788
      5          1           0        0.238547    2.527255   -1.080358
      6          6           0       -0.537310    0.519574   -0.910096
      7          6           0       -0.227921   -0.810246   -0.576632
      8          6           0       -1.260373   -1.856182   -0.747587
      9          6           0        1.056700   -1.146220   -0.153101
     10         16           0        3.699606   -0.684285    0.524236
     11          8           0        3.547387   -2.137648    0.786509
     12          8           0        4.582513   -0.371053   -0.637677
     13          7           0        4.063097    0.041545    1.856102
     14          1           0        4.347003    0.998018    1.635322
     15          7           0       -1.804490    0.823618   -1.372227
     16          6           0       -2.887622   -0.012592   -0.912329
     17          7           0       -2.497239   -1.396974   -1.080822
     18          1           0       -2.024507    1.813451   -1.433746
     19          8           0       -1.018793   -3.064463   -0.658815
     20          1           0        1.277599   -2.178956    0.095684
     21          1           0       -3.234559   -2.092107   -1.154124
     22          6           0       -3.251801    0.270932    0.567904
     23          1           0       -3.771249    0.179710   -1.523430
     24          1           0       -2.416481    0.074312    1.240731
     25         17           0       -4.603270   -0.780238    1.072377
     26         17           0       -3.705623    1.986455    0.763121
 ---------------------------------------------------------------------
 Rotational constants (GHZ):           0.4983223           0.1433605           0.1246553
 General basis read from cards:  (6D, 7F)
 There are   391 symmetry adapted cartesian basis functions of A   symmetry.
 There are   391 symmetry adapted basis functions of A   symmetry.
   391 basis functions,   732 primitive gaussians,   391 cartesian basis functions
    87 alpha electrons       87 beta electrons
       nuclear repulsion energy      2028.6787189951 Hartrees.
 NAtoms=   26 NActive=   26 NUniq=   26 SFac= 1.00D+00 NAtFMM=   60 NAOKFM=F Big=F
 Integral buffers will be    131072 words long.
 Raffenetti 2 integral format.
 Two-electron integral symmetry is turned on.
 ------------------------------------------------------------------------------
 Polarizable Continuum Model (PCM)
 =================================
 Model                : PCM.
 Atomic radii         : SMD-Coulomb.
 Polarization charges : Total charges.
 Charge compensation  : None.
 Solution method      : On-the-fly selection.
 Cavity type          : VdW (van der Waals Surface) (Alpha=1.000).
 Cavity algorithm     : GePol (No added spheres)
                        Default sphere list used, NSphG=   26.
                        Lebedev-Laikov grids with approx.  5.0 points / Ang**2.
                        Smoothing algorithm: York/Karplus (Gamma=1.0000).
                        Polarization charges: spherical gaussians, with
                                              point-specific exponents (IZeta= 3).
                        Self-potential: point-specific (ISelfS= 7).
                        Self-field    : sphere-specific E.n sum rule (ISelfD= 2).
 1st derivatives      : Analytical E(r).r(x)/FMM algorithm (CHGder, D1EAlg=3).
                        Cavity 1st derivative terms included.
 Solvent              : Water, Eps=  78.355300 Eps(inf)=   1.777849
 ------------------------------------------------------------------------------
 ------------------------------------------------------------------------------
 Atomic radii for non-electrostatic terms: SMD-CDS.
 ------------------------------------------------------------------------------
 Nuclear repulsion after PCM non-electrostatic terms =     2028.6834881176 Hartrees.
 One-electron integrals computed using PRISM.
 NBasis=   391 RedAO= T EigKep=  1.43D-06  NBF=   391
 NBsUse=   389 1.00D-06 EigRej=  7.02D-07 NBFU=   389
 ExpMin= 4.05D-02 ExpMax= 2.52D+04 ExpMxC= 3.78D+03 IAcc=3 IRadAn=         5 AccDes= 0.00D+00
 Harris functional with IExCor= 1009 and IRadAn=       5 diagonalized for initial guess.
 HarFok:  IExCor= 1009 AccDes= 0.00D+00 IRadAn=         5 IDoV= 1 UseB2=F ITyADJ=14
 ICtDFT=  3500011 ScaDFX=  1.000000  1.000000  1.000000  1.000000
 FoFCou: FMM=F IPFlag=           0 FMFlag=      100000 FMFlg1=           0
         NFxFlg=           0 DoJE=T BraDBF=F KetDBF=T FulRan=T
         wScrn=  0.000000 ICntrl=       500 IOpCl=  0 I1Cent=   200000004 NGrid=           0
         NMat0=    1 NMatS0=      1 NMatT0=    0 NMatD0=    1 NMtDS0=    0 NMtDT0=    0
 Petite list used in FoFCou.
 Requested convergence on RMS density matrix=1.00D-08 within 128 cycles.
 Requested convergence on MAX density matrix=1.00D-06.
 Requested convergence on             energy=1.00D-06.
 No special actions if energy rises.
 Inv3:  Mode=1 IEnd=    17525667.
 Iteration    1 A*A^-1 deviation from unit magnitude is 6.22D-15 for   2410.
 Iteration    1 A*A^-1 deviation from orthogonality  is 3.19D-15 for   2410    298.
 Iteration    1 A^-1*A deviation from unit magnitude is 6.22D-15 for   2410.
 Iteration    1 A^-1*A deviation from orthogonality  is 2.25D-15 for    830    815.
 Error on total polarization charges =  0.04063
 SCF Done:  E(RM062X) =  -2515.62096924     A.U. after   17 cycles
            NFock= 17  Conv=0.36D-08     -V/T= 2.0045
 SMD-CDS (non-electrostatic) energy       (kcal/mol) =       2.99
 (included in total energy above)

 **********************************************************************

            Population analysis using the SCF Density.

 **********************************************************************

 Orbital symmetries:
       Occupied  (A) (A) (A) (A) (A) (A) (A) (A) (A) (A) (A) (A)
                 (A) (A) (A) (A) (A) (A) (A) (A) (A) (A) (A) (A)
                 (A) (A) (A) (A) (A) (A) (A) (A) (A) (A) (A) (A)
                 (A) (A) (A) (A) (A) (A) (A) (A) (A) (A) (A) (A)
                 (A) (A) (A) (A) (A) (A) (A) (A) (A) (A) (A) (A)
                 (A) (A) (A) (A) (A) (A) (A) (A) (A) (A) (A) (A)
                 (A) (A) (A) (A) (A) (A) (A) (A) (A) (A) (A) (A)
                 (A) (A) (A)
       Virtual   (A) (A) (A) (A) (A) (A) (A) (A) (A) (A) (A) (A)
                 (A) (A) (A) (A) (A) (A) (A) (A) (A) (A) (A) (A)
                 (A) (A) (A) (A) (A) (A) (A) (A) (A) (A) (A) (A)
                 (A) (A) (A) (A) (A) (A) (A) (A) (A) (A) (A) (A)
                 (A) (A) (A) (A) (A) (A) (A) (A) (A) (A) (A) (A)
                 (A) (A) (A) (A) (A) (A) (A) (A) (A) (A) (A) (A)
                 (A) (A) (A) (A) (A) (A) (A) (A) (A) (A) (A) (A)
                 (A) (A) (A) (A) (A) (A) (A) (A) (A) (A) (A) (A)
                 (A) (A) (A) (A) (A) (A) (A) (A) (A) (A) (A) (A)
                 (A) (A) (A) (A) (A) (A) (A) (A) (A) (A) (A) (A)
                 (A) (A) (A) (A) (A) (A) (A) (A) (A) (A) (A) (A)
                 (A) (A) (A) (A) (A) (A) (A) (A) (A) (A) (A) (A)
                 (A) (A) (A) (A) (A) (A) (A) (A) (A) (A) (A) (A)
                 (A) (A) (A) (A) (A) (A) (A) (A) (A) (A) (A) (A)
                 (A) (A) (A) (A) (A) (A) (A) (A) (A) (A) (A) (A)
                 (A) (A) (A) (A) (A) (A) (A) (A) (A) (A) (A) (A)
                 (A) (A) (A) (A) (A) (A) (A) (A) (A) (A) (A) (A)
                 (A) (A) (A) (A) (A) (A) (A) (A) (A) (A) (A) (A)
                 (A) (A) (A) (A) (A) (A) (A) (A) (A) (A) (A) (A)
                 (A) (A) (A) (A) (A) (A) (A) (A) (A) (A) (A) (A)
                 (A) (A) (A) (A) (A) (A) (A) (A) (A) (A) (A) (A)
                 (A) (A) (A) (A) (A) (A) (A) (A) (A) (A) (A) (A)
                 (A) (A) (A) (A) (A) (A) (A) (A) (A) (A) (A) (A)
                 (A) (A) (A) (A) (A) (A) (A) (A) (A) (A) (A) (A)
                 (A) (A) (A) (A) (A) (A) (A) (A) (A) (A) (A) (A)
                 (A) (A)
 The electronic state is 1-A.
 Alpha  occ. eigenvalues -- -102.68574-102.68490-102.68408 -90.13992 -19.63732
 Alpha  occ. eigenvalues --  -19.62208 -19.62082 -14.80856 -14.80226 -14.72011
 Alpha  occ. eigenvalues --  -10.68232 -10.67906 -10.65970 -10.64206 -10.62728
 Alpha  occ. eigenvalues --  -10.58726 -10.58130 -10.57756 -10.57519  -9.83221
 Alpha  occ. eigenvalues --   -9.83186  -9.83102  -8.44804  -7.55622  -7.55587
 Alpha  occ. eigenvalues --   -7.55505  -7.54969  -7.54936  -7.54916  -7.54898
 Alpha  occ. eigenvalues --   -7.54829  -7.54813  -6.37048  -6.36960  -6.36887
 Alpha  occ. eigenvalues --   -1.21115  -1.18357  -1.11400  -1.09444  -1.03535
 Alpha  occ. eigenvalues --   -1.01436  -1.00775  -0.96248  -0.95291  -0.93033
 Alpha  occ. eigenvalues --   -0.87975  -0.86356  -0.81649  -0.75234  -0.73999
 Alpha  occ. eigenvalues --   -0.72219  -0.69405  -0.65404  -0.63572  -0.62499
 Alpha  occ. eigenvalues --   -0.58763  -0.58175  -0.57154  -0.55703  -0.55469
 Alpha  occ. eigenvalues --   -0.54730  -0.52652  -0.51984  -0.51760  -0.51261
 Alpha  occ. eigenvalues --   -0.50382  -0.49651  -0.48569  -0.47371  -0.44047
 Alpha  occ. eigenvalues --   -0.43438  -0.42761  -0.40827  -0.40152  -0.39771
 Alpha  occ. eigenvalues --   -0.39205  -0.39075  -0.38335  -0.37675  -0.37468
 Alpha  occ. eigenvalues --   -0.36289  -0.35482  -0.34285  -0.33191  -0.31906
 Alpha  occ. eigenvalues --   -0.30872  -0.27542
 Alpha virt. eigenvalues --   -0.03134   0.00387   0.01076   0.01716   0.02048
 Alpha virt. eigenvalues --    0.02485   0.03211   0.03589   0.04321   0.04486
 Alpha virt. eigenvalues --    0.04997   0.05511   0.05661   0.06327   0.06668
 Alpha virt. eigenvalues --    0.07364   0.07599   0.07723   0.08691   0.09149
 Alpha virt. eigenvalues --    0.09591   0.09707   0.09932   0.10272   0.10860
 Alpha virt. eigenvalues --    0.11285   0.11607   0.11919   0.12644   0.13361
 Alpha virt. eigenvalues --    0.13575   0.13895   0.14289   0.14603   0.15043
 Alpha virt. eigenvalues --    0.15207   0.16065   0.16288   0.16473   0.16823
 Alpha virt. eigenvalues --    0.17616   0.17862   0.18341   0.18957   0.19505
 Alpha virt. eigenvalues --    0.19593   0.19963   0.20277   0.20847   0.21146
 Alpha virt. eigenvalues --    0.21750   0.22092   0.22410   0.22651   0.23403
 Alpha virt. eigenvalues --    0.23783   0.24049   0.24215   0.24660   0.24975
 Alpha virt. eigenvalues --    0.25464   0.25809   0.25891   0.26432   0.26737
 Alpha virt. eigenvalues --    0.26878   0.27359   0.27933   0.28187   0.28587
 Alpha virt. eigenvalues --    0.28665   0.29448   0.29889   0.30160   0.30855
 Alpha virt. eigenvalues --    0.31133   0.31591   0.31947   0.32190   0.33110
 Alpha virt. eigenvalues --    0.33614   0.34097   0.34535   0.34734   0.35170
 Alpha virt. eigenvalues --    0.36025   0.36134   0.37026   0.37723   0.37919
 Alpha virt. eigenvalues --    0.39823   0.40188   0.40691   0.41172   0.42418
 Alpha virt. eigenvalues --    0.42813   0.43889   0.45778   0.47221   0.48017
 Alpha virt. eigenvalues --    0.49019   0.50996   0.53873   0.57260   0.58674
 Alpha virt. eigenvalues --    0.60102   0.61374   0.62778   0.63906   0.64297
 Alpha virt. eigenvalues --    0.65714   0.65830   0.66526   0.66855   0.67459
 Alpha virt. eigenvalues --    0.68102   0.68735   0.69286   0.70862   0.71546
 Alpha virt. eigenvalues --    0.71987   0.72628   0.72793   0.74161   0.75506
 Alpha virt. eigenvalues --    0.75952   0.78383   0.78592   0.78977   0.79549
 Alpha virt. eigenvalues --    0.81363   0.81528   0.83577   0.84141   0.84720
 Alpha virt. eigenvalues --    0.85953   0.86913   0.88827   0.89796   0.91215
 Alpha virt. eigenvalues --    0.92122   0.92967   0.93675   0.94867   0.95319
 Alpha virt. eigenvalues --    0.95826   0.96048   0.97001   0.98694   0.99358
 Alpha virt. eigenvalues --    1.00854   1.01316   1.03055   1.03628   1.04191
 Alpha virt. eigenvalues --    1.04389   1.05721   1.07145   1.08276   1.09368
 Alpha virt. eigenvalues --    1.10160   1.11734   1.11761   1.13404   1.13662
 Alpha virt. eigenvalues --    1.14612   1.15565   1.16612   1.16866   1.18628
 Alpha virt. eigenvalues --    1.19759   1.20151   1.20556   1.21358   1.22357
 Alpha virt. eigenvalues --    1.23009   1.24318   1.25146   1.25942   1.28030
 Alpha virt. eigenvalues --    1.28252   1.29500   1.30815   1.33296   1.34165
 Alpha virt. eigenvalues --    1.36105   1.37236   1.38346   1.39193   1.40070
 Alpha virt. eigenvalues --    1.40482   1.40872   1.41302   1.42542   1.43540
 Alpha virt. eigenvalues --    1.44940   1.45722   1.46640   1.47355   1.48922
 Alpha virt. eigenvalues --    1.49631   1.50951   1.53060   1.53887   1.55318
 Alpha virt. eigenvalues --    1.56420   1.58996   1.60656   1.61128   1.62576
 Alpha virt. eigenvalues --    1.69398   1.72168   1.73667   1.79176   1.79643
 Alpha virt. eigenvalues --    1.80300   1.80930   1.81685   1.82380   1.84370
 Alpha virt. eigenvalues --    1.84918   1.86071   1.87882   1.88358   1.89346
 Alpha virt. eigenvalues --    1.89975   1.92524   1.93092   1.94429   1.97607
 Alpha virt. eigenvalues --    1.98779   1.99870   2.01284   2.02415   2.03219
 Alpha virt. eigenvalues --    2.04199   2.05937   2.05975   2.08149   2.11633
 Alpha virt. eigenvalues --    2.14951   2.16018   2.17078   2.18099   2.21153
 Alpha virt. eigenvalues --    2.21933   2.24258   2.26150   2.27393   2.27713
 Alpha virt. eigenvalues --    2.29364   2.30176   2.32340   2.33511   2.35194
 Alpha virt. eigenvalues --    2.41134   2.42152   2.45329   2.45512   2.53723
 Alpha virt. eigenvalues --    2.55078   2.57362   2.59129   2.60998   2.61920
 Alpha virt. eigenvalues --    2.65033   2.68874   2.70674   2.73055   2.74408
 Alpha virt. eigenvalues --    2.77399   2.79965   2.84437   2.87536   2.88201
 Alpha virt. eigenvalues --    2.93948   2.94882   2.99872   3.00848   3.12884
 Alpha virt. eigenvalues --    3.19652   3.31934   3.40470   4.01685   4.08967
 Alpha virt. eigenvalues --    4.12290   4.24146   4.25804   4.26556   4.32367
 Alpha virt. eigenvalues --    4.32969   4.34514   4.38641   4.42207   4.43977
 Alpha virt. eigenvalues --    4.46322   4.47722   4.50508   4.53236   4.59763
 Alpha virt. eigenvalues --    4.71797   4.83130
          Condensed to atoms (all electrons):
               1          2          3          4          5          6
     1  C   56.999897   0.308476   0.308704  -7.984149   0.051589   4.873800
     2  C    0.308476  43.488079  -1.057077 -13.510571  -0.030563   7.706673
     3  Cl   0.308704  -1.057077  17.073323   0.248272  -0.000072  -0.326562
     4  C   -7.984149 -13.510571   0.248272  27.961241   0.254344 -10.994811
     5  H    0.051589  -0.030563  -0.000072   0.254344   0.407559  -0.055418
     6  C    4.873800   7.706673  -0.326562 -10.994811  -0.055418  31.845697
     7  C  -14.254685  -9.770524   0.180344  -1.789517   0.085521 -12.624732
     8  C  -10.361664  -1.012354   0.027563   3.311310   0.010335  -5.632415
     9  C  -19.561386 -21.676902   0.405299   9.486939  -0.005879  -8.938205
    10  S   -0.610133  -0.321157   0.008714   0.528493  -0.000926   0.396050
    11  O   -0.571654  -0.281314   0.007135   0.047661   0.000025  -0.005270
    12  O   -0.157263   0.294358  -0.070128  -0.015393  -0.000028   0.157462
    13  N   -0.064368   0.242811  -0.029240  -0.017887  -0.000097   0.102139
    14  H   -0.070554  -0.083739   0.013402   0.023416  -0.000001  -0.001556
    15  N   -0.203474   0.461197   0.002923   0.584727  -0.010435  -1.530744
    16  C    0.271741  -0.548752  -0.006673  -0.856819   0.003094   0.894074
    17  N   -0.271264   0.146392  -0.000524   0.156372   0.000298   0.443985
    18  H    0.002771   0.036385  -0.000315  -0.038717   0.003623  -0.045029
    19  O    0.145102  -0.011021  -0.000015  -0.011695   0.000016   0.035652
    20  H   -0.085745  -0.022506  -0.000181   0.000275   0.000010  -0.020815
    21  H    0.002841  -0.000889   0.000007   0.002409  -0.000000  -0.017507
    22  C   -0.066203   0.231507   0.003389  -0.220343   0.000414  -0.590482
    23  H   -0.000581   0.001126  -0.000002  -0.007445   0.000004  -0.011245
    24  H    0.007112   0.002497  -0.000030  -0.049757   0.000017  -0.031540
    25  Cl  -0.040933   0.013405   0.000386   0.106568   0.000046  -0.053331
    26  Cl  -0.012592   0.006633  -0.001130   0.138051  -0.000391   0.035639
               7          8          9         10         11         12
     1  C  -14.254685 -10.361664 -19.561386  -0.610133  -0.571654  -0.157263
     2  C   -9.770524  -1.012354 -21.676902  -0.321157  -0.281314   0.294358
     3  Cl   0.180344   0.027563   0.405299   0.008714   0.007135  -0.070128
     4  C   -1.789517   3.311310   9.486939   0.528493   0.047661  -0.015393
     5  H    0.085521   0.010335  -0.005879  -0.000926   0.000025  -0.000028
     6  C  -12.624732  -5.632415  -8.938205   0.396050  -0.005270   0.157462
     7  C   36.079098  -2.396988  10.187684  -1.240151  -0.042820  -0.274800
     8  C   -2.396988  19.797661   2.499852  -0.378128  -0.032328  -0.046848
     9  C   10.187684   2.499852  34.524022  -0.479662   0.446587  -0.237920
    10  S   -1.240151  -0.378128  -0.479662  15.628899   0.342563   0.242838
    11  O   -0.042820  -0.032328   0.446587   0.342563   9.099091  -0.093636
    12  O   -0.274800  -0.046848  -0.237920   0.242838  -0.093636   8.982767
    13  N   -0.116341  -0.031024  -0.428329   0.270850  -0.150736  -0.125828
    14  H   -0.006868  -0.000478   0.034940   0.113522   0.019249  -0.010668
    15  N    0.108899   0.731232  -0.050456  -0.001461   0.000351  -0.000212
    16  C    1.559046  -2.400343  -0.346912  -0.004824   0.000073   0.000675
    17  N   -0.784047   0.320625   0.205039  -0.013032  -0.000899  -0.000443
    18  H    0.042811   0.011360  -0.005274  -0.000001   0.000000   0.000000
    19  O   -0.094347   0.219237  -0.072580   0.005758   0.000210   0.000032
    20  H    0.016765  -0.008765   0.424704  -0.013886   0.000356  -0.000444
    21  H    0.088777  -0.077327   0.003222   0.000012   0.000000  -0.000000
    22  C    0.287337   0.379691   0.005661  -0.005211  -0.000209  -0.000254
    23  H   -0.014765   0.020033  -0.003178   0.000030   0.000000   0.000000
    24  H    0.080181  -0.032771  -0.009882   0.000193   0.000001   0.000000
    25  Cl  -0.226701   0.283224  -0.026888   0.000042  -0.000002  -0.000007
    26  Cl  -0.127651  -0.038067   0.026784  -0.000010   0.000005   0.000012
              13         14         15         16         17         18
     1  C   -0.064368  -0.070554  -0.203474   0.271741  -0.271264   0.002771
     2  C    0.242811  -0.083739   0.461197  -0.548752   0.146392   0.036385
     3  Cl  -0.029240   0.013402   0.002923  -0.006673  -0.000524  -0.000315
     4  C   -0.017887   0.023416   0.584727  -0.856819   0.156372  -0.038717
     5  H   -0.000097  -0.000001  -0.010435   0.003094   0.000298   0.003623
     6  C    0.102139  -0.001556  -1.530744   0.894074   0.443985  -0.045029
     7  C   -0.116341  -0.006868   0.108899   1.559046  -0.784047   0.042811
     8  C   -0.031024  -0.000478   0.731232  -2.400343   0.320625   0.011360
     9  C   -0.428329   0.034940  -0.050456  -0.346912   0.205039  -0.005274
    10  S    0.270850   0.113522  -0.001461  -0.004824  -0.013032  -0.000001
    11  O   -0.150736   0.019249   0.000351   0.000073  -0.000899   0.000000
    12  O   -0.125828  -0.010668  -0.000212   0.000675  -0.000443   0.000000
    13  N    8.028870   0.205809  -0.000459   0.001914  -0.000631   0.000001
    14  H    0.205809   0.360730  -0.000010   0.000006  -0.000002   0.000000
    15  N   -0.000459  -0.000010   8.121101  -1.393733   0.096131   0.270115
    16  C    0.001914   0.000006  -1.393733  11.069975  -0.895937  -0.045968
    17  N   -0.000631  -0.000002   0.096131  -0.895937   8.016569   0.008977
    18  H    0.000001   0.000000   0.270115  -0.045968   0.008977   0.263415
    19  O   -0.000114   0.000001  -0.011964   0.112832  -0.157863   0.000120
    20  H   -0.001061  -0.000013  -0.000591  -0.001298   0.000455   0.000002
    21  H    0.000000  -0.000000   0.007010  -0.024854   0.252851  -0.000014
    22  C   -0.000415  -0.000034   0.291261  -1.095036   0.052275  -0.013719
    23  H   -0.000000   0.000000  -0.047017   0.491930  -0.051543  -0.003093
    24  H    0.000002   0.000000  -0.025968   0.123380  -0.022385   0.000037
    25  Cl   0.000004  -0.000000   0.112015  -0.337384   0.014663   0.000767
    26  Cl  -0.000133   0.000002  -0.024291  -0.075650   0.048596   0.011832
              19         20         21         22         23         24
     1  C    0.145102  -0.085745   0.002841  -0.066203  -0.000581   0.007112
     2  C   -0.011021  -0.022506  -0.000889   0.231507   0.001126   0.002497
     3  Cl  -0.000015  -0.000181   0.000007   0.003389  -0.000002  -0.000030
     4  C   -0.011695   0.000275   0.002409  -0.220343  -0.007445  -0.049757
     5  H    0.000016   0.000010  -0.000000   0.000414   0.000004   0.000017
     6  C    0.035652  -0.020815  -0.017507  -0.590482  -0.011245  -0.031540
     7  C   -0.094347   0.016765   0.088777   0.287337  -0.014765   0.080181
     8  C    0.219237  -0.008765  -0.077327   0.379691   0.020033  -0.032771
     9  C   -0.072580   0.424704   0.003222   0.005661  -0.003178  -0.009882
    10  S    0.005758  -0.013886   0.000012  -0.005211   0.000030   0.000193
    11  O    0.000210   0.000356   0.000000  -0.000209   0.000000   0.000001
    12  O    0.000032  -0.000444  -0.000000  -0.000254   0.000000   0.000000
    13  N   -0.000114  -0.001061   0.000000  -0.000415  -0.000000   0.000002
    14  H    0.000001  -0.000013  -0.000000  -0.000034   0.000000   0.000000
    15  N   -0.011964  -0.000591   0.007010   0.291261  -0.047017  -0.025968
    16  C    0.112832  -0.001298  -0.024854  -1.095036   0.491930   0.123380
    17  N   -0.157863   0.000455   0.252851   0.052275  -0.051543  -0.022385
    18  H    0.000120   0.000002  -0.000014  -0.013719  -0.003093   0.000037
    19  O    8.503243   0.008488   0.004836  -0.026376  -0.000174   0.000640
    20  H    0.008488   0.409977  -0.000004   0.000635  -0.000000  -0.000005
    21  H    0.004836  -0.000004   0.232561  -0.001207  -0.003166   0.000089
    22  C   -0.026376   0.000635  -0.001207   6.700711  -0.073606   0.305610
    23  H   -0.000174  -0.000000  -0.003166  -0.073606   0.390361   0.001956
    24  H    0.000640  -0.000005   0.000089   0.305610   0.001956   0.382566
    25  Cl   0.003416  -0.000066   0.004415   0.114389  -0.005321  -0.058157
    26  Cl   0.000804   0.000098  -0.000492   0.021548  -0.008305  -0.055903
              25         26
     1  C   -0.040933  -0.012592
     2  C    0.013405   0.006633
     3  Cl   0.000386  -0.001130
     4  C    0.106568   0.138051
     5  H    0.000046  -0.000391
     6  C   -0.053331   0.035639
     7  C   -0.226701  -0.127651
     8  C    0.283224  -0.038067
     9  C   -0.026888   0.026784
    10  S    0.000042  -0.000010
    11  O   -0.000002   0.000005
    12  O   -0.000007   0.000012
    13  N    0.000004  -0.000133
    14  H   -0.000000   0.000002
    15  N    0.112015  -0.024291
    16  C   -0.337384  -0.075650
    17  N    0.014663   0.048596
    18  H    0.000767   0.011832
    19  O    0.003416   0.000804
    20  H   -0.000066   0.000098
    21  H    0.004415  -0.000492
    22  C    0.114389   0.021548
    23  H   -0.005321  -0.008305
    24  H   -0.058157  -0.055903
    25  Cl  17.117840  -0.076280
    26  Cl  -0.076280  17.074885
 Mulliken charges:
               1
     1  C   -2.655385
     2  C    1.387829
     3  Cl   0.212492
     4  C   -1.352975
     5  H    0.286916
     6  C    0.388490
     7  C    1.048474
     8  C    0.837377
     9  C   -0.407277
    10  S    1.530615
    11  O   -0.784436
    12  O   -0.644273
    13  N   -0.885736
    14  H    0.402848
    15  N   -0.486146
    16  C   -0.494557
    17  N   -0.564660
    18  H    0.499915
    19  O   -0.654237
    20  H    0.293615
    21  H    0.526430
    22  C   -0.301333
    23  H    0.323998
    24  H    0.382118
    25  Cl   0.053893
    26  Cl   0.056006
 Sum of Mulliken charges =  -1.00000
 Mulliken charges with hydrogens summed into heavy atoms:
               1
     1  C   -2.655385
     2  C    1.387829
     3  Cl   0.212492
     4  C   -1.066059
     6  C    0.388490
     7  C    1.048474
     8  C    0.837377
     9  C   -0.113662
    10  S    1.530615
    11  O   -0.784436
    12  O   -0.644273
    13  N   -0.482888
    15  N    0.013769
    16  C   -0.170559
    17  N   -0.038229
    19  O   -0.654237
    22  C    0.080785
    25  Cl   0.053893
    26  Cl   0.056006
 Electronic spatial extent (au):  <R**2>=           8135.4850
 Charge=             -1.0000 electrons
 Dipole moment (field-independent basis, Debye):
    X=            -24.1879    Y=             11.3414    Z=             -5.1103  Tot=             27.1992
 Quadrupole moment (field-independent basis, Debye-Ang):
   XX=           -228.6377   YY=           -162.7741   ZZ=           -154.5794
   XY=             21.3350   XZ=             -3.3192   YZ=             -0.7379
 Traceless Quadrupole moment (field-independent basis, Debye-Ang):
   XX=            -46.6407   YY=             19.2230   ZZ=             27.4177
   XY=             21.3350   XZ=             -3.3192   YZ=             -0.7379
 Octapole moment (field-independent basis, Debye-Ang**2):
  XXX=           -435.4750  YYY=            110.2585  ZZZ=            -23.5164  XYY=            -41.6450
  XXY=             78.7656  XXZ=            -82.0501  XZZ=            -69.9891  YZZ=             13.4424
  YYZ=             -8.1403  XYZ=             26.1462
 Hexadecapole moment (field-independent basis, Debye-Ang**3):
 XXXX=          -9795.6705 YYYY=          -2179.8877 ZZZZ=           -863.5523 XXXY=            518.7400
 XXXZ=             -3.6047 YYYX=             51.8061 YYYZ=            -34.3851 ZZZX=           -131.3021
 ZZZY=              9.2111 XXYY=          -1737.2826 XXZZ=          -1667.2205 YYZZ=           -457.1844
 XXYZ=             89.3449 YYXZ=            -13.7066 ZZXY=             37.8076
 N-N= 2.028683488118D+03 E-N=-1.002097620252D+04  KE= 2.504298643587D+03
 D1PCM: PCM CHGder 1st derivatives, ID1Alg=3 FixD1E=F DoIter=F DoCFld=F I1PDM=0.
 Calling FoFJK, ICntrl=      2127 FMM=F ISym2X=0 I1Cent= 0 IOpClX= 0 NMat=1 NMatS=1 NMatT=0.
 ***** Axes restored to original set *****
 -------------------------------------------------------------------
 Center     Atomic                   Forces (Hartrees/Bohr)
 Number     Number              X              Y              Z
 -------------------------------------------------------------------
      1        6          -0.000019096   -0.000003554   -0.000010827
      2        6          -0.000040980   -0.000002704    0.000023552
      3       17           0.000014091   -0.000000294   -0.000015479
      4        6           0.000037328   -0.000000323   -0.000023496
      5        1           0.000000582   -0.000003210   -0.000009796
      6        6          -0.000012480   -0.000001075    0.000014561
      7        6           0.000000869   -0.000006412    0.000014369
      8        6          -0.000039292    0.000004480   -0.000071893
      9        6           0.000004018    0.000004005   -0.000012355
     10       16          -0.000014560    0.000007192   -0.000002801
     11        8          -0.000021628   -0.000000394    0.000006748
     12        8          -0.000018391   -0.000015794   -0.000006335
     13        7          -0.000018027    0.000020152   -0.000006858
     14        1          -0.000016051    0.000001308   -0.000016769
     15        7           0.000024096    0.000012057   -0.000025508
     16        6          -0.000017988   -0.000031735    0.000004237
     17        7           0.000028690   -0.000007530    0.000055083
     18        1           0.000009796   -0.000007042   -0.000001434
     19        8           0.000034363    0.000001571    0.000040629
     20        1          -0.000012326   -0.000000030    0.000006812
     21        1           0.000013217    0.000011287    0.000007491
     22        6           0.000007166    0.000021597    0.000007793
     23        1           0.000017386    0.000005540    0.000004594
     24        1           0.000005539    0.000000364    0.000008034
     25       17           0.000016638   -0.000003119    0.000010025
     26       17           0.000017041   -0.000006337   -0.000000379
 -------------------------------------------------------------------
 Cartesian Forces:  Max     0.000071893 RMS     0.000018748

 GradGradGradGradGradGradGradGradGradGradGradGradGradGradGradGradGradGrad
 Berny optimization.
 FormGI is forming the generalized inverse of G from B-inverse, IUseBI=4.
 Internal  Forces:  Max     0.000042426 RMS     0.000008122
 Search for a local minimum.
 Step number   1 out of a maximum of  149
 All quantities printed in internal units (Hartrees-Bohrs-Radians)
 Mixed Optimization -- En-DIIS/RFO-DIIS
 Second derivative matrix not updated -- first step.
 ITU=  0
     Eigenvalues ---    0.00230   0.00230   0.01349   0.01360   0.01544
     Eigenvalues ---    0.01649   0.01719   0.01836   0.01937   0.02030
     Eigenvalues ---    0.02116   0.02155   0.02195   0.02212   0.02216
     Eigenvalues ---    0.02327   0.03151   0.05029   0.05828   0.06144
     Eigenvalues ---    0.06561   0.07322   0.10130   0.11912   0.11951
     Eigenvalues ---    0.14414   0.15969   0.16000   0.16000   0.16000
     Eigenvalues ---    0.16000   0.17071   0.17182   0.21726   0.21830
     Eigenvalues ---    0.23108   0.23278   0.23983   0.24096   0.24793
     Eigenvalues ---    0.24943   0.24971   0.24998   0.25000   0.25000
     Eigenvalues ---    0.25118   0.27315   0.27342   0.27607   0.30935
     Eigenvalues ---    0.33158   0.34648   0.34759   0.35311   0.35396
     Eigenvalues ---    0.36418   0.37392   0.40399   0.42538   0.44043
     Eigenvalues ---    0.44193   0.44985   0.45006   0.45811   0.46630
     Eigenvalues ---    0.47150   0.47853   0.51596   0.59861   0.79201
     Eigenvalues ---    0.81989   0.88878
 RFO step:  Lambda=-5.55924790D-08 EMin= 2.30000000D-03
 Linear search not attempted -- first point.
 Iteration  1 RMS(Cart)=  0.00026490 RMS(Int)=  0.00000003
 Iteration  2 RMS(Cart)=  0.00000004 RMS(Int)=  0.00000001
 Variable       Old X    -DE/DX   Delta X   Delta X   Delta X     New X
                                 (Linear)    (Quad)   (Total)
    R1        2.65369  -0.00001   0.00000  -0.00003  -0.00003   2.65366
    R2        2.62215   0.00001   0.00000   0.00003   0.00003   2.62218
    R3        3.42609   0.00000   0.00000   0.00001   0.00001   3.42610
    R4        3.29836  -0.00002   0.00000  -0.00007  -0.00007   3.29830
    R5        2.61601   0.00001   0.00000   0.00003   0.00003   2.61604
    R6        2.05173   0.00000   0.00000   0.00001   0.00001   2.05174
    R7        2.64722  -0.00001   0.00000  -0.00003  -0.00003   2.64719
    R8        2.65595  -0.00000   0.00000  -0.00001  -0.00001   2.65594
    R9        2.61285   0.00001   0.00000   0.00003   0.00003   2.61288
   R10        2.79601   0.00000   0.00000   0.00001   0.00001   2.79602
   R11        2.63378  -0.00000   0.00000  -0.00000  -0.00000   2.63378
   R12        2.57152  -0.00004   0.00000  -0.00007  -0.00007   2.57145
   R13        2.33455   0.00004   0.00000   0.00005   0.00005   2.33459
   R14        2.05036  -0.00000   0.00000  -0.00001  -0.00001   2.05035
   R15        2.80560  -0.00000   0.00000  -0.00000  -0.00000   2.80560
   R16        2.82049  -0.00001   0.00000  -0.00002  -0.00002   2.82048
   R17        2.94750  -0.00002   0.00000  -0.00003  -0.00003   2.94747
   R18        1.93103  -0.00000   0.00000  -0.00000  -0.00000   1.93102
   R19        2.72797  -0.00001   0.00000  -0.00002  -0.00002   2.72795
   R20        1.91969   0.00000   0.00000   0.00000   0.00000   1.91969
   R21        2.73671   0.00002   0.00000   0.00004   0.00004   2.73676
   R22        2.93005  -0.00002   0.00000  -0.00006  -0.00006   2.93000
   R23        2.06251   0.00000   0.00000   0.00000   0.00000   2.06251
   R24        1.91993   0.00000   0.00000   0.00001   0.00001   1.91994
   R25        2.06068   0.00000   0.00000   0.00001   0.00001   2.06069
   R26        3.37300   0.00000   0.00000   0.00002   0.00002   3.37301
   R27        3.37362   0.00000   0.00000   0.00000   0.00000   3.37362
    A1        2.05629   0.00000   0.00000   0.00002   0.00002   2.05631
    A2        2.14869  -0.00002   0.00000  -0.00009  -0.00009   2.14860
    A3        2.07818   0.00002   0.00000   0.00007   0.00007   2.07825
    A4        2.11350  -0.00001   0.00000  -0.00003  -0.00003   2.11347
    A5        2.13303  -0.00001   0.00000  -0.00004  -0.00004   2.13299
    A6        2.03658   0.00002   0.00000   0.00007   0.00007   2.03665
    A7        2.10584  -0.00001   0.00000  -0.00003  -0.00003   2.10580
    A8        2.08308   0.00001   0.00000   0.00004   0.00004   2.08311
    A9        2.09424  -0.00000   0.00000  -0.00000  -0.00000   2.09424
   A10        2.08058   0.00000   0.00000  -0.00000  -0.00000   2.08058
   A11        2.11964   0.00000   0.00000   0.00002   0.00002   2.11966
   A12        2.08186  -0.00000   0.00000  -0.00002  -0.00002   2.08185
   A13        2.08041  -0.00000   0.00000  -0.00003  -0.00003   2.08038
   A14        2.09796  -0.00000   0.00000  -0.00001  -0.00001   2.09795
   A15        2.10351   0.00001   0.00000   0.00003   0.00003   2.10354
   A16        2.00865   0.00001   0.00000   0.00003   0.00003   2.00868
   A17        2.14915  -0.00001   0.00000  -0.00003  -0.00003   2.14912
   A18        2.12397   0.00000   0.00000   0.00003   0.00003   2.12400
   A19        2.11536  -0.00000   0.00000  -0.00000  -0.00000   2.11535
   A20        2.08862  -0.00000   0.00000  -0.00002  -0.00002   2.08860
   A21        2.07919   0.00000   0.00000   0.00002   0.00002   2.07921
   A22        1.80457   0.00001   0.00000   0.00009   0.00009   1.80467
   A23        1.80450   0.00000   0.00000  -0.00001  -0.00001   1.80449
   A24        1.93428  -0.00000   0.00000  -0.00003  -0.00003   1.93425
   A25        1.98626   0.00000   0.00000   0.00005   0.00005   1.98630
   A26        1.90560  -0.00000   0.00000   0.00001   0.00001   1.90562
   A27        2.01443  -0.00001   0.00000  -0.00009  -0.00009   2.01434
   A28        1.89213  -0.00001   0.00000  -0.00005  -0.00005   1.89208
   A29        2.04180  -0.00001   0.00000  -0.00008  -0.00008   2.04173
   A30        2.01861  -0.00000   0.00000  -0.00007  -0.00007   2.01855
   A31        2.00558   0.00000   0.00000  -0.00004  -0.00004   2.00553
   A32        1.89063   0.00000   0.00000  -0.00001  -0.00001   1.89062
   A33        1.95460   0.00000   0.00000   0.00000   0.00000   1.95460
   A34        1.90394  -0.00000   0.00000   0.00001   0.00001   1.90395
   A35        1.92750  -0.00001   0.00000  -0.00005  -0.00005   1.92744
   A36        1.89814  -0.00000   0.00000  -0.00003  -0.00003   1.89810
   A37        1.88825   0.00001   0.00000   0.00009   0.00009   1.88834
   A38        2.14017  -0.00000   0.00000  -0.00002  -0.00002   2.14015
   A39        2.03355   0.00000   0.00000   0.00003   0.00003   2.03358
   A40        2.05648   0.00001   0.00000   0.00005   0.00005   2.05653
   A41        1.95643  -0.00000   0.00000  -0.00002  -0.00002   1.95642
   A42        1.91768   0.00000   0.00000   0.00000   0.00000   1.91768
   A43        1.91752   0.00001   0.00000   0.00004   0.00004   1.91756
   A44        1.87489   0.00000   0.00000  -0.00000  -0.00000   1.87489
   A45        1.87604  -0.00000   0.00000  -0.00000  -0.00000   1.87604
   A46        1.92041  -0.00001   0.00000  -0.00003  -0.00003   1.92039
    D1        3.13581  -0.00000   0.00000  -0.00002  -0.00002   3.13579
    D2        0.00745  -0.00000   0.00000  -0.00008  -0.00008   0.00737
    D3        0.00035  -0.00000   0.00000  -0.00008  -0.00008   0.00027
    D4       -3.12801  -0.00000   0.00000  -0.00014  -0.00014  -3.12815
    D5       -0.00719   0.00000   0.00000   0.00002   0.00002  -0.00716
    D6        3.12781   0.00000   0.00000   0.00005   0.00005   3.12786
    D7        3.12852   0.00000   0.00000   0.00009   0.00009   3.12861
    D8       -0.01966   0.00000   0.00000   0.00011   0.00011  -0.01955
    D9        3.12284  -0.00000   0.00000  -0.00035  -0.00035   3.12249
   D10       -1.08526   0.00001   0.00000  -0.00027  -0.00027  -1.08553
   D11        1.08307  -0.00001   0.00000  -0.00041  -0.00041   1.08267
   D12       -0.01254  -0.00000   0.00000  -0.00042  -0.00042  -0.01296
   D13        2.06254   0.00001   0.00000  -0.00034  -0.00034   2.06221
   D14       -2.05230  -0.00001   0.00000  -0.00047  -0.00047  -2.05277
   D15        3.13466   0.00000   0.00000   0.00001   0.00001   3.13467
   D16        0.00144   0.00000   0.00000   0.00006   0.00006   0.00150
   D17        0.00575  -0.00000   0.00000  -0.00005  -0.00005   0.00570
   D18       -3.12747  -0.00000   0.00000  -0.00000  -0.00000  -3.12747
   D19       -0.01056   0.00000   0.00000   0.00002   0.00002  -0.01054
   D20       -3.10136  -0.00000   0.00000  -0.00006  -0.00006  -3.10143
   D21        3.13935   0.00000   0.00000   0.00007   0.00007   3.13941
   D22        0.04854  -0.00000   0.00000  -0.00001  -0.00001   0.04852
   D23       -3.07611  -0.00000   0.00000  -0.00002  -0.00002  -3.07613
   D24        0.01083  -0.00000   0.00000  -0.00007  -0.00007   0.01075
   D25        0.01581   0.00000   0.00000   0.00006   0.00006   0.01587
   D26        3.10275   0.00000   0.00000   0.00001   0.00001   3.10275
   D27       -2.68801   0.00000   0.00000   0.00025   0.00025  -2.68776
   D28       -0.23993  -0.00000   0.00000  -0.00002  -0.00002  -0.23995
   D29        0.50440   0.00000   0.00000   0.00017   0.00017   0.50457
   D30        2.95248  -0.00000   0.00000  -0.00010  -0.00010   2.95238
   D31       -0.12595  -0.00000   0.00000  -0.00027  -0.00027  -0.12623
   D32        2.95917   0.00001   0.00000   0.00033   0.00033   2.95950
   D33        3.07047  -0.00000   0.00000  -0.00022  -0.00022   3.07026
   D34       -0.12759   0.00001   0.00000   0.00038   0.00038  -0.12720
   D35       -0.00182   0.00000   0.00000   0.00005   0.00005  -0.00177
   D36       -3.13686   0.00000   0.00000   0.00003   0.00003  -3.13683
   D37        3.08438   0.00000   0.00000  -0.00001  -0.00001   3.08438
   D38       -0.05065  -0.00000   0.00000  -0.00003  -0.00003  -0.05068
   D39       -0.29570   0.00001   0.00000   0.00026   0.00026  -0.29544
   D40       -3.08540   0.00000   0.00000   0.00004   0.00004  -3.08535
   D41        2.90146  -0.00000   0.00000  -0.00033  -0.00033   2.90113
   D42        0.11177  -0.00001   0.00000  -0.00055  -0.00055   0.11122
   D43       -1.35993   0.00001   0.00000   0.00017   0.00017  -1.35975
   D44        2.94666  -0.00000   0.00000   0.00007   0.00007   2.94673
   D45        0.68335   0.00000   0.00000   0.00007   0.00007   0.68342
   D46       -0.84567  -0.00000   0.00000  -0.00020  -0.00020  -0.84587
   D47        1.28426  -0.00001   0.00000  -0.00028  -0.00028   1.28399
   D48       -2.90917  -0.00000   0.00000  -0.00016  -0.00016  -2.90934
   D49        2.98434   0.00000   0.00000   0.00008   0.00008   2.98442
   D50       -1.16891  -0.00000   0.00000   0.00000   0.00000  -1.16891
   D51        0.92084   0.00001   0.00000   0.00012   0.00012   0.92095
   D52        0.76278   0.00000   0.00000  -0.00002  -0.00002   0.76276
   D53       -2.73506   0.00000   0.00000   0.00020   0.00020  -2.73486
   D54       -1.38365   0.00000   0.00000   0.00002   0.00002  -1.38363
   D55        1.40169   0.00001   0.00000   0.00024   0.00024   1.40193
   D56        2.82998  -0.00000   0.00000  -0.00004  -0.00004   2.82994
   D57       -0.66786   0.00000   0.00000   0.00018   0.00018  -0.66768
   D58       -1.06723   0.00000   0.00000   0.00028   0.00028  -1.06695
   D59        3.13263   0.00000   0.00000   0.00029   0.00029   3.13291
   D60        1.01744   0.00000   0.00000   0.00029   0.00029   1.01773
   D61        1.04148   0.00000   0.00000   0.00023   0.00023   1.04171
   D62       -1.04185   0.00000   0.00000   0.00024   0.00024  -1.04161
   D63        3.12614   0.00000   0.00000   0.00024   0.00024   3.12639
   D64        3.11705  -0.00000   0.00000   0.00021   0.00021   3.11726
   D65        1.03371  -0.00000   0.00000   0.00022   0.00022   1.03394
   D66       -1.08147  -0.00000   0.00000   0.00023   0.00023  -1.08125
         Item               Value     Threshold  Converged?
 Maximum Force            0.000042     0.000450     YES
 RMS     Force            0.000008     0.000300     YES
 Maximum Displacement     0.001332     0.001800     YES
 RMS     Displacement     0.000265     0.001200     YES
 Predicted change in Energy=-2.779625D-08
 Optimization completed.
    -- Stationary point found.
                           ----------------------------
                           !   Optimized Parameters   !
                           ! (Angstroms and Degrees)  !
 --------------------------                            --------------------------
 ! Name  Definition              Value          Derivative Info.                !
 --------------------------------------------------------------------------------
 ! R1    R(1,2)                  1.4043         -DE/DX =    0.0                 !
 ! R2    R(1,9)                  1.3876         -DE/DX =    0.0                 !
 ! R3    R(1,10)                 1.813          -DE/DX =    0.0                 !
 ! R4    R(2,3)                  1.7454         -DE/DX =    0.0                 !
 ! R5    R(2,4)                  1.3843         -DE/DX =    0.0                 !
 ! R6    R(4,5)                  1.0857         -DE/DX =    0.0                 !
 ! R7    R(4,6)                  1.4008         -DE/DX =    0.0                 !
 ! R8    R(6,7)                  1.4055         -DE/DX =    0.0                 !
 ! R9    R(6,15)                 1.3827         -DE/DX =    0.0                 !
 ! R10   R(7,8)                  1.4796         -DE/DX =    0.0                 !
 ! R11   R(7,9)                  1.3937         -DE/DX =    0.0                 !
 ! R12   R(8,17)                 1.3608         -DE/DX =    0.0                 !
 ! R13   R(8,19)                 1.2354         -DE/DX =    0.0                 !
 ! R14   R(9,20)                 1.085          -DE/DX =    0.0                 !
 ! R15   R(10,11)                1.4847         -DE/DX =    0.0                 !
 ! R16   R(10,12)                1.4925         -DE/DX =    0.0                 !
 ! R17   R(10,13)                1.5598         -DE/DX =    0.0                 !
 ! R18   R(13,14)                1.0219         -DE/DX =    0.0                 !
 ! R19   R(15,16)                1.4436         -DE/DX =    0.0                 !
 ! R20   R(15,18)                1.0159         -DE/DX =    0.0                 !
 ! R21   R(16,17)                1.4482         -DE/DX =    0.0                 !
 ! R22   R(16,22)                1.5505         -DE/DX =    0.0                 !
 ! R23   R(16,23)                1.0914         -DE/DX =    0.0                 !
 ! R24   R(17,21)                1.016          -DE/DX =    0.0                 !
 ! R25   R(22,24)                1.0905         -DE/DX =    0.0                 !
 ! R26   R(22,25)                1.7849         -DE/DX =    0.0                 !
 ! R27   R(22,26)                1.7852         -DE/DX =    0.0                 !
 ! A1    A(2,1,9)              117.8169         -DE/DX =    0.0                 !
 ! A2    A(2,1,10)             123.111          -DE/DX =    0.0                 !
 ! A3    A(9,1,10)             119.0712         -DE/DX =    0.0                 !
 ! A4    A(1,2,3)              121.0946         -DE/DX =    0.0                 !
 ! A5    A(1,2,4)              122.2138         -DE/DX =    0.0                 !
 ! A6    A(3,2,4)              116.6874         -DE/DX =    0.0                 !
 ! A7    A(2,4,5)              120.6555         -DE/DX =    0.0                 !
 ! A8    A(2,4,6)              119.3515         -DE/DX =    0.0                 !
 ! A9    A(5,4,6)              119.9912         -DE/DX =    0.0                 !
 ! A10   A(4,6,7)              119.2084         -DE/DX =    0.0                 !
 ! A11   A(4,6,15)             121.4464         -DE/DX =    0.0                 !
 ! A12   A(7,6,15)             119.2821         -DE/DX =    0.0                 !
 ! A13   A(6,7,8)              119.1988         -DE/DX =    0.0                 !
 ! A14   A(6,7,9)              120.2041         -DE/DX =    0.0                 !
 ! A15   A(8,7,9)              120.5222         -DE/DX =    0.0                 !
 ! A16   A(7,8,17)             115.087          -DE/DX =    0.0                 !
 ! A17   A(7,8,19)             123.137          -DE/DX =    0.0                 !
 ! A18   A(17,8,19)            121.6945         -DE/DX =    0.0                 !
 ! A19   A(1,9,7)              121.2009         -DE/DX =    0.0                 !
 ! A20   A(1,9,20)             119.669          -DE/DX =    0.0                 !
 ! A21   A(7,9,20)             119.1291         -DE/DX =    0.0                 !
 ! A22   A(1,10,11)            103.3944         -DE/DX =    0.0                 !
 ! A23   A(1,10,12)            103.39           -DE/DX =    0.0                 !
 ! A24   A(1,10,13)            110.8262         -DE/DX =    0.0                 !
 ! A25   A(11,10,12)           113.8042         -DE/DX =    0.0                 !
 ! A26   A(11,10,13)           109.1831         -DE/DX =    0.0                 !
 ! A27   A(12,10,13)           115.4183         -DE/DX =    0.0                 !
 ! A28   A(10,13,14)           108.411          -DE/DX =    0.0                 !
 ! A29   A(6,15,16)            116.9867         -DE/DX =    0.0                 !
 ! A30   A(6,15,18)            115.6581         -DE/DX =    0.0                 !
 ! A31   A(16,15,18)           114.9111         -DE/DX =    0.0                 !
 ! A32   A(15,16,17)           108.3253         -DE/DX =    0.0                 !
 ! A33   A(15,16,22)           111.9901         -DE/DX =    0.0                 !
 ! A34   A(15,16,23)           109.0877         -DE/DX =    0.0                 !
 ! A35   A(17,16,22)           110.4375         -DE/DX =    0.0                 !
 ! A36   A(17,16,23)           108.7551         -DE/DX =    0.0                 !
 ! A37   A(22,16,23)           108.189          -DE/DX =    0.0                 !
 ! A38   A(8,17,16)            122.6229         -DE/DX =    0.0                 !
 ! A39   A(8,17,21)            116.5136         -DE/DX =    0.0                 !
 ! A40   A(16,17,21)           117.8274         -DE/DX =    0.0                 !
 ! A41   A(16,22,24)           112.0954         -DE/DX =    0.0                 !
 ! A42   A(16,22,25)           109.8751         -DE/DX =    0.0                 !
 ! A43   A(16,22,26)           109.8658         -DE/DX =    0.0                 !
 ! A44   A(24,22,25)           107.4233         -DE/DX =    0.0                 !
 ! A45   A(24,22,26)           107.4892         -DE/DX =    0.0                 !
 ! A46   A(25,22,26)           110.0316         -DE/DX =    0.0                 !
 ! D1    D(9,1,2,3)            179.6685         -DE/DX =    0.0                 !
 ! D2    D(9,1,2,4)              0.4266         -DE/DX =    0.0                 !
 ! D3    D(10,1,2,3)             0.0203         -DE/DX =    0.0                 !
 ! D4    D(10,1,2,4)          -179.2215         -DE/DX =    0.0                 !
 ! D5    D(2,1,9,7)             -0.4117         -DE/DX =    0.0                 !
 ! D6    D(2,1,9,20)           179.2105         -DE/DX =    0.0                 !
 ! D7    D(10,1,9,7)           179.2511         -DE/DX =    0.0                 !
 ! D8    D(10,1,9,20)           -1.1267         -DE/DX =    0.0                 !
 ! D9    D(2,1,10,11)          178.9257         -DE/DX =    0.0                 !
 ! D10   D(2,1,10,12)          -62.181          -DE/DX =    0.0                 !
 ! D11   D(2,1,10,13)           62.0556         -DE/DX =    0.0                 !
 ! D12   D(9,1,10,11)           -0.7183         -DE/DX =    0.0                 !
 ! D13   D(9,1,10,12)          118.175          -DE/DX =    0.0                 !
 ! D14   D(9,1,10,13)         -117.5884         -DE/DX =    0.0                 !
 ! D15   D(1,2,4,5)            179.6031         -DE/DX =    0.0                 !
 ! D16   D(1,2,4,6)              0.0825         -DE/DX =    0.0                 !
 ! D17   D(3,2,4,5)              0.3297         -DE/DX =    0.0                 !
 ! D18   D(3,2,4,6)           -179.1909         -DE/DX =    0.0                 !
 ! D19   D(2,4,6,7)             -0.6049         -DE/DX =    0.0                 !
 ! D20   D(2,4,6,15)          -177.6951         -DE/DX =    0.0                 !
 ! D21   D(5,4,6,7)            179.8713         -DE/DX =    0.0                 !
 ! D22   D(5,4,6,15)             2.7811         -DE/DX =    0.0                 !
 ! D23   D(4,6,7,8)           -176.2482         -DE/DX =    0.0                 !
 ! D24   D(4,6,7,9)              0.6203         -DE/DX =    0.0                 !
 ! D25   D(15,6,7,8)             0.9057         -DE/DX =    0.0                 !
 ! D26   D(15,6,7,9)           177.7742         -DE/DX =    0.0                 !
 ! D27   D(4,6,15,16)         -154.0118         -DE/DX =    0.0                 !
 ! D28   D(4,6,15,18)          -13.747          -DE/DX =    0.0                 !
 ! D29   D(7,6,15,16)           28.9001         -DE/DX =    0.0                 !
 ! D30   D(7,6,15,18)          169.1649         -DE/DX =    0.0                 !
 ! D31   D(6,7,8,17)            -7.2166         -DE/DX =    0.0                 !
 ! D32   D(6,7,8,19)           169.5482         -DE/DX =    0.0                 !
 ! D33   D(9,7,8,17)           175.9251         -DE/DX =    0.0                 !
 ! D34   D(9,7,8,19)            -7.3101         -DE/DX =    0.0                 !
 ! D35   D(6,7,9,1)             -0.1045         -DE/DX =    0.0                 !
 ! D36   D(6,7,9,20)          -179.7288         -DE/DX =    0.0                 !
 ! D37   D(8,7,9,1)            176.7222         -DE/DX =    0.0                 !
 ! D38   D(8,7,9,20)            -2.902          -DE/DX =    0.0                 !
 ! D39   D(7,8,17,16)          -16.9425         -DE/DX =    0.0                 !
 ! D40   D(7,8,17,21)         -176.7802         -DE/DX =    0.0                 !
 ! D41   D(19,8,17,16)         166.2413         -DE/DX =    0.0                 !
 ! D42   D(19,8,17,21)           6.4037         -DE/DX =    0.0                 !
 ! D43   D(1,10,13,14)         -77.918          -DE/DX =    0.0                 !
 ! D44   D(11,10,13,14)        168.8312         -DE/DX =    0.0                 !
 ! D45   D(12,10,13,14)         39.1528         -DE/DX =    0.0                 !
 ! D46   D(6,15,16,17)         -48.4531         -DE/DX =    0.0                 !
 ! D47   D(6,15,16,22)          73.5828         -DE/DX =    0.0                 !
 ! D48   D(6,15,16,23)        -166.6834         -DE/DX =    0.0                 !
 ! D49   D(18,15,16,17)        170.9904         -DE/DX =    0.0                 !
 ! D50   D(18,15,16,22)        -66.9738         -DE/DX =    0.0                 !
 ! D51   D(18,15,16,23)         52.76           -DE/DX =    0.0                 !
 ! D52   D(15,16,17,8)          43.7042         -DE/DX =    0.0                 !
 ! D53   D(15,16,17,21)       -156.7074         -DE/DX =    0.0                 !
 ! D54   D(22,16,17,8)         -79.2774         -DE/DX =    0.0                 !
 ! D55   D(22,16,17,21)         80.311          -DE/DX =    0.0                 !
 ! D56   D(23,16,17,8)         162.146          -DE/DX =    0.0                 !
 ! D57   D(23,16,17,21)        -38.2656         -DE/DX =    0.0                 !
 ! D58   D(15,16,22,24)        -61.1476         -DE/DX =    0.0                 !
 ! D59   D(15,16,22,25)        179.4864         -DE/DX =    0.0                 !
 ! D60   D(15,16,22,26)         58.295          -DE/DX =    0.0                 !
 ! D61   D(17,16,22,24)         59.6722         -DE/DX =    0.0                 !
 ! D62   D(17,16,22,25)        -59.6938         -DE/DX =    0.0                 !
 ! D63   D(17,16,22,26)        179.1148         -DE/DX =    0.0                 !
 ! D64   D(23,16,22,24)        178.5936         -DE/DX =    0.0                 !
 ! D65   D(23,16,22,25)         59.2275         -DE/DX =    0.0                 !
 ! D66   D(23,16,22,26)        -61.9638         -DE/DX =    0.0                 !
 --------------------------------------------------------------------------------
 GradGradGradGradGradGradGradGradGradGradGradGradGradGradGradGradGradGrad

                          Input orientation:                          
 ---------------------------------------------------------------------
 Center     Atomic      Atomic             Coordinates (Angstroms)
 Number     Number       Type             X           Y           Z
 ---------------------------------------------------------------------
      1          6           0       -1.554987    0.921081   -0.893991
      2          6           0       -2.680999    0.739647   -1.713231
      3         17           0       -4.294160    0.767545   -1.047334
      4          6           0       -2.574363    0.515889   -3.075194
      5          1           0       -3.461964    0.372524   -3.683816
      6          6           0       -1.304933    0.465279   -3.665416
      7          6           0       -0.167192    0.655823   -2.862558
[...]
 .00027990,0.00161219,-0.00054357,0.00136463,0.00143493,-0.00047524,-0.
 00064803,0.00168082,0.00013496,0.00006014,-0.00024606,-0.00205202,-0.0
 0066674,-0.00724248,0.01049065,0.00260902,0.00544145,-0.00237873,-0.01
 353425,-0.06341269,0.00059605,-0.00108066,0.00114675,0.52437144,-0.001
 32993,-0.00057569,0.00066597,0.00079717,0.00021317,0.00053370,-0.00045
 779,0.00008603,0.00019726,-0.00005477,-0.00148600,-0.00034438,-0.00017
 833,-0.00010505,0.00011257,-0.00042381,0.00347747,0.00159987,-0.013104
 65,0.01598799,-0.00242092,-0.12362001,-0.11691260,-0.06650502,0.001242
 13,-0.00099362,-0.00280024,-0.00009328,-0.00019408,-0.00103345,0.00020
 539,0.00006509,0.00028529,-0.00011965,0.00029404,0.00030509,-0.0000752
 7,-0.00011973,0.00034595,0.00002674,0.00001522,-0.00004558,-0.00188288
 ,-0.00058645,-0.00150787,0.00371450,0.00846040,-0.00218194,-0.01920225
 ,0.00775055,-0.03538050,-0.00002992,-0.00042864,0.00073264,0.15660669,
 0.09022073,-0.00167226,0.00024426,0.00173099,0.00122077,0.00016246,0.0
 0072351,-0.00024111,0.00002158,0.00019004,0.00064311,0.00007089,0.0009
 8580,0.00014013,-0.00003262,-0.00003920,0.00307609,-0.00045572,-0.0041
 4129,-0.00167054,0.00114131,0.02080952,-0.19732842,-0.07179761,-0.2012
 7361,0.00242512,-0.00011624,-0.00498250,-0.00039706,-0.00007963,-0.000
 62324,0.00026065,-0.00000065,0.00002823,-0.00003460,0.00015343,0.00022
 552,-0.00001044,-0.00005005,0.00022661,0.00001758,0.00000545,-0.000025
 33,-0.00344675,-0.00058727,0.00030397,0.01544611,0.00238159,-0.0014590
 5,-0.06674802,-0.03237043,-0.06925333,-0.00029927,-0.00029047,0.001129
 14,0.25525592,0.10391351,0.25171001,-0.01763731,-0.00329860,-0.0130612
 2,-0.00271320,-0.00016115,0.00242104,-0.00108770,-0.00008529,-0.000320
 27,0.00010858,0.00020836,0.00077150,0.00001302,0.00000166,-0.00008652,
 0.00036478,-0.00007944,0.00198353,0.00857895,0.00038389,0.00083191,-0.
 00190662,-0.00013312,-0.00013808,-0.25610804,-0.03385383,-0.13472306,-
 0.00374488,-0.00025502,-0.00149078,0.00253677,-0.00029760,-0.00237145,
 0.00050346,-0.00049011,0.00013004,0.00062682,0.00058813,-0.00030157,-0
 .00000480,0.00005902,0.00006650,0.00057470,0.00007369,0.00024960,0.000
 03239,-0.00003320,-0.00009965,0.00015135,-0.00000283,-0.00031363,-0.00
 002122,0.00002486,0.00015971,-0.00034142,0.00028530,0.00169897,0.27007
 568,0.00108942,0.00543737,0.00044065,-0.00034059,0.00609993,-0.0013364
 4,0.00026632,-0.00002552,0.00001541,0.00007558,-0.00102992,0.00031208,
 -0.00001636,-0.00026241,0.00005927,0.00022129,0.00592688,-0.00167480,-
 0.00355173,0.00437036,-0.00356542,-0.00058802,-0.00430826,0.00056448,-
 0.03466758,-0.04655714,-0.02452441,0.00013264,-0.00298273,0.00048827,0
 .00017462,0.00003006,-0.00034524,0.00069862,-0.00061898,-0.00102728,-0
 .00052322,-0.00013283,0.00089932,0.00002894,-0.00005834,0.00004773,-0.
 00026222,0.00011399,0.00008765,0.00011401,-0.00004572,0.00005893,0.000
 05369,0.00003834,-0.00016154,0.00006146,-0.00011698,-0.00001326,-0.000
 03618,0.00033269,0.00045715,0.03712524,0.03357140,0.01017458,0.0017395
 0,0.01212968,0.00194764,-0.00117321,-0.00113549,0.00146600,0.00010180,
 0.00021012,0.00057325,0.00018172,-0.00034720,-0.00011003,0.00005895,0.
 00005306,0.00240466,-0.00146059,-0.00388070,-0.02376009,-0.00421839,-0
 .01167090,-0.00116700,0.00041022,-0.00037257,-0.13608048,-0.02544212,-
 0.14662669,0.00084071,0.00024747,-0.00017584,0.00092667,-0.00018478,-0
 .00171617,-0.00024570,0.00006835,0.00028561,0.00002514,0.00025195,-0.0
 0024006,-0.00007181,-0.00000753,0.00011820,-0.00144546,-0.00034676,-0.
 00056110,-0.00041037,0.00013733,0.00006228,-0.00013539,0.00004209,0.00
 065977,0.00015800,0.00000450,-0.00035325,0.00010202,0.00027734,0.00127
 899,0.14462942,0.02930160,0.15221823,0.00060692,0.00011020,-0.00004229
 ,-0.00027865,-0.00005810,-0.00039544,0.00017528,-0.00001197,-0.0000664
 1,-0.00020055,0.00015969,0.00028192,0.00004525,-0.00001385,-0.00002481
 ,0.00039635,0.00004072,-0.00113626,0.00169998,-0.00134877,-0.00172432,
 0.00638173,0.00255503,0.00395794,0.00009741,0.00016202,0.00028734,0.00
 002647,0.00003235,0.00028151,-0.00004512,-0.00001526,-0.00008645,0.000
 03622,-0.00008158,-0.00009023,0.00002694,0.00004026,-0.00009796,-0.000
 00761,-0.00000370,0.00001741,-0.00248887,-0.00225008,-0.00202879,-0.01
 281693,0.00426830,0.00870216,-0.37339195,-0.00028442,0.15467361,-0.000
 34413,0.00012371,0.00067505,-0.00183625,-0.00058219,-0.00233167,0.0000
 3467,-0.00003743,0.00005831,0.38119340,0.00005791,-0.00049219,-0.00013
 622,-0.00009079,0.00011015,0.00003264,0.00014344,0.00005344,-0.0000581
 1,0.00010558,-0.00038456,0.00001005,0.00003251,-0.00000800,-0.00001999
 ,-0.00030039,-0.00059128,0.00008902,-0.00088844,0.00445972,-0.00251118
 ,0.00964296,0.00185153,0.00492564,0.00049770,0.00078868,-0.00004374,0.
 00001455,-0.00001881,0.00031161,-0.00004060,-0.00001600,-0.00009110,0.
 00004911,-0.00011628,-0.00012615,0.00002486,0.00003644,-0.00006250,-0.
 00000737,-0.00000477,0.00001175,0.00076999,0.00031054,-0.00067156,-0.0
 1270061,-0.00303646,0.00810446,0.01090697,-0.01755183,-0.03371259,0.00
 000220,0.00000668,0.00013658,-0.00221028,-0.00471975,-0.00009605,-0.00
 002832,0.00019825,-0.00000656,-0.00439742,0.02005354,0.00014538,0.0001
 5052,-0.00034258,-0.00016445,-0.00007229,-0.00033892,-0.00001194,-0.00
 001978,0.00004171,-0.00026944,0.00028765,0.00060251,0.00004598,-0.0000
 1564,0.00001276,-0.00019690,-0.00008794,-0.00229038,-0.00173302,-0.002
 82695,-0.00438504,0.03415499,-0.00205722,-0.01639007,0.00139687,-0.000
 04619,0.00007283,0.00009328,0.00001865,0.00005585,-0.00000687,0.000002
 41,-0.00002490,0.00000263,-0.00003770,-0.00001548,0.00000210,0.0000302
 7,-0.00005043,-0.00000282,0.00000128,0.00000322,-0.00598517,-0.0025020
 1,-0.00095162,-0.01405092,0.00469889,0.01103753,0.14927167,-0.02563884
 ,-0.12967467,-0.00100774,0.00026760,0.00089756,-0.00014819,0.00349328,
 0.00530475,-0.00003118,-0.00007411,0.00005830,-0.16157303,0.02475223,0
 .13656974,0.00069106,0.00021094,0.00054246,-0.00016273,-0.00043267,-0.
 00097965,-0.00004467,0.00000674,0.00002544,-0.00101209,0.00011323,0.00
 126766,0.00000391,0.00008572,-0.00001595,0.00031196,0.00122953,-0.0055
 0546,0.00103449,-0.00040395,-0.00011846,-0.00059577,-0.00068187,0.0051
 9090,-0.00039378,0.00000338,0.00037225,0.00006229,-0.00007468,-0.00048
 519,0.00006741,0.00001325,0.00009817,-0.00007565,0.00009890,0.00012359
 ,-0.00006389,-0.00005847,0.00013286,0.00001082,0.00000941,0.00000010,-
 0.01457420,0.02927591,0.00336723,-0.05075460,0.00205248,0.00267774,-0.
 00859572,-0.02655172,-0.00517254,-0.00126911,0.00285056,0.00006876,-0.
 00178423,-0.00003717,-0.00222979,0.00000010,-0.00002091,0.00002072,-0.
 00077648,-0.00302499,-0.00049873,0.29201294,0.00061119,0.00002958,0.00
 030311,-0.00037313,-0.00032105,-0.00101997,-0.00028428,-0.00000327,0.0
 0018846,-0.00085338,0.00045586,0.00138833,-0.00002630,0.00003510,0.000
 02271,-0.00021965,0.00063863,-0.00300029,0.00103586,-0.00024949,-0.001
 03569,-0.00082657,-0.00088916,-0.00318213,-0.00021911,0.00017213,0.000
 45355,0.00003905,-0.00008675,-0.00046027,0.00005630,0.00002285,0.00015
 055,-0.00004941,0.00011953,0.00011452,-0.00005359,-0.00006236,0.000136
 58,0.00000982,0.00000466,-0.00002001,0.01604387,-0.01801284,-0.0006639
 7,0.00047648,-0.15333657,0.03746525,-0.01504867,-0.02072350,-0.0030236
 3,0.00015019,0.00014128,0.00026228,0.00231165,0.00102778,0.00216363,-0
 .00003175,0.00001789,0.00002053,-0.00030246,-0.00053258,0.00066188,-0.
 00062465,0.37219132,-0.00094773,-0.00013413,0.00029300,0.00048838,0.00
 047933,0.00061181,-0.00016526,-0.00000409,0.00005449,0.00037800,-0.000
 00541,-0.00036019,-0.00000562,-0.00012495,0.00003927,-0.00020302,-0.00
 286697,0.00135669,-0.00024636,0.00124663,0.00045585,-0.00103189,-0.003
 78363,0.00062936,0.00053845,0.00020869,-0.00115425,-0.00001198,-0.0001
 5502,-0.00056892,0.00009304,0.00002196,0.00014273,-0.00007061,0.000148
 39,0.00016140,-0.00006187,-0.00005366,0.00019835,0.00001556,0.00000407
 ,-0.00001670,0.00283568,-0.01235654,0.00388806,0.00452328,0.03426819,-
 0.09763643,-0.00481674,-0.01806521,0.00181100,-0.00052020,0.00057746,0
 .00035088,-0.00027289,0.00066912,-0.00061381,-0.00000585,-0.00002595,0
 .00000355,-0.00013054,-0.00013041,0.00010273,-0.01489197,-0.05977083,0
 .55085601,0.00029596,-0.00000629,0.00014565,-0.00040906,0.00002657,-0.
 00042475,-0.00018339,0.00000849,0.00019367,0.00011441,0.00039835,0.001
 81369,0.00000767,-0.00005094,-0.00001755,-0.00543078,-0.00048881,-0.00
 080305,0.00037412,-0.00012190,-0.00036577,-0.00441868,0.00145705,0.002
 38873,0.00014900,0.00009237,0.00024930,0.00003013,-0.00003357,-0.00026
 596,0.00005181,0.00001209,0.00007745,-0.00003285,0.00006114,0.00006846
 ,-0.00002817,-0.00002920,0.00007016,0.00000508,0.00000464,-0.00001006,
 -0.00495310,0.00289001,0.03610145,-0.05512307,-0.00400809,0.02303850,0
 .00096795,-0.00252459,-0.03411930,0.00082989,-0.00009945,-0.00054473,-
 0.00085289,-0.00143244,-0.00238276,-0.00002325,-0.00000653,0.00005832,
 0.00102882,0.00004868,0.00043614,0.00188789,0.00062061,-0.00082215,0.0
 6466089,0.00011527,0.00000131,-0.00026849,0.00004604,-0.00007062,0.000
 13513,0.00020937,-0.00001497,-0.00014571,0.00003977,-0.00017262,-0.001
 03985,0.00001653,0.00002502,-0.00000603,0.00323375,0.00089190,0.000391
 23,-0.00004574,-0.00018956,-0.00024470,-0.00229437,0.00136163,0.002140
 76,-0.00005045,-0.00002120,0.00020032,-0.00000542,0.00008808,0.0004638
 5,-0.00007712,-0.00002028,-0.00012468,0.00005181,-0.00011183,-0.000123
 87,0.00005154,0.00005617,-0.00014739,-0.00001101,-0.00000632,0.0000159
 9,0.00443827,-0.00019143,-0.02024237,-0.00459385,-0.05662742,0.0469617
 6,-0.00085187,-0.00030722,-0.02403926,-0.00037360,0.00018591,0.0004961
 3,-0.00114050,-0.00109971,-0.00186791,0.00000322,0.00000254,-0.0000082
 8,0.00053665,0.00024903,0.00063724,-0.00236652,-0.01180344,0.03553693,
 0.00337792,0.07050206,0.00002096,-0.00001842,-0.00009267,0.00003835,-0
 .00001566,0.00008124,0.00008685,-0.00000678,-0.00005794,-0.00004568,-0
 .00001794,-0.00043051,0.00000933,-0.00000174,-0.00001541,0.00132187,0.
 00067266,0.00162511,-0.00005079,0.00028147,0.00025725,-0.00149807,0.00
 134472,0.00277701,-0.00000189,0.00005009,0.00004256,-0.00000458,0.0000
 3276,0.00019401,-0.00003176,-0.00001035,-0.00005654,0.00002557,-0.0000
 5047,-0.00005500,0.00001916,0.00002366,-0.00005765,-0.00000465,-0.0000
 0239,0.00000699,0.00457078,-0.00263396,-0.00687877,0.02244495,0.039394
 74,-0.32714119,-0.00237982,-0.00298150,-0.01407678,0.00013762,-0.00008
 317,0.00002836,-0.00065263,-0.00059989,-0.00123461,0.00000195,-0.00000
 402,-0.00000082,0.00013842,-0.00021663,0.00046836,0.00070533,0.0025081
 3,-0.00629640,-0.02525523,-0.03866840,0.34848101,-0.00002402,-0.000048
 55,-0.00002843,-0.00000740,0.00001219,0.00003804,0.00001290,0.00000389
 ,-0.00000653,-0.00001246,-0.00000315,-0.00000617,-0.00000065,-0.000001
 74,-0.00000840,-0.00041978,0.00112088,0.00047856,-0.00013734,-0.000046
 27,-0.00004300,0.00003910,-0.00062387,-0.00044398,-0.00000283,-0.00000
 142,-0.00002434,-0.00000020,0.00001211,0.00005691,-0.00001091,0.000000
 62,-0.00001678,0.00000888,-0.00001477,-0.00002031,0.00000210,0.0000035
 5,-0.00001524,-0.00000084,0.00000096,-0.00000121,0.00072272,-0.0008617
 9,-0.00051847,0.00182107,0.00017984,-0.00126934,0.00032824,0.00037445,
 0.00091046,0.00002042,-0.00011483,-0.00005920,-0.00004758,0.00004344,0
 .00005198,0.00000112,-0.00000154,-0.00000579,0.00001299,0.00012488,0.0
 0003325,-0.03919827,-0.00321881,0.01800792,0.00031653,0.00023602,-0.00
 004895,0.06118597,-0.00015842,0.00001014,-0.00006469,0.00011407,-0.000
 00137,0.00015115,-0.00009373,-0.00000974,0.00003703,0.00016782,-0.0000
 2657,-0.00033919,-0.00003497,0.00000412,0.00001530,0.00118033,-0.00160
 588,-0.00006931,0.00010276,-0.00235978,-0.00123049,-0.00159515,-0.0016
 9936,-0.00033927,0.00011547,0.00008323,-0.00016075,-0.00000037,-0.0000
 1220,-0.00010990,0.00001636,0.00000286,0.00004456,-0.00001556,0.000029
 76,0.00003575,-0.00001030,-0.00002080,0.00003913,0.00000326,0.00000249
 ,-0.00000880,-0.00065560,0.00223982,-0.00165787,-0.00280257,-0.0049449
 5,0.03297729,0.00119654,0.00225759,-0.00092743,0.00010074,-0.00011685,
 -0.00004922,0.00017685,-0.00005159,-0.00020446,-0.00001019,0.00000119,
 0.00001707,-0.00004520,0.00003306,-0.00009382,-0.00304541,-0.06204799,
 0.06320224,0.00025207,-0.00543857,0.00022260,0.00363018,0.07303786,0.0
 0026105,0.00003586,-0.00010332,-0.00011790,-0.00004251,-0.00019975,0.0
 0001793,-0.00000673,-0.00000130,-0.00015372,0.00006086,0.00013078,-0.0
 0000455,0.00002143,-0.00000130,0.00046620,-0.00028646,0.00010058,0.000
 11404,-0.00178859,-0.00083711,-0.00014914,-0.00022969,-0.00025146,-0.0
 0016666,0.00002157,0.00030385,0.00000806,0.00002767,0.00010989,-0.0000
 2017,-0.00000457,-0.00002374,0.00001113,-0.00002671,-0.00003059,0.0000
 1296,0.00001123,-0.00004040,-0.00000309,-0.00000188,0.00000327,-0.0002
 4243,0.00046343,0.00010374,-0.00016577,0.00042553,-0.00205772,0.000348
 00,0.00038260,0.00095442,0.00000728,0.00004013,-0.00002470,-0.00008367
 ,-0.00003111,-0.00008186,-0.00000118,0.00001211,0.00000209,0.00002825,
 0.00006425,-0.00001609,0.01795076,0.06205924,-0.33538964,-0.00001535,-
 0.00013729,0.00093293,-0.01697935,-0.05942483,0.34648124,0.00032028,0.
 00005795,0.00050289,-0.00004764,-0.00015914,-0.00069470,-0.00014877,0.
 00000037,0.00009157,-0.00068334,0.00007668,0.00102499,0.00000694,0.000
 01974,0.00000975,0.00068781,-0.00041630,-0.00450172,0.00071904,-0.0003
 2616,0.00017753,-0.00054936,-0.00012457,0.00058950,-0.00007146,0.00010
 673,0.00006191,0.00002425,-0.00011954,-0.00063950,0.00011048,0.0000215
 2,0.00016098,-0.00008303,0.00014391,0.00016453,-0.00006509,-0.00006597
 ,0.00019586,0.00001480,0.00000616,-0.00001611,-0.00123763,0.00564031,0
 .00164921,-0.01589557,0.00381789,0.00932032,0.00143630,-0.00105136,-0.
 00094251,0.00040036,-0.00047624,0.00027137,0.00028134,0.00008271,0.000
 11872,-0.00001383,0.00000605,0.00002802,0.00018714,0.00107776,0.000335
 23,-0.09835647,0.04193664,0.04256390,0.00064669,-0.00118205,-0.0005467
 3,-0.01542000,0.01027371,0.00394811,0.17052740,-0.00051651,-0.00013434
 ,-0.00051539,0.00013108,0.00027399,0.00092198,0.00019312,-0.00000551,-
 0.00011405,0.00085082,-0.00012025,-0.00131746,-0.00000530,-0.00003894,
 -0.00001150,-0.00055747,0.00008237,0.00502391,-0.00081793,0.00055854,-
 0.00007890,0.00150707,-0.00010305,0.00089749,0.00021471,-0.00010349,-0
 .00025014,-0.00004016,0.00012647,0.00067382,-0.00010760,-0.00002652,-0
 .00017260,0.00008690,-0.00015602,-0.00017130,0.00007549,0.00007713,-0.
 00020353,-0.00001534,-0.00000771,0.00001659,0.00276351,-0.00793467,-0.
 00215451,0.02607776,-0.00772795,-0.01399261,0.00116347,-0.00414208,-0.
 00047467,-0.00030470,-0.00002289,-0.00035608,-0.00095992,-0.00012571,-
 0.00038972,0.00001195,-0.00000065,-0.00002606,0.00116159,-0.00035747,-
 0.00113151,0.03081079,-0.05089634,-0.01569061,0.00013670,0.00160919,0.
 00017954,0.00332711,0.00073242,-0.00027818,-0.05990147,0.06314131,-0.0
 0007430,-0.00001242,-0.00010313,0.00000043,0.00000908,0.00019236,0.000
 07142,-0.00000339,-0.00003556,0.00016986,0.00004479,-0.00024520,0.0000
 0540,0.00000087,-0.00000818,-0.00040106,0.00050412,0.00140194,-0.00016
 770,0.00026263,0.00002386,0.00047837,0.00019670,0.00062071,0.00001838,
 -0.00007110,-0.00001372,-0.00001094,0.00003799,0.00018263,-0.00002920,
 -0.00000361,-0.00005084,0.00002852,-0.00004535,-0.00004764,0.00001746,
 0.00001858,-0.00006091,-0.00000433,-0.00000182,0.00000792,0.00063466,-
 0.00067908,0.00031886,0.00080415,0.00035440,0.00085590,0.00085701,-0.0
 0163671,-0.00041394,-0.00007099,-0.00011716,-0.00011872,-0.00045536,-0
 .00001650,-0.00021044,0.00000204,0.00000077,-0.00000448,0.00047022,-0.
 00041532,-0.00060344,0.02929869,-0.01393527,-0.05397232,-0.00067321,-0
 .00028499,0.00071299,0.02662052,-0.01415947,-0.00329623,-0.05223308,0.
 02678501,0.04869423,0.00018914,0.00004091,-0.00002437,-0.00009303,-0.0
 0004218,-0.00010061,0.00009558,-0.00001004,-0.00003892,-0.00010153,-0.
 00011267,-0.00000760,-0.00001228,0.00000480,-0.00003934,0.00004204,0.0
 0008592,-0.00066031,0.00036340,0.00010078,-0.00009587,0.00024426,0.000
 69162,0.00457128,-0.00000326,-0.00000739,0.00019203,-0.00001691,0.0000
 1305,0.00012709,-0.00001162,-0.00000546,-0.00004062,0.00002108,-0.0000
 3094,-0.00003580,0.00001874,0.00002561,-0.00004557,-0.00000410,-0.0000
 0333,0.00000661,0.00083835,0.00189649,0.00119360,-0.01135607,-0.003791
 44,-0.00966036,0.00005257,-0.00488591,-0.00203890,0.00125193,0.0001736
 9,0.00035162,-0.00130130,-0.00037974,-0.00156244,-0.00000012,0.0000044
 3,0.00001866,0.00023698,0.00019011,-0.00023712,-0.07842521,-0.04115988
 ,-0.04523953,0.00008841,0.00063634,0.00099964,-0.00918976,-0.00886270,
 -0.00507078,-0.04279061,-0.00528567,-0.00535694,0.13986334,0.00021796,
 -0.00000670,-0.00006270,-0.00009801,0.00003438,-0.00009443,0.00011851,
 -0.00000061,-0.00004950,0.00016451,0.00017077,-0.00001081,0.00003502,-
 0.00004274,0.00002641,-0.00044760,-0.00045477,0.00079592,-0.00006915,0
 .00032529,-0.00040012,0.00059287,0.00054940,0.00619993,-0.00002350,0.0
 0004636,0.00023375,0.00000096,0.00002359,0.00021587,-0.00002811,-0.000
 01035,-0.00006847,0.00002535,-0.00005533,-0.00006416,0.00002255,0.0000
 3404,-0.00006696,-0.00000677,-0.00000301,0.00000927,-0.00084555,-0.004
 63065,-0.00086292,-0.02327890,-0.00991574,-0.01802433,-0.00128132,-0.0
 0853948,-0.00319160,-0.00029033,-0.00167397,-0.00134384,-0.00215770,-0
 .00053255,-0.00237643,-0.00000486,-0.00000140,0.00001385,0.00024189,-0
 .00032109,-0.00039790,-0.02943781,-0.05589131,-0.02319561,-0.00058491,
 0.00110235,0.00060093,-0.00413339,-0.00009891,-0.00136733,0.00055469,0
 .00530216,0.00316724,0.06071359,0.07459028,0.00019905,0.00002250,-0.00
 000395,-0.00006227,-0.00003156,-0.00017239,0.00004187,0.00000401,-0.00
 001456,0.00001403,0.00022928,0.00007342,0.00003593,-0.00000466,0.00002
 046,-0.00016468,0.00002516,0.00039485,-0.00008721,0.00011582,-0.000148
 29,0.00055723,0.00091373,0.00217390,-0.00006692,-0.00002174,0.00019513
 ,-0.00000116,0.00002376,0.00006404,-0.00000515,-0.00000786,-0.00001930
 ,0.00000798,-0.00002630,-0.00002080,0.00001067,0.00000598,-0.00002322,
 -0.00000271,-0.00000005,0.00000432,-0.00036065,-0.00130666,0.00021661,
 -0.00254856,-0.00092440,-0.00066683,-0.00053889,-0.00146681,0.00009155
 ,0.00000120,-0.00097791,0.00024705,-0.00074979,-0.00026419,-0.00070881
 ,-0.00000175,0.00000707,0.00000536,0.00015604,-0.00014013,-0.00014422,
 -0.03194492,-0.02178670,-0.06494654,0.00105833,0.00036989,0.00078644,-
 0.02670217,-0.01790263,-0.00676759,-0.00164004,0.00283047,0.00617334,0
 .06279453,0.04031392,0.06319002\\0.00001911,0.00000355,0.00001083,0.00
 004097,0.00000271,-0.00002356,-0.00001409,0.00000029,0.00001548,-0.000
 03733,0.00000032,0.00002350,-0.00000058,0.00000321,0.00000980,0.000012
 49,0.00000107,-0.00001456,-0.00000087,0.00000641,-0.00001437,0.0000392
 8,-0.00000448,0.00007189,-0.00000402,-0.00000401,0.00001235,0.00001456
 ,-0.00000720,0.00000280,0.00002163,0.00000039,-0.00000675,0.00001839,0
 .00001580,0.00000633,0.00001803,-0.00002015,0.00000686,0.00001605,-0.0
 0000131,0.00001677,-0.00002410,-0.00001206,0.00002550,0.00001799,0.000
 03174,-0.00000424,-0.00002869,0.00000753,-0.00005508,-0.00000980,0.000
 00704,0.00000144,-0.00003436,-0.00000157,-0.00004063,0.00001233,0.0000
 0003,-0.00000681,-0.00001322,-0.00001129,-0.00000749,-0.00000717,-0.00
 002160,-0.00000779,-0.00001739,-0.00000554,-0.00000459,-0.00000554,-0.
 00000036,-0.00000803,-0.00001664,0.00000312,-0.00001003,-0.00001704,0.
 00000634,0.00000038\\\@
 The archive entry for this job was punched.


 ...THOSE SCIENCES ARE VAIN AND FULL OF ERRORS WHICH 
 ARE NOT BORN FROM EXPERIMENT, THE MOTHER OF CERTAINTY...

                          -- LEONARDO DA VINCI, 1452-1519
 Job cpu time:       0 days  3 hours  8 minutes 37.5 seconds.
 Elapsed time:       0 days  0 hours 12 minutes 29.3 seconds.
 File lengths (MBytes):  RWF=    584 Int=      0 D2E=      0 Chk=     21 Scr=      1
 Normal termination of Gaussian 16 at Fri Jul  1 00:43:49 2022.
