 Entering Gaussian System, Link 0=g16
 AtFile(1): /home/561/yj5695/Basis/6-31pGd.gbs
 Initial command:
 /apps/gaussian/g16c01/g16/l1.exe "/jobfs/49943037.gadi-pbs/Gau-2509391.inp" -scrdir="/jobfs/49943037.gadi-pbs/"
 Entering Link 1 = /apps/gaussian/g16c01/g16/l1.exe PID=   2509400.
  
 Copyright (c) 1988-2019, Gaussian, Inc.  All Rights Reserved.
  
 This is part of the Gaussian(R) 16 program.  It is based on
 the Gaussian(R) 09 system (copyright 2009, Gaussian, Inc.),
 the Gaussian(R) 03 system (copyright 2003, Gaussian, Inc.),
 the Gaussian(R) 98 system (copyright 1998, Gaussian, Inc.),
 the Gaussian(R) 94 system (copyright 1995, Gaussian, Inc.),
 the Gaussian 92(TM) system (copyright 1992, Gaussian, Inc.),
 the Gaussian 90(TM) system (copyright 1990, Gaussian, Inc.),
 the Gaussian 88(TM) system (copyright 1988, Gaussian, Inc.),
 the Gaussian 86(TM) system (copyright 1986, Carnegie Mellon
 University), and the Gaussian 82(TM) system (copyright 1983,
 Carnegie Mellon University). Gaussian is a federally registered
 trademark of Gaussian, Inc.
  
 This software contains proprietary and confidential information,
 including trade secrets, belonging to Gaussian, Inc.
  
 This software is provided under written license and may be
 used, copied, transmitted, or stored only in accord with that
 written license.
  
 The following legend is applicable only to US Government
 contracts under FAR:
  
                    RESTRICTED RIGHTS LEGEND
  
 Use, reproduction and disclosure by the US Government is
 subject to restrictions as set forth in subparagraphs (a)
 and (c) of the Commercial Computer Software - Restricted
 Rights clause in FAR 52.227-19.
  
 Gaussian, Inc.
 340 Quinnipiac St., Bldg. 40, Wallingford CT 06492
  
  
 ---------------------------------------------------------------
 Warning -- This program may not be used in any manner that
 competes with the business of Gaussian, Inc. or will provide
 assistance to any competitor of Gaussian, Inc.  The licensee
 of this program is prohibited from giving any competitor of
 Gaussian, Inc. access to this program.  By using this program,
 the user acknowledges that Gaussian, Inc. is engaged in the
 business of creating and licensing software in the field of
 computational chemistry and represents and warrants to the
 licensee that it is not a competitor of Gaussian, Inc. and that
 it will not use this program in any manner prohibited above.
 ---------------------------------------------------------------
  

 Cite this work as:
 Gaussian 16, Revision C.01,
 M. J. Frisch, G. W. Trucks, H. B. Schlegel, G. E. Scuseria, 
 M. A. Robb, J. R. Cheeseman, G. Scalmani, V. Barone, 
 G. A. Petersson, H. Nakatsuji, X. Li, M. Caricato, A. V. Marenich, 
 J. Bloino, B. G. Janesko, R. Gomperts, B. Mennucci, H. P. Hratchian, 
 J. V. Ortiz, A. F. Izmaylov, J. L. Sonnenberg, D. Williams-Young, 
 F. Ding, F. Lipparini, F. Egidi, J. Goings, B. Peng, A. Petrone, 
 T. Henderson, D. Ranasinghe, V. G. Zakrzewski, J. Gao, N. Rega, 
 G. Zheng, W. Liang, M. Hada, M. Ehara, K. Toyota, R. Fukuda, 
 J. Hasegawa, M. Ishida, T. Nakajima, Y. Honda, O. Kitao, H. Nakai, 
 T. Vreven, K. Throssell, J. A. Montgomery, Jr., J. E. Peralta, 
 F. Ogliaro, M. J. Bearpark, J. J. Heyd, E. N. Brothers, K. N. Kudin, 
 V. N. Staroverov, T. A. Keith, R. Kobayashi, J. Normand, 
 K. Raghavachari, A. P. Rendell, J. C. Burant, S. S. Iyengar, 
 J. Tomasi, M. Cossi, J. M. Millam, M. Klene, C. Adamo, R. Cammi, 
 J. W. Ochterski, R. L. Martin, K. Morokuma, O. Farkas, 
 J. B. Foresman, and D. J. Fox, Gaussian, Inc., Wallingford CT, 2019.
 
 ******************************************
 Gaussian 16:  ES64L-G16RevC.01  3-Jul-2019
                 1-Jul-2022 
 ******************************************
 %nproc=16
 Will use up to   16 processors via shared memory.
 %mem=50gb
 -----------------------------------------------------
 #m062X/gen 6D OPT Freq=noraman SCRF=(SMD,Solvent=h2o)
 -----------------------------------------------------
 1/18=20,19=15,26=3,38=1/1,3;
 2/9=110,12=2,17=6,18=5,40=1/2;
 3/5=7,8=2,11=2,25=1,30=1,70=32201,71=1,72=1,74=-55/1,2,3;
 4//1;
 5/5=2,38=5,53=1/2;
 6/7=2,8=2,9=2,10=2,28=1/1;
 7//1,2,3,16;
 1/18=20,19=15,26=3/3(2);
 2/9=110/2;
 99//99;
 2/9=110/2;
 3/5=7,6=1,8=2,11=2,25=1,30=1,70=32205,71=1,72=1,74=-55,82=7/1,2,3;
 4/5=5,16=3,69=1/1;
 5/5=2,38=5,53=1/2;
 7//1,2,3,16;
 1/18=20,19=15,26=3/3(-5);
 2/9=110/2;
 6/7=2,8=2,9=2,10=2,19=2,28=1/1;
 99/9=1/99;
 -------------------
 A.35.smd.a1d3e3.smd
 -------------------
 Symbolic Z-matrix:
 Charge = -1 Multiplicity = 1
 C                    -1.36418   0.80434  -0.71298 
 C                    -2.46873   0.78855  -1.58244 
 Cl                   -4.08777   1.0144   -0.97448 
 C                    -2.33519   0.58907  -2.94174 
 H                    -3.20838   0.58486  -3.58714 
 C                    -1.06198   0.38616  -3.50723 
 C                     0.03631   0.40014  -2.63452 
 S                     1.66901   0.15678  -3.24531 
 C                    -0.10924   0.60739  -1.26355 
 H                     0.76286   0.6262   -0.61603 
 S                    -1.50651   1.06798   1.07553 
 O                    -0.09921   0.9834    1.54113 
 O                    -2.09477   2.43534   1.17282 
 N                    -2.3391   -0.07002   1.7389 
 H                    -3.3294    0.1093    1.56127 
 N                    -0.91553   0.24028  -4.8603 
 C                     0.30406  -0.32393  -5.40705 
 N                     1.44053   0.47881  -4.883 
 O                     2.56357   1.18291  -2.70466 
 O                     2.08976  -1.23554  -3.02753 
 H                    -1.76791   0.04329  -5.37784 
 C                     2.71877   0.29053  -5.60624 
 C                     0.26612  -0.2543   -6.92847 
 S                    -1.14403  -1.24264  -7.54148 
 C                    -0.42137  -2.86832  -7.15878 
 C                     0.92621  -3.01421  -7.81336 
 H                     0.42832  -1.37584  -5.09837 
 H                     2.64974   0.80872  -6.56193 
 H                     2.94995  -0.76793  -5.76698 
 H                     3.51924   0.75743  -5.03075 
 H                     1.1807   -0.67445  -7.34708 
 H                     0.15011   0.78463  -7.25308 
 H                    -1.06279  -3.67138  -7.53067 
 H                    -0.28129  -2.97725  -6.08005 
 F                     0.87083  -2.87333  -9.15174 
 F                     1.44613  -4.23066  -7.56965 
 F                     1.8196   -2.11071  -7.36865 
 

 GradGradGradGradGradGradGradGradGradGradGradGradGradGradGradGradGradGrad
 Berny optimization.
 Initialization pass.
                           ----------------------------
                           !    Initial Parameters    !
                           ! (Angstroms and Degrees)  !
 --------------------------                            --------------------------
 ! Name  Definition              Value          Derivative Info.                !
 --------------------------------------------------------------------------------
 ! R1    R(1,2)                  1.4058         estimate D2E/DX2                !
 ! R2    R(1,9)                  1.3845         estimate D2E/DX2                !
 ! R3    R(1,11)                 1.8134         estimate D2E/DX2                !
 ! R4    R(2,3)                  1.7441         estimate D2E/DX2                !
 ! R5    R(2,4)                  1.3803         estimate D2E/DX2                !
 ! R6    R(4,5)                  1.0858         estimate D2E/DX2                !
 ! R7    R(4,6)                  1.4078         estimate D2E/DX2                !
 ! R8    R(6,7)                  1.4029         estimate D2E/DX2                !
 ! R9    R(6,16)                 1.3688         estimate D2E/DX2                !
 ! R10   R(7,8)                  1.7601         estimate D2E/DX2                !
 ! R11   R(7,9)                  1.3942         estimate D2E/DX2                !
 ! R12   R(8,18)                 1.6846         estimate D2E/DX2                !
 ! R13   R(8,19)                 1.4647         estimate D2E/DX2                !
 ! R14   R(8,20)                 1.4707         estimate D2E/DX2                !
 ! R15   R(9,10)                 1.0864         estimate D2E/DX2                !
 ! R16   R(11,12)                1.4847         estimate D2E/DX2                !
 ! R17   R(11,13)                1.4917         estimate D2E/DX2                !
 ! R18   R(11,14)                1.5583         estimate D2E/DX2                !
 ! R19   R(14,15)                1.022          estimate D2E/DX2                !
 ! R20   R(16,17)                1.4507         estimate D2E/DX2                !
 ! R21   R(16,21)                1.0165         estimate D2E/DX2                !
 ! R22   R(17,18)                1.4868         estimate D2E/DX2                !
 ! R23   R(17,23)                1.5235         estimate D2E/DX2                !
 ! R24   R(17,27)                1.1033         estimate D2E/DX2                !
 ! R25   R(18,22)                1.4807         estimate D2E/DX2                !
 ! R26   R(22,28)                1.0893         estimate D2E/DX2                !
 ! R27   R(22,29)                1.0953         estimate D2E/DX2                !
 ! R28   R(22,30)                1.0908         estimate D2E/DX2                !
 ! R29   R(23,24)                1.8279         estimate D2E/DX2                !
 ! R30   R(23,31)                1.0901         estimate D2E/DX2                !
 ! R31   R(23,32)                1.0946         estimate D2E/DX2                !
 ! R32   R(24,25)                1.8198         estimate D2E/DX2                !
 ! R33   R(25,26)                1.5052         estimate D2E/DX2                !
 ! R34   R(25,33)                1.093          estimate D2E/DX2                !
 ! R35   R(25,34)                1.0932         estimate D2E/DX2                !
 ! R36   R(26,35)                1.3469         estimate D2E/DX2                !
 ! R37   R(26,36)                1.3452         estimate D2E/DX2                !
 ! R38   R(26,37)                1.3462         estimate D2E/DX2                !
 ! A1    A(2,1,9)              117.687          estimate D2E/DX2                !
 ! A2    A(2,1,11)             123.364          estimate D2E/DX2                !
 ! A3    A(9,1,11)             118.949          estimate D2E/DX2                !
 ! A4    A(1,2,3)              120.8187         estimate D2E/DX2                !
 ! A5    A(1,2,4)              122.3218         estimate D2E/DX2                !
 ! A6    A(3,2,4)              116.8585         estimate D2E/DX2                !
 ! A7    A(2,4,5)              120.5363         estimate D2E/DX2                !
 ! A8    A(2,4,6)              120.2564         estimate D2E/DX2                !
 ! A9    A(5,4,6)              119.2072         estimate D2E/DX2                !
 ! A10   A(4,6,7)              117.1754         estimate D2E/DX2                !
 ! A11   A(4,6,16)             120.6094         estimate D2E/DX2                !
 ! A12   A(7,6,16)             122.1575         estimate D2E/DX2                !
 ! A13   A(6,7,8)              120.595          estimate D2E/DX2                !
 ! A14   A(6,7,9)              122.1054         estimate D2E/DX2                !
 ! A15   A(8,7,9)              117.2994         estimate D2E/DX2                !
 ! A16   A(7,8,18)             100.6675         estimate D2E/DX2                !
 ! A17   A(7,8,19)             109.9727         estimate D2E/DX2                !
 ! A18   A(7,8,20)             110.1747         estimate D2E/DX2                !
 ! A19   A(18,8,19)            107.923          estimate D2E/DX2                !
 ! A20   A(18,8,20)            111.3289         estimate D2E/DX2                !
 ! A21   A(19,8,20)            115.7111         estimate D2E/DX2                !
 ! A22   A(1,9,7)              120.4534         estimate D2E/DX2                !
 ! A23   A(1,9,10)             119.2198         estimate D2E/DX2                !
 ! A24   A(7,9,10)             120.3239         estimate D2E/DX2                !
 ! A25   A(1,11,12)            103.0975         estimate D2E/DX2                !
 ! A26   A(1,11,13)            103.211          estimate D2E/DX2                !
 ! A27   A(1,11,14)            110.8312         estimate D2E/DX2                !
 ! A28   A(12,11,13)           113.9254         estimate D2E/DX2                !
 ! A29   A(12,11,14)           109.3495         estimate D2E/DX2                !
 ! A30   A(13,11,14)           115.5275         estimate D2E/DX2                !
 ! A31   A(11,14,15)           108.3973         estimate D2E/DX2                !
 ! A32   A(6,16,17)            120.2614         estimate D2E/DX2                !
 ! A33   A(6,16,21)            115.7374         estimate D2E/DX2                !
 ! A34   A(17,16,21)           115.9578         estimate D2E/DX2                !
 ! A35   A(16,17,18)           107.4437         estimate D2E/DX2                !
 ! A36   A(16,17,23)           109.7339         estimate D2E/DX2                !
 ! A37   A(16,17,27)           111.1023         estimate D2E/DX2                !
 ! A38   A(18,17,23)           110.2641         estimate D2E/DX2                !
 ! A39   A(18,17,27)           109.273          estimate D2E/DX2                !
 ! A40   A(23,17,27)           109.0132         estimate D2E/DX2                !
 ! A41   A(8,18,17)            110.0663         estimate D2E/DX2                !
 ! A42   A(8,18,22)            109.4784         estimate D2E/DX2                !
 ! A43   A(17,18,22)           114.7745         estimate D2E/DX2                !
 ! A44   A(18,22,28)           108.2602         estimate D2E/DX2                !
 ! A45   A(18,22,29)           112.1349         estimate D2E/DX2                !
 ! A46   A(18,22,30)           108.7459         estimate D2E/DX2                !
 ! A47   A(28,22,29)           110.1408         estimate D2E/DX2                !
 ! A48   A(28,22,30)           107.8023         estimate D2E/DX2                !
 ! A49   A(29,22,30)           109.6434         estimate D2E/DX2                !
 ! A50   A(17,23,24)           109.2333         estimate D2E/DX2                !
 ! A51   A(17,23,31)           110.1816         estimate D2E/DX2                !
 ! A52   A(17,23,32)           110.0089         estimate D2E/DX2                !
 ! A53   A(24,23,31)           108.0639         estimate D2E/DX2                !
 ! A54   A(24,23,32)           109.3891         estimate D2E/DX2                !
 ! A55   A(31,23,32)           109.9295         estimate D2E/DX2                !
 ! A56   A(23,24,25)            96.0932         estimate D2E/DX2                !
 ! A57   A(24,25,26)           110.5273         estimate D2E/DX2                !
 ! A58   A(24,25,33)           110.5957         estimate D2E/DX2                !
 ! A59   A(24,25,34)           110.3291         estimate D2E/DX2                !
 ! A60   A(26,25,33)           107.8307         estimate D2E/DX2                !
 ! A61   A(26,25,34)           107.7418         estimate D2E/DX2                !
 ! A62   A(33,25,34)           109.7387         estimate D2E/DX2                !
 ! A63   A(25,26,35)           112.6541         estimate D2E/DX2                !
 ! A64   A(25,26,36)           110.7865         estimate D2E/DX2                !
 ! A65   A(25,26,37)           112.6704         estimate D2E/DX2                !
 ! A66   A(35,26,36)           106.8883         estimate D2E/DX2                !
 ! A67   A(35,26,37)           106.5795         estimate D2E/DX2                !
 ! A68   A(36,26,37)           106.8924         estimate D2E/DX2                !
 ! D1    D(9,1,2,3)            179.4743         estimate D2E/DX2                !
 ! D2    D(9,1,2,4)             -0.1532         estimate D2E/DX2                !
 ! D3    D(11,1,2,3)            -0.5336         estimate D2E/DX2                !
 ! D4    D(11,1,2,4)           179.839          estimate D2E/DX2                !
 ! D5    D(2,1,9,7)             -0.0861         estimate D2E/DX2                !
 ! D6    D(2,1,9,10)           179.2976         estimate D2E/DX2                !
 ! D7    D(11,1,9,7)           179.9213         estimate D2E/DX2                !
 ! D8    D(11,1,9,10)           -0.695          estimate D2E/DX2                !
 ! D9    D(2,1,11,12)          179.417          estimate D2E/DX2                !
 ! D10   D(2,1,11,13)          -61.7463         estimate D2E/DX2                !
 ! D11   D(2,1,11,14)           62.513          estimate D2E/DX2                !
 ! D12   D(9,1,11,12)           -0.5909         estimate D2E/DX2                !
 ! D13   D(9,1,11,13)          118.2458         estimate D2E/DX2                !
 ! D14   D(9,1,11,14)         -117.4949         estimate D2E/DX2                !
 ! D15   D(1,2,4,5)           -179.8487         estimate D2E/DX2                !
 ! D16   D(1,2,4,6)              0.2563         estimate D2E/DX2                !
 ! D17   D(3,2,4,5)              0.5099         estimate D2E/DX2                !
 ! D18   D(3,2,4,6)           -179.3851         estimate D2E/DX2                !
 ! D19   D(2,4,6,7)             -0.1138         estimate D2E/DX2                !
 ! D20   D(2,4,6,16)          -177.4091         estimate D2E/DX2                !
 ! D21   D(5,4,6,7)            179.9899         estimate D2E/DX2                !
 ! D22   D(5,4,6,16)             2.6946         estimate D2E/DX2                !
 ! D23   D(4,6,7,8)           -179.9645         estimate D2E/DX2                !
 ! D24   D(4,6,7,9)             -0.1233         estimate D2E/DX2                !
 ! D25   D(16,6,7,8)            -2.7142         estimate D2E/DX2                !
 ! D26   D(16,6,7,9)           177.127          estimate D2E/DX2                !
 ! D27   D(4,6,16,17)         -163.0542         estimate D2E/DX2                !
 ! D28   D(4,6,16,21)          -15.5065         estimate D2E/DX2                !
 ! D29   D(7,6,16,17)           19.7881         estimate D2E/DX2                !
 ! D30   D(7,6,16,21)          167.3357         estimate D2E/DX2                !
 ! D31   D(6,7,8,18)            18.2749         estimate D2E/DX2                !
 ! D32   D(6,7,8,19)           131.9561         estimate D2E/DX2                !
 ! D33   D(6,7,8,20)           -99.3396         estimate D2E/DX2                !
 ! D34   D(9,7,8,18)          -161.5737         estimate D2E/DX2                !
 ! D35   D(9,7,8,19)           -47.8925         estimate D2E/DX2                !
 ! D36   D(9,7,8,20)            80.8118         estimate D2E/DX2                !
 ! D37   D(6,7,9,1)              0.2265         estimate D2E/DX2                !
 ! D38   D(6,7,9,10)          -179.1503         estimate D2E/DX2                !
 ! D39   D(8,7,9,1)           -179.9273         estimate D2E/DX2                !
 ! D40   D(8,7,9,10)             0.6958         estimate D2E/DX2                !
 ! D41   D(7,8,18,17)          -51.4231         estimate D2E/DX2                !
 ! D42   D(7,8,18,22)         -178.4658         estimate D2E/DX2                !
 ! D43   D(19,8,18,17)        -166.6517         estimate D2E/DX2                !
 ! D44   D(19,8,18,22)          66.3057         estimate D2E/DX2                !
 ! D45   D(20,8,18,17)          65.34           estimate D2E/DX2                !
 ! D46   D(20,8,18,22)         -61.7027         estimate D2E/DX2                !
 ! D47   D(1,11,14,15)         -78.1516         estimate D2E/DX2                !
 ! D48   D(12,11,14,15)        168.8574         estimate D2E/DX2                !
 ! D49   D(13,11,14,15)         38.7643         estimate D2E/DX2                !
 ! D50   D(6,16,17,18)         -54.7772         estimate D2E/DX2                !
 ! D51   D(6,16,17,23)        -174.6722         estimate D2E/DX2                !
 ! D52   D(6,16,17,27)          64.7023         estimate D2E/DX2                !
 ! D53   D(21,16,17,18)        157.7431         estimate D2E/DX2                !
 ! D54   D(21,16,17,23)         37.8482         estimate D2E/DX2                !
 ! D55   D(21,16,17,27)        -82.7774         estimate D2E/DX2                !
 ! D56   D(16,17,18,8)          71.7337         estimate D2E/DX2                !
 ! D57   D(16,17,18,22)       -164.2401         estimate D2E/DX2                !
 ! D58   D(23,17,18,8)        -168.7093         estimate D2E/DX2                !
 ! D59   D(23,17,18,22)        -44.6832         estimate D2E/DX2                !
 ! D60   D(27,17,18,8)         -48.9079         estimate D2E/DX2                !
 ! D61   D(27,17,18,22)         75.1182         estimate D2E/DX2                !
 ! D62   D(16,17,23,24)        -61.5711         estimate D2E/DX2                !
 ! D63   D(16,17,23,31)        179.8656         estimate D2E/DX2                !
 ! D64   D(16,17,23,32)         58.5109         estimate D2E/DX2                !
 ! D65   D(18,17,23,24)       -179.7302         estimate D2E/DX2                !
 ! D66   D(18,17,23,31)         61.7065         estimate D2E/DX2                !
 ! D67   D(18,17,23,32)        -59.6482         estimate D2E/DX2                !
 ! D68   D(27,17,23,24)         60.3114         estimate D2E/DX2                !
 ! D69   D(27,17,23,31)        -58.2519         estimate D2E/DX2                !
 ! D70   D(27,17,23,32)       -179.6066         estimate D2E/DX2                !
 ! D71   D(8,18,22,28)        -161.2802         estimate D2E/DX2                !
 ! D72   D(8,18,22,29)          77.0078         estimate D2E/DX2                !
 ! D73   D(8,18,22,30)         -44.4109         estimate D2E/DX2                !
 ! D74   D(17,18,22,28)         74.3824         estimate D2E/DX2                !
 ! D75   D(17,18,22,29)        -47.3295         estimate D2E/DX2                !
 ! D76   D(17,18,22,30)       -168.7483         estimate D2E/DX2                !
 ! D77   D(17,23,24,25)        -71.6412         estimate D2E/DX2                !
 ! D78   D(31,23,24,25)         48.2349         estimate D2E/DX2                !
 ! D79   D(32,23,24,25)        167.8966         estimate D2E/DX2                !
 ! D80   D(23,24,25,26)        -55.3361         estimate D2E/DX2                !
 ! D81   D(23,24,25,33)       -174.6764         estimate D2E/DX2                !
 ! D82   D(23,24,25,34)         63.7238         estimate D2E/DX2                !
 ! D83   D(24,25,26,35)        -58.3265         estimate D2E/DX2                !
 ! D84   D(24,25,26,36)       -178.0056         estimate D2E/DX2                !
 ! D85   D(24,25,26,37)         62.2991         estimate D2E/DX2                !
 ! D86   D(33,25,26,35)         62.6717         estimate D2E/DX2                !
 ! D87   D(33,25,26,36)        -57.0074         estimate D2E/DX2                !
 ! D88   D(33,25,26,37)       -176.7027         estimate D2E/DX2                !
 ! D89   D(34,25,26,35)       -178.9429         estimate D2E/DX2                !
 ! D90   D(34,25,26,36)         61.3781         estimate D2E/DX2                !
 ! D91   D(34,25,26,37)        -58.3172         estimate D2E/DX2                !
 --------------------------------------------------------------------------------
 Trust Radius=3.00D-01 FncErr=1.00D-07 GrdErr=1.00D-06 EigMax=2.50D+02 EigMin=1.00D-04
 Number of steps in this run=    207 maximum allowed number of steps=    222.
 GradGradGradGradGradGradGradGradGradGradGradGradGradGradGradGradGradGrad

                          Input orientation:                          
 ---------------------------------------------------------------------
 Center     Atomic      Atomic             Coordinates (Angstroms)
 Number     Number       Type             X           Y           Z
 ---------------------------------------------------------------------
      1          6           0       -1.364184    0.804336   -0.712975
      2          6           0       -2.468728    0.788547   -1.582440
      3         17           0       -4.087769    1.014399   -0.974482
      4          6           0       -2.335185    0.589069   -2.941742
      5          1           0       -3.208377    0.584860   -3.587137
      6          6           0       -1.061975    0.386163   -3.507225
      7          6           0        0.036313    0.400136   -2.634524
      8         16           0        1.669006    0.156779   -3.245307
      9          6           0       -0.109243    0.607389   -1.263546
     10          1           0        0.762858    0.626201   -0.616025
     11         16           0       -1.506513    1.067977    1.075529
     12          8           0       -0.099206    0.983398    1.541134
     13          8           0       -2.094765    2.435336    1.172817
     14          7           0       -2.339105   -0.070023    1.738902
     15          1           0       -3.329402    0.109301    1.561272
     16          7           0       -0.915529    0.240275   -4.860299
     17          6           0        0.304061   -0.323929   -5.407047
     18          7           0        1.440526    0.478813   -4.883000
     19          8           0        2.563567    1.182908   -2.704658
     20          8           0        2.089755   -1.235544   -3.027531
     21          1           0       -1.767914    0.043293   -5.377835
     22          6           0        2.718766    0.290532   -5.606238
     23          6           0        0.266119   -0.254297   -6.928469
     24         16           0       -1.144031   -1.242641   -7.541483
     25          6           0       -0.421373   -2.868321   -7.158779
     26          6           0        0.926208   -3.014211   -7.813361
     27          1           0        0.428319   -1.375843   -5.098366
     28          1           0        2.649737    0.808723   -6.561926
     29          1           0        2.949954   -0.767930   -5.766984
     30          1           0        3.519242    0.757432   -5.030751
     31          1           0        1.180702   -0.674448   -7.347084
     32          1           0        0.150111    0.784634   -7.253079
     33          1           0       -1.062792   -3.671381   -7.530672
     34          1           0       -0.281289   -2.977246   -6.080051
     35          9           0        0.870827   -2.873333   -9.151740
     36          9           0        1.446126   -4.230664   -7.569648
     37          9           0        1.819600   -2.110715   -7.368649
 ---------------------------------------------------------------------
                    Distance matrix (angstroms):
                    1          2          3          4          5
     1  C    0.000000
     2  C    1.405787   0.000000
     3  Cl   2.744162   1.744109   0.000000
     4  C    2.440612   1.380336   2.668814   0.000000
     5  H    3.421991   2.146481   2.789946   1.085825   0.000000
     6  C    2.841484   2.417781   3.995610   1.407837   2.157060
     7  C    2.411871   2.744626   4.487885   2.398767   3.386681
     8  S    4.004033   4.503898   6.247609   4.038883   4.908051
     9  C    1.384483   2.387819   4.009724   2.787740   3.873527
    10  H    2.136689   3.376901   4.879321   3.874043   4.959831
    11  S    1.813425   2.840552   3.296710   4.129711   4.987003
    12  O    2.590992   3.925470   4.715710   5.025065   6.010403
    13  O    2.598100   3.231595   3.256074   4.516204   5.227003
    14  N    2.779690   3.432966   3.405327   4.726822   5.436101
    15  H    3.085021   3.329423   2.797208   4.636354   5.171742
    16  N    4.209484   3.668431   5.075623   2.412041   2.645153
    17  C    5.107870   4.853203   6.381765   3.725173   4.058964
    18  N    5.036017   5.125612   6.791569   4.246956   4.827298
    19  O    4.420107   5.170966   6.874749   4.940306   5.869563
    20  O    4.631196   5.192783   6.887602   4.787136   5.630030
    21  H    4.743744   3.930848   5.070926   2.560120   2.361107
    22  C    6.393629   6.584001   8.264748   5.721109   6.268526
    23  C    6.512370   6.094829   7.484376   4.834464   4.892934
    24  S    7.132118   6.433564   7.542236   5.092311   4.820595
    25  C    7.478348   6.975665   8.170894   5.779241   5.696356
    26  C    8.381091   8.050524   9.388287   6.881350   6.921638
    27  H    5.215161   5.043729   6.566181   4.018564   4.399287
    28  H    7.093787   7.141034   8.755331   6.164692   6.573963
    29  H    6.828383   7.021050   8.699099   6.144602   6.671343
    30  H    6.518684   6.909964   8.624730   6.218249   6.882925
    31  H    7.257730   6.977809   8.439138   5.776242   5.914987
    32  H    6.713154   6.246157   7.578469   4.980218   4.975790
    33  H    8.161120   7.566312   8.607592   6.389734   6.186323
    34  H    6.654211   6.260558   7.515940   5.175527   5.241285
    35  F    9.472765   9.047447  10.323259   7.799411   7.717759
    36  F    8.958964   8.738720  10.081215   7.677607   7.791923
    37  F    7.932969   7.763742   9.249255   6.644440   6.844451
                    6          7          8          9         10
     6  C    0.000000
     7  C    1.402868   0.000000
     8  S    2.753085   1.760104   0.000000
     9  C    2.447598   1.394174   2.700481   0.000000
    10  H    3.427342   2.157154   2.820387   1.086369   0.000000
    11  S    4.654473   4.073183   5.439102   2.763291   2.864710
    12  O    5.173929   4.218374   5.169129   2.829790   2.350336
    13  O    5.212347   4.814497   6.235192   3.635870   3.826086
    14  N    5.418581   4.999051   6.399901   3.800772   3.956335
    15  H    5.559455   5.386773   6.934662   4.312437   4.664161
    16  N    1.368773   2.426032   3.048769   3.704255   4.580369
    17  C    2.445324   2.877993   2.601399   4.266940   4.905826
    18  N    2.857246   2.652103   1.684621   3.939386   4.322966
    19  O    3.797825   2.646632   1.464746   3.090621   2.813337
    20  O    3.576792   2.654530   1.470721   3.368032   3.322967
    21  H    2.028569   3.302776   4.046353   4.471775   5.423967
    22  C    4.325391   4.004828   2.587254   5.192014   5.370333
    23  C    3.725444   4.349604   3.962671   5.742365   6.392885
    24  S    4.351433   5.307558   5.322470   6.626152   7.422315
    25  C    4.933141   5.600105   5.369933   6.850676   7.511439
    26  C    5.835942   6.266581   5.610173   7.555675   8.067275
    27  H    2.803100   3.062399   2.705931   4.350635   4.920516
    28  H    4.825615   4.735126   3.519492   5.977068   6.240782
    29  H    4.747001   4.434635   2.975696   5.615260   5.767094
    30  H    4.842161   4.242683   2.640448   5.232614   5.206216
    31  H    4.571544   4.967150   4.213544   6.349527   6.868292
    32  H    3.957190   4.635929   4.331683   5.997765   6.667162
    33  H    5.714174   6.462008   6.362537   7.648137   8.343534
    34  H    4.305975   4.835208   4.654196   6.006491   6.628020
    35  F    6.798572   7.340716   6.686151   8.677532   9.225878
    36  F    6.641456   6.912838   6.164354   8.098941   8.509340
    37  F    5.426644   5.647692   4.708095   6.955631   7.362428
                   11         12         13         14         15
    11  S    0.000000
    12  O    1.484741   0.000000
    13  O    1.491702   2.495203   0.000000
    14  N    1.558306   2.483134   2.580112   0.000000
    15  H    2.116112   3.346434   2.661891   1.021958   0.000000
    16  N    6.022326   6.495919   6.527433   6.758129   6.861524
    17  C    6.873090   7.081592   7.527451   7.623345   7.870655
    18  N    6.673546   6.625321   7.280054   7.644372   8.026045
    19  O    5.555949   5.015667   6.188978   6.734334   7.353766
    20  O    5.922369   5.530638   6.973413   6.610002   7.227239
    21  H    6.539435   7.179172   6.981385   7.140521   7.112932
    22  C    7.943766   7.714010   8.586376   8.925421   9.380106
    23  C    8.303892   8.567352   8.856564   9.052318   9.226900
    24  S    8.928787   9.409614   9.506337   9.430206   9.458527
    25  C    9.191072   9.519875  10.017211   9.522442   9.662409
    26  C   10.079422  10.224428  10.935046  10.515524  10.758731
    27  H    6.916127   7.065923   7.760076   7.490797   7.789538
    28  H    8.698985   8.558433   9.218591   9.724427  10.110670
    29  H    8.369626   8.110063   9.158108   9.208667   9.690365
    30  H    7.914626   7.505591   8.533270   8.990724   9.527789
    31  H    9.010970   9.131650   9.643037   9.762659  10.015693
    32  H    8.496493   8.799991   8.874684   9.369224   9.500309
    33  H    9.834892  10.241735  10.682120  10.026154  10.104183
    34  H    8.310676   8.590827   9.229780   8.592007   8.786785
    35  F   11.215289  11.408457  11.982203  11.694798  11.887248
    36  F   10.560907  10.610412  11.550072  10.876029  11.180996
    37  F    9.616197   9.624946  10.437695  10.217961  10.544391
                   16         17         18         19         20
    16  N    0.000000
    17  C    1.450744   0.000000
    18  N    2.368208   1.486799   0.000000
    19  O    4.199935   3.831296   2.549930   0.000000
    20  O    3.816911   3.111566   2.608310   2.485489   0.000000
    21  H    1.016467   2.104468   3.275458   5.215968   4.694780
    22  C    3.710398   2.499608   1.480682   3.039669   3.061747
    23  C    2.432739   1.523487   2.469944   5.018407   4.416538
    24  S    3.072458   2.738032   4.087893   6.559302   5.552764
    25  C    3.897508   3.173129   4.455238   6.720232   5.102836
    26  C    4.764898   3.662654   4.588328   6.811431   5.236570
    27  H    2.115287   1.103289   2.123840   4.103210   2.658648
    28  H    3.991214   2.849358   2.095191   3.876333   4.121232
    29  H    4.096403   2.706925   2.148062   3.651425   2.909159
    30  H    4.468076   3.412965   2.102503   2.550501   3.166745
    31  H    3.378610   2.157570   2.732989   5.187890   4.449690
    32  H    2.675315   2.158807   2.715874   5.164448   5.069378
    33  H    4.738526   4.193269   5.522760   7.746290   6.012498
    34  H    3.498928   2.799225   4.042514   6.065753   4.239487
    35  F    5.594827   4.565458   5.457434   7.802777   6.455546
    36  F    5.736487   4.609093   5.421926   7.363665   5.478670
    37  F    4.393166   3.055707   3.609405   5.757973   4.436689
                   21         22         23         24         25
    21  H    0.000000
    22  C    4.499288   0.000000
    23  C    2.574940   2.839121   0.000000
    24  S    2.593112   4.584429   1.827877   0.000000
    25  C    3.669118   4.716907   2.712713   1.819762   0.000000
    26  C    4.747464   4.359585   2.972520   2.738296   1.505236
    27  H    2.629732   2.877653   2.152545   2.908410   2.682307
    28  H    4.637197   1.089324   2.635527   4.422703   4.827898
    29  H    4.802895   1.095276   2.969147   4.487194   4.208869
    30  H    5.346446   1.090845   3.899710   5.661288   5.762207
    31  H    3.617655   2.515427   1.090058   2.401045   2.723083
    32  H    2.782974   3.090989   1.094626   2.422359   3.698590
    33  H    4.350943   5.805203   3.715524   2.430122   1.092990
    34  H    3.439014   4.461300   2.904121   2.426718   1.093226
    35  F    5.450873   5.098579   3.488260   3.051514   2.375226
    36  F    5.779343   5.090757   4.197025   3.954490   2.347838
    37  F    4.633934   3.111363   2.460356   3.092981   2.374863
                   26         27         28         29         30
    26  C    0.000000
    27  H    3.209882   0.000000
    28  H    4.376239   3.442243   0.000000
    29  H    3.650888   2.678666   1.791060   0.000000
    30  H    5.356495   3.756227   1.761581   1.786857   0.000000
    31  H    2.399307   2.472806   2.230321   2.373965   3.589491
    32  H    3.917584   3.063960   2.593531   3.529597   4.036152
    33  H    2.113742   3.661833   5.898531   5.257638   6.845365
    34  H    2.112766   2.007919   4.812139   3.926833   5.430735
    35  F    1.346912   4.343746   4.840371   4.495783   6.097467
    36  F    1.345165   3.910648   5.278220   4.183494   5.968661
    37  F    1.346188   2.762225   3.140549   2.376153   4.071955
                   31         32         33         34         35
    31  H    0.000000
    32  H    1.788819   0.000000
    33  H    3.748143   4.626474   0.000000
    34  H    3.007602   3.964069   1.787980   0.000000
    35  F    2.861451   4.183906   2.646436   3.282292   0.000000
    36  F    3.573046   5.189710   2.570795   2.602675   2.162483
    37  F    1.572106   3.344188   3.281785   2.612488   2.158974
                   36         37
    36  F    0.000000
    37  F    2.161959   0.000000
 Stoichiometry    C11H12ClF3N3O4S3(1-)
 Framework group  C1[X(C11H12ClF3N3O4S3)]
 Deg. of freedom   105
 Full point group                 C1      NOp   1
 Largest Abelian subgroup         C1      NOp   1
 Largest concise Abelian subgroup C1      NOp   1
                         Standard orientation:                         
 ---------------------------------------------------------------------
 Center     Atomic      Atomic             Coordinates (Angstroms)
 Number     Number       Type             X           Y           Z
 ---------------------------------------------------------------------
      1          6           0       -3.252660   -0.092290    0.100391
      2          6           0       -2.823828   -1.385405   -0.246297
      3         17           0       -3.942692   -2.723225   -0.263569
      4          6           0       -1.513514   -1.663956   -0.579184
      5          1           0       -1.214423   -2.673408   -0.844829
      6          6           0       -0.547621   -0.639728   -0.575704
      7          6           0       -0.980598    0.648083   -0.226261
      8         16           0        0.151238    1.995615   -0.193555
      9          6           0       -2.307703    0.919559    0.103610
     10          1           0       -2.614216    1.930630    0.356557
     11         16           0       -4.966766    0.306100    0.538156
     12          8           0       -4.909957    1.760638    0.830641
     13          8           0       -5.722921   -0.032444   -0.702325
     14          7           0       -5.403745   -0.461965    1.821683
     15          1           0       -5.618636   -1.426918    1.562677
     16          7           0        0.742093   -0.896708   -0.955361
     17          6           0        1.803729    0.030653   -0.612452
     18          7           0        1.408405    1.369573   -1.123906
     19          8           0       -0.413506    3.140876   -0.911136
     20          8           0        0.586695    2.258894    1.186329
     21          1           0        1.003760   -1.878177   -0.993502
     22          6           0        2.509641    2.356870   -1.194211
     23          6           0        3.107646   -0.417771   -1.260319
     24         16           0        3.562613   -2.067706   -0.618562
     25          6           0        4.029726   -1.504782    1.047707
     26          6           0        5.076872   -0.426543    0.966326
     27          1           0        1.945603    0.085578    0.480298
     28          1           0        3.145407    2.099365   -2.040449
     29          1           0        3.100661    2.382205   -0.272429
     30          1           0        2.084503    3.343281   -1.384459
     31          1           0        3.910305    0.275698   -1.009187
     32          1           0        2.987000   -0.471113   -2.346968
     33          1           0        4.444782   -2.331105    1.630414
     34          1           0        3.161598   -1.087711    1.564958
     35          9           0        6.188676   -0.830662    0.322313
     36          9           0        5.457518   -0.036951    2.196283
     37          9           0        4.640046    0.673634    0.325220
 ---------------------------------------------------------------------
 Rotational constants (GHZ):           0.3494125           0.0797135           0.0712981
 General basis read from cards:  (6D, 7F)
 There are   515 symmetry adapted cartesian basis functions of A   symmetry.
 There are   515 symmetry adapted basis functions of A   symmetry.
   515 basis functions,   944 primitive gaussians,   515 cartesian basis functions
   112 alpha electrons      112 beta electrons
       nuclear repulsion energy      3156.1762411823 Hartrees.
 NAtoms=   37 NActive=   37 NUniq=   37 SFac= 1.00D+00 NAtFMM=   60 NAOKFM=F Big=F
 Integral buffers will be    131072 words long.
 Raffenetti 2 integral format.
 Two-electron integral symmetry is turned on.
 ------------------------------------------------------------------------------
 Polarizable Continuum Model (PCM)
 =================================
 Model                : PCM.
 Atomic radii         : SMD-Coulomb.
 Polarization charges : Total charges.
 Charge compensation  : None.
 Solution method      : On-the-fly selection.
 Cavity type          : VdW (van der Waals Surface) (Alpha=1.000).
 Cavity algorithm     : GePol (No added spheres)
                        Default sphere list used, NSphG=   37.
                        Lebedev-Laikov grids with approx.  5.0 points / Ang**2.
                        Smoothing algorithm: York/Karplus (Gamma=1.0000).
                        Polarization charges: spherical gaussians, with
                                              point-specific exponents (IZeta= 3).
                        Self-potential: point-specific (ISelfS= 7).
                        Self-field    : sphere-specific E.n sum rule (ISelfD= 2).
 1st derivatives      : Analytical E(r).r(x)/FMM algorithm (CHGder, D1EAlg=3).
                        Cavity 1st derivative terms included.
 Solvent              : Water, Eps=  78.355300 Eps(inf)=   1.777849
 ------------------------------------------------------------------------------
 ------------------------------------------------------------------------------
 Atomic radii for non-electrostatic terms: SMD-CDS.
 ------------------------------------------------------------------------------
 Nuclear repulsion after PCM non-electrostatic terms =     3156.1821637242 Hartrees.
 One-electron integrals computed using PRISM.
 NBasis=   515 RedAO= T EigKep=  1.93D-06  NBF=   515
 NBsUse=   512 1.00D-06 EigRej=  9.23D-07 NBFU=   512
 ExpMin= 4.05D-02 ExpMax= 2.52D+04 ExpMxC= 3.78D+03 IAcc=3 IRadAn=         5 AccDes= 0.00D+00
 Harris functional with IExCor= 1009 and IRadAn=       5 diagonalized for initial guess.
 HarFok:  IExCor= 1009 AccDes= 0.00D+00 IRadAn=         5 IDoV= 1 UseB2=F ITyADJ=14
 ICtDFT=  3500011 ScaDFX=  1.000000  1.000000  1.000000  1.000000
 FoFCou: FMM=F IPFlag=           0 FMFlag=      100000 FMFlg1=           0
         NFxFlg=           0 DoJE=T BraDBF=F KetDBF=T FulRan=T
         wScrn=  0.000000 ICntrl=       500 IOpCl=  0 I1Cent=   200000004 NGrid=           0
         NMat0=    1 NMatS0=      1 NMatT0=    0 NMatD0=    1 NMtDS0=    0 NMtDT0=    0
 Petite list used in FoFCou.
 Requested convergence on RMS density matrix=1.00D-08 within 128 cycles.
 Requested convergence on MAX density matrix=1.00D-06.
 Requested convergence on             energy=1.00D-06.
 No special actions if energy rises.
 Inv3:  Mode=1 IEnd=    22770075.
 Iteration    1 A*A^-1 deviation from unit magnitude is 6.22D-15 for   2745.
 Iteration    1 A*A^-1 deviation from orthogonality  is 2.43D-15 for   1215    384.
 Iteration    1 A^-1*A deviation from unit magnitude is 6.00D-15 for   2745.
 Iteration    1 A^-1*A deviation from orthogonality  is 7.84D-14 for   2284   1068.
 Error on total polarization charges =  0.04669
 SCF Done:  E(RM062X) =  -2845.32185071     A.U. after   16 cycles
            NFock= 16  Conv=0.43D-08     -V/T= 2.0052
 SMD-CDS (non-electrostatic) energy       (kcal/mol) =       3.72
 (included in total energy above)

 **********************************************************************

            Population analysis using the SCF Density.

 **********************************************************************

 Orbital symmetries:
       Occupied  (A) (A) (A) (A) (A) (A) (A) (A) (A) (A) (A) (A)
                 (A) (A) (A) (A) (A) (A) (A) (A) (A) (A) (A) (A)
                 (A) (A) (A) (A) (A) (A) (A) (A) (A) (A) (A) (A)
                 (A) (A) (A) (A) (A) (A) (A) (A) (A) (A) (A) (A)
                 (A) (A) (A) (A) (A) (A) (A) (A) (A) (A) (A) (A)
                 (A) (A) (A) (A) (A) (A) (A) (A) (A) (A) (A) (A)
                 (A) (A) (A) (A) (A) (A) (A) (A) (A) (A) (A) (A)
                 (A) (A) (A) (A) (A) (A) (A) (A) (A) (A) (A) (A)
                 (A) (A) (A) (A) (A) (A) (A) (A) (A) (A) (A) (A)
                 (A) (A) (A) (A)
       Virtual   (A) (A) (A) (A) (A) (A) (A) (A) (A) (A) (A) (A)
                 (A) (A) (A) (A) (A) (A) (A) (A) (A) (A) (A) (A)
                 (A) (A) (A) (A) (A) (A) (A) (A) (A) (A) (A) (A)
                 (A) (A) (A) (A) (A) (A) (A) (A) (A) (A) (A) (A)
                 (A) (A) (A) (A) (A) (A) (A) (A) (A) (A) (A) (A)
                 (A) (A) (A) (A) (A) (A) (A) (A) (A) (A) (A) (A)
                 (A) (A) (A) (A) (A) (A) (A) (A) (A) (A) (A) (A)
                 (A) (A) (A) (A) (A) (A) (A) (A) (A) (A) (A) (A)
                 (A) (A) (A) (A) (A) (A) (A) (A) (A) (A) (A) (A)
                 (A) (A) (A) (A) (A) (A) (A) (A) (A) (A) (A) (A)
                 (A) (A) (A) (A) (A) (A) (A) (A) (A) (A) (A) (A)
                 (A) (A) (A) (A) (A) (A) (A) (A) (A) (A) (A) (A)
                 (A) (A) (A) (A) (A) (A) (A) (A) (A) (A) (A) (A)
                 (A) (A) (A) (A) (A) (A) (A) (A) (A) (A) (A) (A)
                 (A) (A) (A) (A) (A) (A) (A) (A) (A) (A) (A) (A)
                 (A) (A) (A) (A) (A) (A) (A) (A) (A) (A) (A) (A)
                 (A) (A) (A) (A) (A) (A) (A) (A) (A) (A) (A) (A)
                 (A) (A) (A) (A) (A) (A) (A) (A) (A) (A) (A) (A)
                 (A) (A) (A) (A) (A) (A) (A) (A) (A) (A) (A) (A)
                 (A) (A) (A) (A) (A) (A) (A) (A) (A) (A) (A) (A)
                 (A) (A) (A) (A) (A) (A) (A) (A) (A) (A) (A) (A)
                 (A) (A) (A) (A) (A) (A) (A) (A) (A) (A) (A) (A)
                 (A) (A) (A) (A) (A) (A) (A) (A) (A) (A) (A) (A)
                 (A) (A) (A) (A) (A) (A) (A) (A) (A) (A) (A) (A)
                 (A) (A) (A) (A) (A) (A) (A) (A) (A) (A) (A) (A)
                 (A) (A) (A) (A) (A) (A) (A) (A) (A) (A) (A) (A)
                 (A) (A) (A) (A) (A) (A) (A) (A) (A) (A) (A) (A)
                 (A) (A) (A) (A) (A) (A) (A) (A) (A) (A) (A) (A)
                 (A) (A) (A) (A) (A) (A) (A) (A) (A) (A) (A) (A)
                 (A) (A) (A) (A) (A) (A) (A) (A) (A) (A) (A) (A)
                 (A) (A) (A) (A) (A) (A) (A) (A) (A) (A) (A) (A)
                 (A) (A) (A) (A) (A) (A) (A) (A) (A) (A) (A) (A)
                 (A) (A) (A) (A) (A) (A) (A) (A) (A) (A) (A) (A)
                 (A) (A) (A) (A)
 The electronic state is 1-A.
 Alpha  occ. eigenvalues -- -102.68719 -90.17966 -90.14162 -89.94231 -25.31827
 Alpha  occ. eigenvalues --  -25.30977 -25.30922 -19.66322 -19.66118 -19.62347
 Alpha  occ. eigenvalues --  -19.62206 -14.81767 -14.79900 -14.72144 -10.82073
 Alpha  occ. eigenvalues --  -10.64722 -10.64469 -10.63803 -10.60304 -10.60167
 Alpha  occ. eigenvalues --  -10.59318 -10.59051 -10.58316 -10.58064 -10.57897
 Alpha  occ. eigenvalues --   -9.83364  -8.49089  -8.44969  -8.28672  -7.55768
 Alpha  occ. eigenvalues --   -7.55110  -7.55078  -6.41262  -6.41237  -6.41157
 Alpha  occ. eigenvalues --   -6.37211  -6.37126  -6.37052  -6.20740  -6.20516
 Alpha  occ. eigenvalues --   -6.20061  -1.48146  -1.39328  -1.38226  -1.26054
 Alpha  occ. eigenvalues --   -1.21277  -1.14122  -1.10909  -1.09602  -1.04568
 Alpha  occ. eigenvalues --   -1.01340  -0.96636  -0.96312  -0.94436  -0.89833
 Alpha  occ. eigenvalues --   -0.88115  -0.86174  -0.82105  -0.80479  -0.77224
 Alpha  occ. eigenvalues --   -0.74576  -0.73705  -0.72177  -0.70784  -0.70419
 Alpha  occ. eigenvalues --   -0.69381  -0.65496  -0.64641  -0.63932  -0.62148
 Alpha  occ. eigenvalues --   -0.61344  -0.60180  -0.58856  -0.58602  -0.57709
 Alpha  occ. eigenvalues --   -0.56904  -0.56258  -0.55767  -0.55080  -0.54573
 Alpha  occ. eigenvalues --   -0.53452  -0.52731  -0.52556  -0.52004  -0.51385
 Alpha  occ. eigenvalues --   -0.50962  -0.50386  -0.49441  -0.48710  -0.48271
 Alpha  occ. eigenvalues --   -0.47424  -0.46470  -0.45838  -0.44560  -0.43789
 Alpha  occ. eigenvalues --   -0.43031  -0.42642  -0.41816  -0.40875  -0.40051
 Alpha  occ. eigenvalues --   -0.39796  -0.39309  -0.38724  -0.38366  -0.37719
 Alpha  occ. eigenvalues --   -0.35835  -0.34328  -0.33343  -0.32381  -0.31249
 Alpha  occ. eigenvalues --   -0.30406  -0.27451
 Alpha virt. eigenvalues --   -0.02041   0.00028   0.00997   0.01867   0.02052
 Alpha virt. eigenvalues --    0.02083   0.02771   0.03690   0.03994   0.04317
 Alpha virt. eigenvalues --    0.04528   0.04934   0.05490   0.05667   0.05740
 Alpha virt. eigenvalues --    0.06460   0.06546   0.07148   0.07299   0.07901
 Alpha virt. eigenvalues --    0.08144   0.08587   0.08952   0.09172   0.09402
 Alpha virt. eigenvalues --    0.09644   0.10300   0.10729   0.10862   0.11095
 Alpha virt. eigenvalues --    0.11459   0.11631   0.12079   0.12329   0.12759
 Alpha virt. eigenvalues --    0.12844   0.13217   0.13426   0.14077   0.14492
 Alpha virt. eigenvalues --    0.14603   0.14993   0.15425   0.15612   0.15702
 Alpha virt. eigenvalues --    0.16266   0.16518   0.16916   0.17046   0.17384
 Alpha virt. eigenvalues --    0.17989   0.18259   0.18564   0.18826   0.19271
 Alpha virt. eigenvalues --    0.19525   0.20017   0.20597   0.21107   0.21228
 Alpha virt. eigenvalues --    0.21503   0.21774   0.22099   0.22353   0.22537
 Alpha virt. eigenvalues --    0.23144   0.23398   0.23568   0.23784   0.24160
 Alpha virt. eigenvalues --    0.24463   0.24952   0.25294   0.25613   0.25952
 Alpha virt. eigenvalues --    0.26157   0.26339   0.26682   0.26995   0.27366
 Alpha virt. eigenvalues --    0.27761   0.28220   0.28619   0.28784   0.28971
 Alpha virt. eigenvalues --    0.29511   0.29722   0.29888   0.30369   0.30710
 Alpha virt. eigenvalues --    0.30881   0.31289   0.31487   0.31530   0.32098
 Alpha virt. eigenvalues --    0.32245   0.32992   0.33265   0.33666   0.33746
 Alpha virt. eigenvalues --    0.34485   0.34769   0.34952   0.35384   0.35804
 Alpha virt. eigenvalues --    0.36454   0.36474   0.36929   0.37349   0.37478
 Alpha virt. eigenvalues --    0.38022   0.38198   0.38570   0.38961   0.39736
 Alpha virt. eigenvalues --    0.40119   0.40443   0.40658   0.41113   0.41472
 Alpha virt. eigenvalues --    0.42237   0.42765   0.43464   0.43893   0.44397
 Alpha virt. eigenvalues --    0.44813   0.45030   0.46512   0.47026   0.47338
 Alpha virt. eigenvalues --    0.48474   0.49475   0.50700   0.51729   0.52546
 Alpha virt. eigenvalues --    0.53817   0.54409   0.56826   0.57342   0.58109
 Alpha virt. eigenvalues --    0.60879   0.61171   0.61996   0.62385   0.63549
 Alpha virt. eigenvalues --    0.64432   0.66039   0.66638   0.67623   0.67783
 Alpha virt. eigenvalues --    0.69187   0.70352   0.71041   0.71242   0.71633
 Alpha virt. eigenvalues --    0.72121   0.73269   0.73325   0.74529   0.75305
 Alpha virt. eigenvalues --    0.75545   0.76555   0.77905   0.78530   0.79062
 Alpha virt. eigenvalues --    0.79733   0.80950   0.81775   0.82628   0.83570
 Alpha virt. eigenvalues --    0.84593   0.84882   0.86328   0.87263   0.89586
 Alpha virt. eigenvalues --    0.90491   0.90711   0.91758   0.93155   0.93587
 Alpha virt. eigenvalues --    0.94419   0.95657   0.96554   0.97146   0.98225
 Alpha virt. eigenvalues --    0.98600   1.00047   1.01093   1.02054   1.02335
 Alpha virt. eigenvalues --    1.02708   1.03742   1.04431   1.04749   1.05504
 Alpha virt. eigenvalues --    1.05916   1.06784   1.07455   1.08902   1.09307
 Alpha virt. eigenvalues --    1.09806   1.10186   1.11643   1.12029   1.12443
 Alpha virt. eigenvalues --    1.13408   1.14034   1.15289   1.15403   1.16201
 Alpha virt. eigenvalues --    1.17982   1.18452   1.19029   1.19608   1.21028
 Alpha virt. eigenvalues --    1.21578   1.21792   1.22134   1.23263   1.23582
 Alpha virt. eigenvalues --    1.24874   1.25630   1.26247   1.27317   1.28927
 Alpha virt. eigenvalues --    1.29730   1.30783   1.31997   1.33920   1.34352
 Alpha virt. eigenvalues --    1.35536   1.35786   1.36399   1.36961   1.37833
 Alpha virt. eigenvalues --    1.39150   1.39910   1.40669   1.40937   1.41335
 Alpha virt. eigenvalues --    1.41596   1.43564   1.43998   1.45791   1.46550
 Alpha virt. eigenvalues --    1.47992   1.48660   1.49945   1.50744   1.51825
 Alpha virt. eigenvalues --    1.52815   1.53076   1.54003   1.55851   1.58063
 Alpha virt. eigenvalues --    1.58538   1.60622   1.61793   1.62953   1.63606
 Alpha virt. eigenvalues --    1.65265   1.67220   1.68481   1.70244   1.70992
 Alpha virt. eigenvalues --    1.71545   1.73503   1.73908   1.74722   1.76064
 Alpha virt. eigenvalues --    1.76320   1.78007   1.78528   1.79068   1.80199
 Alpha virt. eigenvalues --    1.81421   1.82175   1.82560   1.82946   1.84103
 Alpha virt. eigenvalues --    1.84217   1.85517   1.85757   1.86049   1.86975
 Alpha virt. eigenvalues --    1.87599   1.88049   1.88472   1.89129   1.89414
 Alpha virt. eigenvalues --    1.89873   1.90499   1.91181   1.92303   1.93394
 Alpha virt. eigenvalues --    1.94828   1.96364   1.97201   1.97462   1.98523
 Alpha virt. eigenvalues --    1.99899   2.00513   2.01269   2.03201   2.03284
 Alpha virt. eigenvalues --    2.04338   2.05207   2.05370   2.06340   2.08165
 Alpha virt. eigenvalues --    2.09294   2.09641   2.11350   2.11546   2.12632
 Alpha virt. eigenvalues --    2.13873   2.14870   2.15790   2.16934   2.17433
 Alpha virt. eigenvalues --    2.18600   2.20331   2.21223   2.21352   2.22675
 Alpha virt. eigenvalues --    2.23897   2.24394   2.25401   2.26587   2.27634
 Alpha virt. eigenvalues --    2.29276   2.30227   2.31501   2.32386   2.32634
 Alpha virt. eigenvalues --    2.35276   2.36756   2.38589   2.39879   2.41845
 Alpha virt. eigenvalues --    2.41988   2.43104   2.44270   2.47874   2.48264
 Alpha virt. eigenvalues --    2.51597   2.53309   2.56182   2.58625   2.59404
 Alpha virt. eigenvalues --    2.62747   2.63953   2.65843   2.69124   2.73091
 Alpha virt. eigenvalues --    2.77006   2.78933   2.79685   2.80524   2.81533
 Alpha virt. eigenvalues --    2.82358   2.84752   2.87943   2.88982   2.89663
 Alpha virt. eigenvalues --    2.92550   2.96155   2.99633   3.02139   3.04193
 Alpha virt. eigenvalues --    3.18207   3.19930   3.23306   3.26143   3.33453
 Alpha virt. eigenvalues --    4.01299   4.01763   4.05732   4.08915   4.21639
 Alpha virt. eigenvalues --    4.23809   4.27730   4.28776   4.30889   4.32735
 Alpha virt. eigenvalues --    4.34467   4.36403   4.38518   4.41153   4.42072
 Alpha virt. eigenvalues --    4.46046   4.48642   4.51762   4.55277   4.65645
 Alpha virt. eigenvalues --    4.68761   4.76351   5.86745   5.96188   6.86907
          Condensed to atoms (all electrons):
               1          2          3          4          5          6
     1  C   57.763563  -4.562108   0.391529  -6.379532   0.073013   7.745700
     2  C   -4.562108  35.537641  -0.856668  -2.535844   0.012144   0.437383
     3  Cl   0.391529  -0.856668  17.086474   0.040600  -0.000696   0.125165
     4  C   -6.379532  -2.535844   0.040600   9.793299   0.300862   0.102955
     5  H    0.073013   0.012144  -0.000696   0.300862   0.404154  -0.176513
     6  C    7.745700   0.437383   0.125165   0.102955  -0.176513  26.611512
     7  C  -21.965021 -11.785564  -0.050128   1.716430   0.088241 -19.238906
     8  S   -4.517432   0.170076  -0.025895   0.459902   0.003860  -2.608634
     9  C  -15.729869 -12.417859   0.050661   1.715319   0.009580  -6.397346
    10  H   -0.087985  -0.046871  -0.000318  -0.006537   0.000009  -0.033265
    11  S    0.103928   0.858843   0.058392   0.333216  -0.000901   1.028808
    12  O   -0.471351  -0.153522   0.008002   0.041064   0.000033   0.026159
    13  O   -0.226590   0.307910  -0.055267   0.048579  -0.000027   0.150283
    14  N   -0.149347   0.177277  -0.024025   0.035022  -0.000113   0.097493
    15  H   -0.081855  -0.061526   0.016231   0.021917  -0.000000   0.002850
    16  N    0.016855   0.016363  -0.001292  -0.181357  -0.011865  -0.307091
    17  C   -1.660116  -0.556230  -0.007353   0.387097   0.006496  -1.519764
    18  N   -0.727600   0.287627  -0.004477   0.053254   0.000430   0.435285
    19  O   -0.210892   0.017535  -0.000842   0.011708   0.000014  -0.038051
    20  O   -0.137202  -0.000698  -0.000232   0.033307   0.000021  -0.302990
    21  H    0.009313   0.019006   0.000281   0.019192   0.004289  -0.074564
    22  C   -0.031984   0.033302  -0.000552  -0.033313   0.000077   0.197395
    23  C   -0.803466   0.207976  -0.001878   0.052145   0.000218  -0.436444
    24  S    0.013544  -0.051954   0.001630   0.016214  -0.000859  -0.117445
    25  C   -0.013157   0.014556  -0.000276   0.020820  -0.000061  -0.017831
    26  C   -0.004218   0.004683  -0.000096  -0.011888   0.000001   0.022276
    27  H    0.018508   0.002048  -0.000027   0.014092  -0.000003  -0.041117
    28  H   -0.000605   0.000022  -0.000001  -0.001519   0.000000   0.009591
    29  H   -0.000632   0.000039  -0.000000   0.002114  -0.000000  -0.001429
    30  H    0.001184   0.000167   0.000001   0.000773  -0.000000  -0.001576
    31  H   -0.000073  -0.000372   0.000001  -0.000319   0.000000  -0.003592
    32  H   -0.000268   0.001201  -0.000004   0.003863  -0.000001  -0.009723
    33  H    0.000017   0.000015   0.000000   0.000227   0.000000  -0.000207
    34  H   -0.000437   0.000176  -0.000010  -0.001808   0.000000   0.003889
    35  F    0.000021  -0.000027   0.000000  -0.000149   0.000000  -0.000006
    36  F   -0.000080   0.000021  -0.000000  -0.000190   0.000000   0.000821
    37  F   -0.000714   0.000316  -0.000001  -0.000134  -0.000000   0.005447
               7          8          9         10         11         12
     1  C  -21.965021  -4.517432 -15.729869  -0.087985   0.103928  -0.471351
     2  C  -11.785564   0.170076 -12.417859  -0.046871   0.858843  -0.153522
     3  Cl  -0.050128  -0.025895   0.050661  -0.000318   0.058392   0.008002
     4  C    1.716430   0.459902   1.715319  -0.006537   0.333216   0.041064
     5  H    0.088241   0.003860   0.009580   0.000009  -0.000901   0.000033
     6  C  -19.238906  -2.608634  -6.397346  -0.033265   1.028808   0.026159
     7  C   43.856591   1.197958  16.264501   0.020159  -2.629044  -0.186066
     8  S    1.197958  18.375690   0.543320   0.042153  -0.338019  -0.008569
     9  C   16.264501   0.543320  23.652668   0.429266  -2.214242   0.286544
    10  H    0.020159   0.042153   0.429266   0.395697  -0.025082   0.002662
    11  S   -2.629044  -0.338019  -2.214242  -0.025082  16.119231   0.358796
    12  O   -0.186066  -0.008569   0.286544   0.002662   0.358796   9.101895
    13  O   -0.378126  -0.016453  -0.260217  -0.000758   0.297291  -0.092168
    14  N   -0.275519  -0.016082  -0.385946  -0.001739   0.415621  -0.137096
    15  H   -0.004498  -0.000121   0.020232  -0.000013   0.107554   0.019136
    16  N    0.576682  -0.040120   0.038328  -0.000488   0.007549   0.000560
    17  C    2.616008  -0.225183   0.348177   0.002446  -0.070073  -0.004253
    18  N   -1.378086   0.360297   0.007623   0.001847  -0.030989  -0.000927
    19  O   -0.093370   0.263609   0.068296   0.003475  -0.013672  -0.000876
    20  O    0.113313   0.686936  -0.023051  -0.000222  -0.003603  -0.000174
    21  H    0.045220   0.005944  -0.003505   0.000002   0.000181   0.000001
    22  C   -0.296372  -0.192750   0.027449  -0.000274  -0.003847  -0.000001
    23  C   -1.440070   0.184355   0.094656  -0.000071  -0.013831  -0.000241
    24  S    0.186815  -0.054107  -0.004068  -0.000020   0.001676   0.000011
    25  C   -0.011980   0.047933  -0.004519   0.000003  -0.000500  -0.000004
    26  C   -0.083975  -0.016118   0.007633   0.000002  -0.000200  -0.000003
    27  H    0.043005   0.043018   0.000292  -0.000000  -0.000223  -0.000001
    28  H   -0.014355   0.015760   0.000108   0.000000  -0.000009  -0.000000
    29  H    0.018313   0.002179  -0.008187   0.000000  -0.000013  -0.000000
    30  H    0.007641  -0.031662   0.010282  -0.000001   0.000044   0.000000
    31  H    0.008554  -0.015103  -0.000543   0.000000   0.000002  -0.000000
    32  H   -0.005196   0.012028   0.000514  -0.000000  -0.000011  -0.000000
    33  H    0.000054  -0.000147  -0.000003  -0.000000   0.000000  -0.000000
    34  H   -0.002986   0.004131   0.000450   0.000000  -0.000012  -0.000000
    35  F    0.001320  -0.000438  -0.000003  -0.000000   0.000000   0.000000
    36  F   -0.001522   0.000576   0.000015   0.000000  -0.000000  -0.000000
    37  F   -0.005313   0.003784   0.000185   0.000000  -0.000007  -0.000000
              13         14         15         16         17         18
     1  C   -0.226590  -0.149347  -0.081855   0.016855  -1.660116  -0.727600
     2  C    0.307910   0.177277  -0.061526   0.016363  -0.556230   0.287627
     3  Cl  -0.055267  -0.024025   0.016231  -0.001292  -0.007353  -0.004477
     4  C    0.048579   0.035022   0.021917  -0.181357   0.387097   0.053254
     5  H   -0.000027  -0.000113  -0.000000  -0.011865   0.006496   0.000430
     6  C    0.150283   0.097493   0.002850  -0.307091  -1.519764   0.435285
     7  C   -0.378126  -0.275519  -0.004498   0.576682   2.616008  -1.378086
     8  S   -0.016453  -0.016082  -0.000121  -0.040120  -0.225183   0.360297
     9  C   -0.260217  -0.385946   0.020232   0.038328   0.348177   0.007623
    10  H   -0.000758  -0.001739  -0.000013  -0.000488   0.002446   0.001847
    11  S    0.297291   0.415621   0.107554   0.007549  -0.070073  -0.030989
    12  O   -0.092168  -0.137096   0.019136   0.000560  -0.004253  -0.000927
    13  O    8.990459  -0.113101  -0.010455  -0.000070  -0.005111  -0.000602
    14  N   -0.113101   8.034408   0.208391  -0.000399  -0.006383  -0.000755
    15  H   -0.010455   0.208391   0.359200  -0.000002  -0.000035  -0.000001
    16  N   -0.000070  -0.000399  -0.000002   7.892619  -0.667023  -0.442618
    17  C   -0.005111  -0.006383  -0.000035  -0.667023  17.049538  -1.001032
    18  N   -0.000602  -0.000755  -0.000001  -0.442618  -1.001032   9.002101
    19  O   -0.000268  -0.000346   0.000000  -0.017042   0.122444  -0.020959
    20  O   -0.000079  -0.000251  -0.000000   0.079031  -0.091175  -0.197972
    21  H    0.000001   0.000002   0.000000   0.244133  -0.076085   0.005912
    22  C   -0.000005  -0.000027  -0.000000  -0.113844  -0.563142   0.508353
    23  C   -0.000356  -0.000446  -0.000002   0.224444  -6.763722   0.938100
    24  S    0.000001   0.000015   0.000000   0.128389  -0.606899  -0.175043
    25  C   -0.000004  -0.000015  -0.000000  -0.020233   0.410801   0.023244
    26  C    0.000000  -0.000002  -0.000000   0.003511  -0.628585   0.075736
    27  H   -0.000000   0.000001   0.000000  -0.047659   0.454940  -0.073568
    28  H   -0.000000  -0.000000  -0.000000  -0.008847  -0.045834  -0.022139
    29  H   -0.000000   0.000000   0.000000   0.007145   0.047753  -0.027819
    30  H   -0.000000  -0.000000  -0.000000   0.001724   0.039047  -0.081118
    31  H   -0.000000   0.000000  -0.000000   0.007424  -0.047191  -0.022282
    32  H   -0.000000  -0.000000   0.000000   0.012238  -0.069359   0.027046
    33  H    0.000000   0.000000   0.000000  -0.000967  -0.002705  -0.000070
    34  H   -0.000000  -0.000000   0.000000   0.007418   0.010664   0.001732
    35  F    0.000000   0.000000  -0.000000  -0.000131   0.047536  -0.001513
    36  F   -0.000000  -0.000000  -0.000000   0.000532  -0.027757   0.001091
    37  F   -0.000000  -0.000000  -0.000000   0.006035  -0.037425   0.013689
              19         20         21         22         23         24
     1  C   -0.210892  -0.137202   0.009313  -0.031984  -0.803466   0.013544
     2  C    0.017535  -0.000698   0.019006   0.033302   0.207976  -0.051954
     3  Cl  -0.000842  -0.000232   0.000281  -0.000552  -0.001878   0.001630
     4  C    0.011708   0.033307   0.019192  -0.033313   0.052145   0.016214
     5  H    0.000014   0.000021   0.004289   0.000077   0.000218  -0.000859
     6  C   -0.038051  -0.302990  -0.074564   0.197395  -0.436444  -0.117445
     7  C   -0.093370   0.113313   0.045220  -0.296372  -1.440070   0.186815
     8  S    0.263609   0.686936   0.005944  -0.192750   0.184355  -0.054107
     9  C    0.068296  -0.023051  -0.003505   0.027449   0.094656  -0.004068
    10  H    0.003475  -0.000222   0.000002  -0.000274  -0.000071  -0.000020
    11  S   -0.013672  -0.003603   0.000181  -0.003847  -0.013831   0.001676
    12  O   -0.000876  -0.000174   0.000001  -0.000001  -0.000241   0.000011
    13  O   -0.000268  -0.000079   0.000001  -0.000005  -0.000356   0.000001
    14  N   -0.000346  -0.000251   0.000002  -0.000027  -0.000446   0.000015
    15  H    0.000000  -0.000000   0.000000  -0.000000  -0.000002   0.000000
    16  N   -0.017042   0.079031   0.244133  -0.113844   0.224444   0.128389
    17  C    0.122444  -0.091175  -0.076085  -0.563142  -6.763722  -0.606899
    18  N   -0.020959  -0.197972   0.005912   0.508353   0.938100  -0.175043
    19  O    8.695957  -0.202056   0.000023  -0.044721   0.057363   0.002870
    20  O   -0.202056   8.605461   0.000246  -0.076066  -0.001435   0.005074
    21  H    0.000023   0.000246   0.272285   0.000094   0.004329   0.056430
    22  C   -0.044721  -0.076066   0.000094   5.831210   0.227400  -0.104546
    23  C    0.057363  -0.001435   0.004329   0.227400  12.997215   0.153377
    24  S    0.002870   0.005074   0.056430  -0.104546   0.153377  16.764183
    25  C   -0.000740   0.002914  -0.005836   0.006882  -0.443052  -0.362774
    26  C    0.000595   0.001911  -0.002248   0.022099   0.507022  -0.013889
    27  H    0.000633   0.014638   0.000424   0.017950  -0.219367  -0.044814
    28  H    0.000992  -0.001269  -0.000011   0.394759   0.021641  -0.005965
    29  H   -0.002261   0.010950   0.000007   0.346918  -0.081141   0.003102
    30  H    0.015577  -0.005185   0.000001   0.375571   0.006530   0.001226
    31  H   -0.000011  -0.000690   0.000265  -0.005323   0.388321   0.009698
    32  H    0.000139   0.000090  -0.000562   0.000431   0.373542  -0.056307
    33  H    0.000000   0.000000   0.000023   0.000302   0.019999  -0.035764
    34  H   -0.000005   0.000295  -0.000379   0.002243  -0.034822  -0.037640
    35  F   -0.000001  -0.000034   0.000003  -0.002187  -0.063794   0.045145
    36  F    0.000001  -0.000018  -0.000013  -0.000116   0.017808   0.011905
    37  F    0.000033  -0.000996  -0.000130   0.004642  -0.039322  -0.007385
              25         26         27         28         29         30
     1  C   -0.013157  -0.004218   0.018508  -0.000605  -0.000632   0.001184
     2  C    0.014556   0.004683   0.002048   0.000022   0.000039   0.000167
     3  Cl  -0.000276  -0.000096  -0.000027  -0.000001  -0.000000   0.000001
     4  C    0.020820  -0.011888   0.014092  -0.001519   0.002114   0.000773
     5  H   -0.000061   0.000001  -0.000003   0.000000  -0.000000  -0.000000
     6  C   -0.017831   0.022276  -0.041117   0.009591  -0.001429  -0.001576
     7  C   -0.011980  -0.083975   0.043005  -0.014355   0.018313   0.007641
     8  S    0.047933  -0.016118   0.043018   0.015760   0.002179  -0.031662
     9  C   -0.004519   0.007633   0.000292   0.000108  -0.008187   0.010282
    10  H    0.000003   0.000002  -0.000000   0.000000   0.000000  -0.000001
    11  S   -0.000500  -0.000200  -0.000223  -0.000009  -0.000013   0.000044
    12  O   -0.000004  -0.000003  -0.000001  -0.000000  -0.000000   0.000000
    13  O   -0.000004   0.000000  -0.000000  -0.000000  -0.000000  -0.000000
    14  N   -0.000015  -0.000002   0.000001  -0.000000   0.000000  -0.000000
    15  H   -0.000000  -0.000000   0.000000  -0.000000   0.000000  -0.000000
    16  N   -0.020233   0.003511  -0.047659  -0.008847   0.007145   0.001724
    17  C    0.410801  -0.628585   0.454940  -0.045834   0.047753   0.039047
    18  N    0.023244   0.075736  -0.073568  -0.022139  -0.027819  -0.081118
    19  O   -0.000740   0.000595   0.000633   0.000992  -0.002261   0.015577
    20  O    0.002914   0.001911   0.014638  -0.001269   0.010950  -0.005185
    21  H   -0.005836  -0.002248   0.000424  -0.000011   0.000007   0.000001
    22  C    0.006882   0.022099   0.017950   0.394759   0.346918   0.375571
    23  C   -0.443052   0.507022  -0.219367   0.021641  -0.081141   0.006530
    24  S   -0.362774  -0.013889  -0.044814  -0.005965   0.003102   0.001226
    25  C    6.581765   0.171724   0.014992   0.000823   0.000237  -0.000001
    26  C    0.171724   4.551212   0.002514  -0.001588  -0.000408  -0.000722
    27  H    0.014992   0.002514   0.493034  -0.000436   0.004389  -0.000150
    28  H    0.000823  -0.001588  -0.000436   0.420760  -0.030647  -0.015708
    29  H    0.000237  -0.000408   0.004389  -0.030647   0.436472  -0.023835
    30  H   -0.000001  -0.000722  -0.000150  -0.015708  -0.023835   0.426430
    31  H   -0.032775   0.011519  -0.003884  -0.002127  -0.002354   0.000182
    32  H    0.016649  -0.002323   0.002628  -0.000959   0.000268  -0.000020
    33  H    0.357132  -0.028903   0.000009  -0.000000   0.000001  -0.000000
    34  H    0.340890  -0.038307   0.004001   0.000001  -0.000020   0.000000
    35  F   -0.122330   0.184156  -0.000344   0.000005  -0.000035   0.000002
    36  F   -0.103460   0.204470  -0.000244   0.000002   0.000006   0.000002
    37  F   -0.088158   0.120175   0.005305  -0.001218   0.001071   0.000083
              31         32         33         34         35         36
     1  C   -0.000073  -0.000268   0.000017  -0.000437   0.000021  -0.000080
     2  C   -0.000372   0.001201   0.000015   0.000176  -0.000027   0.000021
     3  Cl   0.000001  -0.000004   0.000000  -0.000010   0.000000  -0.000000
     4  C   -0.000319   0.003863   0.000227  -0.001808  -0.000149  -0.000190
     5  H    0.000000  -0.000001   0.000000   0.000000   0.000000   0.000000
     6  C   -0.003592  -0.009723  -0.000207   0.003889  -0.000006   0.000821
     7  C    0.008554  -0.005196   0.000054  -0.002986   0.001320  -0.001522
     8  S   -0.015103   0.012028  -0.000147   0.004131  -0.000438   0.000576
     9  C   -0.000543   0.000514  -0.000003   0.000450  -0.000003   0.000015
    10  H    0.000000  -0.000000  -0.000000   0.000000  -0.000000   0.000000
    11  S    0.000002  -0.000011   0.000000  -0.000012   0.000000  -0.000000
    12  O   -0.000000  -0.000000  -0.000000  -0.000000   0.000000  -0.000000
    13  O   -0.000000  -0.000000   0.000000  -0.000000   0.000000  -0.000000
    14  N    0.000000  -0.000000   0.000000  -0.000000   0.000000  -0.000000
    15  H   -0.000000   0.000000   0.000000   0.000000  -0.000000  -0.000000
    16  N    0.007424   0.012238  -0.000967   0.007418  -0.000131   0.000532
    17  C   -0.047191  -0.069359  -0.002705   0.010664   0.047536  -0.027757
    18  N   -0.022282   0.027046  -0.000070   0.001732  -0.001513   0.001091
    19  O   -0.000011   0.000139   0.000000  -0.000005  -0.000001   0.000001
    20  O   -0.000690   0.000090   0.000000   0.000295  -0.000034  -0.000018
    21  H    0.000265  -0.000562   0.000023  -0.000379   0.000003  -0.000013
    22  C   -0.005323   0.000431   0.000302   0.002243  -0.002187  -0.000116
    23  C    0.388321   0.373542   0.019999  -0.034822  -0.063794   0.017808
    24  S    0.009698  -0.056307  -0.035764  -0.037640   0.045145   0.011905
    25  C   -0.032775   0.016649   0.357132   0.340890  -0.122330  -0.103460
    26  C    0.011519  -0.002323  -0.028903  -0.038307   0.184156   0.204470
    27  H   -0.003884   0.002628   0.000009   0.004001  -0.000344  -0.000244
    28  H   -0.002127  -0.000959  -0.000000   0.000001   0.000005   0.000002
    29  H   -0.002354   0.000268   0.000001  -0.000020  -0.000035   0.000006
    30  H    0.000182  -0.000020  -0.000000   0.000000   0.000002   0.000002
    31  H    0.430769  -0.016649  -0.000064  -0.000709   0.002755  -0.000981
    32  H   -0.016649   0.381534  -0.000026  -0.000079  -0.000169   0.000041
    33  H   -0.000064  -0.000026   0.364250  -0.013768  -0.003958  -0.003543
    34  H   -0.000709  -0.000079  -0.013768   0.404558   0.007741  -0.001561
    35  F    0.002755  -0.000169  -0.003958   0.007741   9.280537  -0.049390
    36  F   -0.000981   0.000041  -0.003543  -0.001561  -0.049390   9.291221
    37  F   -0.041957   0.003357   0.007562   0.001107  -0.035593  -0.035336
              37
     1  C   -0.000714
     2  C    0.000316
     3  Cl  -0.000001
     4  C   -0.000134
     5  H   -0.000000
     6  C    0.005447
     7  C   -0.005313
     8  S    0.003784
     9  C    0.000185
    10  H    0.000000
    11  S   -0.000007
    12  O   -0.000000
    13  O   -0.000000
    14  N   -0.000000
    15  H   -0.000000
    16  N    0.006035
    17  C   -0.037425
    18  N    0.013689
    19  O    0.000033
    20  O   -0.000996
    21  H   -0.000130
    22  C    0.004642
    23  C   -0.039322
    24  S   -0.007385
    25  C   -0.088158
    26  C    0.120175
    27  H    0.005305
    28  H   -0.001218
    29  H    0.001071
    30  H    0.000083
    31  H   -0.041957
    32  H    0.003357
    33  H    0.007562
    34  H    0.001107
    35  F   -0.035593
    36  F   -0.035336
    37  F    9.415564
 Mulliken charges:
               1
     1  C   -2.374642
     2  C    0.922921
     3  Cl   0.251070
     4  C   -0.071384
     5  H    0.287599
     6  C    0.323483
     7  C   -0.914707
     8  S    1.683326
     9  C   -0.126742
    10  H    0.305924
    11  S    1.653147
    12  O   -0.789615
    13  O   -0.634867
    14  N   -0.856636
    15  H    0.402997
    16  N   -0.409931
    17  C   -0.860509
    18  N   -0.533794
    19  O   -0.615153
    20  O   -0.508790
    21  H    0.475726
    22  C   -0.528008
    23  C   -0.132979
    24  S    0.278174
    25  C   -0.783658
    26  C    0.942234
    27  H    0.295417
    28  H    0.288774
    29  H    0.297818
    30  H    0.273511
    31  H    0.337509
    32  H    0.326086
    33  H    0.340533
    34  H    0.343246
    35  F   -0.289119
    36  F   -0.304301
    37  F   -0.294665
 Sum of Mulliken charges =  -1.00000
 Mulliken charges with hydrogens summed into heavy atoms:
               1
     1  C   -2.374642
     2  C    0.922921
     3  Cl   0.251070
     4  C    0.216215
     6  C    0.323483
     7  C   -0.914707
     8  S    1.683326
     9  C    0.179183
    11  S    1.653147
    12  O   -0.789615
    13  O   -0.634867
    14  N   -0.453639
    16  N    0.065795
    17  C   -0.565091
    18  N   -0.533794
    19  O   -0.615153
    20  O   -0.508790
    22  C    0.332095
    23  C    0.530617
    24  S    0.278174
    25  C   -0.099878
    26  C    0.942234
    35  F   -0.289119
    36  F   -0.304301
    37  F   -0.294665
 Electronic spatial extent (au):  <R**2>=          13938.5441
 Charge=             -1.0000 electrons
 Dipole moment (field-independent basis, Debye):
    X=             31.4314    Y=            -11.1268    Z=             -4.3331  Tot=             33.6231
 Quadrupole moment (field-independent basis, Debye-Ang):
   XX=           -330.4427   YY=           -191.2516   ZZ=           -192.6186
   XY=             20.9978   XZ=             13.5054   YZ=             -8.9611
 Traceless Quadrupole moment (field-independent basis, Debye-Ang):
   XX=            -92.3384   YY=             46.8527   ZZ=             45.4857
   XY=             20.9978   XZ=             13.5054   YZ=             -8.9611
 Octapole moment (field-independent basis, Debye-Ang**2):
  XXX=            906.3599  YYY=            -78.3199  ZZZ=            -19.2168  XYY=             88.5194
  XXY=            -91.0929  XXZ=            -86.4467  XZZ=            125.3226  YZZ=            -18.7662
  YYZ=              3.1589  XYZ=            -17.5225
 Hexadecapole moment (field-independent basis, Debye-Ang**3):
 XXXX=         -19269.3432 YYYY=          -2949.3856 ZZZZ=          -1091.8787 XXXY=            612.0121
 XXXZ=            509.9755 YYYX=            159.5525 YYYZ=            -24.7052 ZZZX=            217.2757
 ZZZY=            -13.0115 XXYY=          -2810.1254 XXZZ=          -2852.5700 YYZZ=           -652.0124
 XXYZ=           -245.2757 YYXZ=             65.3428 ZZXY=             -2.3091
 N-N= 3.156182163724D+03 E-N=-1.305400067772D+04  KE= 2.830696045610D+03
 D1PCM: PCM CHGder 1st derivatives, ID1Alg=3 FixD1E=F DoIter=F DoCFld=F I1PDM=0.
 Calling FoFJK, ICntrl=      2127 FMM=F ISym2X=0 I1Cent= 0 IOpClX= 0 NMat=1 NMatS=1 NMatT=0.
 ***** Axes restored to original set *****
 -------------------------------------------------------------------
 Center     Atomic                   Forces (Hartrees/Bohr)
 Number     Number              X              Y              Z
 -------------------------------------------------------------------
      1        6           0.000015835    0.000030437    0.000196035
      2        6          -0.000025943    0.000021330   -0.000137079
      3       17          -0.000074093   -0.000153235    0.000033322
      4        6          -0.000102969    0.000012188    0.000314052
      5        1          -0.000094403    0.000032145    0.000063602
      6        6           0.000007171    0.000000280   -0.001616816
      7        6           0.000237067   -0.000301439    0.000241840
      8       16          -0.000575832    0.000530110   -0.001241353
      9        6          -0.000041576    0.000046676   -0.000034380
     10        1           0.000112152    0.000012782    0.000024788
     11       16           0.000301025    0.000059758   -0.000620403
     12        8          -0.000145318   -0.000134447    0.000135038
     13        8          -0.000036290    0.000339892    0.000568180
     14        7          -0.000118759   -0.000100229   -0.000070242
     15        1           0.000029497   -0.000000849   -0.000073764
     16        7           0.000584012    0.000523694    0.002783100
     17        6           0.001343064    0.004448310    0.000427822
     18        7          -0.000103785   -0.000233792    0.002047706
     19        8           0.000534591    0.000271690    0.000469344
     20        8           0.000326127   -0.000341175    0.000223348
     21        1           0.000733762   -0.001282615    0.000231310
     22        6          -0.000342955   -0.000396234   -0.000038861
     23        6          -0.006286002    0.013770552    0.003931831
     24       16           0.002478672   -0.000594696   -0.004944246
     25        6           0.002341735    0.003928294    0.001168217
     26        6          -0.006084708   -0.012641600   -0.007549995
     27        1           0.000715621    0.002433704    0.002236916
     28        1           0.000067319    0.000075976   -0.000160120
     29        1           0.000861035    0.001036894    0.001167037
     30        1           0.000142965   -0.000092966   -0.000029072
     31        1          -0.019497681    0.030628144    0.002548307
     32        1          -0.004611612   -0.000878411   -0.000484089
     33        1          -0.001714809    0.002607442    0.000080391
     34        1          -0.001432569   -0.003799143   -0.001231992
     35        9           0.001645721   -0.000261928    0.002166575
     36        9           0.001633181    0.000235087    0.000099972
     37        9           0.027178753   -0.039832624   -0.002926323
 -------------------------------------------------------------------
 Cartesian Forces:  Max     0.039832624 RMS     0.006245119

 GradGradGradGradGradGradGradGradGradGradGradGradGradGradGradGradGradGrad
 Berny optimization.
 FormGI is forming the generalized inverse of G from B-inverse, IUseBI=4.
 Internal  Forces:  Max     0.231588748 RMS     0.022699043
 Search for a local minimum.
 Step number   1 out of a maximum of  207
 All quantities printed in internal units (Hartrees-Bohrs-Radians)
 Mixed Optimization -- RFO/linear search
 Second derivative matrix not updated -- first step.
 ITU=  0
[...]
 0000042,0.00000091,0.00000170,0.00000432,-0.00000848,-0.00015376,0.000
 02567,-0.00000257,0.00004501,-0.00002855,0.00003579,-0.00019963,-0.000
 00187,-0.00000320,-0.00001143,-0.00000035,-0.00000022,-0.00000002,0.00
 000367,-0.00000619,-0.00004159,0.00000592,0.00000158,0.00001123,-0.000
 00611,0.00000957,0.00001086,-0.00000529,-0.00000529,0.00001218,0.00000
 122,0.00000069,-0.00000115,-0.00002821,-0.00001976,0.00018676,-0.00000
 873,0.00009364,-0.00051578,0.00006278,-0.00000828,0.00016448,0.0000403
 8,0.00004077,0.00007947,0.00003342,-0.00006372,0.00005826,0.00004760,-
 0.00002731,-0.00006844,-0.00002029,0.00004383,0.00003828,-0.00012252,0
 .00211756,-0.00095161,0.00516519,0.00184546,0.00266525,-0.23823813,-0.
 11131014,-0.06569640,-0.02168020,-0.01519226,-0.01007666,-0.00003521,-
 0.00006162,0.00001607,-0.00001323,-0.00003029,0.00001653,0.00000187,-0
 .00000173,-0.00000813,0.00000818,-0.00000819,0.00001728,0.00010209,0.0
 0013792,0.00003489,0.00060929,0.00041479,0.00028367,0.25636189,-0.0000
 0008,-0.00000547,-0.00003504,-0.00000356,0.00000169,0.00003078,0.00001
 856,0.00000092,-0.00000976,0.00003239,-0.00000668,-0.00006459,0.000001
 57,-0.00000095,-0.00000145,0.00001068,0.00000489,0.00019276,-0.0000316
 1,-0.00000255,-0.00006130,0.00004845,-0.00003657,0.00026650,0.00000138
 ,0.00000243,0.00001423,0.00000055,0.00000007,-0.00000014,-0.00000488,0
 .00000636,0.00005235,-0.00000745,-0.00000111,-0.00001401,0.00000795,-0
 .00001135,-0.00001404,0.00000673,0.00000727,-0.00001487,-0.00000137,-0
 .00000082,0.00000116,-0.00001465,0.00000740,-0.00026003,0.00041498,0.0
 0011383,0.00090735,-0.00010786,0.00001185,-0.00020439,-0.00004876,-0.0
 0004710,-0.00008861,-0.00004074,0.00007679,-0.00007564,-0.00007134,0.0
 0004600,0.00008675,0.00003646,-0.00005559,-0.00003607,0.00243863,-0.00
 542732,0.00365045,-0.01923965,-0.01502092,-0.00787799,-0.11905136,-0.1
 1695969,-0.04533825,0.00951178,0.00840885,0.00630450,0.00004296,0.0001
 5302,-0.00001618,0.00002322,0.00003999,-0.00002158,-0.00000310,0.00000
 241,0.00001113,-0.00000904,0.00001169,-0.00002002,0.00011340,0.0000799
 4,0.00013529,-0.00174706,-0.00070509,-0.00106994,0.11938835,0.12797018
 ,-0.00000056,-0.00000003,-0.00000963,-0.00000081,-0.00000294,0.0000098
 4,0.00000379,-0.00000066,-0.00000083,0.00000793,0.00000578,-0.00001256
 ,0.00000071,-0.00000163,-0.00000026,-0.00002532,0.00000008,0.00006549,
 -0.00000941,0.00000370,-0.00001317,0.00002319,0.00002506,0.00007061,-0
 .00000034,0.00000018,0.00000421,0.00000012,0.00000010,-0.00000025,-0.0
 0000239,-0.00000143,0.00001051,-0.00000069,0.00000024,-0.00000254,0.00
 000162,-0.00000116,-0.00000250,0.00000209,0.00000307,-0.00000259,-0.00
 000018,-0.00000061,-0.00000031,0.00006908,-0.00003456,0.00001721,-0.00
 024335,0.00028691,-0.00028506,-0.00003728,-0.00020728,0.00002453,-0.00
 000775,-0.00000534,-0.00000458,-0.00000755,0.00001007,-0.00001531,-0.0
 0002825,0.00000793,-0.00003076,0.00002607,0.00002237,-0.00003811,-0.00
 065449,0.00208623,-0.00134649,0.00755796,0.00612154,0.00249369,-0.0688
 5037,-0.04473491,-0.07139175,0.01212508,0.00765741,0.00227119,0.000168
 55,-0.00010492,0.00023309,-0.00000262,-0.00001620,0.00001965,-0.000002
 81,0.00000290,0.00000315,-0.00000644,0.00000024,0.00001015,-0.00010075
 ,-0.00012015,-0.00007326,0.00060763,0.00034871,0.00045414,0.07193128,0
 .04459836,0.07277280,-0.00000343,0.00000444,0.00004006,0.00000730,0.00
 000005,-0.00002823,-0.00001999,-0.00000007,0.00001021,-0.00004239,-0.0
 0000018,0.00007305,-0.00000343,0.00000274,-0.00000030,-0.00000591,-0.0
 0002983,-0.00022266,0.00004040,-0.00000365,0.00006541,-0.00006016,0.00
 008607,-0.00044318,-0.00000830,0.00000175,-0.00002256,0.00000036,-0.00
 000026,-0.00000086,0.00000673,-0.00000465,-0.00005640,0.00000641,0.000
 00097,0.00001496,-0.00000886,0.00001103,0.00001448,-0.00000817,-0.0000
 0930,0.00001694,0.00000168,0.00000116,-0.00000104,-0.00005329,0.000324
 50,0.00025770,0.00021320,-0.00054098,-0.00014110,0.00008454,0.00034302
 ,0.00041957,0.00007253,0.00006613,0.00015343,0.00005627,-0.00007662,0.
 00010613,0.00000680,0.00000550,-0.00000077,-0.00009605,-0.00000295,0.0
 0008104,-0.00063245,-0.00033555,0.00108794,0.00064126,0.00005584,-0.00
 343181,-0.05178693,0.00306643,-0.01926181,0.00287375,-0.00177749,0.027
 82703,-0.00088659,-0.00119220,-0.00099516,-0.00000281,-0.00001749,0.00
 000067,0.00000691,-0.00000580,-0.00001784,0.00001967,-0.00000315,-0.00
 000110,-0.00007429,-0.00006553,-0.00000109,0.00001523,0.00006725,-0.00
 004356,0.00051442,0.00179252,-0.02550352,0.05216089,0.00001357,0.00000
 006,0.00007257,0.00001034,-0.00000326,-0.00007228,-0.00002611,-0.00000
 015,0.00001118,-0.00007511,-0.00000632,0.00010466,0.00000141,-0.000001
 67,0.00000253,0.00007601,0.00001389,-0.00052063,0.00008010,0.00002077,
 0.00009274,-0.00017367,0.00004083,-0.00035184,-0.00000892,0.00000170,-
 0.00001848,-0.00000079,0.00000040,0.00000029,0.00000809,-0.00001525,-0
 .00009521,0.00001435,0.00000342,0.00002514,-0.00001433,0.00002157,0.00
 002542,-0.00001111,-0.00001093,0.00002784,0.00000246,0.00000124,-0.000
 00246,-0.00031948,0.00001674,0.00032871,-0.00058403,-0.00171184,-0.000
 77773,0.00014518,0.00064048,0.00014247,0.00006544,0.00003011,0.0000743
 4,0.00005981,-0.00005707,0.00006167,0.00025278,-0.00009295,0.00027523,
 -0.00011043,-0.00001754,0.00010783,0.00044099,0.00236648,-0.00033441,0
 .00405061,-0.01255885,0.02738078,0.00214148,-0.04305064,0.01424433,-0.
 00581231,0.00151203,-0.01327756,-0.00104028,-0.00128584,-0.00123358,-0
 .00000043,0.00000712,-0.00002036,0.00000595,-0.00002642,-0.00001820,0.
 00002514,-0.00000756,-0.00001558,-0.00026877,-0.00024302,-0.00012386,0
 .00043019,0.00030229,0.00005189,0.00062269,0.00123833,-0.01556528,-0.0
 0415727,0.05403770,0.00000189,-0.00000098,0.00001658,0.00000039,-0.000
 00245,-0.00001407,-0.00000346,0.00000089,0.00000181,-0.00002012,0.0000
 0785,0.00001262,0.00000067,0.00000537,0.00000283,0.00008727,0.00006728
 ,-0.00019966,0.00000509,0.00000092,0.00003809,-0.00005630,0.00012628,0
 .00007235,0.00000982,-0.00000432,-0.00000185,-0.00000079,0.00000083,0.
 00000209,0.00000238,0.00000166,-0.00001993,0.00000330,-0.00000050,0.00
 000479,-0.00000286,0.00000261,0.00000525,-0.00000296,-0.00000358,0.000
 00514,0.00000034,0.00000032,0.00000005,-0.00010886,0.00016658,0.000427
 36,-0.00012111,-0.00031294,-0.00017427,-0.00011367,-0.00019156,0.00018
 299,0.00002149,-0.00001354,0.00000998,0.00001283,0.00003061,-0.0000386
 1,0.00012410,0.00016140,0.00006494,0.00001529,-0.00004422,-0.00002174,
 -0.00002911,-0.00037825,-0.00014580,-0.00140818,0.00451694,-0.00297853
 ,-0.01292178,0.00476108,-0.33192815,-0.00263894,0.00024213,-0.01406335
 ,-0.00068196,-0.00130534,-0.00045200,0.00000226,-0.00000334,0.00000814
 ,0.00000436,0.00000496,0.00000002,-0.00000455,0.00000153,0.00000204,0.
 00002553,0.00004859,-0.00000171,0.00001445,-0.00000408,-0.00003274,0.0
 0020794,0.00013675,-0.00626006,0.01601988,-0.00723690,0.35365154,0.000
 00695,0.00000525,0.00003240,0.00000358,-0.00000748,-0.00003427,-0.0000
 1431,-0.00000123,0.00000674,-0.00003863,0.00001351,0.00004851,0.000001
 15,-0.00000203,0.00000086,0.00005791,-0.00000863,-0.00019112,0.0000296
 4,0.00000352,0.00005404,-0.00006790,0.00004381,-0.00016458,0.00000217,
 -0.00000125,-0.00000646,-0.00000109,-0.00000018,0.00000084,0.00000048,
 -0.00001182,-0.00005126,0.00000979,0.00000224,0.00001462,-0.00000614,0
 .00001306,0.00001399,-0.00000482,-0.00000346,0.00001575,0.00000152,0.,
 -0.00000208,0.00003025,-0.00000185,0.00021528,0.00008949,0.00000560,-0
 .00007529,0.00006984,0.00006037,0.00014382,0.00004713,0.00003469,0.000
 06869,0.00004013,-0.00005532,0.00003851,0.00006570,-0.00009349,-0.0001
 7434,-0.00006862,0.00004755,0.00004579,-0.00055317,-0.00001361,0.00004
 333,-0.00028835,0.00018126,0.00090904,0.00467633,0.00216165,0.03250223
 ,-0.07630615,0.00660051,0.01597801,-0.00007293,-0.00002786,-0.00002910
 ,-0.00000171,-0.00001544,0.00000207,0.00000930,-0.00002507,-0.00000637
 ,0.00001207,-0.00000813,0.00000201,0.00010696,0.00024175,0.00004673,0.
 00020300,0.00002038,0.00008292,0.00195526,-0.00035632,-0.00049351,-0.0
 0443011,0.00373098,0.00180288,0.07580751,-0.00000806,-0.00000563,-0.00
 005308,-0.00000751,0.00000777,0.00005442,0.00002499,0.00000149,-0.0000
 1202,0.00006038,-0.00001774,-0.00007964,-0.00000050,-0.00000049,-0.000
 00195,-0.00009327,0.00000492,0.00030592,-0.00004563,0.00000461,-0.0000
 9129,0.00009717,-0.00005161,0.00025748,-0.00000428,0.00000142,0.000013
 10,0.00000163,0.00000003,-0.00000177,-0.00000674,0.00001160,0.00007977
 ,-0.00001200,-0.00000292,-0.00002191,0.00001073,-0.00001808,-0.0000209
 0,0.00001013,0.00000957,-0.00002318,-0.00000226,-0.00000100,0.00000226
 ,0.00003555,-0.00006807,-0.00044753,-0.00009847,0.00006714,0.00022725,
 -0.00006759,-0.00007263,-0.00021561,-0.00006576,-0.00005354,-0.0001005
 5,-0.00005299,0.00007034,-0.00006727,-0.00011689,0.00011155,0.00025019
 ,0.00003067,-0.00001213,-0.00003989,0.00049328,0.00006130,0.00015479,0
 .00042973,0.00052653,-0.00260994,0.00152090,0.00490506,-0.01939629,0.0
 0626150,-0.07215583,-0.01449792,0.00006463,0.00000489,0.00005740,0.000
 00529,0.00001943,-0.00000778,0.00000223,-0.00000722,0.00001063,-0.0000
 1005,-0.00000064,-0.00000613,0.00000995,0.00015100,0.00001615,-0.00008
 660,-0.00006631,-0.00010052,0.00064988,-0.00007543,-0.00001832,0.00339
 553,-0.00112421,-0.00088230,0.00128297,0.07925062,-0.00000472,-0.00000
 925,-0.00005977,-0.00001357,0.00001164,0.00005784,0.00003205,0.0000011
 3,-0.00001359,0.00006134,-0.00002262,-0.00009685,-0.00000160,0.0000044
 1,-0.00000279,-0.00002520,0.00004006,0.00033089,-0.00005237,-0.0000102
 5,-0.00008518,0.00009652,0.00003222,0.00036295,0.00000429,0.00000255,0
 .00002146,0.00000144,0.00000221,0.00000063,-0.00001082,0.00003391,0.00
 009703,-0.00001420,-0.00000860,-0.00002686,0.00001594,-0.00003163,-0.0
 0002582,0.00001182,0.00000342,-0.00003150,-0.00000340,0.00000020,0.000
 00471,0.00007969,-0.00004664,-0.00036665,-0.00011020,0.00050018,0.0003
 9913,-0.00008415,-0.00018581,-0.00021049,-0.00007863,-0.00008803,-0.00
 012736,-0.00005856,0.00005209,-0.00009555,-0.00006089,0.00008905,0.000
 14876,0.00002504,0.00001198,-0.00005023,0.00008784,-0.00051134,0.00054
 656,-0.00067199,0.00136601,0.00028269,0.00127491,-0.00074521,-0.040263
 44,0.02893552,-0.02484224,-0.26893135,0.00014516,-0.00002726,0.0001519
 7,0.00000785,0.00001926,-0.00001324,0.00001232,-0.00002737,0.00000749,
 -0.00001263,-0.00000547,-0.00001031,0.00013220,0.00035376,-0.00024629,
 -0.00015743,-0.00012077,-0.00026361,-0.00044636,0.00001755,0.00071015,
 0.00637498,-0.00416466,-0.00085830,0.00757333,0.00542657,0.40929042,0.
 00001199,0.00001183,0.00005001,0.00000476,-0.00001060,-0.00005379,-0.0
 0002280,-0.00000148,0.00001142,-0.00005863,0.00001718,0.00007878,0.000
 00015,-0.00000053,0.00000183,0.00009580,-0.00001578,-0.00029620,0.0000
 4554,-0.00001008,0.00008891,-0.00009517,0.00008865,-0.00026161,0.00000
 226,-0.00000033,-0.00000876,-0.00000177,0.00000027,0.00000176,0.000002
 92,-0.00001034,-0.00007739,0.00001357,0.00000243,0.00002129,-0.0000093
 2,0.00001650,0.00002081,-0.00000826,-0.00000889,0.00002251,0.00000213,
 0.00000078,-0.00000236,0.00000158,0.00002303,0.00041414,0.00010938,0.0
 0011226,-0.00034489,0.00008532,0.00002288,0.00026159,0.00006934,0.0000
 5075,0.00011168,0.00006150,-0.00009142,0.00006495,0.00008533,-0.000065
 26,-0.00033562,-0.00006289,0.00004937,0.00006187,-0.00067787,0.0000733
 3,-0.00034483,-0.00328462,0.00301134,0.00145024,0.00107518,0.03024209,
 -0.00715168,-0.07660978,0.02585865,-0.00225347,-0.00005106,-0.00002040
 ,0.00003846,-0.00000976,-0.00003029,0.00000802,0.00001032,-0.00000729,
 -0.00000739,0.00001337,-0.00000528,0.00000929,0.00025582,0.00022797,0.
 00020634,0.00045976,0.00001865,0.00024706,0.00187448,0.00051695,-0.000
 92346,0.00031134,0.00021501,0.00008789,0.01086401,-0.00018910,-0.00161
 390,0.07463912,-0.00001862,-0.00001668,-0.00012650,-0.00001560,0.00001
 964,0.00012445,0.00006031,0.00000280,-0.00002981,0.00014156,-0.0000366
 4,-0.00020327,0.00000017,-0.00000147,-0.00000324,-0.00016488,0.0000405
 8,0.00072293,-0.00010916,0.00000998,-0.00021808,0.00021308,-0.00016419
 ,0.00069788,-0.00000422,0.00000257,0.00003066,0.00000339,-0.00000128,-
 0.00000306,-0.00001558,0.00001487,0.00019131,-0.00002816,-0.00000294,-
 0.00005195,0.00002455,-0.00003706,-0.00005074,0.00002475,0.00002838,-0
 .00005545,-0.00000516,-0.00000354,0.00000471,0.00008270,-0.00011948,-0
 .00109902,-0.00019383,0.00007128,0.00095277,-0.00015242,-0.00011403,-0
 .00056928,-0.00016031,-0.00012948,-0.00026727,-0.00013422,0.00020019,-
 0.00018393,-0.00018084,0.00013107,0.00065432,0.00006650,-0.00002726,-0
 .00008949,0.00023578,0.00009793,0.00096234,0.00547210,-0.00278686,-0.0
 0239171,0.00620864,-0.03861860,0.01350476,0.03632701,-0.25236678,0.041
 60491,0.00010467,0.00000899,0.00006933,0.00002482,0.00006414,-0.000026
 41,0.00000867,-0.00003247,0.00002796,-0.00002274,-0.00000600,-0.000028
 82,0.00012688,0.00040036,-0.00058148,-0.00022428,-0.00010609,-0.000487
 40,-0.00026124,0.00028888,0.00059617,-0.00102260,-0.00009073,0.0002136
 7,0.00073993,-0.01493654,0.04417333,-0.00553131,0.36752165,0.00000172,
 0.00000139,0.00000074,-0.00000102,-0.00000437,0.00000197,0.00000154,0.
 00000040,-0.00000047,-0.00000306,-0.00000005,0.00000114,-0.00000017,0.
 00000134,-0.00000049,0.00000129,0.00000719,-0.00000850,0.00000205,-0.0
 0000419,-0.00000035,-0.00000434,0.00003073,-0.00000435,0.00000013,0.00
 000147,0.,-0.00000010,0.00000097,0.00000068,-0.00000228,0.00001059,0.0
 0000238,-0.00000017,-0.00000278,-0.00000088,0.00000205,-0.00000557,-0.
 00000055,-0.00000001,-0.00000392,-0.00000235,-0.00000035,0.00000072,0.
 00000098,0.00000517,-0.00001438,0.00002974,-0.00002300,0.00003666,-0.0
 0000251,-0.00000518,-0.00000231,0.00000500,-0.00000305,-0.00001013,0.0
 0000033,0.00000378,-0.00001547,0.00000133,0.00000726,-0.00000737,-0.00
 000856,0.00000557,-0.00000557,-0.00000240,-0.00020251,0.00013453,-0.00
 005921,0.00132052,-0.00068812,0.00088708,0.00190218,-0.00456094,0.0078
 9630,-0.00612035,0.04889133,-0.08044199,-0.00000562,0.00000076,-0.0000
 2623,0.00000040,-0.00000128,0.00000067,0.00000199,0.00000729,-0.000000
 74,-0.00000172,0.00000211,-0.00000093,-0.00003239,-0.00012832,-0.00005
 430,-0.00000376,0.00003062,0.00000614,0.00075082,-0.00000097,-0.000157
 02,-0.00118242,0.00009370,0.00141280,-0.00414631,0.05821844,-0.0529452
 2,0.00454333,-0.10067959,0.11136464,0.00001291,0.00000053,0.00004114,0
 .00000275,-0.00000150,-0.00004592,-0.00001526,-0.00000250,0.00000779,-
 0.00004835,0.00002020,0.00005526,0.00000160,-0.00000403,0.00000101,0.0
 0009709,-0.00000140,-0.00022908,0.00003538,0.00001211,0.00006913,-0.00
 010210,0.00011364,-0.00015394,0.00000327,-0.00000184,-0.00000186,-0.00
 000200,0.00000110,0.00000110,-0.00000558,-0.00001015,-0.00005875,0.000
 01428,0.00000067,0.00001665,-0.00000618,0.00001308,0.00001603,-0.00000
 343,-0.00000386,0.00001716,0.00000179,0.00000014,-0.00000208,0.0000639
 0,-0.00008552,0.00026616,0.00014852,0.00017096,-0.00034326,0.00014047,
 -0.00002406,0.00020159,0.00006237,0.00002911,0.00008517,0.00006690,-0.
 00008462,0.00003818,0.00010211,-0.00012743,-0.00031950,-0.00012444,0.0
 0012597,0.00008996,-0.00049955,0.00049966,-0.00076262,0.00010173,-0.00
 178188,0.00107324,-0.04532890,-0.02511882,-0.01520282,-0.24097686,-0.0
 4885714,-0.02967036,-0.00015547,0.00021493,0.00046781,0.00000084,-0.00
 004237,0.00002170,-0.00002074,-0.00000796,0.00001399,0.00001852,-0.000
 02237,0.00001533,0.00009058,0.00173141,0.00026230,0.00051901,0.0000351
 2,0.00024309,-0.00659086,0.00633133,0.00437674,0.00108347,0.00021045,-
 0.00033542,-0.01223627,-0.01351943,-0.04145165,-0.00920304,-0.04162034
 ,0.00318802,0.31275156,-0.00000083,-0.00002693,-0.00004615,-0.00001058
 ,0.00000938,0.00004031,0.00002472,0.00000244,-0.00001323,0.00004702,-0
 .00001686,-0.00008281,0.00000068,0.00000136,-0.00000083,0.00002223,0.0
 0003366,0.00023845,-0.00003460,0.00003544,-0.00007285,0.00007480,-0.00
 001313,0.00029397,0.00000240,0.00000581,0.00002268,0.00000059,-0.00000
 068,0.00000048,-0.00000971,0.00000627,0.00007137,-0.00000934,-0.000000
 88,-0.00001781,0.00001357,-0.00001465,-0.00002070,0.00001006,0.0000100
 0,-0.00002009,-0.00000234,-0.00000148,0.00000192,0.00015369,-0.0000155
 5,-0.00053122,-0.00010348,0.00028643,0.00088573,-0.00002150,-0.0000513
 8,-0.00017049,-0.00005022,-0.00006128,-0.00008995,-0.00004310,0.000063
 18,-0.00007476,-0.00005900,-0.00003246,0.00003435,-0.00001691,-0.00001
 000,0.00004664,-0.00081072,-0.00304092,0.00076335,-0.00193108,0.001593
 52,-0.00048680,0.00586525,0.00789367,0.00094260,-0.06089005,-0.0901143
 8,-0.01443733,0.00011823,-0.00042875,-0.00041617,0.00001379,0.00003275
 ,-0.00003366,-0.00001851,0.00002992,0.00004944,-0.00001588,-0.00000555
 ,-0.00001594,0.00242948,-0.00209794,-0.00045292,0.00094671,-0.00031129
 ,-0.00058840,0.00159455,-0.00011614,-0.00096161,0.00002066,0.00004908,
 -0.00011397,-0.01455588,0.00346075,-0.02129438,-0.05456154,-0.05930519
 ,-0.00133488,0.12180683,0.14215177,0.00000522,-0.00000952,-0.00000429,
 -0.00000827,0.00000665,0.00000095,0.00000500,-0.00000006,-0.00000104,0
 .00000186,-0.00000792,-0.00000045,0.00000026,0.00000197,-0.00000088,-0
 .00000258,0.00002187,0.00001599,0.00000456,0.00000118,-0.00000745,0.00
 001409,0.00005519,0.00001704,0.00000067,0.00000535,0.00000548,-0.00000
 032,0.00000076,0.00000165,-0.00000515,0.00000961,0.00001164,-0.0000003
 3,-0.00000125,-0.00000212,0.00000545,-0.00000731,-0.00000349,0.0000023
 4,-0.00000221,-0.00000418,-0.00000070,0.00000038,0.00000097,0.00004376
 ,-0.00001945,0.00000550,-0.00012198,0.00027321,0.00026500,0.00002554,-
 0.00002947,-0.00003668,-0.00001341,-0.00002755,-0.00000218,-0.00000424
 ,-0.00000823,0.00000570,0.00000489,-0.00000862,-0.00002954,-0.00002427
 ,0.00004351,0.00003709,-0.00034702,-0.00004364,0.00021528,0.00043166,-
 0.00044498,-0.00018581,0.00696559,0.00186233,0.00915902,-0.03733476,-0
 .01468092,-0.07569383,0.00026237,-0.00070429,-0.00081271,0.00000089,-0
 .00000322,-0.00000186,-0.00002975,0.00001409,-0.00002330,-0.00000163,-
 0.00000825,-0.00000152,-0.00000824,0.00005905,0.00015210,0.00014063,0.
 00000500,-0.00004102,0.00158174,-0.00118104,0.00047667,-0.00120806,0.0
 0070569,0.00126936,-0.05426770,-0.02637859,-0.04768830,0.00587317,0.00
 261502,0.01210512,0.07800873,0.03788565,0.10079606\\0.00000105,-0.0000
 0173,0.00000244,0.00000135,-0.00000167,-0.00000017,0.00000278,-0.00000
 032,0.00000243,-0.00000041,-0.00000091,0.00000251,0.,-0.00000005,0.000
 00325,-0.00000004,0.00000097,-0.00001015,0.00000694,0.00000397,0.00000
 495,0.00000136,-0.00000128,0.00000892,0.00000190,-0.00000148,0.0000012
 6,0.00000315,-0.00000235,-0.00000003,0.00000089,-0.00000575,-0.0000009
 4,0.00000609,-0.00000583,0.00000066,0.00000409,-0.00000141,0.00000465,
 0.00000416,-0.00000289,0.00000779,0.00000567,-0.00000497,-0.00000045,0
 .00000122,-0.00001143,0.00001385,-0.00000353,-0.00000568,0.,-0.0000036
 5,0.00001280,-0.00000329,-0.00000014,-0.00000368,-0.00000097,-0.000000
 97,-0.00000156,-0.00000548,0.00000026,0.00000585,0.00000139,0.00000334
 ,-0.00000540,-0.00000527,-0.00000113,0.00000565,0.00000316,-0.00000537
 ,0.00000168,-0.00000200,-0.00000160,0.00000265,-0.00000532,0.00000400,
 0.00000248,0.00000543,-0.00000098,0.00000391,-0.00000247,-0.00000132,0
 .00000248,0.00000023,-0.00000191,0.00000163,-0.00000135,0.00000023,-0.
 00000061,-0.00000095,-0.00000217,-0.00000092,-0.00000470,-0.00000398,-
 0.00000035,-0.00000006,-0.00000138,0.00000428,0.00000033,-0.00000010,0
 .00000454,-0.00000172,-0.00000469,0.00000169,-0.00001160,-0.00000534,0
 .00000296,-0.00000472,-0.00000978,0.00000273,-0.00000161\\\@
 The archive entry for this job was punched.


 TO DRY ONE'S EYES AND LAUGH AT A FALL
 AND BAFFLED, GET UP AND BEGIN AGAIN.
           R. BROWNING
 Job cpu time:       0 days  8 hours 24 minutes  0.3 seconds.
 Elapsed time:       0 days  0 hours 35 minutes  6.4 seconds.
 File lengths (MBytes):  RWF=   1288 Int=      0 D2E=      0 Chk=     32 Scr=      1
 Normal termination of Gaussian 16 at Fri Jul  1 19:35:25 2022.
