 Entering Gaussian System, Link 0=g16
 AtFile(1): /home/561/yj5695/Basis/6-31pGd.gbs
 Initial command:
 /apps/gaussian/g16c01/g16/l1.exe "/jobfs/49976025.gadi-pbs/Gau-1877080.inp" -scrdir="/jobfs/49976025.gadi-pbs/"
 Entering Link 1 = /apps/gaussian/g16c01/g16/l1.exe PID=   1877081.
  
 Copyright (c) 1988-2019, Gaussian, Inc.  All Rights Reserved.
  
 This is part of the Gaussian(R) 16 program.  It is based on
 the Gaussian(R) 09 system (copyright 2009, Gaussian, Inc.),
 the Gaussian(R) 03 system (copyright 2003, Gaussian, Inc.),
 the Gaussian(R) 98 system (copyright 1998, Gaussian, Inc.),
 the Gaussian(R) 94 system (copyright 1995, Gaussian, Inc.),
 the Gaussian 92(TM) system (copyright 1992, Gaussian, Inc.),
 the Gaussian 90(TM) system (copyright 1990, Gaussian, Inc.),
 the Gaussian 88(TM) system (copyright 1988, Gaussian, Inc.),
 the Gaussian 86(TM) system (copyright 1986, Carnegie Mellon
 University), and the Gaussian 82(TM) system (copyright 1983,
 Carnegie Mellon University). Gaussian is a federally registered
 trademark of Gaussian, Inc.
  
 This software contains proprietary and confidential information,
 including trade secrets, belonging to Gaussian, Inc.
  
 This software is provided under written license and may be
 used, copied, transmitted, or stored only in accord with that
 written license.
  
 The following legend is applicable only to US Government
 contracts under FAR:
  
                    RESTRICTED RIGHTS LEGEND
  
 Use, reproduction and disclosure by the US Government is
 subject to restrictions as set forth in subparagraphs (a)
 and (c) of the Commercial Computer Software - Restricted
 Rights clause in FAR 52.227-19.
  
 Gaussian, Inc.
 340 Quinnipiac St., Bldg. 40, Wallingford CT 06492
  
  
 ---------------------------------------------------------------
 Warning -- This program may not be used in any manner that
 competes with the business of Gaussian, Inc. or will provide
 assistance to any competitor of Gaussian, Inc.  The licensee
 of this program is prohibited from giving any competitor of
 Gaussian, Inc. access to this program.  By using this program,
 the user acknowledges that Gaussian, Inc. is engaged in the
 business of creating and licensing software in the field of
 computational chemistry and represents and warrants to the
 licensee that it is not a competitor of Gaussian, Inc. and that
 it will not use this program in any manner prohibited above.
 ---------------------------------------------------------------
  

 Cite this work as:
 Gaussian 16, Revision C.01,
 M. J. Frisch, G. W. Trucks, H. B. Schlegel, G. E. Scuseria, 
 M. A. Robb, J. R. Cheeseman, G. Scalmani, V. Barone, 
 G. A. Petersson, H. Nakatsuji, X. Li, M. Caricato, A. V. Marenich, 
 J. Bloino, B. G. Janesko, R. Gomperts, B. Mennucci, H. P. Hratchian, 
 J. V. Ortiz, A. F. Izmaylov, J. L. Sonnenberg, D. Williams-Young, 
 F. Ding, F. Lipparini, F. Egidi, J. Goings, B. Peng, A. Petrone, 
 T. Henderson, D. Ranasinghe, V. G. Zakrzewski, J. Gao, N. Rega, 
 G. Zheng, W. Liang, M. Hada, M. Ehara, K. Toyota, R. Fukuda, 
 J. Hasegawa, M. Ishida, T. Nakajima, Y. Honda, O. Kitao, H. Nakai, 
 T. Vreven, K. Throssell, J. A. Montgomery, Jr., J. E. Peralta, 
 F. Ogliaro, M. J. Bearpark, J. J. Heyd, E. N. Brothers, K. N. Kudin, 
 V. N. Staroverov, T. A. Keith, R. Kobayashi, J. Normand, 
 K. Raghavachari, A. P. Rendell, J. C. Burant, S. S. Iyengar, 
 J. Tomasi, M. Cossi, J. M. Millam, M. Klene, C. Adamo, R. Cammi, 
 J. W. Ochterski, R. L. Martin, K. Morokuma, O. Farkas, 
 J. B. Foresman, and D. J. Fox, Gaussian, Inc., Wallingford CT, 2019.
 
 ******************************************
 Gaussian 16:  ES64L-G16RevC.01  3-Jul-2019
                 1-Jul-2022 
 ******************************************
 %nproc=16
 Will use up to   16 processors via shared memory.
 %mem=50gb
 -----------------------------------------------------
 #m062X/gen 6D OPT Freq=noraman SCRF=(SMD,Solvent=h2o)
 -----------------------------------------------------
 1/18=20,19=15,26=3,38=1/1,3;
 2/9=110,12=2,17=6,18=5,40=1/2;
 3/5=7,8=2,11=2,25=1,30=1,70=32201,71=1,72=1,74=-55/1,2,3;
 4//1;
 5/5=2,38=5,53=1/2;
 6/7=2,8=2,9=2,10=2,28=1/1;
 7//1,2,3,16;
 1/18=20,19=15,26=3/3(2);
 2/9=110/2;
 99//99;
 2/9=110/2;
 3/5=7,6=1,8=2,11=2,25=1,30=1,70=32205,71=1,72=1,74=-55,82=7/1,2,3;
 4/5=5,16=3,69=1/1;
 5/5=2,38=5,53=1/2;
 7//1,2,3,16;
 1/18=20,19=15,26=3/3(-5);
 2/9=110/2;
 6/7=2,8=2,9=2,10=2,19=2,28=1/1;
 99/9=1/99;
 ---------------------
 A.36.smd.a2b3c2d2.smd
 ---------------------
 Symbolic Z-matrix:
 Charge = -1 Multiplicity = 1
 C                    -1.9128    1.30054  -1.22209 
 C                    -2.79412   0.22398  -1.36901 
 Cl                   -4.38073   0.23082  -0.63543 
 C                    -2.43148  -0.89737  -2.10296 
 H                    -3.12808  -1.72311  -2.20721 
 C                    -1.17446  -0.95671  -2.70385 
 C                    -0.2838    0.103    -2.56676 
 C                    -0.6625    1.22572  -1.82576 
 S                    -2.32521   2.7881   -0.2605 
 O                    -2.62367   2.25353   1.09188 
 O                    -1.07014   3.59358  -0.32538 
 N                    -3.59963   3.47838  -0.83346 
 H                    -4.28623   2.7555   -1.05763 
 H                     0.01778   2.06617  -1.71572 
 C                     1.08937   0.08225  -3.23805 
 N                     1.36633  -1.22126  -3.82053 
 C                     1.17217   0.97976  -4.46719 
 C                     1.53279  -1.21149  -5.17022 
 C                     1.45036   0.21212  -5.59047 
 O                     1.71009  -2.19905  -5.88313 
 C                     1.02589   2.35552  -4.55856 
 C                     1.17276   2.93855  -5.82103 
 C                     1.45211   2.1621   -6.95278 
 C                     1.59412   0.77739  -6.85103 
 O                     2.12628   0.36066  -2.3175 
 H                    -0.90378  -1.83574  -3.27884 
 H                     1.23024  -2.08037  -3.29648 
 H                     0.80079   2.96097  -3.68417 
 H                     1.06338   4.01368  -5.92788 
 H                     1.55584   2.64534  -7.91938 
 H                     1.80663   0.16258  -7.72095 
 H                     2.69595  -0.42494  -2.23268 
 

 GradGradGradGradGradGradGradGradGradGradGradGradGradGradGradGradGradGrad
 Berny optimization.
 Initialization pass.
                           ----------------------------
                           !    Initial Parameters    !
                           ! (Angstroms and Degrees)  !
 --------------------------                            --------------------------
 ! Name  Definition              Value          Derivative Info.                !
 --------------------------------------------------------------------------------
 ! R1    R(1,2)                  1.399          estimate D2E/DX2                !
 ! R2    R(1,8)                  1.3904         estimate D2E/DX2                !
 ! R3    R(1,9)                  1.8187         estimate D2E/DX2                !
 ! R4    R(2,3)                  1.748          estimate D2E/DX2                !
 ! R5    R(2,4)                  1.3884         estimate D2E/DX2                !
 ! R6    R(4,5)                  1.0853         estimate D2E/DX2                !
 ! R7    R(4,6)                  1.3945         estimate D2E/DX2                !
 ! R8    R(6,7)                  1.3911         estimate D2E/DX2                !
 ! R9    R(6,26)                 1.0847         estimate D2E/DX2                !
 ! R10   R(7,8)                  1.3975         estimate D2E/DX2                !
 ! R11   R(7,15)                 1.5286         estimate D2E/DX2                !
 ! R12   R(8,14)                 1.0869         estimate D2E/DX2                !
 ! R13   R(9,10)                 1.4845         estimate D2E/DX2                !
 ! R14   R(9,11)                 1.4927         estimate D2E/DX2                !
 ! R15   R(9,12)                 1.5585         estimate D2E/DX2                !
 ! R16   R(12,13)                1.0219         estimate D2E/DX2                !
 ! R17   R(15,16)                1.4543         estimate D2E/DX2                !
 ! R18   R(15,17)                1.5242         estimate D2E/DX2                !
 ! R19   R(15,25)                1.4143         estimate D2E/DX2                !
 ! R20   R(16,18)                1.36           estimate D2E/DX2                !
 ! R21   R(16,27)                1.0155         estimate D2E/DX2                !
 ! R22   R(17,19)                1.3887         estimate D2E/DX2                !
 ! R23   R(17,21)                1.3865         estimate D2E/DX2                !
 ! R24   R(18,19)                1.4866         estimate D2E/DX2                !
 ! R25   R(18,20)                1.2308         estimate D2E/DX2                !
 ! R26   R(19,24)                1.389          estimate D2E/DX2                !
 ! R27   R(21,22)                1.3983         estimate D2E/DX2                !
 ! R28   R(21,28)                1.0871         estimate D2E/DX2                !
 ! R29   R(22,23)                1.4006         estimate D2E/DX2                !
 ! R30   R(22,29)                1.0859         estimate D2E/DX2                !
 ! R31   R(23,24)                1.3957         estimate D2E/DX2                !
 ! R32   R(23,30)                1.0856         estimate D2E/DX2                !
 ! R33   R(24,31)                1.0862         estimate D2E/DX2                !
 ! R34   R(25,32)                0.9741         estimate D2E/DX2                !
 ! A1    A(2,1,8)              118.6504         estimate D2E/DX2                !
 ! A2    A(2,1,9)              122.8254         estimate D2E/DX2                !
 ! A3    A(8,1,9)              118.5211         estimate D2E/DX2                !
 ! A4    A(1,2,3)              121.6485         estimate D2E/DX2                !
 ! A5    A(1,2,4)              120.8289         estimate D2E/DX2                !
 ! A6    A(3,2,4)              117.5218         estimate D2E/DX2                !
 ! A7    A(2,4,5)              119.8424         estimate D2E/DX2                !
 ! A8    A(2,4,6)              119.8408         estimate D2E/DX2                !
 ! A9    A(5,4,6)              120.3167         estimate D2E/DX2                !
 ! A10   A(4,6,7)              120.1498         estimate D2E/DX2                !
 ! A11   A(4,6,26)             119.1981         estimate D2E/DX2                !
 ! A12   A(7,6,26)             120.6519         estimate D2E/DX2                !
 ! A13   A(6,7,8)              119.3907         estimate D2E/DX2                !
 ! A14   A(6,7,15)             121.4361         estimate D2E/DX2                !
 ! A15   A(8,7,15)             119.1558         estimate D2E/DX2                !
 ! A16   A(1,8,7)              121.1391         estimate D2E/DX2                !
 ! A17   A(1,8,14)             118.5074         estimate D2E/DX2                !
 ! A18   A(7,8,14)             120.3521         estimate D2E/DX2                !
 ! A19   A(1,9,10)             103.4574         estimate D2E/DX2                !
 ! A20   A(1,9,11)             103.163          estimate D2E/DX2                !
 ! A21   A(1,9,12)             110.6907         estimate D2E/DX2                !
 ! A22   A(10,9,11)            113.7626         estimate D2E/DX2                !
 ! A23   A(10,9,12)            109.2691         estimate D2E/DX2                !
 ! A24   A(11,9,12)            115.6302         estimate D2E/DX2                !
 ! A25   A(9,12,13)            108.4672         estimate D2E/DX2                !
 ! A26   A(7,15,16)            111.0463         estimate D2E/DX2                !
 ! A27   A(7,15,17)            113.2627         estimate D2E/DX2                !
 ! A28   A(7,15,25)            111.7223         estimate D2E/DX2                !
 ! A29   A(16,15,17)           101.2126         estimate D2E/DX2                !
 ! A30   A(16,15,25)           107.3083         estimate D2E/DX2                !
 ! A31   A(17,15,25)           111.6636         estimate D2E/DX2                !
 ! A32   A(15,16,18)           114.4789         estimate D2E/DX2                !
 ! A33   A(15,16,27)           121.7398         estimate D2E/DX2                !
 ! A34   A(18,16,27)           122.3191         estimate D2E/DX2                !
 ! A35   A(15,17,19)           109.7356         estimate D2E/DX2                !
 ! A36   A(15,17,21)           129.174          estimate D2E/DX2                !
 ! A37   A(19,17,21)           121.0862         estimate D2E/DX2                !
 ! A38   A(16,18,19)           106.2988         estimate D2E/DX2                !
 ! A39   A(16,18,20)           125.9239         estimate D2E/DX2                !
 ! A40   A(19,18,20)           127.7767         estimate D2E/DX2                !
 ! A41   A(17,19,18)           108.1675         estimate D2E/DX2                !
 ! A42   A(17,19,24)           121.9968         estimate D2E/DX2                !
 ! A43   A(18,19,24)           129.8323         estimate D2E/DX2                !
 ! A44   A(17,21,22)           117.5243         estimate D2E/DX2                !
 ! A45   A(17,21,28)           121.4306         estimate D2E/DX2                !
 ! A46   A(22,21,28)           121.0445         estimate D2E/DX2                !
 ! A47   A(21,22,23)           121.2872         estimate D2E/DX2                !
 ! A48   A(21,22,29)           119.4097         estimate D2E/DX2                !
 ! A49   A(23,22,29)           119.3024         estimate D2E/DX2                !
 ! A50   A(22,23,24)           120.7558         estimate D2E/DX2                !
 ! A51   A(22,23,30)           119.4542         estimate D2E/DX2                !
 ! A52   A(24,23,30)           119.7897         estimate D2E/DX2                !
 ! A53   A(19,24,23)           117.3492         estimate D2E/DX2                !
 ! A54   A(19,24,31)           121.1127         estimate D2E/DX2                !
 ! A55   A(23,24,31)           121.538          estimate D2E/DX2                !
 ! A56   A(15,25,32)           109.0677         estimate D2E/DX2                !
 ! D1    D(8,1,2,3)            179.6117         estimate D2E/DX2                !
 ! D2    D(8,1,2,4)             -0.058          estimate D2E/DX2                !
 ! D3    D(9,1,2,3)              0.2613         estimate D2E/DX2                !
 ! D4    D(9,1,2,4)           -179.4084         estimate D2E/DX2                !
 ! D5    D(2,1,8,7)              0.0216         estimate D2E/DX2                !
 ! D6    D(2,1,8,14)           179.5953         estimate D2E/DX2                !
 ! D7    D(9,1,8,7)            179.4004         estimate D2E/DX2                !
 ! D8    D(9,1,8,14)            -1.026          estimate D2E/DX2                !
 ! D9    D(2,1,9,10)            57.9042         estimate D2E/DX2                !
 ! D10   D(2,1,9,11)           176.6854         estimate D2E/DX2                !
 ! D11   D(2,1,9,12)           -59.0381         estimate D2E/DX2                !
 ! D12   D(8,1,9,10)          -121.4469         estimate D2E/DX2                !
 ! D13   D(8,1,9,11)            -2.6657         estimate D2E/DX2                !
 ! D14   D(8,1,9,12)           121.6107         estimate D2E/DX2                !
 ! D15   D(1,2,4,5)           -179.9542         estimate D2E/DX2                !
 ! D16   D(1,2,4,6)             -0.021          estimate D2E/DX2                !
 ! D17   D(3,2,4,5)              0.3629         estimate D2E/DX2                !
 ! D18   D(3,2,4,6)           -179.7039         estimate D2E/DX2                !
 ! D19   D(2,4,6,7)              0.1377         estimate D2E/DX2                !
 ! D20   D(2,4,6,26)          -179.709          estimate D2E/DX2                !
 ! D21   D(5,4,6,7)           -179.9295         estimate D2E/DX2                !
 ! D22   D(5,4,6,26)             0.2239         estimate D2E/DX2                !
 ! D23   D(4,6,7,8)             -0.1727         estimate D2E/DX2                !
 ! D24   D(4,6,7,15)          -178.6435         estimate D2E/DX2                !
 ! D25   D(26,6,7,8)           179.6717         estimate D2E/DX2                !
 ! D26   D(26,6,7,15)            1.201          estimate D2E/DX2                !
 ! D27   D(6,7,8,1)              0.0932         estimate D2E/DX2                !
 ! D28   D(6,7,8,14)          -179.4726         estimate D2E/DX2                !
 ! D29   D(15,7,8,1)           178.5991         estimate D2E/DX2                !
 ! D30   D(15,7,8,14)           -0.9667         estimate D2E/DX2                !
 ! D31   D(6,7,15,16)           -8.4675         estimate D2E/DX2                !
 ! D32   D(6,7,15,17)          104.6243         estimate D2E/DX2                !
 ! D33   D(6,7,15,25)         -128.2326         estimate D2E/DX2                !
 ! D34   D(8,7,15,16)          173.0583         estimate D2E/DX2                !
 ! D35   D(8,7,15,17)          -73.85           estimate D2E/DX2                !
 ! D36   D(8,7,15,25)           53.2931         estimate D2E/DX2                !
 ! D37   D(1,9,12,13)           42.5049         estimate D2E/DX2                !
 ! D38   D(10,9,12,13)         -70.7963         estimate D2E/DX2                !
 ! D39   D(11,9,12,13)         159.3248         estimate D2E/DX2                !
 ! D40   D(7,15,16,18)         117.8561         estimate D2E/DX2                !
 ! D41   D(7,15,16,27)         -48.6425         estimate D2E/DX2                !
 ! D42   D(17,15,16,18)         -2.654          estimate D2E/DX2                !
 ! D43   D(17,15,16,27)       -169.1525         estimate D2E/DX2                !
 ! D44   D(25,15,16,18)       -119.7809         estimate D2E/DX2                !
 ! D45   D(25,15,16,27)         73.7205         estimate D2E/DX2                !
 ! D46   D(7,15,17,19)        -118.2511         estimate D2E/DX2                !
 ! D47   D(7,15,17,21)          62.5069         estimate D2E/DX2                !
 ! D48   D(16,15,17,19)          0.678          estimate D2E/DX2                !
 ! D49   D(16,15,17,21)       -178.564          estimate D2E/DX2                !
 ! D50   D(25,15,17,19)        114.5751         estimate D2E/DX2                !
 ! D51   D(25,15,17,21)        -64.667          estimate D2E/DX2                !
 ! D52   D(7,15,25,32)         115.4382         estimate D2E/DX2                !
 ! D53   D(16,15,25,32)         -6.5037         estimate D2E/DX2                !
 ! D54   D(17,15,25,32)       -116.5593         estimate D2E/DX2                !
 ! D55   D(15,16,18,19)          3.4894         estimate D2E/DX2                !
 ! D56   D(15,16,18,20)       -176.2581         estimate D2E/DX2                !
 ! D57   D(27,16,18,19)        169.9006         estimate D2E/DX2                !
 ! D58   D(27,16,18,20)         -9.8468         estimate D2E/DX2                !
 ! D59   D(15,17,19,18)          1.2592         estimate D2E/DX2                !
 ! D60   D(15,17,19,24)       -179.3544         estimate D2E/DX2                !
 ! D61   D(21,17,19,18)       -179.4269         estimate D2E/DX2                !
 ! D62   D(21,17,19,24)         -0.0406         estimate D2E/DX2                !
 ! D63   D(15,17,21,22)        178.9851         estimate D2E/DX2                !
 ! D64   D(15,17,21,28)         -1.2948         estimate D2E/DX2                !
 ! D65   D(19,17,21,22)         -0.1818         estimate D2E/DX2                !
 ! D66   D(19,17,21,28)        179.5383         estimate D2E/DX2                !
 ! D67   D(16,18,19,17)         -2.8472         estimate D2E/DX2                !
 ! D68   D(16,18,19,24)        177.8304         estimate D2E/DX2                !
 ! D69   D(20,18,19,17)        176.894          estimate D2E/DX2                !
 ! D70   D(20,18,19,24)         -2.4283         estimate D2E/DX2                !
 ! D71   D(17,19,24,23)          0.2017         estimate D2E/DX2                !
 ! D72   D(17,19,24,31)       -179.6786         estimate D2E/DX2                !
 ! D73   D(18,19,24,23)        179.4425         estimate D2E/DX2                !
 ! D74   D(18,19,24,31)         -0.4378         estimate D2E/DX2                !
 ! D75   D(17,21,22,23)          0.242          estimate D2E/DX2                !
 ! D76   D(17,21,22,29)        179.9346         estimate D2E/DX2                !
 ! D77   D(28,21,22,23)       -179.4793         estimate D2E/DX2                !
 ! D78   D(28,21,22,29)          0.2133         estimate D2E/DX2                !
 ! D79   D(21,22,23,24)         -0.0824         estimate D2E/DX2                !
 ! D80   D(21,22,23,30)        179.7309         estimate D2E/DX2                !
 ! D81   D(29,22,23,24)       -179.7753         estimate D2E/DX2                !
 ! D82   D(29,22,23,30)          0.038          estimate D2E/DX2                !
 ! D83   D(22,23,24,19)         -0.1396         estimate D2E/DX2                !
 ! D84   D(22,23,24,31)        179.7402         estimate D2E/DX2                !
 ! D85   D(30,23,24,19)       -179.9523         estimate D2E/DX2                !
 ! D86   D(30,23,24,31)         -0.0725         estimate D2E/DX2                !
 --------------------------------------------------------------------------------
 Trust Radius=3.00D-01 FncErr=1.00D-07 GrdErr=1.00D-06 EigMax=2.50D+02 EigMin=1.00D-04
 Number of steps in this run=    186 maximum allowed number of steps=    192.
 GradGradGradGradGradGradGradGradGradGradGradGradGradGradGradGradGradGrad

                          Input orientation:                          
 ---------------------------------------------------------------------
 Center     Atomic      Atomic             Coordinates (Angstroms)
 Number     Number       Type             X           Y           Z
 ---------------------------------------------------------------------
      1          6           0       -1.912800    1.300541   -1.222090
      2          6           0       -2.794117    0.223983   -1.369008
      3         17           0       -4.380730    0.230817   -0.635432
      4          6           0       -2.431478   -0.897372   -2.102964
      5          1           0       -3.128077   -1.723111   -2.207213
      6          6           0       -1.174458   -0.956712   -2.703849
      7          6           0       -0.283798    0.102998   -2.566762
      8          6           0       -0.662499    1.225719   -1.825759
      9         16           0       -2.325207    2.788101   -0.260499
     10          8           0       -2.623667    2.253527    1.091883
     11          8           0       -1.070137    3.593580   -0.325378
     12          7           0       -3.599628    3.478381   -0.833461
     13          1           0       -4.286230    2.755503   -1.057628
     14          1           0        0.017784    2.066166   -1.715716
     15          6           0        1.089371    0.082249   -3.238051
     16          7           0        1.366334   -1.221257   -3.820525
     17          6           0        1.172173    0.979760   -4.467191
     18          6           0        1.532788   -1.211491   -5.170216
     19          6           0        1.450357    0.212118   -5.590472
     20          8           0        1.710087   -2.199050   -5.883129
     21          6           0        1.025889    2.355516   -4.558557
     22          6           0        1.172756    2.938552   -5.821028
     23          6           0        1.452114    2.162097   -6.952783
     24          6           0        1.594122    0.777393   -6.851028
     25          8           0        2.126279    0.360664   -2.317497
     26          1           0       -0.903784   -1.835741   -3.278840
     27          1           0        1.230239   -2.080371   -3.296482
     28          1           0        0.800787    2.960974   -3.684174
     29          1           0        1.063384    4.013682   -5.927877
     30          1           0        1.555841    2.645343   -7.919383
     31          1           0        1.806634    0.162582   -7.720952
     32          1           0        2.695949   -0.424939   -2.232677
 ---------------------------------------------------------------------
                    Distance matrix (angstroms):
                    1          2          3          4          5
     1  C    0.000000
     2  C    1.399029   0.000000
     3  Cl   2.753027   1.748005   0.000000
     4  C    2.424002   1.388393   2.688130   0.000000
     5  H    3.404385   2.145994   2.803118   1.085340   0.000000
     6  C    2.799277   2.408140   3.996092   1.394519   2.156535
     7  C    2.428147   2.784053   4.531139   2.414203   3.399099
     8  C    1.390420   2.399144   4.028889   2.777345   3.862665
     9  S    1.818673   2.832555   3.302340   4.121733   4.978487
    10  O    2.601535   3.194384   3.187827   4.491342   5.191543
    11  O    2.602345   3.926252   4.729094   5.018138   6.003634
    12  N    2.781979   3.395109   3.346044   4.703555   5.400470
    13  H    2.788751   2.954988   2.561488   4.228041   4.766639
    14  H    2.134714   3.379443   4.886967   3.864117   4.949407
    15  C    3.815936   4.312179   6.059513   3.826808   4.702002
    16  N    4.885084   5.040636   6.729196   4.180705   4.801496
    17  C    4.488946   5.089341   6.788080   4.701010   5.559241
    18  C    5.811203   5.935644   7.590403   5.022162   5.546603
    19  C    5.619453   5.986356   7.652081   5.335009   6.012787
    20  O    6.862779   6.821747   8.398847   5.756438   6.094810
    21  C    4.569560   5.413788   7.009764   5.344586   6.278491
    22  C    5.775289   6.551752   8.066191   6.444285   7.299858
    23  C    6.701177   7.277727   8.812539   6.925560   7.654634
    24  C    6.652603   7.043823   8.638937   6.446271   7.079315
    25  O    4.289224   5.012844   6.722155   4.733057   5.653542
    26  H    3.883890   3.385747   4.831917   2.144078   2.471548
    27  H    5.060866   5.022016   6.626141   4.028913   4.506557
    28  H    4.022742   5.076854   6.602780   5.275850   6.289518
    29  H    6.193806   7.072865   8.482831   7.138800   8.020130
    30  H    7.661181   8.227547   9.701997   7.891785   8.582037
    31  H    7.573925   7.843333   9.407057   7.116662   7.636002
    32  H    5.023857   5.595342   7.284270   5.150779   5.967007
                    6          7          8          9         10
     6  C    0.000000
     7  C    1.391062   0.000000
     8  C    2.407519   1.397499   0.000000
     9  S    4.617121   4.086071   2.766889   0.000000
    10  O    5.178168   4.846178   3.662677   1.484515   0.000000
    11  O    5.135481   4.222120   2.832680   1.492718   2.493557
    12  N    5.389791   5.039074   3.832215   1.558500   2.481878
    13  H    5.116025   5.033163   4.007704   2.117094   2.763421
    14  H    3.396416   2.160847   1.086851   2.851044   3.859401
    15  C    2.547496   1.528611   2.524112   5.277006   6.103231
    16  N    2.787934   2.459372   3.752725   6.509701   7.219833
    17  C    3.516529   2.549548   3.225474   5.761772   6.850853
    18  C    3.671111   3.435963   4.684514   7.415267   8.276252
    19  C    4.072887   3.487409   4.434480   7.021338   8.088195
    20  O    4.468985   4.502587   5.815536   8.530489   9.341181
    21  C    4.387747   3.279690   3.405184   5.467200   6.727342
    22  C    5.513556   4.555454   4.718488   6.570986   7.916465
    23  C    5.888912   5.146888   5.624479   7.710169   9.018703
    24  C    5.279323   4.726132   5.526904   7.927115   9.113646
    25  O    3.574858   2.436595   2.960981   5.471692   6.145632
    26  H    1.084699   2.156420   3.397381   5.701819   6.227626
    27  H    2.719631   2.755340   4.083591   6.749845   7.272758
    28  H    4.495653   3.254683   2.933602   4.639318   5.919298
    29  H    6.333017   5.329676   5.251550   6.715934   8.122162
    30  H    6.901531   6.204703   6.638420   8.587282   9.941062
    31  H    5.942310   5.562295   6.479211   8.923218  10.082940
    32  H    3.935078   3.044540   3.764230   6.278943   6.820938
                   11         12         13         14         15
    11  O    0.000000
    12  N    2.582585   0.000000
    13  H    3.403207   1.021874   0.000000
    14  H    2.334439   3.982260   4.408265   0.000000
    15  C    5.047433   6.269169   6.387301   2.720612   0.000000
    16  N    6.429238   7.461228   7.443097   4.129886   1.454343
    17  C    5.386522   6.497475   6.676267   3.175454   1.524194
    18  C    7.303176   8.194147   8.155452   4.997183   2.367202
    19  C    6.745991   7.668114   7.741054   4.528078   2.383498
    20  O    8.495458   9.269598   9.153626   6.198652   3.547682
    21  C    4.883230   6.044218   6.374567   3.030139   2.629736
    22  C    5.971750   6.924080   7.247345   4.352999   3.851907
    23  C    7.234182   8.043557   8.248247   5.430780   4.272772
    24  C    7.590342   8.395325   8.488518   5.524238   3.713705
    25  O    4.963603   6.686444   6.960086   2.777882   1.414253
    26  H    6.182891   6.441067   6.119987   4.303199   2.766409
    27  H    6.805359   7.764909   7.670044   4.600287   2.167991
    28  H    3.896416   5.268579   5.728761   2.299696   2.927348
    29  H    6.009692   6.926998   7.343072   4.756932   4.763613
    30  H    8.090972   8.802449   9.012525   6.417675   5.357417
    31  H    8.645350   9.362677   9.393940   6.548777   4.540630
    32  H    5.828352   7.538435   7.761880   3.693971   1.961915
                   16         17         18         19         20
    16  N    0.000000
    17  C    2.302249   0.000000
    18  C    1.359952   2.329349   0.000000
    19  C    2.279109   1.388676   1.486631   0.000000
    20  O    2.308372   3.521231   1.230834   2.442711   0.000000
    21  C    3.667956   1.386525   3.654396   2.416439   4.792357
    22  C    4.619902   2.381122   4.216164   2.750211   5.165998
    23  C    4.611451   2.766669   3.816432   2.378721   4.497812
    24  C    3.637367   2.429336   2.604717   1.388958   3.132010
    25  O    2.310646   2.432033   3.310877   3.345340   4.408978
    26  H    2.413390   3.694431   3.147042   3.883214   3.707646
    27  H    1.015490   3.276940   2.087431   3.250592   2.633454
    28  H    4.222498   2.162464   4.489277   3.407656   5.682260
    29  H    5.651309   3.368994   5.300644   3.836076   6.246460
    30  H    5.638009   3.852142   4.736414   3.369798   5.257211
    31  H    4.161995   3.414276   2.910210   2.160632   2.994031
    32  H    2.218842   3.047643   3.255878   3.637599   4.176744
                   21         22         23         24         25
    21  C    0.000000
    22  C    1.398333   0.000000
    23  C    2.439548   1.400640   0.000000
    24  C    2.840561   2.430855   1.395681   0.000000
    25  O    3.195723   4.453026   5.018519   4.583640   0.000000
    26  H    4.788314   5.793843   5.918684   5.082178   3.863891
    27  H    4.616458   5.618383   5.605025   4.575371   2.778480
    28  H    1.087104   2.169103   3.427278   3.927642   3.222786
    29  H    2.150804   1.085948   2.151723   3.406972   5.244915
    30  H    3.414674   2.153095   1.085634   2.152228   6.076700
    31  H    3.926737   3.423087   2.171135   1.086242   5.416524
    32  H    3.991209   5.148733   5.524426   4.897835   0.974110
                   26         27         28         29         30
    26  H    0.000000
    27  H    2.148071   0.000000
    28  H    5.106695   5.074435   0.000000
    29  H    6.715869   6.639997   2.492259   0.000000
    30  H    6.903949   6.618882   4.313551   2.465961   0.000000
    31  H    5.574228   4.993897   5.013811   4.312599   2.503273
    32  H    4.005359   2.453659   4.142812   6.001760   6.562401
                   31         32
    31  H    0.000000
    32  H    5.590816   0.000000
 Stoichiometry    C14H10ClN2O4S(1-)
 Framework group  C1[X(C14H10ClN2O4S)]
 Deg. of freedom    90
 Full point group                 C1      NOp   1
 Largest Abelian subgroup         C1      NOp   1
 Largest concise Abelian subgroup C1      NOp   1
                         Standard orientation:                         
 ---------------------------------------------------------------------
 Center     Atomic      Atomic             Coordinates (Angstroms)
 Number     Number       Type             X           Y           Z
 ---------------------------------------------------------------------
      1          6           0       -1.980258   -0.053314    0.101802
      2          6           0       -2.212528   -1.287971   -0.513791
      3         17           0       -3.781414   -1.710796   -1.158256
      4          6           0       -1.197459   -2.228330   -0.627802
      5          1           0       -1.395187   -3.180820   -1.109080
      6          6           0        0.071638   -1.943924   -0.124623
      7          6           0        0.320832   -0.722596    0.492883
      8          6           0       -0.710128    0.214771    0.599966
      9         16           0       -3.273272    1.211047    0.294353
     10          8           0       -4.331526    0.508715    1.062867
     11          8           0       -2.584002    2.287474    1.065339
     12          7           0       -3.840868    1.634104   -1.094091
     13          1           0       -3.967676    0.793831   -1.661617
     14          1           0       -0.530478    1.177248    1.071780
     15          6           0        1.708314   -0.367929    1.027446
     16          7           0        2.597590   -1.517540    0.975529
     17          6           0        2.456798    0.625767    0.146816
     18          6           0        3.682938   -1.354585    0.172451
     19          6           0        3.621480    0.041847   -0.333783
     20          8           0        4.532433   -2.209933   -0.075925
     21          6           0        2.125646    1.933033   -0.175433
     22          6           0        3.009131    2.639611   -0.997342
     23          6           0        4.182659    2.048144   -1.481895
     24          6           0        4.505450    0.730332   -1.154630
     25          8           0        1.656213    0.063279    2.373350
     26          1           0        0.858217   -2.684245   -0.223565
     27          1           0        2.317277   -2.426274    1.331684
     28          1           0        1.211715    2.393254    0.191611
     29          1           0        2.779278    3.665382   -1.269823
     30          1           0        4.845314    2.622826   -2.121607
     31          1           0        5.409985    0.257754   -1.526664
     32          1           0        2.138867   -0.573563    2.930457
 ---------------------------------------------------------------------
 Rotational constants (GHZ):           0.4606139           0.1442864           0.1272889
 General basis read from cards:  (6D, 7F)
 There are   446 symmetry adapted cartesian basis functions of A   symmetry.
 There are   446 symmetry adapted basis functions of A   symmetry.
   446 basis functions,   792 primitive gaussians,   446 cartesian basis functions
    87 alpha electrons       87 beta electrons
       nuclear repulsion energy      2074.8856041550 Hartrees.
 NAtoms=   32 NActive=   32 NUniq=   32 SFac= 1.00D+00 NAtFMM=   60 NAOKFM=F Big=F
 Integral buffers will be    131072 words long.
 Raffenetti 2 integral format.
 Two-electron integral symmetry is turned on.
 ------------------------------------------------------------------------------
 Polarizable Continuum Model (PCM)
 =================================
 Model                : PCM.
 Atomic radii         : SMD-Coulomb.
 Polarization charges : Total charges.
 Charge compensation  : None.
 Solution method      : On-the-fly selection.
 Cavity type          : VdW (van der Waals Surface) (Alpha=1.000).
 Cavity algorithm     : GePol (No added spheres)
                        Default sphere list used, NSphG=   32.
                        Lebedev-Laikov grids with approx.  5.0 points / Ang**2.
                        Smoothing algorithm: York/Karplus (Gamma=1.0000).
                        Polarization charges: spherical gaussians, with
                                              point-specific exponents (IZeta= 3).
                        Self-potential: point-specific (ISelfS= 7).
                        Self-field    : sphere-specific E.n sum rule (ISelfD= 2).
 1st derivatives      : Analytical E(r).r(x)/FMM algorithm (CHGder, D1EAlg=3).
                        Cavity 1st derivative terms included.
 Solvent              : Water, Eps=  78.355300 Eps(inf)=   1.777849
 ------------------------------------------------------------------------------
 ------------------------------------------------------------------------------
 Atomic radii for non-electrostatic terms: SMD-CDS.
 ------------------------------------------------------------------------------
 Nuclear repulsion after PCM non-electrostatic terms =     2074.8950088124 Hartrees.
 One-electron integrals computed using PRISM.
 NBasis=   446 RedAO= T EigKep=  1.03D-06  NBF=   446
 NBsUse=   443 1.00D-06 EigRej=  6.68D-07 NBFU=   443
 ExpMin= 4.05D-02 ExpMax= 2.52D+04 ExpMxC= 3.78D+03 IAcc=3 IRadAn=         5 AccDes= 0.00D+00
 Harris functional with IExCor= 1009 and IRadAn=       5 diagonalized for initial guess.
 HarFok:  IExCor= 1009 AccDes= 0.00D+00 IRadAn=         5 IDoV= 1 UseB2=F ITyADJ=14
 ICtDFT=  3500011 ScaDFX=  1.000000  1.000000  1.000000  1.000000
 FoFCou: FMM=F IPFlag=           0 FMFlag=      100000 FMFlg1=           0
         NFxFlg=           0 DoJE=T BraDBF=F KetDBF=T FulRan=T
         wScrn=  0.000000 ICntrl=       500 IOpCl=  0 I1Cent=   200000004 NGrid=           0
         NMat0=    1 NMatS0=      1 NMatT0=    0 NMatD0=    1 NMtDS0=    0 NMtDT0=    0
 Petite list used in FoFCou.
 Requested convergence on RMS density matrix=1.00D-08 within 128 cycles.
 Requested convergence on MAX density matrix=1.00D-06.
 Requested convergence on             energy=1.00D-06.
 No special actions if energy rises.
 Inv3:  Mode=1 IEnd=    20280000.
 Iteration    1 A*A^-1 deviation from unit magnitude is 5.22D-15 for   2573.
 Iteration    1 A*A^-1 deviation from orthogonality  is 2.44D-15 for   2587   1818.
 Iteration    1 A^-1*A deviation from unit magnitude is 5.11D-15 for   2573.
 Iteration    1 A^-1*A deviation from orthogonality  is 9.63D-14 for   1230    722.
 Error on total polarization charges =  0.06050
 SCF Done:  E(RM062X) =  -1808.00124120     A.U. after   16 cycles
            NFock= 16  Conv=0.65D-08     -V/T= 2.0059
 SMD-CDS (non-electrostatic) energy       (kcal/mol) =       5.90
 (included in total energy above)

 **********************************************************************

            Population analysis using the SCF Density.

 **********************************************************************

 Orbital symmetries:
       Occupied  (A) (A) (A) (A) (A) (A) (A) (A) (A) (A) (A) (A)
                 (A) (A) (A) (A) (A) (A) (A) (A) (A) (A) (A) (A)
                 (A) (A) (A) (A) (A) (A) (A) (A) (A) (A) (A) (A)
                 (A) (A) (A) (A) (A) (A) (A) (A) (A) (A) (A) (A)
                 (A) (A) (A) (A) (A) (A) (A) (A) (A) (A) (A) (A)
                 (A) (A) (A) (A) (A) (A) (A) (A) (A) (A) (A) (A)
                 (A) (A) (A) (A) (A) (A) (A) (A) (A) (A) (A) (A)
                 (A) (A) (A)
       Virtual   (A) (A) (A) (A) (A) (A) (A) (A) (A) (A) (A) (A)
                 (A) (A) (A) (A) (A) (A) (A) (A) (A) (A) (A) (A)
                 (A) (A) (A) (A) (A) (A) (A) (A) (A) (A) (A) (A)
                 (A) (A) (A) (A) (A) (A) (A) (A) (A) (A) (A) (A)
                 (A) (A) (A) (A) (A) (A) (A) (A) (A) (A) (A) (A)
                 (A) (A) (A) (A) (A) (A) (A) (A) (A) (A) (A) (A)
                 (A) (A) (A) (A) (A) (A) (A) (A) (A) (A) (A) (A)
                 (A) (A) (A) (A) (A) (A) (A) (A) (A) (A) (A) (A)
                 (A) (A) (A) (A) (A) (A) (A) (A) (A) (A) (A) (A)
                 (A) (A) (A) (A) (A) (A) (A) (A) (A) (A) (A) (A)
                 (A) (A) (A) (A) (A) (A) (A) (A) (A) (A) (A) (A)
                 (A) (A) (A) (A) (A) (A) (A) (A) (A) (A) (A) (A)
                 (A) (A) (A) (A) (A) (A) (A) (A) (A) (A) (A) (A)
                 (A) (A) (A) (A) (A) (A) (A) (A) (A) (A) (A) (A)
                 (A) (A) (A) (A) (A) (A) (A) (A) (A) (A) (A) (A)
                 (A) (A) (A) (A) (A) (A) (A) (A) (A) (A) (A) (A)
                 (A) (A) (A) (A) (A) (A) (A) (A) (A) (A) (A) (A)
                 (A) (A) (A) (A) (A) (A) (A) (A) (A) (A) (A) (A)
                 (A) (A) (A) (A) (A) (A) (A) (A) (A) (A) (A) (A)
                 (A) (A) (A) (A) (A) (A) (A) (A) (A) (A) (A) (A)
                 (A) (A) (A) (A) (A) (A) (A) (A) (A) (A) (A) (A)
                 (A) (A) (A) (A) (A) (A) (A) (A) (A) (A) (A) (A)
                 (A) (A) (A) (A) (A) (A) (A) (A) (A) (A) (A) (A)
                 (A) (A) (A) (A) (A) (A) (A) (A) (A) (A) (A) (A)
                 (A) (A) (A) (A) (A) (A) (A) (A) (A) (A) (A) (A)
                 (A) (A) (A) (A) (A) (A) (A) (A) (A) (A) (A) (A)
                 (A) (A) (A) (A) (A) (A) (A) (A) (A) (A) (A) (A)
                 (A) (A) (A) (A) (A) (A) (A) (A) (A) (A) (A) (A)
                 (A) (A) (A) (A) (A) (A) (A) (A) (A) (A) (A) (A)
                 (A) (A) (A) (A) (A) (A) (A) (A)
 The electronic state is 1-A.
 Alpha  occ. eigenvalues -- -102.68371 -90.14145 -19.66485 -19.64075 -19.63054
 Alpha  occ. eigenvalues --  -19.61373 -14.80032 -14.71822 -10.67914 -10.67354
 Alpha  occ. eigenvalues --  -10.63426 -10.59416 -10.58211 -10.57757 -10.57539
 Alpha  occ. eigenvalues --  -10.57477 -10.57263 -10.57195 -10.57035 -10.56755
 Alpha  occ. eigenvalues --  -10.56679 -10.56394  -9.83024  -8.44978  -7.55423
 Alpha  occ. eigenvalues --   -7.54775  -7.54740  -6.37206  -6.37132  -6.37074
 Alpha  occ. eigenvalues --   -1.21215  -1.19197  -1.17220  -1.09537  -1.06230
 Alpha  occ. eigenvalues --   -1.01298  -0.97628  -0.96409  -0.95528  -0.88036
 Alpha  occ. eigenvalues --   -0.87491  -0.86932  -0.85145  -0.78401  -0.74528
 Alpha  occ. eigenvalues --   -0.73664  -0.70519  -0.68767  -0.67634  -0.65874
 Alpha  occ. eigenvalues --   -0.63186  -0.61653  -0.59026  -0.57563  -0.57170
 Alpha  occ. eigenvalues --   -0.56016  -0.55419  -0.54412  -0.54166  -0.52462
 Alpha  occ. eigenvalues --   -0.52036  -0.51662  -0.51114  -0.50551  -0.49811
 Alpha  occ. eigenvalues --   -0.48440  -0.46591  -0.45768  -0.44344  -0.43931
 Alpha  occ. eigenvalues --   -0.43811  -0.42513  -0.42434  -0.40930  -0.39389
 Alpha  occ. eigenvalues --   -0.39059  -0.38315  -0.37204  -0.36497  -0.35573
 Alpha  occ. eigenvalues --   -0.34944  -0.33776  -0.32612  -0.32577  -0.31956
 Alpha  occ. eigenvalues --   -0.30494  -0.28548
 Alpha virt. eigenvalues --   -0.02619  -0.00893  -0.00207   0.01324   0.01587
 Alpha virt. eigenvalues --    0.02207   0.02738   0.03323   0.03833   0.04482
 Alpha virt. eigenvalues --    0.04654   0.05054   0.05372   0.05624   0.06221
 Alpha virt. eigenvalues --    0.06533   0.07428   0.07663   0.07785   0.08480
 Alpha virt. eigenvalues --    0.08638   0.09067   0.09305   0.10022   0.10282
 Alpha virt. eigenvalues --    0.10770   0.10793   0.11278   0.12305   0.12403
 Alpha virt. eigenvalues --    0.12728   0.12986   0.13492   0.13769   0.14497
 Alpha virt. eigenvalues --    0.14967   0.15254   0.15469   0.16084   0.16163
 Alpha virt. eigenvalues --    0.16341   0.16706   0.17721   0.17903   0.18014
 Alpha virt. eigenvalues --    0.18252   0.18767   0.18975   0.19277   0.19630
 Alpha virt. eigenvalues --    0.19976   0.20187   0.20668   0.21084   0.21435
 Alpha virt. eigenvalues --    0.21909   0.22409   0.22688   0.22887   0.23139
 Alpha virt. eigenvalues --    0.23297   0.23735   0.23950   0.24269   0.24627
 Alpha virt. eigenvalues --    0.24977   0.25317   0.25380   0.26179   0.26436
 Alpha virt. eigenvalues --    0.26810   0.26890   0.27037   0.27798   0.28058
 Alpha virt. eigenvalues --    0.28120   0.28503   0.28828   0.29207   0.29822
 Alpha virt. eigenvalues --    0.30003   0.30307   0.30557   0.31267   0.31496
 Alpha virt. eigenvalues --    0.31623   0.32179   0.32490   0.32717   0.33220
 Alpha virt. eigenvalues --    0.33295   0.33932   0.34049   0.34614   0.35235
 Alpha virt. eigenvalues --    0.35418   0.35855   0.36310   0.36457   0.36887
 Alpha virt. eigenvalues --    0.37136   0.37991   0.38431   0.39054   0.39443
 Alpha virt. eigenvalues --    0.40575   0.41509   0.42203   0.43005   0.43328
 Alpha virt. eigenvalues --    0.43960   0.44501   0.45090   0.46231   0.46464
 Alpha virt. eigenvalues --    0.47546   0.48097   0.48478   0.49892   0.50169
 Alpha virt. eigenvalues --    0.52274   0.56814   0.57985   0.58901   0.61752
 Alpha virt. eigenvalues --    0.63608   0.64641   0.65717   0.67085   0.67405
 Alpha virt. eigenvalues --    0.68019   0.70444   0.70972   0.72086   0.72734
 Alpha virt. eigenvalues --    0.73206   0.73896   0.74319   0.75534   0.76417
 Alpha virt. eigenvalues --    0.77424   0.77794   0.78311   0.78452   0.79261
 Alpha virt. eigenvalues --    0.79662   0.80647   0.81169   0.82075   0.83050
 Alpha virt. eigenvalues --    0.83472   0.85476   0.85586   0.86458   0.87663
 Alpha virt. eigenvalues --    0.88493   0.89622   0.89660   0.91234   0.92466
 Alpha virt. eigenvalues --    0.93048   0.93608   0.94745   0.95234   0.97013
 Alpha virt. eigenvalues --    0.97327   0.99417   0.99564   1.00175   1.01572
 Alpha virt. eigenvalues --    1.02324   1.02726   1.04478   1.05131   1.05941
 Alpha virt. eigenvalues --    1.06376   1.06938   1.07863   1.09025   1.09540
 Alpha virt. eigenvalues --    1.10306   1.11464   1.12962   1.14236   1.14975
 Alpha virt. eigenvalues --    1.16071   1.17335   1.17649   1.18836   1.19123
 Alpha virt. eigenvalues --    1.20131   1.20828   1.20949   1.21707   1.22253
 Alpha virt. eigenvalues --    1.23179   1.25125   1.25508   1.26117   1.27408
 Alpha virt. eigenvalues --    1.28109   1.28783   1.29671   1.31288   1.32355
 Alpha virt. eigenvalues --    1.34013   1.34573   1.35830   1.37391   1.37871
 Alpha virt. eigenvalues --    1.39326   1.39814   1.40603   1.41198   1.42524
 Alpha virt. eigenvalues --    1.42777   1.43454   1.43764   1.44159   1.45026
 Alpha virt. eigenvalues --    1.46495   1.46820   1.47924   1.49004   1.49770
 Alpha virt. eigenvalues --    1.51089   1.52037   1.52382   1.52624   1.53478
 Alpha virt. eigenvalues --    1.53891   1.54776   1.54932   1.57691   1.59259
 Alpha virt. eigenvalues --    1.60364   1.62236   1.64219   1.65735   1.69038
 Alpha virt. eigenvalues --    1.73469   1.73764   1.74794   1.78460   1.79819
 Alpha virt. eigenvalues --    1.81302   1.82093   1.82659   1.84124   1.84448
 Alpha virt. eigenvalues --    1.85760   1.87234   1.87965   1.88365   1.89967
 Alpha virt. eigenvalues --    1.90511   1.91124   1.91689   1.92832   1.93673
 Alpha virt. eigenvalues --    1.95300   1.98429   1.98887   1.99943   2.01167
 Alpha virt. eigenvalues --    2.02378   2.03113   2.03807   2.04854   2.05386
 Alpha virt. eigenvalues --    2.06217   2.07564   2.08735   2.11599   2.14207
 Alpha virt. eigenvalues --    2.15090   2.16819   2.17693   2.18743   2.19071
 Alpha virt. eigenvalues --    2.19899   2.21400   2.22751   2.23650   2.26267
 Alpha virt. eigenvalues --    2.27605   2.28059   2.28740   2.29685   2.31134
 Alpha virt. eigenvalues --    2.31494   2.32672   2.33120   2.35192   2.35979
 Alpha virt. eigenvalues --    2.37690   2.40380   2.41545   2.42830   2.47962
 Alpha virt. eigenvalues --    2.51225   2.55654   2.59231   2.60020   2.62330
 Alpha virt. eigenvalues --    2.63347   2.64818   2.66925   2.67551   2.68603
 Alpha virt. eigenvalues --    2.69946   2.70757   2.74381   2.74936   2.76852
 Alpha virt. eigenvalues --    2.77836   2.79734   2.81729   2.84011   2.88273
 Alpha virt. eigenvalues --    2.88401   2.89044   2.91427   2.94736   2.97583
 Alpha virt. eigenvalues --    3.01676   3.03824   3.06266   3.14590   3.15332
 Alpha virt. eigenvalues --    3.21924   3.30072   3.36138   3.45576   4.02488
 Alpha virt. eigenvalues --    4.09181   4.18800   4.26817   4.28373   4.29771
 Alpha virt. eigenvalues --    4.31048   4.33019   4.34289   4.36975   4.39749
 Alpha virt. eigenvalues --    4.40884   4.45399   4.46052   4.48506   4.51550
 Alpha virt. eigenvalues --    4.54049   4.55888   4.72055   4.77885   4.85656
 Alpha virt. eigenvalues --    4.93603
          Condensed to atoms (all electrons):
               1          2          3          4          5          6
     1  C   37.161800 -14.010922   0.498994  -2.530890   0.066992  -0.218258
     2  C  -14.010922  42.038201  -0.850529 -14.459968  -0.019433  11.868831
     3  Cl   0.498994  -0.850529  17.170007  -0.087958  -0.004584   0.060652
     4  C   -2.530890 -14.459968  -0.087958  23.479199   0.259437 -12.395793
     5  H    0.066992  -0.019433  -0.004584   0.259437   0.413569  -0.070527
     6  C   -0.218258  11.868831   0.060652 -12.395793  -0.070527  29.706601
     7  C   -5.372330  -8.656836  -0.175869   6.350172   0.072594 -16.107331
     8  C   -1.711514 -10.225818   0.090270   3.695330   0.005732  -4.686444
     9  S   -1.543263  -0.664099   0.217288   0.160746  -0.001834   0.836927
    10  O   -0.574429   0.328286  -0.061318  -0.038039   0.000010   0.152047
    11  O   -0.662054  -0.135940   0.012924   0.092784   0.000016  -0.009856
    12  N   -0.705233   0.396908  -0.048879   0.027349  -0.000161   0.060836
    13  H    0.052331  -0.202444   0.026140   0.063339  -0.000002  -0.011844
    14  H   -0.053208  -0.033872  -0.000505  -0.010233   0.000012  -0.019055
    15  C    1.252916  -0.492763  -0.061164   1.975333   0.002968  -2.024880
    16  N   -0.363425   0.210067   0.000095  -0.097828   0.000527   0.537945
    17  C   -2.564150  -0.100840   0.010021  -0.477921   0.000069   2.290093
    18  C   -0.354717   0.128111  -0.002309  -0.590724   0.000221  -0.285059
    19  C   -1.007995  -0.673656   0.003416   0.565374  -0.000193  -1.753848
    20  O   -0.001545   0.000854  -0.000013   0.007890  -0.000005  -0.029190
    21  C    0.830653   0.343244  -0.012798   0.225263  -0.000341  -1.286803
    22  C    0.034797   0.279653  -0.001457  -0.097841  -0.000024   0.273826
    23  C   -0.016595   0.000929  -0.000086   0.018259  -0.000007  -0.093626
    24  C    0.096498  -0.052788  -0.000627   0.038679  -0.000101  -0.665965
    25  O   -0.096401  -0.040640  -0.000465  -0.012027   0.000018  -0.145835
    26  H   -0.018127   0.047017   0.000947  -0.072730  -0.002972   0.337478
    27  H    0.002176   0.000910  -0.000016   0.020786  -0.000002   0.025686
    28  H    0.012676   0.005228   0.000028  -0.002139  -0.000000   0.020556
    29  H    0.000049   0.000031   0.000000  -0.000111   0.000000   0.001320
    30  H    0.000020   0.000003  -0.000000  -0.000023  -0.000000  -0.000126
    31  H    0.000077  -0.000011   0.000000   0.000088  -0.000000   0.001580
    32  H    0.005317   0.000907   0.000008  -0.006677  -0.000000   0.015695
               7          8          9         10         11         12
     1  C   -5.372330  -1.711514  -1.543263  -0.574429  -0.662054  -0.705233
     2  C   -8.656836 -10.225818  -0.664099   0.328286  -0.135940   0.396908
     3  Cl  -0.175869   0.090270   0.217288  -0.061318   0.012924  -0.048879
     4  C    6.350172   3.695330   0.160746  -0.038039   0.092784   0.027349
     5  H    0.072594   0.005732  -0.001834   0.000010   0.000016  -0.000161
     6  C  -16.107331  -4.686444   0.836927   0.152047  -0.009856   0.060836
     7  C   35.515180   3.119261  -2.148974  -0.313480  -0.050212  -0.080259
     8  C    3.119261  16.689872   0.534856   0.007589   0.338867  -0.017313
     9  S   -2.148974   0.534856  16.519894   0.270441   0.427599   0.191306
    10  O   -0.313480   0.007589   0.270441   9.188904  -0.138980  -0.116170
    11  O   -0.050212   0.338867   0.427599  -0.138980   8.987192  -0.123600
    12  N   -0.080259  -0.017313   0.191306  -0.116170  -0.123600   8.139028
    13  H    0.005611   0.057505   0.079520  -0.021856   0.015662   0.178577
    14  H   -0.013846   0.407860  -0.016266   0.000121   0.002694  -0.001316
    15  C   -7.852315  -4.299180  -0.235844   0.000679   0.006840   0.002782
    16  N   -0.285493   0.191622  -0.017425  -0.000740  -0.000161  -0.000564
    17  C    1.671838   2.567121  -0.176987  -0.028841  -0.040497  -0.014258
    18  C    0.094868   0.151380  -0.024151  -0.000317  -0.000945   0.000232
    19  C   -0.747158   2.069153  -0.059305  -0.004168  -0.013268  -0.002261
    20  O   -0.004977   0.007251  -0.000064  -0.000000  -0.000000  -0.000001
    21  C   -0.812321  -1.638637  -0.012278   0.010696   0.010825   0.006491
    22  C    1.051107  -0.638744   0.014337   0.002278   0.019498   0.001252
    23  C   -0.271509   0.041331  -0.004094  -0.000026   0.000097   0.000312
    24  C    0.853872  -0.182539   0.003376   0.000113   0.000834   0.000025
    25  O   -0.148265   0.063595  -0.001981   0.000011  -0.000082   0.000142
    26  H    0.043063   0.038072   0.000110  -0.000004  -0.000008   0.000004
    27  H   -0.129174  -0.001043   0.000005   0.000000   0.000000  -0.000000
    28  H    0.003644  -0.017025   0.002746   0.000012   0.000132   0.000023
    29  H   -0.002606   0.001453   0.000026   0.000000   0.000004  -0.000001
    30  H    0.000070  -0.000039  -0.000002   0.000000  -0.000000   0.000000
    31  H    0.000115  -0.000197   0.000002   0.000000   0.000000  -0.000000
    32  H   -0.038694   0.008117   0.000005   0.000000   0.000004   0.000001
              13         14         15         16         17         18
     1  C    0.052331  -0.053208   1.252916  -0.363425  -2.564150  -0.354717
     2  C   -0.202444  -0.033872  -0.492763   0.210067  -0.100840   0.128111
     3  Cl   0.026140  -0.000505  -0.061164   0.000095   0.010021  -0.002309
     4  C    0.063339  -0.010233   1.975333  -0.097828  -0.477921  -0.590724
     5  H   -0.000002   0.000012   0.002968   0.000527   0.000069   0.000221
     6  C   -0.011844  -0.019055  -2.024880   0.537945   2.290093  -0.285059
     7  C    0.005611  -0.013846  -7.852315  -0.285493   1.671838   0.094868
     8  C    0.057505   0.407860  -4.299180   0.191622   2.567121   0.151380
     9  S    0.079520  -0.016266  -0.235844  -0.017425  -0.176987  -0.024151
    10  O   -0.021856   0.000121   0.000679  -0.000740  -0.028841  -0.000317
    11  O    0.015662   0.002694   0.006840  -0.000161  -0.040497  -0.000945
    12  N    0.178577  -0.001316   0.002782  -0.000564  -0.014258   0.000232
    13  H    0.349980  -0.000011  -0.000742  -0.000001  -0.000057  -0.000033
    14  H   -0.000011   0.420087   0.033340  -0.000993   0.037813   0.000215
    15  C   -0.000742   0.033340  27.467962  -1.282616 -10.575181  -2.687253
    16  N   -0.000001  -0.000993  -1.282616   8.055491   1.425616   0.299329
    17  C   -0.000057   0.037813 -10.575181   1.425616  29.413489  -1.760339
    18  C   -0.000033   0.000215  -2.687253   0.299329  -1.760339   9.600766
    19  C   -0.000122  -0.003651  -2.682415   0.287746  -5.689437   2.051841
    20  O    0.000000  -0.000003   0.125346  -0.151657  -0.021581   0.179893
    21  C   -0.000017  -0.028697   7.004373  -0.920345 -11.562279  -0.995165
    22  C    0.000225  -0.011547  -1.266922   0.096813   2.262622  -0.195157
    23  C   -0.000009  -0.001868   0.141453  -0.035071  -2.072386   0.515547
    24  C    0.000010  -0.001105  -0.060947  -0.380620   1.865145  -0.594173
    25  O    0.000001   0.002918   0.542161  -0.016262  -0.030904  -0.025259
    26  H   -0.000000  -0.000114  -0.127663   0.016674   0.008127   0.009175
    27  H   -0.000000   0.000002   0.087366   0.238834  -0.001194  -0.063629
    28  H    0.000000  -0.000230  -0.046788   0.000100   0.043138   0.014121
    29  H    0.000000  -0.000003  -0.010290   0.000133   0.019454   0.003183
    30  H   -0.000000   0.000000   0.002703   0.000170   0.029923  -0.005176
    31  H    0.000000  -0.000000   0.010456   0.000290   0.100502  -0.058166
    32  H    0.000000  -0.000014   0.051760  -0.009851  -0.009137   0.008112
              19         20         21         22         23         24
     1  C   -1.007995  -0.001545   0.830653   0.034797  -0.016595   0.096498
     2  C   -0.673656   0.000854   0.343244   0.279653   0.000929  -0.052788
     3  Cl   0.003416  -0.000013  -0.012798  -0.001457  -0.000086  -0.000627
     4  C    0.565374   0.007890   0.225263  -0.097841   0.018259   0.038679
     5  H   -0.000193  -0.000005  -0.000341  -0.000024  -0.000007  -0.000101
     6  C   -1.753848  -0.029190  -1.286803   0.273826  -0.093626  -0.665965
     7  C   -0.747158  -0.004977  -0.812321   1.051107  -0.271509   0.853872
     8  C    2.069153   0.007251  -1.638637  -0.638744   0.041331  -0.182539
     9  S   -0.059305  -0.000064  -0.012278   0.014337  -0.004094   0.003376
    10  O   -0.004168  -0.000000   0.010696   0.002278  -0.000026   0.000113
    11  O   -0.013268  -0.000000   0.010825   0.019498   0.000097   0.000834
    12  N   -0.002261  -0.000001   0.006491   0.001252   0.000312   0.000025
    13  H   -0.000122   0.000000  -0.000017   0.000225  -0.000009   0.000010
    14  H   -0.003651  -0.000003  -0.028697  -0.011547  -0.001868  -0.001105
    15  C   -2.682415   0.125346   7.004373  -1.266922   0.141453  -0.060947
    16  N    0.287746  -0.151657  -0.920345   0.096813  -0.035071  -0.380620
    17  C   -5.689437  -0.021581 -11.562279   2.262622  -2.072386   1.865145
    18  C    2.051841   0.179893  -0.995165  -0.195157   0.515547  -0.594173
    19  C   31.181604  -0.018607  -3.327365  -3.906359   1.232637 -11.889580
    20  O   -0.018607   8.542368   0.066444  -0.005321   0.004701  -0.057404
    21  C   -3.327365   0.066444  16.909272  -2.052861   0.626339   2.306157
    22  C   -3.906359  -0.005321  -2.052861   9.451493  -0.192942   1.080420
    23  C    1.232637   0.004701   0.626339  -0.192942   6.052357  -0.183372
    24  C  -11.889580  -0.057404   2.306157   1.080420  -0.183372  14.332434
    25  O   -0.032220  -0.000098  -0.028512   0.034391  -0.006811  -0.025018
    26  H    0.015836   0.000291  -0.006732   0.000081   0.000507   0.000239
    27  H    0.030730   0.008947   0.016672  -0.001592   0.000799   0.005932
    28  H    0.056854   0.000024   0.231087   0.016601  -0.015155  -0.023876
    29  H    0.038816  -0.000001   0.017365   0.304327  -0.045932  -0.013615
    30  H   -0.018431   0.000003  -0.011565  -0.027711   0.336722   0.008109
    31  H   -0.041105   0.004928  -0.021208   0.005911  -0.053927   0.354690
    32  H   -0.006687  -0.000057  -0.009737  -0.000578  -0.000179  -0.005773
              25         26         27         28         29         30
     1  C   -0.096401  -0.018127   0.002176   0.012676   0.000049   0.000020
     2  C   -0.040640   0.047017   0.000910   0.005228   0.000031   0.000003
     3  Cl  -0.000465   0.000947  -0.000016   0.000028   0.000000  -0.000000
     4  C   -0.012027  -0.072730   0.020786  -0.002139  -0.000111  -0.000023
     5  H    0.000018  -0.002972  -0.000002  -0.000000   0.000000  -0.000000
     6  C   -0.145835   0.337478   0.025686   0.020556   0.001320  -0.000126
     7  C   -0.148265   0.043063  -0.129174   0.003644  -0.002606   0.000070
     8  C    0.063595   0.038072  -0.001043  -0.017025   0.001453  -0.000039
     9  S   -0.001981   0.000110   0.000005   0.002746   0.000026  -0.000002
    10  O    0.000011  -0.000004   0.000000   0.000012   0.000000   0.000000
    11  O   -0.000082  -0.000008   0.000000   0.000132   0.000004  -0.000000
    12  N    0.000142   0.000004  -0.000000   0.000023  -0.000001   0.000000
    13  H    0.000001  -0.000000  -0.000000   0.000000   0.000000  -0.000000
    14  H    0.002918  -0.000114   0.000002  -0.000230  -0.000003   0.000000
    15  C    0.542161  -0.127663   0.087366  -0.046788  -0.010290   0.002703
    16  N   -0.016262   0.016674   0.238834   0.000100   0.000133   0.000170
    17  C   -0.030904   0.008127  -0.001194   0.043138   0.019454   0.029923
    18  C   -0.025259   0.009175  -0.063629   0.014121   0.003183  -0.005176
    19  C   -0.032220   0.015836   0.030730   0.056854   0.038816  -0.018431
    20  O   -0.000098   0.000291   0.008947   0.000024  -0.000001   0.000003
    21  C   -0.028512  -0.006732   0.016672   0.231087   0.017365  -0.011565
    22  C    0.034391   0.000081  -0.001592   0.016601   0.304327  -0.027711
    23  C   -0.006811   0.000507   0.000799  -0.015155  -0.045932   0.336722
    24  C   -0.025018   0.000239   0.005932  -0.023876  -0.013615   0.008109
    25  O    8.482495  -0.000381  -0.005971  -0.001821  -0.000042   0.000003
    26  H   -0.000381   0.430255   0.000699  -0.000001  -0.000000  -0.000000
    27  H   -0.005971   0.000699   0.234328  -0.000001  -0.000000  -0.000000
    28  H   -0.001821  -0.000001  -0.000001   0.429285  -0.002812  -0.000099
    29  H   -0.000042  -0.000000  -0.000000  -0.002812   0.433329  -0.002796
    30  H    0.000003  -0.000000  -0.000000  -0.000099  -0.002796   0.434206
    31  H   -0.000002   0.000000  -0.000000   0.000013  -0.000101  -0.002323
    32  H    0.184752  -0.000013   0.000045  -0.000005  -0.000000  -0.000000
              31         32
     1  C    0.000077   0.005317
     2  C   -0.000011   0.000907
     3  Cl   0.000000   0.000008
     4  C    0.000088  -0.006677
     5  H   -0.000000  -0.000000
     6  C    0.001580   0.015695
     7  C    0.000115  -0.038694
     8  C   -0.000197   0.008117
     9  S    0.000002   0.000005
    10  O    0.000000   0.000000
    11  O    0.000000   0.000004
    12  N   -0.000000   0.000001
    13  H    0.000000   0.000000
    14  H   -0.000000  -0.000014
    15  C    0.010456   0.051760
    16  N    0.000290  -0.009851
    17  C    0.100502  -0.009137
    18  C   -0.058166   0.008112
    19  C   -0.041105  -0.006687
    20  O    0.004928  -0.000057
    21  C   -0.021208  -0.009737
    22  C    0.005911  -0.000578
    23  C   -0.053927  -0.000179
    24  C    0.354690  -0.005773
    25  O   -0.000002   0.184752
    26  H    0.000000  -0.000013
    27  H   -0.000000   0.000045
    28  H    0.000013  -0.000005
    29  H   -0.000101  -0.000000
    30  H   -0.002323  -0.000000
    31  H    0.425577  -0.000000
    32  H   -0.000000   0.231995
 Mulliken charges:
               1
     1  C   -2.210240
     2  C    0.971380
     3  Cl   0.217784
     4  C   -0.099125
     5  H    0.278022
     6  C   -0.385632
     7  C    0.430257
     8  C   -0.667745
     9  S    1.647386
    10  O   -0.662818
    11  O   -0.740370
    12  N   -0.895254
    13  H    0.408239
    14  H    0.291474
    15  C    0.998525
    16  N   -0.798402
    17  C   -0.618983
    18  C    0.585579
    19  C    0.343825
    20  O   -0.658413
    21  C    0.122778
    22  C   -0.530576
    23  C    0.021603
    24  C   -0.809031
    25  O   -0.691489
    26  H    0.280167
    27  H    0.528705
    28  H    0.273683
    29  H    0.258819
    30  H    0.256361
    31  H    0.272808
    32  H    0.580681
 Sum of Mulliken charges =  -1.00000
 Mulliken charges with hydrogens summed into heavy atoms:
               1
     1  C   -2.210240
     2  C    0.971380
     3  Cl   0.217784
     4  C    0.178897
     6  C   -0.105464
     7  C    0.430257
     8  C   -0.376271
     9  S    1.647386
    10  O   -0.662818
    11  O   -0.740370
    12  N   -0.487015
    15  C    0.998525
    16  N   -0.269697
    17  C   -0.618983
    18  C    0.585579
    19  C    0.343825
    20  O   -0.658413
    21  C    0.396461
    22  C   -0.271757
    23  C    0.277965
    24  C   -0.536223
    25  O   -0.110808
 Electronic spatial extent (au):  <R**2>=           8322.6270
 Charge=             -1.0000 electrons
 Dipole moment (field-independent basis, Debye):
    X=             17.6189    Y=             -7.9751    Z=             -2.4580  Tot=             19.4954
 Quadrupole moment (field-independent basis, Debye-Ang):
   XX=           -244.0963   YY=           -154.8437   ZZ=           -147.6076
   XY=             47.3531   XZ=             10.6418   YZ=            -10.6008
 Traceless Quadrupole moment (field-independent basis, Debye-Ang):
   XX=            -61.9138   YY=             27.3388   ZZ=             34.5749
   XY=             47.3531   XZ=             10.6418   YZ=            -10.6008
 Octapole moment (field-independent basis, Debye-Ang**2):
  XXX=            224.3883  YYY=            -46.5523  ZZZ=             19.8392  XYY=             47.5352
  XXY=             -5.5836  XXZ=            -57.6918  XZZ=             51.0612  YZZ=            -32.5921
  YYZ=             -3.6296  XYZ=            -40.6295
 Hexadecapole moment (field-independent basis, Debye-Ang**3):
 XXXX=         -10065.8533 YYYY=          -2137.4949 ZZZZ=           -896.3699 XXXY=            929.6405
 XXXZ=             62.0728 YYYX=            310.1577 YYYZ=            -43.9105 ZZZX=             92.7558
 ZZZY=            -41.6060 XXYY=          -2121.3752 XXZZ=          -1509.0695 YYZZ=           -515.5254
 XXYZ=            -92.2766 YYXZ=            -24.6118 ZZXY=             34.6925
 N-N= 2.074895008812D+03 E-N=-8.421917344972D+03  KE= 1.797344788716D+03
 D1PCM: PCM CHGder 1st derivatives, ID1Alg=3 FixD1E=F DoIter=F DoCFld=F I1PDM=0.
 Calling FoFJK, ICntrl=      2127 FMM=F ISym2X=0 I1Cent= 0 IOpClX= 0 NMat=1 NMatS=1 NMatT=0.
 ***** Axes restored to original set *****
 -------------------------------------------------------------------
 Center     Atomic                   Forces (Hartrees/Bohr)
 Number     Number              X              Y              Z
 -------------------------------------------------------------------
      1        6          -0.000347319    0.000151478   -0.000656747
      2        6           0.000171187   -0.000012711    0.000936765
      3       17          -0.000799315   -0.001629190   -0.000741767
      4        6           0.000486020   -0.000290931   -0.000553165
      5        1           0.000124683   -0.000068488    0.000145233
      6        6          -0.001927615    0.000635768    0.000310093
      7        6           0.003674601    0.003379980    0.000837837
      8        6           0.001593674    0.001497181   -0.000752182
      9       16          -0.006161227   -0.010965898    0.001731520
     10        8           0.011943126   -0.007061309    0.014650734
     11        8          -0.016941798    0.003568829   -0.000420186
     12        7           0.012549072    0.013928141   -0.019065680
     13        1          -0.000498512    0.001469548    0.004352838
     14        1           0.000013608   -0.001295284    0.001098821
     15        6           0.002199018   -0.018361325   -0.003108688
     16        7          -0.002356421   -0.000391539   -0.007077317
     17        6          -0.000095617    0.002122905    0.003438313
     18        6          -0.000427401   -0.001402616   -0.001879981
     19        6          -0.000353997   -0.001105879    0.000175406
     20        8           0.000366566    0.000505348    0.000245353
     21        6          -0.000017744    0.000807545    0.000170194
     22        6          -0.000014887   -0.000146365   -0.000065965
     23        6           0.000060584    0.000058702   -0.000015617
     24        6          -0.000212685    0.000032611    0.000116151
     25        8          -0.000232748    0.012235992    0.008865866
     26        1          -0.002114314    0.000177426   -0.000121088
     27        1           0.001103219   -0.001083088   -0.000265616
     28        1           0.000749274    0.000565844   -0.001471097
     29        1           0.000050069   -0.000015248    0.000049986
     30        1           0.000027538   -0.000027120    0.000009816
     31        1          -0.000014652   -0.000013240    0.000045024
     32        1          -0.002595987    0.002732934   -0.000984854
 -------------------------------------------------------------------
 Cartesian Forces:  Max     0.019065680 RMS     0.004931126

 GradGradGradGradGradGradGradGradGradGradGradGradGradGradGradGradGradGrad
 Berny optimization.
 FormGI is forming the generalized inverse of G from B-inverse, IUseBI=4.
 Internal  Forces:  Max     0.021569459 RMS     0.003905083
 Search for a local minimum.
 Step number   1 out of a maximum of  186
 All quantities printed in internal units (Hartrees-Bohrs-Radians)
 Mixed Optimization -- RFO/linear search
 Second derivative matrix not updated -- first step.
 ITU=  0
     Eigenvalues ---    0.00230   0.00387   0.00947   0.01315   0.01363
     Eigenvalues ---    0.01459   0.01503   0.01544   0.01641   0.01698
     Eigenvalues ---    0.01917   0.02095   0.02115   0.02119   0.02140
     Eigenvalues ---    0.02155   0.02173   0.02179   0.02186   0.02190
     Eigenvalues ---    0.02193   0.02202   0.02202   0.02210   0.03168
     Eigenvalues ---    0.06389   0.07062   0.09987   0.10169   0.11922
     Eigenvalues ---    0.13079   0.15538   0.16000   0.16000   0.16000
     Eigenvalues ---    0.16000   0.16000   0.16000   0.16000   0.16000
     Eigenvalues ---    0.16000   0.17141   0.20338   0.21706   0.22000
     Eigenvalues ---    0.22376   0.22623   0.23483   0.24429   0.24603
     Eigenvalues ---    0.24699   0.24731   0.24991   0.24998   0.25000
     Eigenvalues ---    0.25000   0.25000   0.29120   0.29552   0.30681
     Eigenvalues ---    0.32362   0.35149   0.35179   0.35251   0.35285
     Eigenvalues ---    0.35322   0.35357   0.35433   0.35983   0.40814
     Eigenvalues ---    0.42481   0.42561   0.42597   0.43338   0.44040
     Eigenvalues ---    0.45065   0.45322   0.45981   0.46076   0.46690
     Eigenvalues ---    0.46918   0.46977   0.47377   0.47519   0.50990
     Eigenvalues ---    0.52546   0.60160   0.79140   0.82042   0.90740
 RFO step:  Lambda=-1.70681027D-02 EMin= 2.30000000D-03
 Linear search not attempted -- first point.
 Iteration  1 RMS(Cart)=  0.09431143 RMS(Int)=  0.00365885
 Iteration  2 RMS(Cart)=  0.00546958 RMS(Int)=  0.00067652
 Iteration  3 RMS(Cart)=  0.00001385 RMS(Int)=  0.00067648
 Iteration  4 RMS(Cart)=  0.00000003 RMS(Int)=  0.00067648
 Variable       Old X    -DE/DX   Delta X   Delta X   Delta X     New X
                                 (Linear)    (Quad)   (Total)
    R1        2.64378   0.00183   0.00000   0.00391   0.00391   2.64769
    R2        2.62751   0.00045   0.00000   0.00097   0.00097   2.62848
    R3        3.43679   0.00121   0.00000   0.00457   0.00457   3.44136
    R4        3.30325   0.00041   0.00000   0.00125   0.00125   3.30450
    R5        2.62368   0.00014   0.00000   0.00028   0.00028   2.62396
    R6        2.05100  -0.00004   0.00000  -0.00011  -0.00011   2.05088
    R7        2.63526  -0.00080   0.00000  -0.00171  -0.00171   2.63355
    R8        2.62873   0.00169   0.00000   0.00340   0.00340   2.63213
    R9        2.04978  -0.00060   0.00000  -0.00163  -0.00163   2.04816
   R10        2.64089  -0.00026   0.00000  -0.00056  -0.00055   2.64034
   R11        2.88866  -0.00077   0.00000  -0.00247  -0.00247   2.88618
   R12        2.05385  -0.00088   0.00000  -0.00239  -0.00239   2.05146
   R13        2.80533   0.01349   0.00000   0.01611   0.01611   2.82144
   R14        2.82083  -0.01231   0.00000  -0.01522  -0.01522   2.80561
   R15        2.94514   0.00237   0.00000   0.00384   0.00384   2.94897
   R16        1.93106  -0.00165   0.00000  -0.00360  -0.00360   1.92746
   R17        2.74831   0.00565   0.00000   0.01305   0.01288   2.76119
   R18        2.88031   0.00156   0.00000   0.00342   0.00324   2.88355
   R19        2.67255   0.00601   0.00000   0.01334   0.01334   2.68589
   R20        2.56994  -0.00031   0.00000  -0.00025  -0.00018   2.56976
   R21        1.91900   0.00063   0.00000   0.00134   0.00134   1.92034
   R22        2.62422   0.00179   0.00000   0.00417   0.00422   2.62843
   R23        2.62015   0.00184   0.00000   0.00377   0.00375   2.62390
   R24        2.80933  -0.00153   0.00000  -0.00259  -0.00237   2.80696
   R25        2.32594  -0.00050   0.00000  -0.00054  -0.00054   2.32540
   R26        2.62475  -0.00009   0.00000  -0.00016  -0.00016   2.62459
   R27        2.64247  -0.00007   0.00000  -0.00018  -0.00018   2.64229
   R28        2.05433  -0.00102   0.00000  -0.00277  -0.00277   2.05156
   R29        2.64683  -0.00062   0.00000  -0.00140  -0.00138   2.64545
   R30        2.05214  -0.00002   0.00000  -0.00006  -0.00006   2.05209
   R31        2.63745  -0.00059   0.00000  -0.00128  -0.00125   2.63620
   R32        2.05155  -0.00002   0.00000  -0.00004  -0.00004   2.05151
   R33        2.05270  -0.00003   0.00000  -0.00009  -0.00009   2.05261
   R34        1.84080  -0.00381   0.00000  -0.00703  -0.00703   1.83377
    A1        2.07084  -0.00063   0.00000  -0.00236  -0.00235   2.06849
    A2        2.14371   0.00460   0.00000   0.01721   0.01721   2.16091
    A3        2.06858  -0.00397   0.00000  -0.01485  -0.01486   2.05373
    A4        2.12317   0.00358   0.00000   0.01344   0.01343   2.13660
    A5        2.10886  -0.00083   0.00000  -0.00319  -0.00319   2.10567
    A6        2.05114  -0.00274   0.00000  -0.01023  -0.01023   2.04091
    A7        2.09164  -0.00049   0.00000  -0.00185  -0.00185   2.08979
    A8        2.09162   0.00108   0.00000   0.00423   0.00423   2.09584
    A9        2.09992  -0.00058   0.00000  -0.00238  -0.00238   2.09755
   A10        2.09701   0.00018   0.00000   0.00032   0.00031   2.09732
   A11        2.08040  -0.00192   0.00000  -0.01050  -0.01053   2.06987
   A12        2.10577   0.00174   0.00000   0.01016   0.01013   2.11591
   A13        2.08376  -0.00122   0.00000  -0.00485  -0.00483   2.07893
   A14        2.11946   0.00658   0.00000   0.02483   0.02482   2.14427
   A15        2.07966  -0.00536   0.00000  -0.01990  -0.01992   2.05974
   A16        2.11428   0.00142   0.00000   0.00586   0.00583   2.12011
   A17        2.06835  -0.00068   0.00000  -0.00274  -0.00281   2.06553
   A18        2.10054  -0.00073   0.00000  -0.00299  -0.00306   2.09748
   A19        1.80567  -0.00483   0.00000   0.01034   0.00686   1.81253
   A20        1.80053   0.00984   0.00000   0.01499   0.01347   1.81400
   A21        1.93192   0.00160   0.00000   0.01184   0.00912   1.94104
   A22        1.98553  -0.00489   0.00000  -0.03191  -0.03005   1.95548
   A23        1.90711   0.02076   0.00000   0.13195   0.13098   2.03808
   A24        2.01813  -0.02157   0.00000  -0.12961  -0.12886   1.88927
   A25        1.89311  -0.00004   0.00000  -0.00025  -0.00025   1.89286
   A26        1.93812   0.00399   0.00000   0.03920   0.03962   1.97774
   A27        1.97681   0.00052   0.00000  -0.01803  -0.01947   1.95733
   A28        1.94992  -0.00718   0.00000  -0.05164  -0.05465   1.89527
   A29        1.76649  -0.00288   0.00000  -0.00435  -0.00388   1.76261
   A30        1.87288   0.00808   0.00000   0.07810   0.07886   1.95174
   A31        1.94890  -0.00131   0.00000  -0.03017  -0.03206   1.91684
   A32        1.99803   0.00176   0.00000   0.00302   0.00269   2.00072
   A33        2.12476   0.00013   0.00000   0.00498   0.00515   2.12991
   A34        2.13487  -0.00173   0.00000  -0.00650  -0.00637   2.12850
   A35        1.91525   0.00056   0.00000  -0.00143  -0.00173   1.91352
   A36        2.25451   0.00127   0.00000   0.00665   0.00685   2.26137
   A37        2.11335  -0.00183   0.00000  -0.00521  -0.00511   2.10824
   A38        1.85526  -0.00082   0.00000  -0.00301  -0.00297   1.85229
   A39        2.19779   0.00055   0.00000   0.00205   0.00200   2.19978
   A40        2.23012   0.00027   0.00000   0.00101   0.00096   2.23109
   A41        1.88788   0.00138   0.00000   0.00554   0.00561   1.89349
   A42        2.12925   0.00047   0.00000   0.00146   0.00139   2.13063
   A43        2.26600  -0.00185   0.00000  -0.00695  -0.00695   2.25905
   A44        2.05119   0.00057   0.00000   0.00210   0.00205   2.05323
   A45        2.11936   0.00106   0.00000   0.00654   0.00656   2.12593
   A46        2.11263  -0.00163   0.00000  -0.00862  -0.00860   2.10403
   A47        2.11686   0.00045   0.00000   0.00130   0.00130   2.11816
   A48        2.08409  -0.00026   0.00000  -0.00088  -0.00088   2.08322
   A49        2.08222  -0.00018   0.00000  -0.00042  -0.00042   2.08180
   A50        2.10759  -0.00018   0.00000  -0.00140  -0.00138   2.10620
   A51        2.08487   0.00011   0.00000   0.00083   0.00082   2.08568
   A52        2.09073   0.00007   0.00000   0.00058   0.00057   2.09130
   A53        2.04813   0.00052   0.00000   0.00175   0.00176   2.04989
   A54        2.11381  -0.00030   0.00000  -0.00107  -0.00107   2.11275
   A55        2.12124  -0.00023   0.00000  -0.00068  -0.00069   2.12055
   A56        1.90359  -0.00147   0.00000  -0.00831  -0.00831   1.89527
    D1        3.13481   0.00019   0.00000   0.00541   0.00542   3.14024
    D2       -0.00101   0.00007   0.00000   0.00198   0.00198   0.00097
    D3        0.00456   0.00021   0.00000   0.00523   0.00524   0.00980
    D4       -3.13127   0.00009   0.00000   0.00180   0.00180  -3.12947
    D5        0.00038  -0.00012   0.00000  -0.00314  -0.00314  -0.00276
    D6        3.13453   0.00067   0.00000   0.01675   0.01673  -3.13192
    D7        3.13113  -0.00008   0.00000  -0.00276  -0.00276   3.12837
    D8       -0.01791   0.00070   0.00000   0.01712   0.01711  -0.00080
    D9        1.01062   0.00818   0.00000   0.04477   0.04487   1.05549
   D10        3.08374   0.00482   0.00000   0.01972   0.01987   3.10361
   D11       -1.03041  -0.01409   0.00000  -0.11990  -0.12014  -1.15055
   D12       -2.11965   0.00819   0.00000   0.04452   0.04462  -2.07503
   D13       -0.04653   0.00482   0.00000   0.01946   0.01961  -0.02692
   D14        2.12251  -0.01408   0.00000  -0.12015  -0.12040   2.00211
   D15       -3.14079   0.00004   0.00000   0.00071   0.00067  -3.14012
   D16       -0.00037   0.00001   0.00000   0.00033   0.00031  -0.00005
   D17        0.00633  -0.00010   0.00000  -0.00266  -0.00266   0.00367
   D18       -3.13642  -0.00013   0.00000  -0.00304  -0.00302  -3.13945
   D19        0.00240  -0.00005   0.00000  -0.00152  -0.00152   0.00088
   D20       -3.13651   0.00040   0.00000   0.00969   0.00962  -3.12689
   D21       -3.14036  -0.00007   0.00000  -0.00190  -0.00188   3.14094
   D22        0.00391   0.00037   0.00000   0.00931   0.00926   0.01317
   D23       -0.00301   0.00000   0.00000   0.00040   0.00041  -0.00261
   D24       -3.11792  -0.00002   0.00000  -0.00244  -0.00246  -3.12038
   D25        3.13586  -0.00046   0.00000  -0.01102  -0.01106   3.12480
   D26        0.02096  -0.00048   0.00000  -0.01386  -0.01393   0.00703
   D27        0.00163   0.00008   0.00000   0.00198   0.00197   0.00359
   D28       -3.13239  -0.00072   0.00000  -0.01828  -0.01827   3.13253
   D29        3.11714   0.00028   0.00000   0.00543   0.00537   3.12252
   D30       -0.01687  -0.00052   0.00000  -0.01482  -0.01486  -0.03173
   D31       -0.14778   0.00115   0.00000  -0.05964  -0.05996  -0.20774
   D32        1.82604   0.00040   0.00000  -0.05114  -0.05196   1.77408
   D33       -2.23808  -0.00699   0.00000  -0.15068  -0.14955  -2.38764
   D34        3.02044   0.00107   0.00000  -0.06270  -0.06301   2.95743
   D35       -1.28892   0.00032   0.00000  -0.05420  -0.05501  -1.34393
   D36        0.93014  -0.00707   0.00000  -0.15373  -0.15261   0.77753
   D37        0.74185   0.00504   0.00000   0.10446   0.10556   0.84741
   D38       -1.23563  -0.00171   0.00000   0.01150   0.00764  -1.22799
   D39        2.78074   0.00457   0.00000   0.04618   0.04894   2.82968
   D40        2.05698   0.00092   0.00000  -0.01465  -0.01583   2.04114
   D41       -0.84897   0.00041   0.00000  -0.02054  -0.02170  -0.87067
   D42       -0.04632   0.00011   0.00000  -0.00911  -0.00910  -0.05542
   D43       -2.95227  -0.00040   0.00000  -0.01500  -0.01497  -2.96724
   D44       -2.09057  -0.00022   0.00000  -0.00337  -0.00238  -2.09295
   D45        1.28667  -0.00073   0.00000  -0.00925  -0.00825   1.27842
   D46       -2.06387  -0.00340   0.00000  -0.02541  -0.02539  -2.08926
   D47        1.09095  -0.00358   0.00000  -0.02648  -0.02643   1.06452
[...]
 0.00010757,-0.00004415,-0.00006717,-0.00004438,0.00004387,-0.00007277,
 -0.00002794,-0.00000912,0.00000694,0.00000515,0.00002505,-0.00003196,-
 0.00001904,-0.00378414,0.00487282,-0.00892957,-0.01430141,-0.03508154,
 0.05477018,-0.00016760,0.00219050,0.00114464,-0.00224156,-0.00486262,-
 0.00876142,0.00448357,0.00034854,0.00101704,-0.00350719,0.00275218,0.0
 0155973,0.00109280,0.00044313,-0.00073140,-0.00011881,0.00019658,0.000
 43279,-0.00027619,-0.00058501,-0.00025911,0.00077448,0.00050194,-0.000
 60744,0.00008283,0.00028287,0.00007916,-0.00043518,-0.00021683,-0.0003
 2743,0.01749655,-0.00024401,-0.00008625,0.00013503,0.00007259,0.000185
 06,0.00012387,-0.00009070,0.00000279,0.00003298,0.00019498,0.00000933,
 -0.00004051,-0.00001740,0.00000124,-0.00000040,-0.00001899,-0.00001548
 ,-0.00007245,-0.00044377,0.00076900,0.00013005,0.00009098,-0.00006925,
 -0.00030701,0.00003098,-0.00015313,-0.00014140,-0.00002155,0.00001249,
 0.00009010,0.00002055,0.00005124,0.00003783,-0.00003743,0.00005713,0.0
 0001803,0.00000756,-0.00000676,-0.00000392,-0.00000530,0.00002221,-0.0
 0001467,-0.00437226,-0.01079268,0.01631539,-0.02542007,-0.30726930,0.1
 8445552,0.00121989,-0.00276402,-0.00167542,-0.00061991,0.01298632,0.00
 005547,0.00035992,0.00031782,-0.00319690,0.00029806,-0.00321731,-0.000
 87270,0.00005743,0.00018134,0.00108719,0.00005602,-0.00025377,-0.00034
 910,-0.00001586,0.00038798,-0.00005468,-0.00012368,0.00052684,0.000431
 45,-0.00064178,0.00099057,-0.00094901,0.00033600,0.00000553,0.00018146
 ,0.02946514,0.30817018,0.00000472,-0.00010416,-0.00013262,-0.00003049,
 0.00002779,0.00001342,0.00010368,-0.00000792,-0.00004138,0.00005985,-0
 .00003153,-0.00010183,0.00004508,-0.00001973,0.00000534,0.00023835,0.0
 0019754,0.00019337,-0.00092822,-0.00011217,0.00037323,0.00024518,0.000
 00810,-0.00015547,-0.00001493,0.00016212,0.00019707,0.00002226,-0.0000
 0117,-0.00011269,-0.00003265,-0.00006015,-0.00005415,0.00004986,-0.000
 07399,-0.00002750,-0.00000968,0.00000745,0.00000485,0.00001246,-0.0000
 1955,0.00002660,-0.00339895,-0.00828572,0.01275871,0.03982814,0.180198
 06,-0.19824298,0.00163103,-0.00418077,-0.00133556,0.00245733,0.0271808
 7,-0.01611554,0.00122240,-0.00140159,-0.00494830,-0.00204136,0.0000967
 6,0.00541656,0.00012475,0.00029639,0.00106357,-0.00002391,-0.00035546,
 0.00022765,0.00011071,-0.00028975,-0.00052200,-0.00027832,0.00159093,0
 .00020533,-0.00060981,0.00058916,-0.00106344,-0.00021871,-0.00019488,-
 0.00014587,-0.03860069,-0.19545524,0.20236151,-0.00021822,-0.00002266,
 0.00001826,0.00005972,0.00012599,0.00010270,-0.00000574,-0.00000766,0.
 00000342,0.00010243,-0.00006503,-0.00009395,0.00000210,-0.00000596,0.0
 0000561,-0.00023558,-0.00002081,-0.00006072,0.00038521,0.00007966,0.00
 021281,-0.00001037,0.00013981,0.00001021,0.00000934,-0.00003356,-0.000
 01961,-0.00000433,0.00000488,0.00000347,0.00000479,0.00000874,-0.00000
 944,-0.00001368,0.00001640,-0.00000277,-0.00000133,0.00000070,-0.00000
 098,-0.00000297,-0.00008036,0.00004893,-0.00344771,-0.00093523,0.00037
 395,0.00000738,0.00013944,-0.00017054,0.00277642,0.00281635,0.00312185
 ,0.00028016,-0.00002934,0.00030222,0.00739779,0.00171680,0.00041589,-0
 .00025997,0.00013670,-0.00006266,-0.05614769,0.04655600,0.05370526,0.0
 0362849,0.00183752,0.00111365,0.00722637,0.00096989,0.00129155,-0.0007
 6211,-0.00027942,-0.00009503,-0.00023660,-0.00015309,-0.00088415,-0.00
 000407,-0.00000798,0.00000039,0.00004129,0.00001048,0.00001676,0.04469
 695,-0.00005154,0.00000728,0.00000409,0.00000861,0.00003639,0.00003506
 ,-0.00000304,-0.00000088,0.00000176,0.00004666,-0.00001264,-0.00002650
 ,-0.00000067,-0.00000271,0.00000132,-0.00010250,-0.00002258,-0.0000108
 1,-0.00008141,-0.00014858,0.00031567,-0.00013887,-0.00008055,0.0001124
 1,-0.00001218,-0.00000090,0.00001934,0.00000156,0.00000139,-0.00000188
 ,-0.00000107,-0.00000542,-0.00000617,0.00000399,-0.00000203,-0.0000020
 6,-0.00000044,0.00000028,0.00000140,-0.00001710,-0.00000335,0.00004150
 ,-0.00083155,0.00080696,-0.00104272,-0.00000156,-0.00004194,0.00017020
 ,0.00696798,-0.01378258,-0.02303991,0.00019357,0.00050110,-0.00168683,
 0.00166085,-0.00394271,0.00315952,0.00015103,-0.00122047,0.00013984,0.
 04724349,-0.17642825,-0.13627828,-0.00289662,0.01136518,0.00940836,0.0
 0096010,0.00012732,0.00281457,-0.00020516,-0.00037788,0.00070795,0.000
 24846,0.00014091,0.00038191,0.00001749,0.00000231,0.00000434,-0.000014
 59,0.00003376,0.00003343,-0.05199425,0.18217353,0.00004652,0.00001319,
 -0.00004834,-0.00000728,-0.00004602,-0.00000152,-0.00002115,0.00000319
 ,0.00000623,-0.00001753,0.00002502,0.00001356,-0.00000470,0.00000402,-
 0.00000224,0.00000667,0.00000544,0.00001619,-0.00015879,-0.00008537,0.
 00016955,0.00000080,-0.00006327,-0.00005821,0.00001759,-0.00001056,0.0
 0000527,-0.00000394,-0.00000083,0.00000506,-0.00001540,-0.00000100,0.0
 0001721,-0.00000644,0.00000609,-0.00000235,0.00000004,-0.00000055,0.00
 000094,-0.00000953,0.00005568,-0.00010086,-0.00044252,-0.00041193,-0.0
 0059735,0.00000244,-0.00019789,0.00026615,-0.00180560,0.00402726,0.010
 19522,-0.00014505,0.00043283,0.00042252,0.00073846,0.00212217,0.000516
 30,-0.00002933,0.00014475,-0.00011368,0.05316991,-0.13415056,-0.214877
 09,0.00666094,-0.01964468,-0.01522616,0.00115712,0.00336680,-0.0034617
 4,-0.00018785,0.00058038,-0.00027437,0.00032322,-0.00008228,0.00014603
 ,0.00000613,-0.00000586,0.00000608,0.00001336,-0.00002323,-0.00003806,
 -0.05843824,0.14521375,0.22241420,0.00001286,0.00001106,-0.00000833,-0
 .00000249,-0.00001486,-0.00001606,-0.00000337,-0.00000033,0.00000155,-
 0.00001859,0.00001150,0.00001277,-0.00000022,-0.00000052,0.00000066,0.
 00002647,0.00000274,-0.00000439,-0.00003633,-0.00005928,0.00011497,-0.
 00000904,-0.00001531,0.00001985,0.00000616,-0.00000423,0.00000536,-0.0
 0000082,0.00000145,-0.00000194,-0.00000271,0.00000035,-0.00000208,-0.0
 0000239,0.00000215,-0.00000321,0.00000004,-0.00000030,0.00000090,0.000
 00046,-0.00000045,0.00000187,0.00026242,-0.00004845,0.00001823,-0.0000
 1156,-0.00001010,0.00004584,0.00700161,0.00077387,0.00176972,-0.000923
 53,-0.00019028,-0.00018515,-0.00072766,-0.00017496,0.00017019,0.000134
 86,0.00000680,0.00001173,0.00518469,-0.00287892,0.00111581,-0.04772912
 ,0.04435554,-0.00646378,0.00365303,0.00689235,-0.00173685,0.00650532,0
 .00188725,0.00208074,-0.00003737,0.00009966,-0.00018255,0.00000002,-0.
 00000466,0.00000230,-0.00018863,-0.00006924,-0.00008185,-0.00402104,-0
 .00076395,-0.00089070,0.03505237,-0.00001974,0.00001317,-0.00000216,0.
 00000954,0.00000453,0.00000452,-0.00002546,-0.00000011,0.00000909,-0.0
 0000311,0.00000505,-0.00000764,-0.00000599,-0.00000053,0.00000200,-0.0
 0001759,0.00000862,0.00002348,0.00009348,-0.00003468,0.00004594,-0.000
 02230,-0.00002343,0.00000311,0.00000874,-0.00003580,-0.00002998,-0.000
 00466,0.00000347,0.00001624,0.00000373,0.00001351,0.00001008,-0.000010
 49,0.00001530,0.00000277,0.00000135,-0.00000136,-0.00000082,0.00000102
 ,-0.00000644,-0.00000108,0.00002269,0.00005742,-0.00065062,-0.00000011
 ,-0.00024173,0.00021219,0.00084884,0.00120042,0.00181673,-0.00024347,0
 .00029327,0.00005712,-0.00014797,0.00044207,-0.00043013,0.00007274,-0.
 00025266,-0.00005384,0.00165613,-0.00406377,-0.00009002,0.04431788,-0.
 33252325,0.06043032,0.00237110,-0.01330468,0.00595732,0.00184435,-0.00
 041163,-0.00297051,0.00012127,0.00001706,0.00019583,0.00000860,-0.0000
 0060,0.00000160,-0.00001751,-0.00001946,-0.00004522,-0.00085815,0.0004
 3115,-0.00011790,-0.04907598,0.34833995,0.00002187,-0.00000958,-0.0000
 0809,-0.00001084,-0.00001036,-0.00001157,0.00003133,-0.00000022,-0.000
 00951,-0.00000227,0.00000349,0.00001363,0.00000839,-0.00000010,-0.0000
 0265,0.00005363,-0.00001303,-0.00002786,-0.00022069,0.00000156,0.00010
 992,0.00003488,0.00000438,0.00000654,-0.00000382,0.00004818,0.00003955
 ,0.00000399,-0.00000444,-0.00002072,-0.00000803,-0.00001904,-0.0000113
 4,0.00001121,-0.00001976,-0.00000371,-0.00000199,0.00000187,0.00000131
 ,-0.00000069,0.00000761,0.00000104,-0.00007582,0.00102219,0.00089543,0
 .00000558,0.00043872,-0.00036937,0.00172953,0.00178666,-0.00537046,-0.
 00008415,-0.00014889,-0.00022411,0.00012799,-0.00029237,-0.00112056,-0
 .00002419,0.00019075,0.00013414,-0.00433168,0.02912271,-0.00198615,-0.
 00648211,0.06044926,-0.07178424,0.00372927,-0.02368684,0.00879111,0.00
 208512,-0.00279767,-0.00310369,-0.00018840,-0.00006668,-0.00021221,-0.
 00001046,-0.00000203,-0.00000107,-0.00010005,0.00008618,0.00011417,-0.
 00075106,-0.00077465,0.00136921,0.00515602,-0.06473741,0.07147503,-0.0
 0005009,-0.00000262,-0.00000624,0.00001405,0.00003250,0.00003313,-0.00
 000674,-0.00000117,0.00000181,0.00003362,-0.00001182,-0.00003148,0.000
 00027,-0.00000210,0.00000118,-0.00006365,-0.00000859,-0.00000423,0.000
 07187,0.00002363,0.00007582,0.00001116,0.00002030,-0.00000821,0.000002
 99,-0.00000847,-0.00000947,-0.00000128,0.00000077,0.00000369,-0.000000
 21,0.00000283,0.00000210,-0.00000368,0.00000528,0.00000050,0.00000056,
 -0.00000061,0.,0.00000064,-0.00001440,0.00000732,-0.00081914,-0.000183
 10,-0.00002776,-0.00023550,0.00011036,-0.00001193,-0.00068875,0.000135
 36,-0.00004670,0.00060413,-0.00004193,-0.00028791,0.00688927,0.0022676
 5,0.00080169,0.00001054,0.00006514,0.00006711,0.00636670,0.00211480,0.
 00183455,0.00335391,-0.00265591,0.00675814,-0.04212412,-0.00480846,0.0
 2491082,0.00444529,0.00195856,-0.00469749,-0.00001570,-0.00007120,-0.0
 0017672,-0.00000277,-0.00000360,0.00000236,-0.00010255,-0.00003247,-0.
 00002175,-0.00009937,-0.00015015,0.00029450,-0.00390236,-0.00091060,-0
 .00089731,0.03037649,-0.00001801,0.00000434,0.00000463,0.00000682,0.00
 000703,0.00001281,-0.00000943,-0.00000004,0.00000334,0.00000644,0.0000
 0460,-0.00001389,-0.00000247,-0.00000031,0.00000086,-0.00002297,-0.000
 00939,0.00001003,0.00003186,0.00003083,0.00001450,-0.00001832,-0.00000
 158,0.00000083,0.00000146,-0.00001454,-0.00001345,-0.00000173,0.000000
 78,0.00000749,0.00000195,0.00000574,0.00000389,-0.00000385,0.00000624,
 0.00000144,0.00000070,-0.00000054,-0.00000035,-0.00000007,-0.00000296,
 0.00000100,-0.00017927,-0.00014780,-0.00008556,-0.00001491,-0.00057835
 ,0.00056180,0.00012455,-0.00095118,-0.00046131,-0.00030725,0.00137857,
 0.00106874,0.00231965,-0.00555316,0.00057073,0.00012364,-0.00054855,-0
 .00019303,0.00212353,-0.00212993,-0.00281586,0.00189625,0.01059945,-0.
 02059476,-0.00478106,-0.09278287,0.09515742,-0.00265272,-0.00595704,0.
 02905555,0.00006080,0.00005891,0.00007891,0.00001324,0.00000470,0.0000
 0180,-0.00004504,0.00009759,0.00013318,0.00007935,0.00041921,-0.000984
 22,-0.00100508,0.00076592,0.00059042,0.00324798,0.09392330,-0.00000198
 ,-0.00000744,-0.00000344,-0.00000364,0.00000369,0.00000552,0.00001416,
 -0.00000018,-0.00000515,0.00000920,-0.00000484,-0.00000231,0.00000391,
 -0.00000017,-0.00000086,-0.00000126,-0.00000315,-0.00001118,-0.0000626
 8,0.00000185,0.00002378,0.00001929,0.00001211,-0.00000665,-0.00000695,
 0.00001792,0.00002237,0.00000337,-0.00000051,-0.00001219,-0.00000142,-
 0.00000699,-0.00000680,0.00000650,-0.00000851,-0.00000306,-0.00000102,
 0.00000105,0.00000074,-0.00000005,0.00000082,0.00000375,-0.00009193,0.
 00005756,0.00016563,-0.00005337,0.00021358,-0.00025263,0.00000764,-0.0
 0076866,0.00029210,0.00022673,-0.00087384,0.00016739,0.00074134,0.0010
 2555,0.00145159,-0.00007106,0.00038691,0.00007064,0.00185322,-0.003138
 35,-0.00128372,0.00132313,0.00935551,-0.01591181,0.02488111,0.09504213
 ,-0.31536616,0.00071877,-0.00038663,-0.00004325,-0.00006728,-0.0000203
 4,-0.00013019,-0.00000918,-0.00000176,-0.00000023,-0.00001127,-0.00002
 633,0.00000777,0.00002769,0.00052260,-0.00080360,-0.00079694,0.0000071
 4,0.00094726,-0.02794086,-0.10143281,0.33027935,-0.00004662,-0.0000236
 2,0.00001601,0.00001631,0.00003038,0.00002755,0.00000384,0.00000033,-0
 .00000278,0.00002104,-0.00002046,-0.00002014,0.00000019,-0.00000104,0.
 00000130,-0.00003979,0.00002894,0.00002388,-0.00003969,0.00009400,-0.0
 0006424,0.00004032,-0.00001991,-0.00004769,-0.00000083,0.00000497,0.00
 000488,-0.00000122,0.00000057,-0.00000302,-0.00000147,-0.00000225,-0.0
 0000255,-0.00000041,-0.00000082,-0.00000124,-0.00000006,0.00000016,0.0
 0000054,0.00000170,0.00000025,-0.00000435,0.00022304,0.00019918,-0.000
 23237,0.00019169,0.00020007,0.00017195,0.00700413,0.00084887,0.0012036
 2,-0.00417580,-0.00030612,-0.00079151,0.00313222,0.00133658,0.00185489
 ,0.00047672,-0.00028726,0.00000635,-0.00092935,-0.00016363,-0.00028419
 ,0.00730437,0.00186062,0.00066183,0.00387610,0.00209777,0.00348857,-0.
 05657458,0.04739317,0.05262660,0.00014533,-0.00020102,0.00033863,-0.00
 000400,0.00000439,-0.00000663,0.00017937,-0.00000726,0.00002964,-0.001
 24217,-0.00021605,-0.00018406,-0.00023298,0.00003583,0.00012862,-0.004
 08946,-0.00096542,-0.00074873,0.04481109,0.00000491,-0.00000229,-0.000
 00252,-0.00000319,-0.00000272,-0.00000510,-0.00000593,-0.00000013,0.00
 000205,-0.00000228,-0.00000372,0.00000775,-0.00000145,0.00000007,0.000
 00065,-0.00002054,0.00001593,-0.00001071,0.00006557,-0.00006750,-0.000
 02625,-0.00000357,0.00001364,0.00000645,0.00000131,-0.00000482,-0.0000
 0256,-0.00000055,0.00000054,0.00000134,0.00000059,0.00000254,0.0000004
 1,-0.00000054,0.00000177,-0.00000011,0.00000021,-0.00000026,0.00000007
 ,0.00000092,-0.00000252,0.00000072,-0.00022727,0.00052382,0.00038518,-
 0.00000340,0.00023870,-0.00035157,0.00093984,-0.00013955,0.00280307,-0
 .00048782,-0.00095254,-0.00071074,-0.00281524,0.01235655,0.00729248,0.
 00000322,0.00058382,0.00001413,-0.00018860,-0.00038336,0.00048945,0.00
 179951,-0.00414701,0.00277432,0.00679506,-0.01252487,-0.02288813,0.046
 93346,-0.17826651,-0.13540881,0.00014315,-0.00010025,0.00019807,-0.000
 00244,-0.00000302,0.00000178,0.00004926,-0.00003777,-0.00002914,-0.000
 22526,0.00004454,-0.00018362,0.00026025,-0.00070016,-0.00115097,-0.001
 09162,0.00138207,0.00003127,-0.05190277,0.18216230,0.00002087,-0.00002
 194,0.00000545,-0.00001097,-0.00000264,0.00000284,0.00004676,0.0000006
 3,-0.00001667,0.00001322,-0.00000714,0.00000432,0.00001224,-0.00000016
 ,-0.00000345,0.00004691,-0.00002739,-0.00003588,-0.00022547,0.00019925
 ,-0.00010536,0.00005946,0.00000906,-0.00001759,-0.00001186,0.00005337,
 0.00005893,0.00000709,-0.00000173,-0.00003204,-0.00000627,-0.00002212,
 -0.00001744,0.00001556,-0.00002445,-0.00000754,-0.00000308,0.00000317,
 0.00000193,-0.00000261,0.00001403,-0.00000244,0.00059047,-0.00117122,-
 0.00021355,0.00005095,0.00004433,-0.00004171,0.00094354,0.00369004,-0.
 00315414,-0.00050811,-0.00171150,0.00093597,0.00678347,-0.01971375,-0.
 01603866,-0.00013323,0.00095048,0.00029610,-0.00023434,0.00055585,-0.0
 0015343,0.00066660,0.00227720,0.00067553,-0.00190646,0.00603206,0.0098
 8667,0.05313548,-0.13745296,-0.21606726,-0.00032264,0.00006342,-0.0005
 6751,-0.00001571,0.00000485,-0.00000558,0.00000692,0.00002833,0.000030
 05,-0.00016719,-0.00020554,0.00002237,-0.00014559,0.00037117,0.0003455
 9,-0.00061956,-0.00067477,0.00039128,-0.05818407,0.14676348,0.22378290
 ,0.00000583,0.00004658,-0.00009022,0.00001148,0.00000128,-0.00001183,0
 .00002659,0.00000502,0.00000244,-0.00004792,-0.00019703,-0.00010297,-0
 .00002876,0.00000059,0.00004411,-0.00034347,0.00048597,0.00028032,-0.0
 0166651,-0.00184444,-0.00258417,0.00049270,-0.00039921,-0.00023133,-0.
 00002569,0.00003429,0.00006937,0.00001131,-0.00000148,-0.00002557,0.00
 000466,-0.00001164,-0.00001711,0.00001897,-0.00002320,-0.00000893,-0.0
 0000224,0.00000136,0.00000263,-0.00003583,0.00003535,0.00010385,-0.026
 73696,-0.00420795,0.00972248,0.00198157,0.00162019,0.00220661,0.001215
 65,0.00129710,0.00021810,0.00085675,-0.00086887,-0.00151542,0.00024316
 ,-0.00016059,-0.00009271,-0.00055470,0.00108763,0.00083181,-0.00000254
 ,0.00025029,0.00029752,-0.00013476,-0.00012675,-0.00035812,-0.00003615
 ,0.00024045,0.00034121,-0.00034250,-0.00024153,0.00029286,-0.39702060,
 -0.06148581,0.15912112,0.00002042,-0.00003909,-0.00004483,-0.00009341,
 -0.00003891,0.00008913,0.00009452,-0.00002109,-0.00006956,0.00000986,-
 0.00005414,0.00006615,0.00002386,-0.00001060,0.00003355,-0.00004904,-0
 .00001480,0.00009762,0.42210379,0.00018754,0.00009610,0.00016606,0.000
 01049,-0.00003840,-0.00014424,0.00002177,0.00003283,-0.00000494,-0.000
 01653,-0.00009835,0.00019142,-0.00000040,-0.00002274,0.00003185,-0.000
 04941,0.00044339,-0.00000292,-0.00092625,0.00039033,-0.00206675,0.0004
 9670,-0.00038777,-0.00011423,-0.00004537,0.00012202,0.00010554,0.00002
 084,-0.00000599,-0.00005934,-0.00000706,-0.00005923,-0.00004744,0.0000
 3679,-0.00005120,-0.00000611,-0.00000500,0.00000172,-0.00000130,0.0000
 7942,0.00038126,0.00031594,-0.01831993,-0.00585011,0.00391971,0.000910
 99,0.00049802,0.00270851,0.00073756,0.00017496,0.00010549,0.00043786,-
 0.00021474,-0.00285971,0.00007337,0.00016017,0.00003850,-0.00036415,0.
 00089407,0.00105863,-0.00001755,-0.00006738,-0.00023644,-0.00016277,0.
 00000701,0.00023414,0.00008372,-0.00020429,-0.00005419,-0.00001619,0.0
 0001246,-0.00028504,-0.04768554,-0.01566768,0.00781199,-0.00000872,0.0
 0002381,-0.00005929,-0.00020043,-0.00012322,0.00014637,0.00008004,-0.0
 0001785,0.00000922,0.00001194,0.00000937,-0.00001996,0.00001366,-0.000
 01106,0.00000084,-0.00001846,0.00001272,-0.00002337,0.06464106,0.01955
 976,-0.00012406,-0.00007956,0.00029612,0.00009594,0.00017046,0.0000390
 1,-0.00006216,0.00002204,0.00001631,0.00000111,-0.00043804,-0.00018866
 ,-0.00012190,0.00003379,0.00002387,-0.00135088,0.00017751,0.00092507,-
 0.00254711,-0.00240321,-0.00360720,0.00041740,-0.00030497,-0.00026149,
 -0.00000387,-0.00007830,-0.00005293,-0.00000998,0.00001153,0.00004518,
 0.00001821,0.00001894,0.00001099,-0.00001426,0.00003051,0.00000437,0.0
 0000411,-0.00000511,-0.00000195,0.00007878,0.00030975,0.00007494,-0.03
 558894,-0.00530965,0.00830388,0.00069242,-0.00061458,-0.00037952,-0.00
 185356,0.00005222,0.00028652,0.00006006,-0.00081364,-0.00008995,0.0001
 4782,-0.00014083,-0.00030244,-0.00008449,0.00032239,-0.00000600,0.0001
 2195,0.00037521,0.00009058,0.00007973,0.00004422,-0.00010128,-0.000087
 99,0.00009412,0.00017579,0.00005308,-0.00014748,0.00014333,0.20862868,
 0.01957505,-0.13300706,0.00004675,0.00003725,-0.00003472,0.00011302,-0
 .00002590,0.00003817,-0.00001829,-0.00001368,0.00001348,-0.00000908,-0
 .00002930,0.00002339,-0.00000710,-0.00000933,0.00001406,-0.00000729,-0
 .00000245,0.00004030,-0.16866812,-0.01085896,0.12746783\\-0.00002411,-
 0.00000997,0.00000368,0.00000721,0.00003066,0.00000668,-0.00001744,-0.
 00000042,-0.00000956,0.00000390,-0.00000487,-0.00001890,-0.00000523,0.
 00000606,-0.00000727,-0.00001549,0.00000220,-0.00000180,0.00000354,0.0
 0001616,0.00000670,0.00001597,-0.00000315,-0.00000979,-0.00002404,0.00
 005412,-0.00001387,-0.00000954,-0.00003200,0.00000964,0.00001795,-0.00
 002609,-0.00001833,-0.00000825,-0.00001218,-0.00000891,-0.00000607,0.0
 0000802,-0.00001907,-0.00000527,0.00000337,0.00000874,-0.00000584,0.00
 003828,0.00000884,0.00000133,-0.00003849,-0.00003356,0.00000322,-0.000
 02040,0.00002152,-0.00000783,0.00002684,0.00005057,0.00000909,0.000000
 84,-0.00000906,0.00000788,-0.00002863,-0.00002072,0.00000300,0.0000033
 3,-0.00000224,0.00001003,0.00000074,0.00001448,0.00001212,-0.00000148,
 0.00000453,0.00000504,-0.00000009,-0.00000262,-0.00000686,-0.00000822,
 0.00000755,0.00000036,0.00000118,-0.00000502,-0.00000425,-0.00000041,0
 .00001015,0.00000506,0.00000088,0.00000365,0.00001183,0.00000026,0.000
 00586,0.00001534,0.00000128,0.00000592,0.00001125,-0.00000112,0.000007
 85,-0.00000390,-0.00000670,0.00000435\\\@
 The archive entry for this job was punched.


 CLIMB THE MOUNTAINS AND GET THEIR GOOD TIDINGS.
 NATURE'S PEACE WILL FLOW INTO YOU AS SUNSHINE FLOWS INTO TREES.
 THE WINDS WILL BLOW THEIR OWN FRESHNESS INTO YOU, 
 AND CARES WILL DROP OFF LIKE AUTUMN LEAVES.

                                         -- JOHN MUIR
 Job cpu time:       0 days  5 hours 15 minutes 30.1 seconds.
 Elapsed time:       0 days  0 hours 19 minutes 55.0 seconds.
 File lengths (MBytes):  RWF=    824 Int=      0 D2E=      0 Chk=     28 Scr=      1
 Normal termination of Gaussian 16 at Fri Jul  1 23:25:02 2022.
