 Entering Gaussian System, Link 0=g16
 AtFile(1): /home/561/yj5695/Basis/6-31pGd.gbs
 Initial command:
 /apps/gaussian/g16c01/g16/l1.exe "/jobfs/50077364.gadi-pbs/Gau-794701.inp" -scrdir="/jobfs/50077364.gadi-pbs/"
 Entering Link 1 = /apps/gaussian/g16c01/g16/l1.exe PID=    794717.
  
 Copyright (c) 1988-2019, Gaussian, Inc.  All Rights Reserved.
  
 This is part of the Gaussian(R) 16 program.  It is based on
 the Gaussian(R) 09 system (copyright 2009, Gaussian, Inc.),
 the Gaussian(R) 03 system (copyright 2003, Gaussian, Inc.),
 the Gaussian(R) 98 system (copyright 1998, Gaussian, Inc.),
 the Gaussian(R) 94 system (copyright 1995, Gaussian, Inc.),
 the Gaussian 92(TM) system (copyright 1992, Gaussian, Inc.),
 the Gaussian 90(TM) system (copyright 1990, Gaussian, Inc.),
 the Gaussian 88(TM) system (copyright 1988, Gaussian, Inc.),
 the Gaussian 86(TM) system (copyright 1986, Carnegie Mellon
 University), and the Gaussian 82(TM) system (copyright 1983,
 Carnegie Mellon University). Gaussian is a federally registered
 trademark of Gaussian, Inc.
  
 This software contains proprietary and confidential information,
 including trade secrets, belonging to Gaussian, Inc.
  
 This software is provided under written license and may be
 used, copied, transmitted, or stored only in accord with that
 written license.
  
 The following legend is applicable only to US Government
 contracts under FAR:
  
                    RESTRICTED RIGHTS LEGEND
  
 Use, reproduction and disclosure by the US Government is
 subject to restrictions as set forth in subparagraphs (a)
 and (c) of the Commercial Computer Software - Restricted
 Rights clause in FAR 52.227-19.
  
 Gaussian, Inc.
 340 Quinnipiac St., Bldg. 40, Wallingford CT 06492
  
  
 ---------------------------------------------------------------
 Warning -- This program may not be used in any manner that
 competes with the business of Gaussian, Inc. or will provide
 assistance to any competitor of Gaussian, Inc.  The licensee
 of this program is prohibited from giving any competitor of
 Gaussian, Inc. access to this program.  By using this program,
 the user acknowledges that Gaussian, Inc. is engaged in the
 business of creating and licensing software in the field of
 computational chemistry and represents and warrants to the
 licensee that it is not a competitor of Gaussian, Inc. and that
 it will not use this program in any manner prohibited above.
 ---------------------------------------------------------------
  

 Cite this work as:
 Gaussian 16, Revision C.01,
 M. J. Frisch, G. W. Trucks, H. B. Schlegel, G. E. Scuseria, 
 M. A. Robb, J. R. Cheeseman, G. Scalmani, V. Barone, 
 G. A. Petersson, H. Nakatsuji, X. Li, M. Caricato, A. V. Marenich, 
 J. Bloino, B. G. Janesko, R. Gomperts, B. Mennucci, H. P. Hratchian, 
 J. V. Ortiz, A. F. Izmaylov, J. L. Sonnenberg, D. Williams-Young, 
 F. Ding, F. Lipparini, F. Egidi, J. Goings, B. Peng, A. Petrone, 
 T. Henderson, D. Ranasinghe, V. G. Zakrzewski, J. Gao, N. Rega, 
 G. Zheng, W. Liang, M. Hada, M. Ehara, K. Toyota, R. Fukuda, 
 J. Hasegawa, M. Ishida, T. Nakajima, Y. Honda, O. Kitao, H. Nakai, 
 T. Vreven, K. Throssell, J. A. Montgomery, Jr., J. E. Peralta, 
 F. Ogliaro, M. J. Bearpark, J. J. Heyd, E. N. Brothers, K. N. Kudin, 
 V. N. Staroverov, T. A. Keith, R. Kobayashi, J. Normand, 
 K. Raghavachari, A. P. Rendell, J. C. Burant, S. S. Iyengar, 
 J. Tomasi, M. Cossi, J. M. Millam, M. Klene, C. Adamo, R. Cammi, 
 J. W. Ochterski, R. L. Martin, K. Morokuma, O. Farkas, 
 J. B. Foresman, and D. J. Fox, Gaussian, Inc., Wallingford CT, 2019.
 
 ******************************************
 Gaussian 16:  ES64L-G16RevC.01  3-Jul-2019
                 2-Jul-2022 
 ******************************************
 %nproc=16
 Will use up to   16 processors via shared memory.
 %mem=50gb
 -----------------------------------------------------
 #m062X/gen 6D OPT Freq=noraman SCRF=(SMD,Solvent=h2o)
 -----------------------------------------------------
 1/18=20,19=15,26=3,38=1/1,3;
 2/9=110,12=2,17=6,18=5,40=1/2;
 3/5=7,8=2,11=2,25=1,30=1,70=32201,71=1,72=1,74=-55/1,2,3;
 4//1;
 5/5=2,38=5,53=1/2;
 6/7=2,8=2,9=2,10=2,28=1/1;
 7//1,2,3,16;
 1/18=20,19=15,26=3/3(2);
 2/9=110/2;
 99//99;
 2/9=110/2;
 3/5=7,6=1,8=2,11=2,25=1,30=1,70=32205,71=1,72=1,74=-55,82=7/1,2,3;
 4/5=5,16=3,69=1/1;
 5/5=2,38=5,53=1/2;
 7//1,2,3,16;
 1/18=20,19=15,26=3/3(-5);
 2/9=110/2;
 6/7=2,8=2,9=2,10=2,19=2,28=1/1;
 99/9=1/99;
 -----------------
 A.38.smd.a3b3.smd
 -----------------
 Symbolic Z-matrix:
 Charge = -1 Multiplicity = 1
 C                    -1.62514   1.05919  -1.11743 
 C                    -2.85898   0.90407  -1.75992 
 C                    -2.94635   0.13764  -2.92824 
 C                    -1.81916  -0.48187  -3.45697 
 C                    -0.61017  -0.31674  -2.79779 
 C                    -0.49445   0.44127  -1.63813 
 S                    -1.43399   2.04204   0.41353 
 O                    -1.87856   3.39078  -0.0104 
 O                    -2.35889   1.36395   1.36241 
 N                     0.0615    2.09463   0.83642 
 H                     0.63472   2.21034  -0.00144 
 Cl                   -4.29047   1.64398  -1.12703 
 Cl                   -4.45699  -0.06412  -3.75423 
 S                     0.83557  -1.14322  -3.43488 
 H                    -1.89411  -1.07094  -4.36569 
 H                     0.46173   0.56663  -1.14086 
 O                     0.59031  -1.43908  -4.84424 
 O                     2.00167  -0.35452  -3.04569 
 N                     0.98444  -2.59568  -2.67279 
 H                     0.19123  -3.21222  -2.86107 
 H                     1.13299  -2.48859  -1.66701 
 

 GradGradGradGradGradGradGradGradGradGradGradGradGradGradGradGradGradGrad
 Berny optimization.
 Initialization pass.
                           ----------------------------
                           !    Initial Parameters    !
                           ! (Angstroms and Degrees)  !
 --------------------------                            --------------------------
 ! Name  Definition              Value          Derivative Info.                !
 --------------------------------------------------------------------------------
 ! R1    R(1,2)                  1.3997         estimate D2E/DX2                !
 ! R2    R(1,6)                  1.3898         estimate D2E/DX2                !
 ! R3    R(1,7)                  1.8293         estimate D2E/DX2                !
 ! R4    R(2,3)                  1.4            estimate D2E/DX2                !
 ! R5    R(2,12)                 1.7312         estimate D2E/DX2                !
 ! R6    R(3,4)                  1.3906         estimate D2E/DX2                !
 ! R7    R(3,13)                 1.7335         estimate D2E/DX2                !
 ! R8    R(4,5)                  1.3869         estimate D2E/DX2                !
 ! R9    R(4,15)                 1.0855         estimate D2E/DX2                !
 ! R10   R(5,6)                  1.3902         estimate D2E/DX2                !
 ! R11   R(5,14)                 1.783          estimate D2E/DX2                !
 ! R12   R(6,16)                 1.085          estimate D2E/DX2                !
 ! R13   R(7,8)                  1.482          estimate D2E/DX2                !
 ! R14   R(7,9)                  1.4885         estimate D2E/DX2                !
 ! R15   R(7,10)                 1.555          estimate D2E/DX2                !
 ! R16   R(10,11)                1.0218         estimate D2E/DX2                !
 ! R17   R(14,17)                1.4608         estimate D2E/DX2                !
 ! R18   R(14,18)                1.4606         estimate D2E/DX2                !
 ! R19   R(14,19)                1.647          estimate D2E/DX2                !
 ! R20   R(19,20)                1.0221         estimate D2E/DX2                !
 ! R21   R(19,21)                1.0223         estimate D2E/DX2                !
 ! A1    A(2,1,6)              119.7304         estimate D2E/DX2                !
 ! A2    A(2,1,7)              122.3983         estimate D2E/DX2                !
 ! A3    A(6,1,7)              117.8682         estimate D2E/DX2                !
 ! A4    A(1,2,3)              119.9158         estimate D2E/DX2                !
 ! A5    A(1,2,12)             120.9111         estimate D2E/DX2                !
 ! A6    A(3,2,12)             119.1727         estimate D2E/DX2                !
 ! A7    A(2,3,4)              120.7027         estimate D2E/DX2                !
 ! A8    A(2,3,13)             121.0465         estimate D2E/DX2                !
 ! A9    A(4,3,13)             118.2508         estimate D2E/DX2                !
 ! A10   A(3,4,5)              118.2179         estimate D2E/DX2                !
 ! A11   A(3,4,15)             120.2689         estimate D2E/DX2                !
 ! A12   A(5,4,15)             121.5118         estimate D2E/DX2                !
 ! A13   A(4,5,6)              122.2726         estimate D2E/DX2                !
 ! A14   A(4,5,14)             118.804          estimate D2E/DX2                !
 ! A15   A(6,5,14)             118.9004         estimate D2E/DX2                !
 ! A16   A(1,6,5)              119.1588         estimate D2E/DX2                !
 ! A17   A(1,6,16)             119.5968         estimate D2E/DX2                !
 ! A18   A(5,6,16)             121.2412         estimate D2E/DX2                !
 ! A19   A(1,7,8)              102.6043         estimate D2E/DX2                !
 ! A20   A(1,7,9)              102.9332         estimate D2E/DX2                !
 ! A21   A(1,7,10)             110.259          estimate D2E/DX2                !
 ! A22   A(8,7,9)              114.2382         estimate D2E/DX2                !
 ! A23   A(8,7,10)             109.603          estimate D2E/DX2                !
 ! A24   A(9,7,10)             116.0798         estimate D2E/DX2                !
 ! A25   A(7,10,11)            108.6847         estimate D2E/DX2                !
 ! A26   A(5,14,17)            107.6062         estimate D2E/DX2                !
 ! A27   A(5,14,18)            107.5686         estimate D2E/DX2                !
 ! A28   A(5,14,19)            108.4656         estimate D2E/DX2                !
 ! A29   A(17,14,18)           120.0321         estimate D2E/DX2                !
 ! A30   A(17,14,19)           106.4384         estimate D2E/DX2                !
 ! A31   A(18,14,19)           106.3049         estimate D2E/DX2                !
 ! A32   A(14,19,20)           112.1209         estimate D2E/DX2                !
 ! A33   A(14,19,21)           112.0855         estimate D2E/DX2                !
 ! A34   A(20,19,21)           110.9261         estimate D2E/DX2                !
 ! D1    D(6,1,2,3)             -0.5273         estimate D2E/DX2                !
 ! D2    D(6,1,2,12)           179.2387         estimate D2E/DX2                !
 ! D3    D(7,1,2,3)           -179.8713         estimate D2E/DX2                !
 ! D4    D(7,1,2,12)            -0.1054         estimate D2E/DX2                !
 ! D5    D(2,1,6,5)              0.3717         estimate D2E/DX2                !
 ! D6    D(2,1,6,16)           179.7255         estimate D2E/DX2                !
 ! D7    D(7,1,6,5)            179.7452         estimate D2E/DX2                !
 ! D8    D(7,1,6,16)            -0.9009         estimate D2E/DX2                !
 ! D9    D(2,1,7,8)            -60.0171         estimate D2E/DX2                !
 ! D10   D(2,1,7,9)             58.8623         estimate D2E/DX2                !
 ! D11   D(2,1,7,10)          -176.6959         estimate D2E/DX2                !
 ! D12   D(6,1,7,8)            120.6272         estimate D2E/DX2                !
 ! D13   D(6,1,7,9)           -120.4934         estimate D2E/DX2                !
 ! D14   D(6,1,7,10)             3.9484         estimate D2E/DX2                !
 ! D15   D(1,2,3,4)              0.4138         estimate D2E/DX2                !
 ! D16   D(1,2,3,13)          -179.5391         estimate D2E/DX2                !
 ! D17   D(12,2,3,4)          -179.3562         estimate D2E/DX2                !
 ! D18   D(12,2,3,13)            0.6909         estimate D2E/DX2                !
 ! D19   D(2,3,4,5)             -0.1421         estimate D2E/DX2                !
 ! D20   D(2,3,4,15)          -179.7303         estimate D2E/DX2                !
 ! D21   D(13,3,4,5)           179.8121         estimate D2E/DX2                !
 ! D22   D(13,3,4,15)            0.2239         estimate D2E/DX2                !
 ! D23   D(3,4,5,6)             -0.014          estimate D2E/DX2                !
 ! D24   D(3,4,5,14)           178.2201         estimate D2E/DX2                !
 ! D25   D(15,4,5,6)           179.5688         estimate D2E/DX2                !
 ! D26   D(15,4,5,14)           -2.1971         estimate D2E/DX2                !
 ! D27   D(4,5,6,1)             -0.1023         estimate D2E/DX2                !
 ! D28   D(4,5,6,16)          -179.4452         estimate D2E/DX2                !
 ! D29   D(14,5,6,1)          -178.3347         estimate D2E/DX2                !
 ! D30   D(14,5,6,16)            2.3224         estimate D2E/DX2                !
 ! D31   D(4,5,14,17)           21.9347         estimate D2E/DX2                !
 ! D32   D(4,5,14,18)          152.5702         estimate D2E/DX2                !
 ! D33   D(4,5,14,19)          -92.8351         estimate D2E/DX2                !
 ! D34   D(6,5,14,17)         -159.7708         estimate D2E/DX2                !
 ! D35   D(6,5,14,18)          -29.1352         estimate D2E/DX2                !
 ! D36   D(6,5,14,19)           85.4594         estimate D2E/DX2                !
 ! D37   D(1,7,10,11)           40.3037         estimate D2E/DX2                !
 ! D38   D(8,7,10,11)          -71.929          estimate D2E/DX2                !
 ! D39   D(9,7,10,11)          156.8087         estimate D2E/DX2                !
 ! D40   D(5,14,19,20)          62.6933         estimate D2E/DX2                !
 ! D41   D(5,14,19,21)         -62.8282         estimate D2E/DX2                !
 ! D42   D(17,14,19,20)        -52.8381         estimate D2E/DX2                !
 ! D43   D(17,14,19,21)       -178.3596         estimate D2E/DX2                !
 ! D44   D(18,14,19,20)        178.113          estimate D2E/DX2                !
 ! D45   D(18,14,19,21)         52.5914         estimate D2E/DX2                !
 --------------------------------------------------------------------------------
 Trust Radius=3.00D-01 FncErr=1.00D-07 GrdErr=1.00D-06 EigMax=2.50D+02 EigMin=1.00D-04
 Number of steps in this run=    110 maximum allowed number of steps=    126.
 GradGradGradGradGradGradGradGradGradGradGradGradGradGradGradGradGradGrad

                          Input orientation:                          
 ---------------------------------------------------------------------
 Center     Atomic      Atomic             Coordinates (Angstroms)
 Number     Number       Type             X           Y           Z
 ---------------------------------------------------------------------
      1          6           0       -1.625138    1.059191   -1.117430
      2          6           0       -2.858980    0.904070   -1.759915
      3          6           0       -2.946346    0.137640   -2.928237
      4          6           0       -1.819164   -0.481869   -3.456967
      5          6           0       -0.610172   -0.316735   -2.797785
      6          6           0       -0.494448    0.441267   -1.638132
      7         16           0       -1.433987    2.042041    0.413529
      8          8           0       -1.878558    3.390780   -0.010400
      9          8           0       -2.358894    1.363947    1.362407
     10          7           0        0.061499    2.094630    0.836424
     11          1           0        0.634721    2.210342   -0.001437
     12         17           0       -4.290466    1.643980   -1.127032
     13         17           0       -4.456987   -0.064123   -3.754228
     14         16           0        0.835574   -1.143218   -3.434884
     15          1           0       -1.894110   -1.070942   -4.365685
     16          1           0        0.461734    0.566626   -1.140859
     17          8           0        0.590313   -1.439080   -4.844235
     18          8           0        2.001672   -0.354518   -3.045695
     19          7           0        0.984444   -2.595680   -2.672788
     20          1           0        0.191225   -3.212218   -2.861066
     21          1           0        1.132986   -2.488592   -1.667008
 ---------------------------------------------------------------------
                    Distance matrix (angstroms):
                    1          2          3          4          5
     1  C    0.000000
     2  C    1.399720   0.000000
     3  C    2.423607   1.400009   0.000000
     4  C    2.808193   2.425290   1.390642   0.000000
     5  C    2.397274   2.761282   2.383523   1.386886   0.000000
     6  C    1.389756   2.412474   2.787179   2.432121   1.390235
     7  S    1.829308   2.837154   4.132962   4.636725   4.068788
     8  O    2.593462   3.194645   4.498540   5.184570   4.808741
     9  O    2.604010   3.195382   4.500950   5.188903   4.815591
    10  N    2.781083   4.085047   5.200924   5.348686   4.412856
    11  H    2.770840   4.123656   5.068165   5.020980   3.969312
    12  Cl   2.728744   1.731231   2.705561   4.006890   4.492258
    13  Cl   4.029132   2.732821   1.733495   2.687189   3.971975
    14  S    4.034390   4.543857   4.024948   2.735965   1.783017
    15  H    3.893709   3.409059   2.152702   1.085538   2.162322
    16  H    2.144342   3.394737   3.872177   3.415581   2.162108
    17  O    5.003864   5.186618   4.320307   2.940467   2.624649
    18  O    4.344022   5.182973   4.973821   3.845016   2.623855
    19  N    4.752593   5.277641   4.794518   3.597687   2.784244
    20  H    4.958263   5.240240   4.590252   3.442611   3.005006
    21  H    4.527256   5.239712   5.012858   3.993254   3.005698
                    6          7          8          9         10
     6  C    0.000000
     7  S    2.766681   0.000000
     8  O    3.642101   1.482045   0.000000
     9  O    3.651127   1.488501   2.494669   0.000000
    10  N    3.027559   1.555019   2.482123   2.582413   0.000000
    11  H    2.661469   2.116619   2.776704   3.396791   1.021755
    12  Cl   4.014660   3.269748   3.180484   3.163336   4.795607
    13  Cl   4.520508   5.562792   5.709720   5.711509   6.793454
    14  S    2.740049   5.486990   6.296883   6.285261   5.415434
    15  H    3.418388   5.722173   6.235039   6.241454   6.395873
    16  H    1.085025   2.861246   3.838066   3.854608   2.530738
    17  O    3.871887   6.622694   7.265592   7.421401   6.710934
    18  O    2.974075   5.432631   6.188413   6.434207   4.983317
    19  N    3.532801   6.073106   7.150021   6.568056   5.930043
    20  H    3.913268   6.400900   7.483975   6.729199   6.469227
    21  H    3.351634   5.607550   6.810342   6.017694   5.331152
                   11         12         13         14         15
    11  H    0.000000
    12  Cl   5.083817   0.000000
    13  Cl   6.721765   3.138073   0.000000
    14  S    4.803672   6.274627   5.410881   0.000000
    15  H    6.017348   4.858209   2.820621   2.884924   0.000000
    16  H    2.007488   4.872811   5.605476   2.885459   4.316380
    17  O    6.064070   6.866212   5.343581   1.460807   2.556735
    18  O    4.208868   6.875046   6.503893   1.460582   4.175255
    19  N    5.509652   6.941812   6.098153   1.646997   3.671076
    20  H    6.146407   6.831917   5.684551   2.241699   3.346276
    21  H    5.010227   6.839851   6.440678   2.241399   4.296033
                   16         17         18         19         20
    16  H    0.000000
    17  O    4.213595   0.000000
    18  O    2.616929   2.530406   0.000000
    19  N    3.552494   2.491635   2.489301   0.000000
    20  H    4.160763   2.690028   3.387957   1.022137   0.000000
    21  H    3.172029   3.389800   2.685082   1.022314   1.684139
                   21
    21  H    0.000000
 Stoichiometry    C6H5Cl2N2O4S2(1-)
 Framework group  C1[X(C6H5Cl2N2O4S2)]
 Deg. of freedom    57
 Full point group                 C1      NOp   1
 Largest Abelian subgroup         C1      NOp   1
 Largest concise Abelian subgroup C1      NOp   1
                         Standard orientation:                         
 ---------------------------------------------------------------------
 Center     Atomic      Atomic             Coordinates (Angstroms)
 Number     Number       Type             X           Y           Z
 ---------------------------------------------------------------------
      1          6           0        0.873871   -0.478958   -0.020640
      2          6           0        1.161526    0.890771   -0.002972
      3          6           0        0.118381    1.823815   -0.039052
      4          6           0       -1.207117    1.405567   -0.083864
      5          6           0       -1.464746    0.042864   -0.094779
      6          6           0       -0.448281   -0.905047   -0.062887
      7         16           0        2.182712   -1.756055    0.027596
      8          8           0        2.969556   -1.458989   -1.192685
      9          8           0        2.893357   -1.456857    1.300819
     10          7           0        1.555683   -3.174319   -0.088356
     11          1           0        0.801664   -3.143535   -0.777190
     12         17           0        2.796536    1.455290    0.069266
     13         17           0        0.441540    3.526900   -0.030381
     14         16           0       -3.159540   -0.510982   -0.103552
     15          1           0       -2.010300    2.135124   -0.116067
     16          1           0       -0.668657   -1.967302   -0.081029
     17          8           0       -3.979345    0.583322   -0.617726
     18          8           0       -3.192913   -1.817857   -0.754907
     19          7           0       -3.635641   -0.758161    1.453634
     20          1           0       -3.614693    0.103005    2.003833
     21          1           0       -3.093408   -1.495612    1.908910
 ---------------------------------------------------------------------
 Rotational constants (GHZ):           0.4588805           0.2710245           0.1832093
 General basis read from cards:  (6D, 7F)
 There are   330 symmetry adapted cartesian basis functions of A   symmetry.
 There are   330 symmetry adapted basis functions of A   symmetry.
   330 basis functions,   628 primitive gaussians,   330 cartesian basis functions
    77 alpha electrons       77 beta electrons
       nuclear repulsion energy      1708.7135644426 Hartrees.
 NAtoms=   21 NActive=   21 NUniq=   21 SFac= 1.00D+00 NAtFMM=   60 NAOKFM=F Big=F
 Integral buffers will be    131072 words long.
 Raffenetti 2 integral format.
 Two-electron integral symmetry is turned on.
 ------------------------------------------------------------------------------
 Polarizable Continuum Model (PCM)
 =================================
 Model                : PCM.
 Atomic radii         : SMD-Coulomb.
 Polarization charges : Total charges.
 Charge compensation  : None.
 Solution method      : On-the-fly selection.
 Cavity type          : VdW (van der Waals Surface) (Alpha=1.000).
 Cavity algorithm     : GePol (No added spheres)
                        Default sphere list used, NSphG=   21.
                        Lebedev-Laikov grids with approx.  5.0 points / Ang**2.
                        Smoothing algorithm: York/Karplus (Gamma=1.0000).
                        Polarization charges: spherical gaussians, with
                                              point-specific exponents (IZeta= 3).
                        Self-potential: point-specific (ISelfS= 7).
                        Self-field    : sphere-specific E.n sum rule (ISelfD= 2).
 1st derivatives      : Analytical E(r).r(x)/FMM algorithm (CHGder, D1EAlg=3).
                        Cavity 1st derivative terms included.
 Solvent              : Water, Eps=  78.355300 Eps(inf)=   1.777849
 ------------------------------------------------------------------------------
 ------------------------------------------------------------------------------
 Atomic radii for non-electrostatic terms: SMD-CDS.
 ------------------------------------------------------------------------------
 Nuclear repulsion after PCM non-electrostatic terms =     1708.7195074568 Hartrees.
 One-electron integrals computed using PRISM.
 NBasis=   330 RedAO= T EigKep=  1.06D-06  NBF=   330
 NBsUse=   328 1.00D-06 EigRej=  9.01D-07 NBFU=   328
 ExpMin= 4.05D-02 ExpMax= 2.52D+04 ExpMxC= 3.78D+03 IAcc=3 IRadAn=         5 AccDes= 0.00D+00
 Harris functional with IExCor= 1009 and IRadAn=       5 diagonalized for initial guess.
 HarFok:  IExCor= 1009 AccDes= 0.00D+00 IRadAn=         5 IDoV= 1 UseB2=F ITyADJ=14
 ICtDFT=  3500011 ScaDFX=  1.000000  1.000000  1.000000  1.000000
 FoFCou: FMM=F IPFlag=           0 FMFlag=      100000 FMFlg1=           0
         NFxFlg=           0 DoJE=T BraDBF=F KetDBF=T FulRan=T
         wScrn=  0.000000 ICntrl=       500 IOpCl=  0 I1Cent=   200000004 NGrid=           0
         NMat0=    1 NMatS0=      1 NMatT0=    0 NMatD0=    1 NMtDS0=    0 NMtDT0=    0
 Petite list used in FoFCou.
 Requested convergence on RMS density matrix=1.00D-08 within 128 cycles.
 Requested convergence on MAX density matrix=1.00D-06.
 Requested convergence on             energy=1.00D-06.
 No special actions if energy rises.
 Inv3:  Mode=1 IEnd=    12289728.
 Iteration    1 A*A^-1 deviation from unit magnitude is 4.11D-15 for   1994.
 Iteration    1 A*A^-1 deviation from orthogonality  is 1.72D-15 for   1754    273.
 Iteration    1 A^-1*A deviation from unit magnitude is 4.33D-15 for   1994.
 Iteration    1 A^-1*A deviation from orthogonality  is 4.52D-15 for   2010   1891.
 Error on total polarization charges =  0.03836
 SCF Done:  E(RM062X) =  -2358.48247024     A.U. after   16 cycles
            NFock= 16  Conv=0.81D-08     -V/T= 2.0045
 SMD-CDS (non-electrostatic) energy       (kcal/mol) =       3.73
 (included in total energy above)

 **********************************************************************

            Population analysis using the SCF Density.

 **********************************************************************

 Orbital symmetries:
       Occupied  (A) (A) (A) (A) (A) (A) (A) (A) (A) (A) (A) (A)
                 (A) (A) (A) (A) (A) (A) (A) (A) (A) (A) (A) (A)
                 (A) (A) (A) (A) (A) (A) (A) (A) (A) (A) (A) (A)
                 (A) (A) (A) (A) (A) (A) (A) (A) (A) (A) (A) (A)
                 (A) (A) (A) (A) (A) (A) (A) (A) (A) (A) (A) (A)
                 (A) (A) (A) (A) (A) (A) (A) (A) (A) (A) (A) (A)
                 (A) (A) (A) (A) (A)
       Virtual   (A) (A) (A) (A) (A) (A) (A) (A) (A) (A) (A) (A)
                 (A) (A) (A) (A) (A) (A) (A) (A) (A) (A) (A) (A)
                 (A) (A) (A) (A) (A) (A) (A) (A) (A) (A) (A) (A)
                 (A) (A) (A) (A) (A) (A) (A) (A) (A) (A) (A) (A)
                 (A) (A) (A) (A) (A) (A) (A) (A) (A) (A) (A) (A)
                 (A) (A) (A) (A) (A) (A) (A) (A) (A) (A) (A) (A)
                 (A) (A) (A) (A) (A) (A) (A) (A) (A) (A) (A) (A)
                 (A) (A) (A) (A) (A) (A) (A) (A) (A) (A) (A) (A)
                 (A) (A) (A) (A) (A) (A) (A) (A) (A) (A) (A) (A)
                 (A) (A) (A) (A) (A) (A) (A) (A) (A) (A) (A) (A)
                 (A) (A) (A) (A) (A) (A) (A) (A) (A) (A) (A) (A)
                 (A) (A) (A) (A) (A) (A) (A) (A) (A) (A) (A) (A)
                 (A) (A) (A) (A) (A) (A) (A) (A) (A) (A) (A) (A)
                 (A) (A) (A) (A) (A) (A) (A) (A) (A) (A) (A) (A)
                 (A) (A) (A) (A) (A) (A) (A) (A) (A) (A) (A) (A)
                 (A) (A) (A) (A) (A) (A) (A) (A) (A) (A) (A) (A)
                 (A) (A) (A) (A) (A) (A) (A) (A) (A) (A) (A) (A)
                 (A) (A) (A) (A) (A) (A) (A) (A) (A) (A) (A) (A)
                 (A) (A) (A) (A) (A) (A) (A) (A) (A) (A) (A) (A)
                 (A) (A) (A) (A) (A) (A) (A) (A) (A) (A) (A) (A)
                 (A) (A) (A) (A) (A) (A) (A) (A) (A) (A) (A)
 The electronic state is 1-A.
 Alpha  occ. eigenvalues -- -102.69283-102.69128 -90.18766 -90.14615 -19.66625
 Alpha  occ. eigenvalues --  -19.66614 -19.63185 -19.61693 -14.80575 -14.72456
 Alpha  occ. eigenvalues --  -10.65645 -10.65034 -10.61566 -10.60899 -10.60132
 Alpha  occ. eigenvalues --  -10.59826  -9.83925  -9.83750  -8.49736  -8.45445
 Alpha  occ. eigenvalues --   -7.56342  -7.56173  -7.55663  -7.55630  -7.55495
 Alpha  occ. eigenvalues --   -7.55437  -6.41932  -6.41923  -6.41812  -6.37669
 Alpha  occ. eigenvalues --   -6.37600  -6.37541  -1.26668  -1.21679  -1.15219
 Alpha  occ. eigenvalues --   -1.09886  -1.04667  -1.03489  -0.97995  -0.97656
 Alpha  occ. eigenvalues --   -0.96565  -0.88448  -0.86057  -0.77370  -0.75387
 Alpha  occ. eigenvalues --   -0.70153  -0.67878  -0.64558  -0.62074  -0.60859
 Alpha  occ. eigenvalues --   -0.59435  -0.58869  -0.57538  -0.54774  -0.54361
 Alpha  occ. eigenvalues --   -0.53620  -0.53025  -0.51465  -0.48832  -0.47472
 Alpha  occ. eigenvalues --   -0.44388  -0.44093  -0.43514  -0.42823  -0.42478
 Alpha  occ. eigenvalues --   -0.41247  -0.40628  -0.40370  -0.39656  -0.39392
 Alpha  occ. eigenvalues --   -0.38507  -0.37698  -0.36648  -0.34429  -0.33099
 Alpha  occ. eigenvalues --   -0.32117  -0.29425
 Alpha virt. eigenvalues --   -0.03474  -0.01801   0.00606   0.01023   0.02727
 Alpha virt. eigenvalues --    0.03476   0.03928   0.04181   0.04813   0.05564
 Alpha virt. eigenvalues --    0.05707   0.06602   0.07376   0.07462   0.08191
 Alpha virt. eigenvalues --    0.08264   0.08686   0.09812   0.10218   0.10459
 Alpha virt. eigenvalues --    0.10826   0.11336   0.11907   0.12305   0.12413
 Alpha virt. eigenvalues --    0.13113   0.13639   0.14191   0.14743   0.15064
 Alpha virt. eigenvalues --    0.15227   0.15607   0.15993   0.16407   0.17241
 Alpha virt. eigenvalues --    0.17477   0.18042   0.18749   0.18980   0.19555
 Alpha virt. eigenvalues --    0.19900   0.20311   0.20472   0.21186   0.21526
 Alpha virt. eigenvalues --    0.22590   0.23161   0.23975   0.24277   0.24566
 Alpha virt. eigenvalues --    0.24909   0.25445   0.25717   0.26483   0.26572
 Alpha virt. eigenvalues --    0.27200   0.27806   0.28249   0.28301   0.29095
 Alpha virt. eigenvalues --    0.29558   0.29876   0.30415   0.30793   0.31276
 Alpha virt. eigenvalues --    0.31546   0.31950   0.32317   0.32567   0.33179
 Alpha virt. eigenvalues --    0.33787   0.34690   0.34955   0.36014   0.37032
 Alpha virt. eigenvalues --    0.37683   0.38134   0.38735   0.39333   0.40537
 Alpha virt. eigenvalues --    0.42709   0.44346   0.46722   0.49903   0.53203
 Alpha virt. eigenvalues --    0.54983   0.56579   0.56956   0.57637   0.58718
 Alpha virt. eigenvalues --    0.59863   0.63024   0.64587   0.64993   0.65366
 Alpha virt. eigenvalues --    0.66892   0.67650   0.68138   0.68514   0.68962
 Alpha virt. eigenvalues --    0.69495   0.70921   0.71018   0.73033   0.73567
 Alpha virt. eigenvalues --    0.74867   0.75208   0.76941   0.78114   0.78947
 Alpha virt. eigenvalues --    0.80110   0.85931   0.86465   0.88103   0.88684
 Alpha virt. eigenvalues --    0.90895   0.92146   0.94251   0.94844   0.95522
 Alpha virt. eigenvalues --    0.95606   0.96144   0.97323   0.98281   0.99872
 Alpha virt. eigenvalues --    1.02100   1.02558   1.04308   1.04832   1.04947
 Alpha virt. eigenvalues --    1.06305   1.07864   1.09089   1.09817   1.10395
 Alpha virt. eigenvalues --    1.11896   1.12469   1.12632   1.13625   1.14226
 Alpha virt. eigenvalues --    1.14563   1.17380   1.17632   1.19050   1.19680
 Alpha virt. eigenvalues --    1.20954   1.22879   1.24202   1.25375   1.26916
 Alpha virt. eigenvalues --    1.28066   1.32066   1.33224   1.34460   1.35758
 Alpha virt. eigenvalues --    1.36482   1.37099   1.38259   1.38706   1.39507
 Alpha virt. eigenvalues --    1.40079   1.41215   1.42046   1.42674   1.45571
 Alpha virt. eigenvalues --    1.47073   1.48772   1.49318   1.50407   1.53518
 Alpha virt. eigenvalues --    1.55701   1.56151   1.56803   1.58187   1.59881
 Alpha virt. eigenvalues --    1.60706   1.65370   1.68877   1.71387   1.78158
 Alpha virt. eigenvalues --    1.79194   1.80079   1.81071   1.82233   1.84078
 Alpha virt. eigenvalues --    1.84425   1.85200   1.86673   1.87477   1.89099
 Alpha virt. eigenvalues --    1.89505   1.90514   1.92930   1.94666   1.96406
 Alpha virt. eigenvalues --    1.99289   1.99771   2.01261   2.01889   2.04055
 Alpha virt. eigenvalues --    2.06762   2.12479   2.13009   2.14132   2.15235
 Alpha virt. eigenvalues --    2.15511   2.18036   2.19518   2.21530   2.23533
 Alpha virt. eigenvalues --    2.24260   2.24945   2.28431   2.29438   2.32405
 Alpha virt. eigenvalues --    2.34047   2.38986   2.44193   2.45089   2.49315
 Alpha virt. eigenvalues --    2.56815   2.59254   2.61754   2.64265   2.69374
 Alpha virt. eigenvalues --    2.72713   2.77137   2.81047   2.87231   2.90368
 Alpha virt. eigenvalues --    2.90817   2.91891   2.94024   3.07499   3.28458
 Alpha virt. eigenvalues --    3.88378   4.04406   4.07481   4.07865   4.13767
 Alpha virt. eigenvalues --    4.21124   4.24765   4.27820   4.30389   4.32361
 Alpha virt. eigenvalues --    4.37913   4.41250   4.44624   4.47909   4.51753
 Alpha virt. eigenvalues --    4.67661
          Condensed to atoms (all electrons):
               1          2          3          4          5          6
     1  C   44.843352  -1.045533   5.031545 -10.706679 -17.718992 -10.887166
     2  C   -1.045533  41.310534 -14.363676   1.511925   3.367059 -24.602272
     3  C    5.031545 -14.363676  23.080862 -12.364943  -3.268318   7.489731
     4  C  -10.706679   1.511925 -12.364943  38.795734  -4.811078  -7.051219
     5  C  -17.718992   3.367059  -3.268318  -4.811078  37.659360  -7.767024
     6  C  -10.887166 -24.602272   7.489731  -7.051219  -7.767024  49.506491
     7  S   -0.327716   0.570713   0.526977  -0.713622  -1.004660  -0.499131
     8  O   -0.128837  -0.289253   0.112737  -0.010447  -0.031219   0.304354
     9  O    0.394769  -0.046856   0.123438  -0.050750  -0.140927  -0.265053
    10  N   -0.769224  -0.266921   0.068504   0.009175   0.109025   0.909077
    11  H    0.147371   0.061162  -0.007151  -0.010266  -0.012915  -0.209322
    12  Cl   0.363871  -0.793966   0.112331   0.175932  -0.232884   0.176367
    13  Cl  -0.060282   0.010152   0.152170  -0.293394   0.044998  -0.068036
    14  S   -2.450456   0.382903  -1.023281   2.452077   1.780686  -2.285641
    15  H    0.019730   0.012973  -0.039995   0.352400  -0.025029  -0.012773
    16  H   -0.190599   0.060358  -0.046336   0.065495   0.197471   0.208395
    17  O    0.076478   0.081893  -0.069713  -0.452130  -0.008880   0.232788
    18  O   -0.225068  -0.002317   0.062285   0.242437   0.116227  -0.386890
    19  N    0.819783  -0.078174   0.269945  -0.337320  -1.569458   1.137491
    20  H   -0.009259  -0.003141  -0.011556  -0.076857   0.095874  -0.018509
    21  H   -0.049512   0.005045  -0.007854   0.068620   0.045587  -0.096654
               7          8          9         10         11         12
     1  C   -0.327716  -0.128837   0.394769  -0.769224   0.147371   0.363871
     2  C    0.570713  -0.289253  -0.046856  -0.266921   0.061162  -0.793966
     3  C    0.526977   0.112737   0.123438   0.068504  -0.007151   0.112331
     4  C   -0.713622  -0.010447  -0.050750   0.009175  -0.010266   0.175932
     5  C   -1.004660  -0.031219  -0.140927   0.109025  -0.012915  -0.232884
     6  C   -0.499131   0.304354  -0.265053   0.909077  -0.209322   0.176367
     7  S   15.559963   0.107533   0.259081   0.050636   0.086680  -0.054819
     8  O    0.107533   9.032916  -0.215920  -0.171665  -0.014234  -0.042056
     9  O    0.259081  -0.215920   8.802170  -0.169355   0.014657  -0.057186
    10  N    0.050636  -0.171665  -0.169355   7.978528   0.186847  -0.000120
    11  H    0.086680  -0.014234   0.014657   0.186847   0.362391  -0.000661
    12  Cl  -0.054819  -0.042056  -0.057186  -0.000120  -0.000661  17.088286
    13  Cl   0.016117  -0.000471   0.000947   0.000311   0.000033  -0.018679
    14  S   -0.166323  -0.001197  -0.005788   0.008752  -0.003997  -0.020722
    15  H    0.001495   0.000008   0.000006   0.000005  -0.000000   0.000518
    16  H   -0.028302   0.001137  -0.001046   0.002346   0.002431  -0.000929
    17  O   -0.007606  -0.000076  -0.000052  -0.000065  -0.000003  -0.000228
    18  O    0.000958   0.000132  -0.000001  -0.001578  -0.000477  -0.000005
    19  N    0.020449   0.000052   0.000110   0.002615  -0.000047   0.000797
    20  H   -0.000425  -0.000000  -0.000001  -0.000024   0.000000  -0.000021
    21  H   -0.001632  -0.000000  -0.000007  -0.000064   0.000000  -0.000043
              13         14         15         16         17         18
     1  C   -0.060282  -2.450456   0.019730  -0.190599   0.076478  -0.225068
     2  C    0.010152   0.382903   0.012973   0.060358   0.081893  -0.002317
     3  C    0.152170  -1.023281  -0.039995  -0.046336  -0.069713   0.062285
     4  C   -0.293394   2.452077   0.352400   0.065495  -0.452130   0.242437
     5  C    0.044998   1.780686  -0.025029   0.197471  -0.008880   0.116227
     6  C   -0.068036  -2.285641  -0.012773   0.208395   0.232788  -0.386890
     7  S    0.016117  -0.166323   0.001495  -0.028302  -0.007606   0.000958
     8  O   -0.000471  -0.001197   0.000008   0.001137  -0.000076   0.000132
     9  O    0.000947  -0.005788   0.000006  -0.001046  -0.000052  -0.000001
    10  N    0.000311   0.008752   0.000005   0.002346  -0.000065  -0.001578
    11  H    0.000033  -0.003997  -0.000000   0.002431  -0.000003  -0.000477
    12  Cl  -0.018679  -0.020722   0.000518  -0.000929  -0.000228  -0.000005
    13  Cl  16.949627   0.000741   0.000975   0.000267  -0.001724  -0.000088
    14  S    0.000741  15.614365  -0.009435   0.029356   0.263683   0.335621
    15  H    0.000975  -0.009435   0.379928  -0.000098   0.004197   0.000776
    16  H    0.000267   0.029356  -0.000098   0.409936   0.001209   0.004919
    17  O   -0.001724   0.263683   0.004197   0.001209   8.764107  -0.141964
    18  O   -0.000088   0.335621   0.000776   0.004919  -0.141964   8.753329
    19  N    0.002293  -0.625158  -0.000743   0.000104  -0.125811  -0.124045
    20  H   -0.000072   0.058172   0.000045   0.000022  -0.007554   0.007564
    21  H   -0.000001   0.066638   0.000006   0.000041   0.008742  -0.007026
              19         20         21
     1  C    0.819783  -0.009259  -0.049512
     2  C   -0.078174  -0.003141   0.005045
     3  C    0.269945  -0.011556  -0.007854
     4  C   -0.337320  -0.076857   0.068620
     5  C   -1.569458   0.095874   0.045587
     6  C    1.137491  -0.018509  -0.096654
     7  S    0.020449  -0.000425  -0.001632
     8  O    0.000052  -0.000000  -0.000000
     9  O    0.000110  -0.000001  -0.000007
    10  N    0.002615  -0.000024  -0.000064
    11  H   -0.000047   0.000000   0.000000
    12  Cl   0.000797  -0.000021  -0.000043
    13  Cl   0.002293  -0.000072  -0.000001
    14  S   -0.625158   0.058172   0.066638
    15  H   -0.000743   0.000045   0.000006
    16  H    0.000104   0.000022   0.000041
    17  O   -0.125811  -0.007554   0.008742
    18  O   -0.124045   0.007564  -0.007026
    19  N    8.194931   0.215988   0.216071
    20  H    0.215988   0.252705  -0.012370
    21  H    0.216071  -0.012370   0.253768
 Mulliken charges:
               1
     1  C   -1.127577
     2  C    0.117392
     3  C    0.172297
     4  C   -0.795088
     5  C   -0.824904
     6  C    0.184996
     7  S    1.603635
     8  O   -0.653495
     9  O   -0.642237
    10  N   -0.946806
    11  H    0.397502
    12  Cl   0.304217
    13  Cl   0.264116
    14  S    1.599005
    15  H    0.315011
    16  H    0.283824
    17  O   -0.617290
    18  O   -0.634789
    19  N   -1.019874
    20  H    0.509421
    21  H    0.510643
 Sum of Mulliken charges =  -1.00000
 Mulliken charges with hydrogens summed into heavy atoms:
               1
     1  C   -1.127577
     2  C    0.117392
     3  C    0.172297
     4  C   -0.480077
     5  C   -0.824904
     6  C    0.468819
     7  S    1.603635
     8  O   -0.653495
     9  O   -0.642237
    10  N   -0.549304
    12  Cl   0.304217
    13  Cl   0.264116
    14  S    1.599005
    17  O   -0.617290
    18  O   -0.634789
    19  N    0.000190
 Electronic spatial extent (au):  <R**2>=           5525.4723
 Charge=             -1.0000 electrons
 Dipole moment (field-independent basis, Debye):
    X=            -11.3028    Y=             10.3604    Z=              4.4316  Tot=             15.9603
 Quadrupole moment (field-independent basis, Debye-Ang):
   XX=           -191.6224   YY=           -153.6079   ZZ=           -126.8710
   XY=             20.9750   XZ=            -18.0764   YZ=              0.2846
 Traceless Quadrupole moment (field-independent basis, Debye-Ang):
   XX=            -34.2553   YY=              3.7592   ZZ=             30.4961
   XY=             20.9750   XZ=            -18.0764   YZ=              0.2846
 Octapole moment (field-independent basis, Debye-Ang**2):
  XXX=             -2.1848  YYY=            105.9423  ZZZ=             17.9584  XYY=            -60.1869
  XXY=             97.9916  XXZ=             60.8601  XZZ=            -48.1626  YZZ=             13.0916
  YYZ=             -0.9383  XYZ=              8.9538
 Hexadecapole moment (field-independent basis, Debye-Ang**3):
 XXXX=          -5229.6523 YYYY=          -2812.3566 ZZZZ=           -366.0067 XXXY=            173.0349
 XXXZ=           -160.5709 YYYX=            192.0784 YYYZ=             23.5320 ZZZX=            -63.6730
 ZZZY=             -4.2731 XXYY=          -1336.7062 XXZZ=           -820.6442 YYZZ=           -501.8480
 XXYZ=            -13.8919 YYXZ=            -38.0034 ZZXY=             54.7830
 N-N= 1.708719507457D+03 E-N=-9.012610028919D+03  KE= 2.347800423937D+03
 D1PCM: PCM CHGder 1st derivatives, ID1Alg=3 FixD1E=F DoIter=F DoCFld=F I1PDM=0.
 Calling FoFJK, ICntrl=      2127 FMM=F ISym2X=0 I1Cent= 0 IOpClX= 0 NMat=1 NMatS=1 NMatT=0.
 ***** Axes restored to original set *****
 -------------------------------------------------------------------
 Center     Atomic                   Forces (Hartrees/Bohr)
 Number     Number              X              Y              Z
 -------------------------------------------------------------------
      1        6           0.004732455   -0.003271571    0.000195635
      2        6          -0.002757233    0.001551188    0.002112105
      3        6           0.000310809   -0.000038081    0.000018942
      4        6           0.000284253    0.000104107    0.000432418
      5        6           0.001020449    0.000043526   -0.000651802
      6        6          -0.002790729    0.001001382   -0.000238165
      7       16           0.001126619    0.005325114   -0.012592335
      8        8          -0.015933438    0.009874402   -0.003237856
      9        8           0.014005299    0.006291866    0.004716313
     10        7          -0.001961836   -0.024870235    0.009408831
     11        1           0.000199362    0.007522554    0.001996640
     12       17           0.000597475   -0.000924017   -0.001465397
     13       17           0.000233599   -0.000062849   -0.000004115
     14       16           0.000163180   -0.000424218   -0.000376166
     15        1           0.000102315   -0.000093715    0.000046687
     16        1           0.000897794   -0.002474235   -0.000636853
     17        8          -0.000073941    0.000103427    0.000189374
     18        8          -0.000150255    0.000165588    0.000075411
     19        7          -0.000031034    0.000176060   -0.000020649
     20        1           0.000031286    0.000008270    0.000033190
     21        1          -0.000006427   -0.000008561   -0.000002208
 -------------------------------------------------------------------
 Cartesian Forces:  Max     0.024870235 RMS     0.005116291

 GradGradGradGradGradGradGradGradGradGradGradGradGradGradGradGradGradGrad
 Berny optimization.
 FormGI is forming the generalized inverse of G from B-inverse, IUseBI=4.
 Internal  Forces:  Max     0.020254978 RMS     0.004177609
 Search for a local minimum.
 Step number   1 out of a maximum of  110
 All quantities printed in internal units (Hartrees-Bohrs-Radians)
 Mixed Optimization -- RFO/linear search
 Second derivative matrix not updated -- first step.
 ITU=  0
     Eigenvalues ---    0.00230   0.00595   0.01380   0.01608   0.01997
     Eigenvalues ---    0.02091   0.02123   0.02150   0.02192   0.02221
     Eigenvalues ---    0.02232   0.02243   0.03214   0.04521   0.09539
     Eigenvalues ---    0.10293   0.10457   0.12036   0.14193   0.15999
     Eigenvalues ---    0.16000   0.16000   0.16000   0.16000   0.16979
     Eigenvalues ---    0.19767   0.21637   0.23484   0.23501   0.23938
     Eigenvalues ---    0.24989   0.24998   0.24999   0.25000   0.25000
     Eigenvalues ---    0.25000   0.25000   0.27501   0.32143   0.32379
     Eigenvalues ---    0.35333   0.35394   0.42404   0.42867   0.43107
     Eigenvalues ---    0.43971   0.43999   0.44059   0.46028   0.46726
     Eigenvalues ---    0.47283   0.47586   0.61002   0.80615   0.82944
     Eigenvalues ---    0.91271   0.91365
 RFO step:  Lambda=-1.08978245D-02 EMin= 2.30000000D-03
 Linear search not attempted -- first point.
 Iteration  1 RMS(Cart)=  0.04092033 RMS(Int)=  0.00228494
 Iteration  2 RMS(Cart)=  0.00227085 RMS(Int)=  0.00054352
 Iteration  3 RMS(Cart)=  0.00000926 RMS(Int)=  0.00054349
 Iteration  4 RMS(Cart)=  0.00000000 RMS(Int)=  0.00054349
 Variable       Old X    -DE/DX   Delta X   Delta X   Delta X     New X
                                 (Linear)    (Quad)   (Total)
    R1        2.64509   0.00165   0.00000   0.00376   0.00376   2.64885
    R2        2.62626   0.00074   0.00000   0.00159   0.00160   2.62785
    R3        3.45689   0.00220   0.00000   0.00880   0.00880   3.46569
    R4        2.64563   0.00048   0.00000   0.00119   0.00118   2.64682
    R5        3.27155  -0.00143   0.00000  -0.00427  -0.00427   3.26729
    R6        2.62793  -0.00012   0.00000  -0.00031  -0.00032   2.62762
    R7        3.27583  -0.00019   0.00000  -0.00059  -0.00059   3.27524
    R8        2.62083  -0.00116   0.00000  -0.00259  -0.00259   2.61824
    R9        2.05137   0.00001   0.00000   0.00002   0.00002   2.05139
   R10        2.62716  -0.00041   0.00000  -0.00101  -0.00101   2.62615
   R11        3.36941  -0.00003   0.00000  -0.00009  -0.00009   3.36932
   R12        2.05040   0.00021   0.00000   0.00059   0.00059   2.05099
   R13        2.80066   0.01469   0.00000   0.01748   0.01748   2.81814
   R14        2.81286  -0.00855   0.00000  -0.01047  -0.01047   2.80239
   R15        2.93856   0.00081   0.00000   0.00130   0.00130   2.93986
   R16        1.93084  -0.00069   0.00000  -0.00153  -0.00153   1.92931
   R17        2.76053  -0.00020   0.00000  -0.00022  -0.00022   2.76031
   R18        2.76010  -0.00000   0.00000  -0.00000  -0.00000   2.76010
   R19        3.11237  -0.00014   0.00000  -0.00031  -0.00031   3.11206
   R20        1.93156  -0.00003   0.00000  -0.00007  -0.00007   1.93149
   R21        1.93189   0.00000   0.00000   0.00000   0.00000   1.93190
    A1        2.08969  -0.00102   0.00000  -0.00351  -0.00351   2.08618
    A2        2.13625  -0.00117   0.00000  -0.00469  -0.00470   2.13156
    A3        2.05719   0.00219   0.00000   0.00819   0.00819   2.06537
    A4        2.09293  -0.00083   0.00000  -0.00255  -0.00256   2.09037
    A5        2.11030   0.00230   0.00000   0.00852   0.00851   2.11881
    A6        2.07996  -0.00147   0.00000  -0.00594  -0.00596   2.07400
    A7        2.10666   0.00088   0.00000   0.00346   0.00346   2.11011
    A8        2.11266  -0.00018   0.00000  -0.00074  -0.00074   2.11192
    A9        2.06387  -0.00070   0.00000  -0.00272  -0.00272   2.06115
   A10        2.06329   0.00009   0.00000  -0.00029  -0.00029   2.06300
   A11        2.09909   0.00009   0.00000   0.00094   0.00094   2.10003
   A12        2.12078  -0.00018   0.00000  -0.00064  -0.00064   2.12014
   A13        2.13406  -0.00033   0.00000  -0.00209  -0.00209   2.13197
   A14        2.07352   0.00023   0.00000   0.00125   0.00125   2.07477
   A15        2.07520   0.00010   0.00000   0.00074   0.00073   2.07594
   A16        2.07971   0.00121   0.00000   0.00492   0.00490   2.08461
   A17        2.08736   0.00170   0.00000   0.01108   0.01105   2.09840
   A18        2.11606  -0.00290   0.00000  -0.01586  -0.01589   2.10017
   A19        1.79078  -0.00072   0.00000   0.02724   0.02481   1.81559
   A20        1.79652   0.01186   0.00000   0.02814   0.02626   1.82279
   A21        1.92438  -0.00187   0.00000  -0.00263  -0.00472   1.91966
   A22        1.99383  -0.00422   0.00000  -0.02463  -0.02360   1.97023
   A23        1.91293   0.01694   0.00000   0.11190   0.11123   2.02416
   A24        2.02597  -0.02025   0.00000  -0.12757  -0.12717   1.89880
   A25        1.89691   0.00246   0.00000   0.01441   0.01441   1.91132
   A26        1.87808  -0.00007   0.00000  -0.00032  -0.00032   1.87776
   A27        1.87743  -0.00026   0.00000  -0.00174  -0.00174   1.87568
   A28        1.89308   0.00004   0.00000   0.00006   0.00006   1.89314
   A29        2.09495   0.00008   0.00000   0.00054   0.00053   2.09549
   A30        1.85770   0.00012   0.00000   0.00104   0.00104   1.85874
   A31        1.85537   0.00010   0.00000   0.00046   0.00046   1.85583
   A32        1.95688   0.00003   0.00000   0.00017   0.00017   1.95705
   A33        1.95626   0.00001   0.00000   0.00006   0.00006   1.95632
   A34        1.93603  -0.00003   0.00000  -0.00019  -0.00019   1.93583
    D1       -0.00920  -0.00026   0.00000  -0.00823  -0.00819  -0.01740
    D2        3.12830   0.00003   0.00000   0.00086   0.00091   3.12922
    D3       -3.13935  -0.00022   0.00000  -0.00625  -0.00622   3.13762
    D4       -0.00184   0.00007   0.00000   0.00284   0.00289   0.00105
    D5        0.00649   0.00032   0.00000   0.01005   0.01005   0.01653
    D6        3.13680   0.00076   0.00000   0.02348   0.02358  -3.12280
    D7        3.13715   0.00027   0.00000   0.00807   0.00807  -3.13797
    D8       -0.01572   0.00070   0.00000   0.02151   0.02160   0.00587
    D9       -1.04750   0.00679   0.00000   0.09311   0.09312  -0.95437
   D10        1.02734   0.00643   0.00000   0.08740   0.08773   1.11507
   D11       -3.08393  -0.01152   0.00000  -0.04893  -0.04928  -3.13320
   D12        2.10534   0.00684   0.00000   0.09512   0.09515   2.20049
   D13       -2.10301   0.00648   0.00000   0.08942   0.08975  -2.01326
   D14        0.06891  -0.01147   0.00000  -0.04691  -0.04725   0.02166
   D15        0.00722   0.00006   0.00000   0.00205   0.00205   0.00927
   D16       -3.13355   0.00014   0.00000   0.00427   0.00425  -3.12929
   D17       -3.13036  -0.00023   0.00000  -0.00692  -0.00686  -3.13722
   D18        0.01206  -0.00015   0.00000  -0.00470  -0.00465   0.00741
   D19       -0.00248   0.00008   0.00000   0.00222   0.00221  -0.00027
   D20       -3.13689  -0.00001   0.00000  -0.00037  -0.00037  -3.13726
   D21        3.13831   0.00000   0.00000   0.00006   0.00007   3.13838
   D22        0.00391  -0.00008   0.00000  -0.00253  -0.00252   0.00139
   D23       -0.00024  -0.00003   0.00000  -0.00033  -0.00032  -0.00057
   D24        3.11053  -0.00013   0.00000  -0.00424  -0.00422   3.10631
   D25        3.13407   0.00006   0.00000   0.00230   0.00230   3.13637
   D26       -0.03835  -0.00004   0.00000  -0.00161  -0.00160  -0.03994
   D27       -0.00179  -0.00018   0.00000  -0.00585  -0.00587  -0.00766
   D28       -3.13191  -0.00065   0.00000  -0.01970  -0.01960   3.13168
   D29       -3.11253  -0.00008   0.00000  -0.00194  -0.00198  -3.11451
   D30        0.04053  -0.00055   0.00000  -0.01579  -0.01570   0.02483
   D31        0.38283   0.00010   0.00000   0.00036   0.00036   0.38319
   D32        2.66285  -0.00002   0.00000  -0.00039  -0.00039   2.66246
   D33       -1.62028  -0.00002   0.00000  -0.00072  -0.00072  -1.62100
   D34       -2.78853  -0.00001   0.00000  -0.00347  -0.00347  -2.79199
   D35       -0.50851  -0.00013   0.00000  -0.00422  -0.00421  -0.51272
   D36        1.49155  -0.00013   0.00000  -0.00455  -0.00455   1.48700
   D37        0.70343   0.00689   0.00000   0.15539   0.15537   0.85880
   D38       -1.25540  -0.00046   0.00000   0.06339   0.06079  -1.19460
   D39        2.73683   0.00756   0.00000   0.10609   0.10870   2.84553
   D40        1.09420   0.00008   0.00000   0.00062   0.00062   1.09483
   D41       -1.09656   0.00008   0.00000   0.00070   0.00070  -1.09585
   D42       -0.92220   0.00008   0.00000   0.00043   0.00043  -0.92176
   D43       -3.11296   0.00008   0.00000   0.00052   0.00052  -3.11245
   D44        3.10866  -0.00016   0.00000  -0.00114  -0.00114   3.10752
   D45        0.91789  -0.00015   0.00000  -0.00105  -0.00105   0.91684
         Item               Value     Threshold  Converged?
 Maximum Force            0.020255     0.000450     NO 
 RMS     Force            0.004178     0.000300     NO 
 Maximum Displacement     0.223173     0.001800     NO 
 RMS     Displacement     0.040954     0.001200     NO 
 Predicted change in Energy=-6.111771D-03
 GradGradGradGradGradGradGradGradGradGradGradGradGradGradGradGradGradGrad

                          Input orientation:                          
 ---------------------------------------------------------------------
 Center     Atomic      Atomic             Coordinates (Angstroms)
 Number     Number       Type             X           Y           Z
 ---------------------------------------------------------------------
      1          6           0       -1.620069    1.068522   -1.131853
      2          6           0       -2.857079    0.910309   -1.771826
      3          6           0       -2.943248    0.138957   -2.937747
      4          6           0       -1.818223   -0.483984   -3.466600
      5          6           0       -0.609576   -0.320770   -2.809197
      6          6           0       -0.494099    0.439320   -1.651530
      7         16           0       -1.432096    2.068704    0.393834
      8          8           0       -1.996656    3.399021    0.025740
      9          8           0       -2.248363    1.355898    1.406153
     10          7           0        0.054037    2.062829    0.853832
     11          1           0        0.657105    2.288400    0.061522
     12         17           0       -4.291022    1.655680   -1.157351
     13         17           0       -4.452797   -0.063062   -3.765019
     14         16           0        0.833655   -1.155824   -3.440655
     15          1           0       -1.894950   -1.076373   -4.373023
     16          1           0        0.465932    0.539840   -1.155355
     17          8           0        0.588198   -1.457816   -4.848552
     18          8           0        2.000705   -0.367209   -3.054167
     19          7           0        0.977467   -2.604026   -2.669882
     20          1           0        0.182693   -3.219410   -2.855151
     21          1           0        1.125305   -2.491466   -1.664595
 ---------------------------------------------------------------------
                    Distance matrix (angstroms):
                    1          2          3          4          5
     1  C    0.000000
     2  C    1.401710   0.000000
     3  C    2.424076   1.400636   0.000000
     4  C    2.810798   2.428072   1.390476   0.000000
     5  C    2.400981   2.764591   2.381995   1.385513   0.000000
     6  C    1.390600   2.412463   2.782607   2.429048   1.389699
     7  S    1.833963   2.839461   4.136053   4.644165   4.079894
     8  O    2.629271   3.188300   4.506252   5.225515   4.878288
     9  O    2.630364   3.266288   4.564349   5.226272   4.823485
    10  N    2.781048   4.086195   5.202026   5.353294   4.420374
    11  H    2.845658   4.196402   5.155410   5.124549   4.080842
    12  Cl   2.734848   1.728974   2.699399   4.003190   4.493105
    13  Cl   4.029689   2.732505   1.733185   2.684625   3.968672
    14  S    4.037207   4.547022   4.024223   2.735781   1.782967
    15  H    3.896321   3.411572   2.153131   1.085548   2.160712
    16  H    2.152082   3.399954   3.867834   3.406969   2.152338
    17  O    5.007262   5.190779   4.321107   2.940918   2.624215
    18  O    4.343573   5.184064   4.971160   3.842909   2.622163
    19  N    4.753981   5.278333   4.792465   3.597947   2.784129
    20  H    4.960450   5.241029   4.588786   3.443848   3.005315
    21  H    4.527075   5.238603   5.009308   3.992689   3.005304
                    6          7          8          9         10
     6  C    0.000000
     7  S    2.778173   0.000000
     8  O    3.718970   1.491295   0.000000
     9  O    3.642387   1.482961   2.478558   0.000000
    10  N    3.035305   1.555708   2.583890   2.471003   0.000000
    11  H    2.771085   2.126842   2.877013   3.334567   1.020945
    12  Cl   4.017508   3.278753   3.114973   3.291487   4.805224
    13  Cl   4.515586   5.564632   5.691090   5.797759   6.794466
    14  S    2.740143   5.498593   6.385387   6.268902   5.423113
    15  H    3.415587   5.729631   6.276035   6.280105   6.401028
    16  H    1.085336   2.887893   3.954016   3.820297   2.554601
    17  O    3.871878   6.633291   7.350446   7.421886   6.722905
    18  O    2.973538   5.441187   6.296762   6.396728   4.996705
    19  N    3.530511   6.084962   7.221382   6.534604   5.920205
    20  H    3.910633   6.413080   7.540074   6.708367   6.455630
    21  H    3.348455   5.618949   6.877624   5.967691   5.313351
                   11         12         13         14         15
    11  H    0.000000
    12  Cl   5.135167   0.000000
    13  Cl   6.803153   3.127328   0.000000
    14  S    4.915190   6.275376   5.407949   0.000000
    15  H    6.123713   4.852404   2.817632   2.884598   0.000000
    16  H    2.138878   4.886074   5.600691   2.869337   4.305728
    17  O    6.176383   6.864809   5.341443   1.460692   2.556882
    18  O    4.308717   6.875742   6.499655   1.460580   4.173538
    19  N    5.612400   6.941889   6.094555   1.646834   3.672219
    20  H    6.250441   6.831043   5.681387   2.241640   3.348603
    21  H    5.103510   6.840520   6.436160   2.241292   4.296511
                   16         17         18         19         20
    16  H    0.000000
    17  O    4.200629   0.000000
    18  O    2.604564   2.530695   0.000000
    19  N    3.526947   2.492374   2.489587   0.000000
    20  H    4.135394   2.690965   3.388189   1.022099   0.000000
    21  H    3.143710   3.390354   2.685090   1.022316   1.683996
                   21
    21  H    0.000000
 Stoichiometry    C6H5Cl2N2O4S2(1-)
 Framework group  C1[X(C6H5Cl2N2O4S2)]
 Deg. of freedom    57
 Full point group                 C1      NOp   1
 Largest Abelian subgroup         C1      NOp   1
 Largest concise Abelian subgroup C1      NOp   1
                         Standard orientation:                         
 ---------------------------------------------------------------------
 Center     Atomic      Atomic             Coordinates (Angstroms)
 Number     Number       Type             X           Y           Z
 ---------------------------------------------------------------------
      1          6           0        0.873878   -0.473877   -0.034448
      2          6           0        1.154285    0.899076   -0.000356
      3          6           0        0.103239    1.824433   -0.028606
      4          6           0       -1.220113    1.400633   -0.079154
      5          6           0       -1.470915    0.038186   -0.101146
      6          6           0       -0.448376   -0.902556   -0.075032
      7         16           0        2.199354   -1.741063   -0.006641
      8          8           0        3.081940   -1.366020   -1.148722
      9          8           0        2.854576   -1.561904    1.311600
     10          7           0        1.575262   -3.164833   -0.066743
     11          1           0        0.894648   -3.206989   -0.826556
     12         17           0        2.779444    1.485081    0.068972
     13         17           0        0.413991    3.529383   -0.006104
     14         16           0       -3.162272   -0.525896   -0.110849
     15          1           0       -2.027303    2.126030   -0.104774
     16          1           0       -0.678951   -1.963078   -0.084079
     17          8           0       -3.989405    0.567750   -0.614247
     18          8           0       -3.186747   -1.826952   -0.774136
     19          7           0       -3.632949   -0.790368    1.444972
     20          1           0       -3.616495    0.065766    2.003050
     21          1           0       -3.084696   -1.528214    1.892331
 ---------------------------------------------------------------------
 Rotational constants (GHZ):           0.4577749           0.2700564           0.1824379
 Basis read from rwf:  (6D, 7F)
 There are   330 symmetry adapted cartesian basis functions of A   symmetry.
 There are   330 symmetry adapted basis functions of A   symmetry.
   330 basis functions,   628 primitive gaussians,   330 cartesian basis functions
    77 alpha electrons       77 beta electrons
       nuclear repulsion energy      1706.5000297335 Hartrees.
 NAtoms=   21 NActive=   21 NUniq=   21 SFac= 1.00D+00 NAtFMM=   60 NAOKFM=F Big=F
 Integral buffers will be    131072 words long.
 Raffenetti 2 integral format.
 Two-electron integral symmetry is turned on.
 ------------------------------------------------------------------------------
 Polarizable Continuum Model (PCM)
 =================================
 Model                : PCM.
 Atomic radii         : SMD-Coulomb.
 Polarization charges : Total charges.
 Charge compensation  : None.
 Solution method      : On-the-fly selection.
 Cavity type          : VdW (van der Waals Surface) (Alpha=1.000).
 Cavity algorithm     : GePol (No added spheres)
                        Default sphere list used, NSphG=   21.
                        Lebedev-Laikov grids with approx.  5.0 points / Ang**2.
                        Smoothing algorithm: York/Karplus (Gamma=1.0000).
                        Polarization charges: spherical gaussians, with
                                              point-specific exponents (IZeta= 3).
                        Self-potential: point-specific (ISelfS= 7).
                        Self-field    : sphere-specific E.n sum rule (ISelfD= 2).
 1st derivatives      : Analytical E(r).r(x)/FMM algorithm (CHGder, D1EAlg=3).
                        Cavity 1st derivative terms included.
 Solvent              : Water, Eps=  78.355300 Eps(inf)=   1.777849
 ------------------------------------------------------------------------------
 ------------------------------------------------------------------------------
 Atomic radii for non-electrostatic terms: SMD-CDS.
 ------------------------------------------------------------------------------
 Nuclear repulsion after PCM non-electrostatic terms =     1706.5060535866 Hartrees.
 One-electron integrals computed using PRISM.
 NBasis=   330 RedAO= T EigKep=  1.05D-06  NBF=   330
 NBsUse=   328 1.00D-06 EigRej=  9.11D-07 NBFU=   328
 Initial guess from the checkpoint file:  "/jobfs/50077364.gadi-pbs/Gau-794717.chk"
 B after Tr=     0.000000   -0.000000    0.000000
         Rot=    0.999986   -0.003914    0.001560   -0.003259 Ang=  -0.61 deg.
 ExpMin= 4.05D-02 ExpMax= 2.52D+04 ExpMxC= 3.78D+03 IAcc=3 IRadAn=         5 AccDes= 0.00D+00
 Harris functional with IExCor= 1009 and IRadAn=       5 diagonalized for initial guess.
 HarFok:  IExCor= 1009 AccDes= 0.00D+00 IRadAn=         5 IDoV= 1 UseB2=F ITyADJ=14
 ICtDFT=  3500011 ScaDFX=  1.000000  1.000000  1.000000  1.000000
 FoFCou: FMM=F IPFlag=           0 FMFlag=      100000 FMFlg1=           0
         NFxFlg=           0 DoJE=T BraDBF=F KetDBF=T FulRan=T
         wScrn=  0.000000 ICntrl=       500 IOpCl=  0 I1Cent=   200000004 NGrid=           0
         NMat0=    1 NMatS0=      1 NMatT0=    0 NMatD0=    1 NMtDS0=    0 NMtDT0=    0
 Petite list used in FoFCou.
 Requested convergence on RMS density matrix=1.00D-08 within 128 cycles.
 Requested convergence on MAX density matrix=1.00D-06.
 Requested convergence on             energy=1.00D-06.
 No special actions if energy rises.
 Inv3:  Mode=1 IEnd=    12338352.
 Iteration    1 A*A^-1 deviation from unit magnitude is 4.44D-15 for   2021.
 Iteration    1 A*A^-1 deviation from orthogonality  is 1.46D-15 for    738    619.
 Iteration    1 A^-1*A deviation from unit magnitude is 4.44D-15 for   2021.
 Iteration    1 A^-1*A deviation from orthogonality  is 1.81D-15 for   1828    255.
 Error on total polarization charges =  0.03840
 SCF Done:  E(RM062X) =  -2358.48788126     A.U. after   14 cycles
            NFock= 14  Conv=0.31D-08     -V/T= 2.0046
 SMD-CDS (non-electrostatic) energy       (kcal/mol) =       3.78
 (included in total energy above)
 D1PCM: PCM CHGder 1st derivatives, ID1Alg=3 FixD1E=F DoIter=F DoCFld=F I1PDM=0.
 Calling FoFJK, ICntrl=      2127 FMM=F ISym2X=0 I1Cent= 0 IOpClX= 0 NMat=1 NMatS=1 NMatT=0.
 ***** Axes restored to original set *****
 -------------------------------------------------------------------
 Center     Atomic                   Forces (Hartrees/Bohr)
 Number     Number              X              Y              Z
 -------------------------------------------------------------------
      1        6           0.001514197    0.000458213   -0.000579305
      2        6          -0.000947206    0.001574201    0.000200647
      3        6           0.000115897   -0.000360660   -0.000089122
      4        6          -0.000384689   -0.000071077   -0.000149368
      5        6           0.000191198   -0.000220714   -0.000024080
      6        6          -0.000642367    0.000975210    0.001659222
      7       16           0.000055522    0.001972367    0.004060735
      8        8           0.002817439   -0.002396338   -0.003295117
      9        8          -0.004017683   -0.000549217    0.002912238
     10        7          -0.000965043   -0.007884995   -0.005814405
     11        1           0.002055853    0.007162728    0.000597056
     12       17           0.000026473   -0.000686475    0.000243703
     13       17          -0.000114458   -0.000215564   -0.000198298
     14       16           0.000138631   -0.000040750   -0.000097615
     15        1          -0.000080497    0.000029922   -0.000046623
     16        1           0.000284120    0.000110481    0.000517931
     17        8          -0.000065334    0.000045881    0.000260973
     18        8          -0.000006979   -0.000039344   -0.000007555
     19        7          -0.000003382    0.000156760   -0.000107400
     20        1          -0.000007349   -0.000034257   -0.000044818
     21        1           0.000035656    0.000013629    0.000001201
 -------------------------------------------------------------------
 Cartesian Forces:  Max     0.007884995 RMS     0.001929621

 GradGradGradGradGradGradGradGradGradGradGradGradGradGradGradGradGradGrad
 Berny optimization.
 Using GEDIIS/GDIIS optimizer.
 FormGI is forming the generalized inverse of G from B-inverse, IUseBI=4.
 Internal  Forces:  Max     0.007559225 RMS     0.001378453
 Search for a local minimum.
 Step number   2 out of a maximum of  110
 All quantities printed in internal units (Hartrees-Bohrs-Radians)
 Mixed Optimization -- RFO/linear search
 Update second derivatives using D2CorX and points    1    2
 DE= -5.41D-03 DEPred=-6.11D-03 R= 8.85D-01
 TightC=F SS=  1.41D+00  RLast= 3.34D-01 DXNew= 5.0454D-01 1.0030D+00
 Trust test= 8.85D-01 RLast= 3.34D-01 DXMaxT set to 5.05D-01
 ITU=  1  0
 Use linear search instead of GDIIS.
     Eigenvalues ---    0.00238   0.00595   0.01378   0.01607   0.01997
     Eigenvalues ---    0.02088   0.02125   0.02150   0.02190   0.02222
     Eigenvalues ---    0.02232   0.02243   0.02621   0.04521   0.09541
     Eigenvalues ---    0.10466   0.11704   0.12996   0.14187   0.15864
     Eigenvalues ---    0.16000   0.16000   0.16000   0.16057   0.18002
     Eigenvalues ---    0.19767   0.21227   0.23498   0.23510   0.24067
     Eigenvalues ---    0.24882   0.24986   0.24998   0.24999   0.25000
     Eigenvalues ---    0.25000   0.26235   0.27502   0.32145   0.32374
     Eigenvalues ---    0.35333   0.35396   0.42388   0.42917   0.43108
     Eigenvalues ---    0.43971   0.43999   0.44170   0.46032   0.46742
     Eigenvalues ---    0.47313   0.47585   0.61013   0.81207   0.83790
     Eigenvalues ---    0.91271   0.91365
 RFO step:  Lambda=-2.33145542D-03 EMin= 2.37820970D-03
 Quartic linear search produced a step of -0.00789.
 Iteration  1 RMS(Cart)=  0.03028867 RMS(Int)=  0.00139224
 Iteration  2 RMS(Cart)=  0.00178653 RMS(Int)=  0.00004479
 Iteration  3 RMS(Cart)=  0.00000922 RMS(Int)=  0.00004417
 Iteration  4 RMS(Cart)=  0.00000000 RMS(Int)=  0.00004417
 Variable       Old X    -DE/DX   Delta X   Delta X   Delta X     New X
                                 (Linear)    (Quad)   (Total)
    R1        2.64885   0.00062  -0.00003   0.00211   0.00210   2.65094
    R2        2.62785  -0.00177  -0.00001  -0.00344  -0.00345   2.62440
    R3        3.46569  -0.00222  -0.00007  -0.00715  -0.00722   3.45847
    R4        2.64682   0.00071  -0.00001   0.00188   0.00189   2.64870
    R5        3.26729  -0.00024   0.00003  -0.00163  -0.00160   3.26569
    R6        2.62762   0.00023   0.00000   0.00054   0.00054   2.62816
    R7        3.27524   0.00022   0.00000   0.00054   0.00055   3.27579
    R8        2.61824   0.00059   0.00002   0.00068   0.00068   2.61892
    R9        2.05139   0.00003  -0.00000   0.00010   0.00010   2.05148
   R10        2.62615   0.00009   0.00001  -0.00013  -0.00013   2.62602
   R11        3.36932   0.00005   0.00000   0.00016   0.00016   3.36948
   R12        2.05099   0.00050  -0.00000   0.00150   0.00149   2.05248
   R13        2.81814  -0.00238  -0.00014   0.00096   0.00082   2.81896
   R14        2.80239   0.00448   0.00008   0.00318   0.00326   2.80565
   R15        2.93986  -0.00053  -0.00001  -0.00058  -0.00059   2.93927
   R16        1.92931   0.00231   0.00001   0.00480   0.00481   1.93412
   R17        2.76031  -0.00026   0.00000  -0.00033  -0.00033   2.75998
   R18        2.76010  -0.00001   0.00000  -0.00001  -0.00001   2.76008
   R19        3.11206  -0.00019   0.00000  -0.00049  -0.00049   3.11158
   R20        1.93149   0.00002   0.00000   0.00002   0.00003   1.93151
   R21        1.93190   0.00002  -0.00000   0.00005   0.00005   1.93195
    A1        2.08618   0.00126   0.00003   0.00381   0.00385   2.09003
    A2        2.13156   0.00182   0.00004   0.00621   0.00622   2.13778
    A3        2.06537  -0.00309  -0.00006  -0.01014  -0.01023   2.05515
    A4        2.09037  -0.00099   0.00002  -0.00426  -0.00429   2.08608
    A5        2.11881   0.00066  -0.00007   0.00437   0.00419   2.12299
    A6        2.07400   0.00033   0.00005  -0.00000  -0.00006   2.07394
    A7        2.11011  -0.00007  -0.00003   0.00087   0.00087   2.11098
    A8        2.11192   0.00042   0.00001   0.00128   0.00127   2.11319
    A9        2.06115  -0.00035   0.00002  -0.00215  -0.00214   2.05901
   A10        2.06300   0.00014   0.00000   0.00090   0.00089   2.06389
   A11        2.10003  -0.00014  -0.00001  -0.00069  -0.00070   2.09934
   A12        2.12014  -0.00000   0.00001  -0.00019  -0.00018   2.11996
   A13        2.13197  -0.00015   0.00002  -0.00114  -0.00115   2.13082
   A14        2.07477   0.00031  -0.00001   0.00156   0.00156   2.07633
   A15        2.07594  -0.00016  -0.00001  -0.00038  -0.00038   2.07556
   A16        2.08461  -0.00019  -0.00004  -0.00027  -0.00031   2.08430
   A17        2.09840  -0.00023  -0.00009   0.00105   0.00097   2.09937
   A18        2.10017   0.00042   0.00013  -0.00078  -0.00066   2.09951
   A19        1.81559  -0.00162  -0.00020  -0.01206  -0.01223   1.80336
   A20        1.82279   0.00097  -0.00021   0.01392   0.01376   1.83655
   A21        1.91966  -0.00467   0.00004  -0.02414  -0.02411   1.89556
   A22        1.97023   0.00076   0.00019   0.00558   0.00573   1.97596
   A23        2.02416   0.00028  -0.00088   0.01548   0.01438   2.03854
   A24        1.89880   0.00376   0.00100  -0.00067   0.00035   1.89915
   A25        1.91132   0.00271  -0.00011   0.01951   0.01940   1.93071
   A26        1.87776  -0.00015   0.00000  -0.00080  -0.00080   1.87697
   A27        1.87568  -0.00001   0.00001  -0.00028  -0.00026   1.87542
   A28        1.89314   0.00025  -0.00000   0.00102   0.00102   1.89416
   A29        2.09549   0.00007  -0.00000   0.00031   0.00031   2.09580
   A30        1.85874  -0.00003  -0.00001   0.00011   0.00010   1.85884
   A31        1.85583  -0.00010  -0.00000  -0.00022  -0.00022   1.85561
   A32        1.95705   0.00002  -0.00000   0.00031   0.00030   1.95735
   A33        1.95632  -0.00002  -0.00000   0.00006   0.00006   1.95638
   A34        1.93583   0.00003   0.00000   0.00037   0.00037   1.93620
    D1       -0.01740   0.00002   0.00006  -0.00211  -0.00205  -0.01945
    D2        3.12922  -0.00064  -0.00001  -0.02735  -0.02740   3.10181
    D3        3.13762   0.00020   0.00005   0.00795   0.00806  -3.13751
    D4        0.00105  -0.00045  -0.00002  -0.01729  -0.01730  -0.01625
    D5        0.01653   0.00016  -0.00008   0.00940   0.00932   0.02586
    D6       -3.12280   0.00008  -0.00019   0.00918   0.00899  -3.11381
    D7       -3.13797   0.00001  -0.00006  -0.00016  -0.00019  -3.13816
    D8        0.00587  -0.00006  -0.00017  -0.00038  -0.00052   0.00535
    D9       -0.95437  -0.00161  -0.00073  -0.05737  -0.05797  -1.01235
   D10        1.11507  -0.00105  -0.00069  -0.05040  -0.05107   1.06399
   D11       -3.13320   0.00165   0.00039  -0.05507  -0.05480   3.09518
   D12        2.20049  -0.00146  -0.00075  -0.04752  -0.04816   2.15233
   D13       -2.01326  -0.00090  -0.00071  -0.04056  -0.04126  -2.05452
   D14        0.02166   0.00180   0.00037  -0.04523  -0.04499  -0.02333
   D15        0.00927  -0.00019  -0.00002  -0.00654  -0.00654   0.00273
   D16       -3.12929  -0.00025  -0.00003  -0.00870  -0.00872  -3.13802
   D17       -3.13722   0.00045   0.00005   0.01807   0.01811  -3.11911
   D18        0.00741   0.00039   0.00004   0.01591   0.01593   0.02333
   D19       -0.00027   0.00016  -0.00002   0.00755   0.00752   0.00725
   D20       -3.13726   0.00010   0.00000   0.00417   0.00417  -3.13309
   D21        3.13838   0.00022  -0.00000   0.00965   0.00964  -3.13516
   D22        0.00139   0.00016   0.00002   0.00627   0.00629   0.00768
   D23       -0.00057   0.00001   0.00000  -0.00008  -0.00008  -0.00064
   D24        3.10631   0.00006   0.00003   0.00123   0.00127   3.10758
   D25        3.13637   0.00007  -0.00002   0.00333   0.00331   3.13968
   D26       -0.03994   0.00011   0.00001   0.00465   0.00466  -0.03528
   D27       -0.00766  -0.00016   0.00005  -0.00841  -0.00835  -0.01601
   D28        3.13168  -0.00009   0.00015  -0.00818  -0.00802   3.12366
   D29       -3.11451  -0.00022   0.00002  -0.00976  -0.00974  -3.12424
   D30        0.02483  -0.00014   0.00012  -0.00954  -0.00940   0.01543
   D31        0.38319  -0.00002  -0.00000  -0.00287  -0.00288   0.38031
   D32        2.66246  -0.00005   0.00000  -0.00322  -0.00322   2.65925
   D33       -1.62100  -0.00004   0.00001  -0.00310  -0.00310  -1.62410
   D34       -2.79199   0.00002   0.00003  -0.00161  -0.00159  -2.79358
   D35       -0.51272  -0.00000   0.00003  -0.00196  -0.00192  -0.51465
   D36        1.48700  -0.00000   0.00004  -0.00184  -0.00181   1.48520
   D37        0.85880   0.00219  -0.00123   0.13400   0.13268   0.99148
   D38       -1.19460   0.00756  -0.00048   0.15720   0.15688  -1.03773
   D39        2.84553   0.00292  -0.00086   0.13734   0.13643   2.98196
   D40        1.09483  -0.00002  -0.00000   0.00034   0.00034   1.09516
   D41       -1.09585  -0.00006  -0.00001  -0.00044  -0.00045  -1.09630
   D42       -0.92176   0.00004  -0.00000   0.00071   0.00071  -0.92105
   D43       -3.11245   0.00000  -0.00000  -0.00007  -0.00007  -3.11252
   D44        3.10752   0.00004   0.00001   0.00040   0.00041   3.10793
   D45        0.91684   0.00000   0.00001  -0.00038  -0.00037   0.91647
         Item               Value     Threshold  Converged?
 Maximum Force            0.007559     0.000450     NO 
 RMS     Force            0.001378     0.000300     NO 
 Maximum Displacement     0.169732     0.001800     NO 
 RMS     Displacement     0.030897     0.001200     NO 
 Predicted change in Energy=-1.259521D-03
 GradGradGradGradGradGradGradGradGradGradGradGradGradGradGradGradGradGrad

                          Input orientation:                          
 ---------------------------------------------------------------------
 Center     Atomic      Atomic             Coordinates (Angstroms)
 Number     Number       Type             X           Y           Z
 ---------------------------------------------------------------------
      1          6           0       -1.628490    1.074354   -1.138136
      2          6           0       -2.868003    0.913542   -1.775041
      3          6           0       -2.951512    0.134238   -2.937060
      4          6           0       -1.823814   -0.484507   -3.465895
      5          6           0       -0.615120   -0.317812   -2.808692
      6          6           0       -0.503141    0.442331   -1.650801
      7         16           0       -1.427894    2.068114    0.385554
      8          8           0       -1.921705    3.417151   -0.016327
      9          8           0       -2.289339    1.407357    1.398276
     10          7           0        0.053924    1.973011    0.848619
     11          1           0        0.684694    2.283002    0.104596
     12         17           0       -4.309737    1.629784   -1.146684
     13         17           0       -4.461358   -0.087078   -3.759446
     14         16           0        0.832496   -1.145307   -3.440303
     15          1           0       -1.899413   -1.079240   -4.370938
     16          1           0        0.455718    0.539884   -1.150059
     17          8           0        0.586838   -1.449525   -4.847504
     18          8           0        1.995023   -0.349207   -3.055556
     19          7           0        0.986582   -2.591876   -2.668998
     20          1           0        0.195865   -3.212850   -2.853046
     21          1           0        1.135302   -2.477826   -1.663982
 ---------------------------------------------------------------------
                    Distance matrix (angstroms):
                    1          2          3          4          5
     1  C    0.000000
     2  C    1.402819   0.000000
     3  C    2.422877   1.401634   0.000000
     4  C    2.808320   2.429786   1.390760   0.000000
     5  C    2.399125   2.767698   2.383182   1.385874   0.000000
     6  C    1.388772   2.414549   2.782787   2.428533   1.389628
     7  S    1.830145   2.841675   4.135341   4.637487   4.068962
     8  O    2.614026   3.202595   4.513170   5.208843   4.842976
     9  O    2.642158   3.263226   4.566667   5.239850   4.845389
    10  N    2.754142   4.067398   5.171566   5.308515   4.367083
    11  H    2.890680   4.246188   5.204887   5.167216   4.115944
    12  Cl   2.738186   1.728130   2.699422   4.003596   4.495064
    13  Cl   4.030550   2.734572   1.733475   2.683423   3.968717
    14  S    4.035259   4.550346   4.026066   2.737389   1.783052
    15  H    3.893889   3.412921   2.153009   1.085599   2.160971
    16  H    2.151679   3.402550   3.868738   3.407161   2.152533
    17  O    5.003704   5.192307   4.321808   2.941318   2.623401
    18  O    4.339685   5.184909   4.971516   3.843203   2.621979
    19  N    4.756404   5.286298   4.797097   3.601996   2.785020
[...]
 -0.00038732,0.00054751,-0.00035217,-0.00070380,-0.00074455,-0.00087372
 ,-0.00073131,0.00080053,-0.00042536,-0.00022013,-0.00238116,-0.0031431
 8,-0.04974838,0.01694057,-0.08820409,-0.01621086,0.00941428,0.00676529
 ,0.03049400,0.00529511,0.00387623,-0.04228306,-0.16745325,0.22609175,0
 .00070833,0.00133167,-0.00055944,-0.00042475,0.00011016,-0.00009834,-0
 .00021451,0.00007813,0.00021802,0.00031260,0.00004722,0.00013516,-0.00
 015392,-0.00025783,-0.00017890,0.00015503,0.00012379,0.00012202,-0.034
 95420,-0.02340626,0.02099336,0.00781994,-0.00200997,-0.00036991,-0.005
 95564,-0.00140381,-0.00080767,-0.14455241,-0.11984477,0.10257241,0.176
 82636,0.00065367,0.00056821,-0.00061098,-0.00017771,0.00032646,0.00013
 749,-0.00003686,-0.00007678,0.00001520,0.00001754,0.00007085,0.0001506
 3,0.00035195,0.00009301,-0.00000564,-0.00041176,0.00034384,0.00008387,
 0.00966927,-0.00442467,0.00215615,0.00027518,-0.00083731,-0.00019227,0
 .00292342,0.00519373,0.00116204,-0.15938754,-0.16891585,0.14394439,0.1
 4543442,0.16884431,-0.00086803,0.00131103,-0.00152921,0.00025144,0.000
 04876,-0.00027037,-0.00004841,-0.00020773,0.00007412,-0.00006223,0.000
 04940,0.00002756,0.00016894,-0.00000542,0.00009784,-0.00002529,-0.0001
 1093,-0.00011200,-0.01969860,-0.00472521,-0.00338074,-0.00133195,-0.00
 123075,-0.00062421,-0.00028578,0.00172331,0.00417916,0.14346305,0.1501
 2566,-0.13943706,-0.12172838,-0.14615575,0.14154919,-0.03672706,0.0170
 4266,0.01183083,-0.13409218,0.05403765,0.04343185,-0.01678314,0.011470
 52,0.00956598,0.00455792,-0.00004866,-0.00000332,-0.00359085,0.0014863
 7,0.00162356,-0.00141824,-0.00277663,-0.00601908,-0.00227295,0.0033257
 1,0.00487381,-0.00112476,-0.00198360,-0.00120838,0.00028562,-0.0002455
 4,-0.00266534,-0.00068030,-0.00032405,-0.00092448,0.00014996,0.0001191
 1,0.00009929,0.18882491,0.00875098,0.00145356,0.00011238,0.05099904,-0
 .05741881,-0.03054912,0.02239663,-0.00909381,-0.01345016,-0.00284128,0
 .00218569,-0.00402356,0.00184038,-0.00081452,-0.00040848,-0.00009833,0
 .00380915,-0.00126318,0.00031732,-0.00575915,-0.00141465,-0.00282329,0
 .00074743,-0.00189006,-0.00101291,0.00078615,0.00095590,-0.00024515,0.
 00094716,0.00007012,0.00008609,0.00001278,0.00003451,-0.07904633,0.066
 81210,-0.00052348,0.00307179,0.00747962,0.03893793,-0.02923013,-0.0547
 2596,0.02609645,-0.01748368,-0.01194499,-0.00455081,-0.00308422,-0.001
 80734,0.00182948,-0.00016355,-0.00027089,-0.00212597,-0.00213967,0.000
 72631,0.00052407,-0.00054285,-0.00467958,-0.00197950,-0.00005146,0.000
 61369,-0.00419128,-0.00057323,0.00012691,-0.00055894,0.00011666,0.0007
 2777,-0.00010177,-0.00003538,0.00005635,-0.05729080,0.05351903,0.06952
 975,0.00129210,-0.00067571,-0.00201096,-0.01804766,-0.00154834,-0.0099
 2597,-0.14420119,-0.01290132,-0.06097837,-0.04305177,-0.00291839,-0.02
 133380,-0.00007555,0.00437790,0.00468344,-0.00175161,-0.00110069,-0.00
 208581,-0.00043853,0.00273785,0.00375608,0.00026387,-0.00129100,-0.000
 34294,0.00052918,-0.00003195,-0.00125325,-0.00084876,-0.00069910,-0.00
 113479,0.00012231,0.00012401,-0.00001679,0.00253320,0.00159380,0.00351
 734,0.20345799,0.00227438,0.00120399,-0.00374302,-0.01411332,-0.000177
 73,-0.01039151,-0.01017725,-0.02979647,-0.01349670,0.00976555,0.004999
 51,0.00453883,0.00141209,0.00228713,-0.00306001,-0.00067620,-0.0002322
 1,0.00066349,-0.00007084,0.00100281,0.00116854,-0.00000917,-0.00045211
 ,-0.00014043,0.00007024,-0.00000009,-0.00051671,-0.00052029,-0.0002880
 1,-0.00032528,0.00002146,0.00000103,-0.00004107,-0.00339867,-0.0031167
 6,-0.00402944,0.01464577,0.02613561,0.00215605,-0.00480694,-0.00199762
 ,-0.02847425,-0.00582231,-0.01518383,-0.05704875,-0.01443048,-0.064951
 55,-0.00220127,-0.00005780,0.00352466,0.00071441,-0.00211104,0.0018259
 3,-0.00119010,0.00032568,-0.00064750,-0.00037863,0.00225425,0.00330662
 ,0.00004824,-0.00120026,-0.00036732,0.00031134,-0.00001130,-0.00114712
 ,-0.00101217,-0.00048372,-0.00117625,0.00011037,0.00011250,0.00000217,
 -0.00382466,-0.00235674,-0.00621396,0.08888748,0.02738971,0.08316660,0
 .00505438,-0.00377718,-0.00473327,-0.00439896,0.00098422,0.00031739,-0
 .00325753,-0.00234216,-0.00644134,-0.02588318,0.00926849,0.00342857,-0
 .12909314,0.04066637,0.02159080,0.00415135,0.00759188,0.01415438,0.002
 55992,0.00552296,0.00826190,-0.00001433,-0.00379238,-0.00131377,0.0008
 3647,-0.00024326,-0.00402643,-0.00199716,-0.00130212,-0.00229252,0.000
 29664,0.00028320,0.00002364,0.00515479,-0.00257212,-0.00207049,0.00289
 845,0.00042184,0.00149397,0.68649556,-0.00106445,0.00364078,-0.0032052
 9,0.00064267,-0.00212495,-0.00212118,-0.00054477,0.00707843,0.00014764
 ,0.00572805,0.00279829,0.00645587,0.03537180,-0.08081333,-0.02153853,0
 .01047493,-0.00896552,-0.00713703,-0.00022540,-0.00240429,-0.00428088,
 -0.00005247,0.00186230,0.00072772,-0.00052820,-0.00001664,0.00171926,0
 .00076264,0.00089523,0.00136391,-0.00014595,-0.00020554,-0.00004528,-0
 .00305776,0.00102369,0.00141556,-0.00249054,0.00006022,-0.00093862,0.1
 6901498,0.60340547,-0.00059513,-0.00433581,-0.00119425,-0.00062637,-0.
 00200379,-0.00376968,-0.00374720,-0.00033255,0.00380469,0.00083354,0.0
 0844269,0.01025332,0.02404510,-0.02601141,-0.07702214,0.01789038,-0.00
 938400,-0.00733948,0.00042933,-0.00219550,-0.00263938,-0.00013698,0.00
 112745,0.00024485,-0.00033158,0.00007397,0.00120955,0.00042606,0.00074
 546,0.00116689,-0.00012798,-0.00020115,-0.00004932,-0.00233743,0.00133
 616,0.00076670,-0.00258586,-0.00008914,-0.00063255,0.15827803,0.116851
 82,0.83034286,-0.00101106,0.00018761,0.00021578,-0.00297317,0.00212630
 ,0.00016615,0.00343679,0.01435993,0.02102233,-0.05711084,-0.00957753,-
 0.02076637,0.00366702,-0.01413359,-0.02135786,-0.00491618,0.00080699,-
 0.00250342,-0.00022989,0.00001979,0.00004571,0.00008854,-0.00009526,0.
 00003205,0.00006576,0.00002964,-0.00002604,0.00012842,-0.00014345,-0.0
 0016172,0.00001499,0.00003510,0.00001701,-0.00050505,0.00082802,0.0011
 5942,0.00026226,0.00038837,0.00149158,-0.00120031,-0.00130959,-0.00238
 295,0.05902858,0.00042666,-0.00041524,0.00075934,0.00226961,0.00342911
 ,-0.00274486,-0.00117042,-0.00236693,-0.01030649,-0.00790018,-0.131254
 03,-0.14289612,-0.00094298,0.00332619,-0.00175514,0.00089093,0.0045080
 9,-0.00196184,-0.00011852,-0.00037568,-0.00014556,0.00005997,-0.000013
 74,0.00003382,-0.00013714,0.00004117,0.00018979,0.00004584,0.00001952,
 0.00002821,-0.00000265,-0.00004130,-0.00000819,0.00009943,-0.00030763,
 -0.00018056,-0.00130508,-0.00147369,0.00127073,0.00016895,-0.00226304,
 0.00084444,0.00650481,0.12735936,0.00035884,0.00065164,0.00030690,0.00
 040662,-0.00257483,0.00189874,-0.00172690,-0.00489042,-0.00373909,-0.0
 1942561,-0.14422848,-0.26167020,-0.00127869,-0.00647334,-0.00608343,-0
 .00228714,-0.00188426,0.00218910,-0.00006890,-0.00006432,-0.00040151,-
 0.00005140,0.00015730,0.00006979,0.00005662,0.00001475,0.00003466,0.00
 010513,-0.00001640,0.00001798,-0.00001187,0.00003403,0.00001153,-0.000
 02057,0.00012435,0.00000664,-0.00081747,0.00175380,-0.00004552,-0.0000
 9476,0.00084033,-0.00228154,0.02267074,0.15671040,0.26928729,-0.017478
 19,-0.00070338,-0.00920238,-0.00170915,0.00245567,0.00095403,-0.000154
 94,0.00035000,0.00074334,0.00133285,0.00144797,0.00071321,0.00480551,-
 0.00076843,-0.00050922,-0.28295330,-0.02399178,-0.12179455,-0.00348033
 ,-0.00048966,-0.00116933,0.00049953,-0.00083242,0.00037178,0.00064153,
 0.00046065,-0.00022390,0.00113462,-0.00219598,-0.00240335,0.00009124,0
 .00035640,0.00007496,-0.00065471,-0.00002216,-0.00020536,0.00018317,-0
 .00008294,0.00008530,-0.00066288,-0.00035716,0.00051195,0.00041501,0.0
 0010367,0.00009655,0.29875460,0.01132941,0.00629589,0.00655289,0.00228
 407,0.00297182,-0.00422102,0.00020755,-0.00090939,0.00003493,0.0013347
 4,0.00213081,-0.00494423,-0.01426615,0.00227337,-0.00729103,-0.0240783
 4,-0.04805778,-0.02202384,0.00225891,-0.00266206,0.00130181,-0.0000554
 1,-0.00063503,-0.00066739,-0.00072971,0.00024431,0.00093548,-0.0008568
 6,0.00010601,0.00042159,-0.00027893,-0.00113129,-0.00081915,0.00105402
 ,-0.00013652,0.00018562,-0.00007814,-0.00022743,0.00024786,-0.00124929
 ,-0.00315919,-0.00047898,-0.00063999,0.00026912,-0.00030287,0.02353997
 ,0.04209630,0.00905358,0.00182656,0.01067090,0.00068417,-0.00392645,0.
 00054007,0.00054994,0.00008977,-0.00049791,0.00035562,-0.00487632,-0.0
 0144766,-0.01993006,-0.00273650,-0.00703894,-0.12215714,-0.02137796,-0
 .11280746,0.00310060,0.00061967,-0.00131036,-0.00055528,0.00061373,0.0
 0024498,0.00020456,-0.00026704,-0.00080918,-0.00108571,-0.00009585,-0.
 00008724,-0.00026834,-0.00077942,-0.00064330,0.00125140,-0.00015763,0.
 00013814,0.00012757,0.00024409,0.00000337,-0.00136135,-0.00024578,-0.0
 0296808,-0.00093101,-0.00002934,-0.00005578,0.13083234,0.02977865,0.11
 423474,-0.00003692,0.00173652,0.00153914,0.00058991,0.00000420,0.00034
 438,0.00161287,0.00049732,0.00115832,-0.00215248,-0.00019751,0.0004557
 0,0.00778558,0.00612906,0.01922728,-0.00442166,-0.00032451,-0.00093426
 ,-0.00068872,-0.00117663,-0.00193556,-0.00000272,0.00088812,0.00032447
 ,-0.00019238,0.00004497,0.00088282,0.00044308,0.00023897,0.00045540,-0
 .00005927,-0.00005260,-0.00000302,-0.00070759,0.00037196,0.00034376,-0
 .00052147,-0.00007518,-0.00028440,-0.09079503,-0.01531897,-0.06937476,
 0.00040511,0.00110129,0.00194988,0.00013058,-0.00001451,0.00022523,0.0
 7769527,0.00042789,-0.00187954,-0.00072624,-0.00083825,0.00029692,-0.0
 0022461,-0.00067872,-0.00066981,0.00001554,0.00018678,-0.00052646,-0.0
 0141844,-0.00269899,0.00427861,-0.01685697,0.00388330,0.00133980,0.000
 10977,0.00052084,0.00098950,0.00198867,0.00000978,-0.00090103,-0.00036
 269,0.00020423,0.00001032,-0.00078181,-0.00037065,-0.00027634,-0.00049
 486,0.00005628,0.00006878,0.00001596,0.00090934,-0.00036885,-0.0003603
 4,0.00066338,0.00003673,0.00025428,-0.01485147,-0.09530797,-0.09832365
 ,0.00055314,-0.00015299,-0.00036489,0.00001003,0.00057648,0.00013920,0
 .01506740,0.08271649,-0.00063582,-0.00207777,-0.00251547,-0.00092285,0
 .00068431,0.00058637,-0.00038252,-0.00080561,-0.00044428,-0.00187677,-
 0.00095201,-0.00172203,-0.01300943,-0.00221153,-0.01855930,0.00875097,
 -0.00155630,0.00025342,0.00100569,0.00216843,0.00339266,0.00003725,-0.
 00160157,-0.00048651,0.00039504,-0.00004425,-0.00157797,-0.00064733,-0
 .00054099,-0.00088734,0.00009674,0.00013144,0.00002301,0.00146510,-0.0
 0059911,-0.00051983,0.00121512,0.00004187,0.00048169,-0.07718119,-0.09
 633276,-0.51770269,0.00077056,0.00033098,0.00002600,0.00022764,0.00065
 023,0.00067996,0.08935621,0.10425050,0.58181403,0.00021337,0.00127128,
 0.00069607,0.00067946,-0.00104272,-0.00114710,-0.00043809,0.00162932,-
 0.00030184,-0.00349192,0.00444810,0.00830255,-0.02001431,-0.02357604,-
 0.01330817,-0.00181338,-0.00028786,-0.00114761,-0.00079385,-0.00227431
 ,-0.00340874,-0.00001266,0.00149809,0.00051862,-0.00034351,0.00008332,
 0.00151653,0.00075136,0.00058297,0.00099621,-0.00012821,-0.00012342,-0
 .00001797,-0.00185393,0.00084622,0.00081668,-0.00208487,0.00017483,-0.
 00064002,-0.38306936,-0.20509619,-0.09953787,0.00036578,-0.00048612,0.
 00052650,-0.00095268,-0.00031281,0.00010782,0.00141552,-0.00908293,-0.
 00116155,0.41383101,-0.00017154,0.00053100,0.00071754,0.00046245,0.000
 30200,0.00053871,0.00028764,-0.00116161,-0.00026792,-0.00156386,0.0014
 1387,-0.00035273,0.00729606,0.00506939,-0.00272378,0.00067109,-0.00048
 677,-0.00165583,-0.00023057,0.00006197,0.00010368,0.00003693,0.0000023
 0,-0.00000989,0.00006045,0.00001623,-0.00003125,0.00003617,-0.00004686
 ,-0.00008860,-0.00000433,0.00002781,0.00002420,0.00011479,-0.00002353,
 0.00000460,-0.00002005,-0.00003188,0.00007606,-0.19783060,-0.20962033,
 -0.06848085,0.00022981,0.00033039,0.00017532,0.00091202,0.00019019,0.0
 0072379,-0.01278199,0.00565511,-0.00240751,0.24002943,0.22966615,0.000
 35357,0.00071582,0.00076591,0.00025640,-0.00005364,0.00006126,0.000286
 32,0.00037757,0.00023637,0.00038527,-0.00103345,-0.00086707,0.00571952
 ,0.00023618,0.00821031,-0.00038612,-0.00024500,-0.00159277,-0.00020221
 ,0.00028916,0.00025515,0.00004216,-0.00011525,0.00000776,0.00007366,-0
 .00000813,-0.00011763,0.00000201,-0.00011895,-0.00015331,0.00000490,0.
 00004610,0.00002509,0.00006171,-0.00001673,0.00006283,0.00028484,0.000
 00265,0.00006946,-0.09597278,-0.06539185,-0.10889686,0.00029700,-0.000
 06436,0.00032220,0.00101143,0.00050735,0.00131112,-0.03281903,-0.02208
 216,-0.00770662,0.11189359,0.07691273,0.09554379,-0.00094888,-0.000715
 35,0.00124072,0.00075763,-0.00018171,-0.00040721,0.00028456,-0.0006053
 3,0.00195730,0.00125528,0.00141535,0.00101969,0.00314822,0.01837704,-0
 .00671926,-0.00196578,0.00049032,-0.00188809,-0.00048592,-0.00118414,-
 0.00175089,0.00000459,0.00074557,0.00023804,-0.00014933,0.00006317,0.0
 0082007,0.00043723,0.00030227,0.00048314,-0.00006793,-0.00005814,-0.00
 001249,-0.00123164,0.00071301,0.00043508,-0.00058343,-0.00006626,-0.00
 029167,-0.06550520,-0.01260987,-0.01507652,0.00005275,0.00053954,-0.00
 031523,-0.00000548,0.00052604,-0.00023549,0.00605232,0.00673909,-0.007
 60108,-0.00498139,-0.03880228,0.01027386,0.36315584,0.00034769,0.00063
 335,-0.00140745,-0.00056822,0.00070579,0.00125480,0.00045781,0.0003303
 0,-0.00259160,-0.00026757,-0.00372954,-0.00244679,0.00180974,-0.010847
 64,0.01288839,0.00238625,-0.00068223,0.00132343,0.00055208,0.00163333,
 0.00258274,0.00000446,-0.00110432,-0.00037913,0.00026305,-0.00001411,-
 0.00117939,-0.00054676,-0.00042724,-0.00074262,0.00009064,0.00011333,0
 .00002826,0.00163859,-0.00096173,-0.00058855,0.00115753,0.00010119,0.0
 0042249,0.01023255,-0.18994201,0.04918721,-0.00022653,-0.00068152,0.00
 026977,-0.00001780,-0.00027886,0.00067969,0.00096240,0.00585215,-0.004
 08846,-0.00721338,-0.02901297,0.01070948,0.23005398,0.45024279,-0.0005
 3408,0.00052302,0.00067257,0.00053650,0.00037189,0.00044949,0.00043171
 ,-0.00039765,-0.00033719,-0.00064188,-0.00030402,-0.00020754,0.0046464
 8,-0.00119263,0.00746555,-0.00130281,0.00037763,-0.00001490,-0.0002178
 4,-0.00024539,-0.00040322,0.00000643,0.00016287,0.00006451,-0.00005862
 ,-0.00000385,0.00024783,0.00010177,0.00004600,0.00005639,-0.00001000,0
 .00000220,0.00000240,-0.00004716,0.00004069,-0.00001333,-0.00008413,0.
 00000806,-0.00004856,-0.02871357,0.06776076,-0.11340932,0.00028234,-0.
 00000535,0.00010716,-0.00003371,0.00000922,-0.00017595,-0.00871588,0.0
 3510555,-0.03593623,-0.00461024,-0.00822909,0.00981261,0.14869817,-0.0
 1003745,0.61761497,0.00007083,0.00013678,-0.00006285,0.00000280,-0.000
 06947,-0.00003323,-0.00010666,-0.00000731,0.00003591,-0.00002662,0.000
 25574,0.00017337,-0.00069116,-0.00002996,-0.00056358,0.00003535,0.0000
 3004,-0.00009819,-0.00000922,-0.00005134,-0.00007323,-0.00001122,0.000
 03504,0.00001796,-0.00001187,-0.00000350,0.00004124,0.00000131,-0.0000
 0849,0.00003520,-0.00000082,-0.00000554,0.00000021,-0.00004920,0.00001
 423,0.00001917,-0.00006349,-0.00000425,-0.00000789,0.00229916,0.008973
 93,0.00185325,0.00002087,-0.00004812,-0.00007056,0.00002469,-0.0000471
 2,-0.00002850,-0.00000226,0.00089693,-0.00028695,0.00458531,0.00289375
 ,-0.00160893,-0.27113353,-0.21144549,-0.07500168,0.26872145,-0.0003354
 6,0.00000570,0.00023959,0.00023178,-0.00001611,0.00007457,0.00031649,-
 0.00011840,0.00026009,0.00022910,0.00011700,0.00012885,0.00130742,0.00
 207890,0.00021381,-0.00037827,0.00007833,-0.00042347,-0.00011999,-0.00
 033169,-0.00048309,0.00000098,0.00021067,0.00006721,-0.00004373,0.0000
 1336,0.00022697,0.00010997,0.00007961,0.00013435,-0.00001694,-0.000017
 86,-0.00000342,-0.00029919,0.00016466,0.00010855,-0.00016328,-0.000019
 49,-0.00009364,-0.02275653,-0.02663029,-0.00106828,0.00009405,0.000034
 27,0.00006693,-0.00003032,0.00007171,-0.00007988,0.00222506,0.00260007
 ,-0.00299019,-0.00186136,-0.00343118,0.00231601,-0.17628065,-0.1660232
 1,-0.03237882,0.19719224,0.19075502,-0.00000788,0.00007119,-0.00001973
 ,0.00002294,-0.00009928,0.00003221,0.00006315,0.00005977,-0.00000825,-
 0.00003648,0.00012517,0.00025342,0.00003197,0.00022539,-0.00056565,-0.
 00019976,-0.00007832,-0.00009231,-0.00002225,-0.00009958,-0.00011833,-
 0.00000131,0.00005788,0.00001342,-0.00000732,0.00000364,0.00005467,0.0
 0002104,0.00002807,0.00004255,-0.00000243,-0.00000807,-0.00000231,-0.0
 0008355,0.00004087,0.00003131,-0.00005859,0.00000055,-0.00002632,0.015
 88767,0.00305765,0.00558330,-0.00001046,-0.00002449,-0.00002121,-0.000
 01781,0.00002934,-0.00004066,-0.00152446,-0.00104187,-0.00130961,0.000
 97910,0.00707496,0.00014081,-0.05929217,-0.01980377,-0.06704420,0.0714
 3426,0.03359515,0.06427154,-0.00023788,0.00007536,0.00002953,0.0000730
 8,0.00017241,0.00022397,0.00008846,-0.00011891,-0.00034927,-0.00014457
 ,-0.00034258,-0.00028630,0.00030679,-0.00016483,0.00143100,0.00007459,
 -0.00002990,0.00010146,0.00005971,0.00021509,0.00029422,0.00000005,-0.
 00013360,-0.00004328,0.00002074,-0.00001411,-0.00011571,-0.00006848,-0
 .00004885,-0.00009500,0.00001426,0.00001029,0.00000042,0.00018520,-0.0
 0009611,-0.00008098,0.00012579,0.00001983,0.00005507,-0.00386967,0.011
 83231,-0.00740702,-0.00000539,-0.00009951,-0.00000175,0.00003833,0.000
 07255,0.00006004,0.00345025,-0.00160743,0.00038515,-0.00186366,-0.0016
 2537,0.00004284,-0.02808991,-0.02967105,-0.03473179,-0.00365570,0.0005
 7863,-0.02717567,0.03349801,0.00012743,-0.00015865,-0.00012204,-0.0000
 8416,-0.00010975,-0.00020135,-0.00012159,0.00004224,0.00030503,0.00008
 246,0.00030850,0.00000081,-0.00087957,-0.00049773,-0.00150736,0.000407
 16,-0.00010212,0.00002870,0.00002546,-0.00010909,-0.00015433,-0.000008
 23,0.00008090,0.00002347,-0.00002451,-0.00000423,0.00005571,0.00002447
 ,0.00003455,0.00006763,-0.00000842,-0.00001351,-0.00000818,-0.00011774
 ,0.00005892,0.00004125,-0.00007666,-0.00001233,-0.00004070,0.00656167,
 0.00068871,0.03429593,-0.00003765,0.00002858,0.00000119,-0.00014436,-0
 .00002846,-0.00014299,0.00067465,-0.00433796,0.00795029,0.00079355,0.0
 0054872,-0.00298353,-0.02946166,-0.05590683,-0.05161362,0.00129190,0.0
 0037893,-0.02321426,0.02097579,0.05911062,-0.00012471,0.00000607,-0.00
 011282,-0.00001215,0.00010441,0.00022516,0.00003010,-0.00005750,-0.000
 35801,-0.00019287,-0.00036355,-0.00019770,0.00033228,-0.00091704,0.001
 16452,0.00030721,0.00006233,0.00010946,0.00007860,0.00022300,0.0003772
 3,0.00000129,-0.00014569,-0.00005935,0.00003569,0.00000215,-0.00017008
 ,-0.00008531,-0.00006972,-0.00010510,0.00001206,0.00001264,0.00000011,
 0.00022124,-0.00010460,-0.00009013,0.00015685,0.00002173,0.00005759,0.
 00076512,0.00089669,-0.01546684,-0.00003083,-0.00004540,0.00002028,-0.
 00006290,0.00009354,0.00005923,-0.00067122,0.00115905,0.00211073,-0.00
 107258,-0.00210411,0.00250959,-0.07157597,-0.03608105,-0.41890306,0.00
 422503,0.00008872,-0.00117466,0.06766308,0.03721834,0.43000384\\0.0000
 1354,0.00000244,0.00000075,-0.00000221,0.00000402,-0.00002313,0.000010
 60,0.00002690,-0.00001170,0.00001953,0.00001644,-0.00000902,-0.0000036
 4,-0.00000021,-0.00000997,0.00000122,0.00000261,0.00000956,0.00000163,
 -0.00002642,0.00000797,0.00001836,0.00000467,0.00001250,-0.00001275,-0
 .00000143,-0.00000166,-0.00002936,-0.00001936,0.00001535,-0.00000171,-
 0.00002605,0.00003225,0.00000136,0.00003155,-0.00002137,0.00001439,0.0
 0004304,-0.00004131,0.00000261,-0.00003097,0.00002849,0.00001249,0.000
 02341,-0.00001747,-0.00000652,-0.00001825,0.00001554,0.00001525,-0.000
 00024,-0.00000194,0.00001429,-0.00001601,0.00002966,-0.00004272,0.0000
 0648,-0.00000072,-0.00001296,-0.00000420,-0.00001043,-0.00001340,-0.00
 001842,-0.00000336\\\@
 The archive entry for this job was punched.


 THEORY:  SUPPOSITION WHICH HAS SCIENTIFIC BASIS,
          BUT NOT EXPERIMENTALLY PROVEN.
 FACT:    A THEORY WHICH HAS BEEN PROVEN BY ENOUGH 
          MONEY TO PAY FOR THE EXPERIMENTS.

                          --  THE WIZARD OF ID
 Job cpu time:       0 days  1 hours 45 minutes 51.9 seconds.
 Elapsed time:       0 days  0 hours  6 minutes 41.3 seconds.
 File lengths (MBytes):  RWF=    362 Int=      0 D2E=      0 Chk=     17 Scr=      1
 Normal termination of Gaussian 16 at Sat Jul  2 14:48:10 2022.
