 Entering Gaussian System, Link 0=g16
 AtFile(1): /home/561/yj5695/Basis/6-31pGd.gbs
 Initial command:
 /apps/gaussian/g16c01/g16/l1.exe "/jobfs/50000971.gadi-pbs/Gau-1691120.inp" -scrdir="/jobfs/50000971.gadi-pbs/"
 Entering Link 1 = /apps/gaussian/g16c01/g16/l1.exe PID=   1691121.
  
 Copyright (c) 1988-2019, Gaussian, Inc.  All Rights Reserved.
  
 This is part of the Gaussian(R) 16 program.  It is based on
 the Gaussian(R) 09 system (copyright 2009, Gaussian, Inc.),
 the Gaussian(R) 03 system (copyright 2003, Gaussian, Inc.),
 the Gaussian(R) 98 system (copyright 1998, Gaussian, Inc.),
 the Gaussian(R) 94 system (copyright 1995, Gaussian, Inc.),
 the Gaussian 92(TM) system (copyright 1992, Gaussian, Inc.),
 the Gaussian 90(TM) system (copyright 1990, Gaussian, Inc.),
 the Gaussian 88(TM) system (copyright 1988, Gaussian, Inc.),
 the Gaussian 86(TM) system (copyright 1986, Carnegie Mellon
 University), and the Gaussian 82(TM) system (copyright 1983,
 Carnegie Mellon University). Gaussian is a federally registered
 trademark of Gaussian, Inc.
  
 This software contains proprietary and confidential information,
 including trade secrets, belonging to Gaussian, Inc.
  
 This software is provided under written license and may be
 used, copied, transmitted, or stored only in accord with that
 written license.
  
 The following legend is applicable only to US Government
 contracts under FAR:
  
                    RESTRICTED RIGHTS LEGEND
  
 Use, reproduction and disclosure by the US Government is
 subject to restrictions as set forth in subparagraphs (a)
 and (c) of the Commercial Computer Software - Restricted
 Rights clause in FAR 52.227-19.
  
 Gaussian, Inc.
 340 Quinnipiac St., Bldg. 40, Wallingford CT 06492
  
  
 ---------------------------------------------------------------
 Warning -- This program may not be used in any manner that
 competes with the business of Gaussian, Inc. or will provide
 assistance to any competitor of Gaussian, Inc.  The licensee
 of this program is prohibited from giving any competitor of
 Gaussian, Inc. access to this program.  By using this program,
 the user acknowledges that Gaussian, Inc. is engaged in the
 business of creating and licensing software in the field of
 computational chemistry and represents and warrants to the
 licensee that it is not a competitor of Gaussian, Inc. and that
 it will not use this program in any manner prohibited above.
 ---------------------------------------------------------------
  

 Cite this work as:
 Gaussian 16, Revision C.01,
 M. J. Frisch, G. W. Trucks, H. B. Schlegel, G. E. Scuseria, 
 M. A. Robb, J. R. Cheeseman, G. Scalmani, V. Barone, 
 G. A. Petersson, H. Nakatsuji, X. Li, M. Caricato, A. V. Marenich, 
 J. Bloino, B. G. Janesko, R. Gomperts, B. Mennucci, H. P. Hratchian, 
 J. V. Ortiz, A. F. Izmaylov, J. L. Sonnenberg, D. Williams-Young, 
 F. Ding, F. Lipparini, F. Egidi, J. Goings, B. Peng, A. Petrone, 
 T. Henderson, D. Ranasinghe, V. G. Zakrzewski, J. Gao, N. Rega, 
 G. Zheng, W. Liang, M. Hada, M. Ehara, K. Toyota, R. Fukuda, 
 J. Hasegawa, M. Ishida, T. Nakajima, Y. Honda, O. Kitao, H. Nakai, 
 T. Vreven, K. Throssell, J. A. Montgomery, Jr., J. E. Peralta, 
 F. Ogliaro, M. J. Bearpark, J. J. Heyd, E. N. Brothers, K. N. Kudin, 
 V. N. Staroverov, T. A. Keith, R. Kobayashi, J. Normand, 
 K. Raghavachari, A. P. Rendell, J. C. Burant, S. S. Iyengar, 
 J. Tomasi, M. Cossi, J. M. Millam, M. Klene, C. Adamo, R. Cammi, 
 J. W. Ochterski, R. L. Martin, K. Morokuma, O. Farkas, 
 J. B. Foresman, and D. J. Fox, Gaussian, Inc., Wallingford CT, 2019.
 
 ******************************************
 Gaussian 16:  ES64L-G16RevC.01  3-Jul-2019
                 2-Jul-2022 
 ******************************************
 %nproc=16
 Will use up to   16 processors via shared memory.
 %mem=50gb
 -----------------------------------------------------
 #m062X/gen 6D OPT Freq=noraman SCRF=(SMD,Solvent=h2o)
 -----------------------------------------------------
 1/18=20,19=15,26=3,38=1/1,3;
 2/9=110,12=2,17=6,18=5,40=1/2;
 3/5=7,8=2,11=2,25=1,30=1,70=32201,71=1,72=1,74=-55/1,2,3;
 4//1;
 5/5=2,38=5,53=1/2;
 6/7=2,8=2,9=2,10=2,28=1/1;
 7//1,2,3,16;
 1/18=20,19=15,26=3/3(2);
 2/9=110/2;
 99//99;
 2/9=110/2;
 3/5=7,6=1,8=2,11=2,25=1,30=1,70=32205,71=1,72=1,74=-55,82=7/1,2,3;
 4/5=5,16=3,69=1/1;
 5/5=2,38=5,53=1/2;
 7//1,2,3,16;
 1/18=20,19=15,26=3/3(-5);
 2/9=110/2;
 6/7=2,8=2,9=2,10=2,19=2,28=1/1;
 99/9=1/99;
 ---------------
 A.39.smd.a1.smd
 ---------------
 Symbolic Z-matrix:
 Charge = -1 Multiplicity = 1
 S                    -2.19689   1.3705   -1.03565 
 O                    -2.1726    2.85457  -1.19303 
 O                    -3.5539    0.81703  -0.73272 
 N                    -1.06924   0.93251  -0.04745 
 H                    -1.2276   -0.04647   0.20133 
 C                    -1.82617   0.81071  -2.72586 
 N                    -1.75843  -0.64105  -2.81589 
 C                    -1.06261  -1.07894  -4.05685 
 C                    -2.17144  -1.1369   -5.0717 
 C                    -3.3575   -1.16728  -4.35146 
 O                    -3.13027  -1.09587  -2.9896 
 C                    -2.20349  -1.21633  -6.45563 
 C                    -3.44873  -1.32809  -7.08847 
 C                    -4.62749  -1.36395  -6.33975 
 C                    -4.60432  -1.28181  -4.94205 
 H                    -0.83912   1.22262  -2.94472 
 H                    -2.57205   1.25146  -3.39897 
 H                    -0.25913  -0.3803   -4.29222 
 H                    -1.28549  -1.19677  -7.03611 
 H                    -3.4975   -1.38664  -8.17142 
 H                    -5.58369  -1.44906  -6.84759 
 H                    -5.51307  -1.30141  -4.34935 
 H                    -0.63164  -2.07092  -3.88952 
 

 GradGradGradGradGradGradGradGradGradGradGradGradGradGradGradGradGradGrad
 Berny optimization.
 Initialization pass.
                           ----------------------------
                           !    Initial Parameters    !
                           ! (Angstroms and Degrees)  !
 --------------------------                            --------------------------
 ! Name  Definition              Value          Derivative Info.                !
 --------------------------------------------------------------------------------
 ! R1    R(1,2)                  1.4926         estimate D2E/DX2                !
 ! R2    R(1,3)                  1.4965         estimate D2E/DX2                !
 ! R3    R(1,4)                  1.562          estimate D2E/DX2                !
 ! R4    R(1,6)                  1.8187         estimate D2E/DX2                !
 ! R5    R(4,5)                  1.0224         estimate D2E/DX2                !
 ! R6    R(6,7)                  1.4561         estimate D2E/DX2                !
 ! R7    R(6,16)                 1.0917         estimate D2E/DX2                !
 ! R8    R(6,17)                 1.0971         estimate D2E/DX2                !
 ! R9    R(7,8)                  1.4886         estimate D2E/DX2                !
 ! R10   R(7,11)                 1.4557         estimate D2E/DX2                !
 ! R11   R(8,9)                  1.5043         estimate D2E/DX2                !
 ! R12   R(8,18)                 1.0904         estimate D2E/DX2                !
 ! R13   R(8,23)                 1.0944         estimate D2E/DX2                !
 ! R14   R(9,10)                 1.388          estimate D2E/DX2                !
 ! R15   R(9,12)                 1.3866         estimate D2E/DX2                !
 ! R16   R(10,11)                1.3825         estimate D2E/DX2                !
 ! R17   R(10,15)                1.3844         estimate D2E/DX2                !
 ! R18   R(12,13)                1.4013         estimate D2E/DX2                !
 ! R19   R(12,19)                1.0863         estimate D2E/DX2                !
 ! R20   R(13,14)                1.3969         estimate D2E/DX2                !
 ! R21   R(13,20)                1.0856         estimate D2E/DX2                !
 ! R22   R(14,15)                1.4003         estimate D2E/DX2                !
 ! R23   R(14,21)                1.086          estimate D2E/DX2                !
 ! R24   R(15,22)                1.0851         estimate D2E/DX2                !
 ! A1    A(2,1,3)              113.8178         estimate D2E/DX2                !
 ! A2    A(2,1,4)              109.4972         estimate D2E/DX2                !
 ! A3    A(2,1,6)              101.8136         estimate D2E/DX2                !
 ! A4    A(3,1,4)              115.0146         estimate D2E/DX2                !
 ! A5    A(3,1,6)              105.0179         estimate D2E/DX2                !
 ! A6    A(4,1,6)              110.7617         estimate D2E/DX2                !
 ! A7    A(1,4,5)              108.0956         estimate D2E/DX2                !
 ! A8    A(1,6,7)              111.9512         estimate D2E/DX2                !
 ! A9    A(1,6,16)             104.7422         estimate D2E/DX2                !
 ! A10   A(1,6,17)             107.9356         estimate D2E/DX2                !
 ! A11   A(7,6,16)             108.7671         estimate D2E/DX2                !
 ! A12   A(7,6,17)             113.2175         estimate D2E/DX2                !
 ! A13   A(16,6,17)            109.8836         estimate D2E/DX2                !
 ! A14   A(6,7,8)              111.5041         estimate D2E/DX2                !
 ! A15   A(6,7,11)             105.965          estimate D2E/DX2                !
 ! A16   A(8,7,11)             104.4252         estimate D2E/DX2                !
 ! A17   A(7,8,9)              103.2501         estimate D2E/DX2                !
 ! A18   A(7,8,18)             109.627          estimate D2E/DX2                !
 ! A19   A(7,8,23)             108.859          estimate D2E/DX2                !
 ! A20   A(9,8,18)             114.9742         estimate D2E/DX2                !
 ! A21   A(9,8,23)             111.0079         estimate D2E/DX2                !
 ! A22   A(18,8,23)            108.8783         estimate D2E/DX2                !
 ! A23   A(8,9,10)             106.2993         estimate D2E/DX2                !
 ! A24   A(8,9,12)             133.8372         estimate D2E/DX2                !
 ! A25   A(10,9,12)            119.7968         estimate D2E/DX2                !
 ! A26   A(9,10,11)            111.6901         estimate D2E/DX2                !
 ! A27   A(9,10,15)            123.3715         estimate D2E/DX2                !
 ! A28   A(11,10,15)           124.9271         estimate D2E/DX2                !
 ! A29   A(7,11,10)            106.773          estimate D2E/DX2                !
 ! A30   A(9,12,13)            118.4154         estimate D2E/DX2                !
 ! A31   A(9,12,19)            120.8487         estimate D2E/DX2                !
 ! A32   A(13,12,19)           120.7354         estimate D2E/DX2                !
 ! A33   A(12,13,14)           120.6548         estimate D2E/DX2                !
 ! A34   A(12,13,20)           119.651          estimate D2E/DX2                !
 ! A35   A(14,13,20)           119.6942         estimate D2E/DX2                !
 ! A36   A(13,14,15)           121.2998         estimate D2E/DX2                !
 ! A37   A(13,14,21)           119.6262         estimate D2E/DX2                !
 ! A38   A(15,14,21)           119.0722         estimate D2E/DX2                !
 ! A39   A(10,15,14)           116.4603         estimate D2E/DX2                !
 ! A40   A(10,15,22)           121.515          estimate D2E/DX2                !
 ! A41   A(14,15,22)           122.0241         estimate D2E/DX2                !
 ! D1    D(2,1,4,5)            168.028          estimate D2E/DX2                !
 ! D2    D(3,1,4,5)             38.3888         estimate D2E/DX2                !
 ! D3    D(6,1,4,5)            -80.4727         estimate D2E/DX2                !
 ! D4    D(2,1,6,7)            178.4027         estimate D2E/DX2                !
 ! D5    D(2,1,6,16)            60.7101         estimate D2E/DX2                !
 ! D6    D(2,1,6,17)           -56.3434         estimate D2E/DX2                !
 ! D7    D(3,1,6,7)            -62.698          estimate D2E/DX2                !
 ! D8    D(3,1,6,16)           179.6094         estimate D2E/DX2                !
 ! D9    D(3,1,6,17)            62.5559         estimate D2E/DX2                !
 ! D10   D(4,1,6,7)             62.0462         estimate D2E/DX2                !
 ! D11   D(4,1,6,16)           -55.6465         estimate D2E/DX2                !
 ! D12   D(4,1,6,17)          -172.6999         estimate D2E/DX2                !
 ! D13   D(1,6,7,8)           -162.6232         estimate D2E/DX2                !
 ! D14   D(1,6,7,11)            84.3468         estimate D2E/DX2                !
 ! D15   D(16,6,7,8)           -47.3641         estimate D2E/DX2                !
 ! D16   D(16,6,7,11)         -160.394          estimate D2E/DX2                !
 ! D17   D(17,6,7,8)            75.0896         estimate D2E/DX2                !
 ! D18   D(17,6,7,11)          -37.9403         estimate D2E/DX2                !
 ! D19   D(6,7,8,9)            -87.5836         estimate D2E/DX2                !
 ! D20   D(6,7,8,18)            35.4059         estimate D2E/DX2                !
 ! D21   D(6,7,8,23)           154.4064         estimate D2E/DX2                !
 ! D22   D(11,7,8,9)            26.4077         estimate D2E/DX2                !
 ! D23   D(11,7,8,18)          149.3972         estimate D2E/DX2                !
 ! D24   D(11,7,8,23)          -91.6023         estimate D2E/DX2                !
 ! D25   D(6,7,11,10)           91.5796         estimate D2E/DX2                !
 ! D26   D(8,7,11,10)          -26.2779         estimate D2E/DX2                !
 ! D27   D(7,8,9,10)           -17.7205         estimate D2E/DX2                !
 ! D28   D(7,8,9,12)           165.374          estimate D2E/DX2                !
 ! D29   D(18,8,9,10)         -137.084          estimate D2E/DX2                !
 ! D30   D(18,8,9,12)           46.0105         estimate D2E/DX2                !
 ! D31   D(23,8,9,10)           98.7765         estimate D2E/DX2                !
 ! D32   D(23,8,9,12)          -78.129          estimate D2E/DX2                !
 ! D33   D(8,9,10,11)            1.7528         estimate D2E/DX2                !
 ! D34   D(8,9,10,15)         -177.0776         estimate D2E/DX2                !
 ! D35   D(12,9,10,11)         179.181          estimate D2E/DX2                !
 ! D36   D(12,9,10,15)           0.3507         estimate D2E/DX2                !
 ! D37   D(8,9,12,13)          176.4815         estimate D2E/DX2                !
 ! D38   D(8,9,12,19)           -3.2598         estimate D2E/DX2                !
 ! D39   D(10,9,12,13)          -0.0955         estimate D2E/DX2                !
 ! D40   D(10,9,12,19)        -179.8368         estimate D2E/DX2                !
 ! D41   D(9,10,11,7)           15.5995         estimate D2E/DX2                !
 ! D42   D(15,10,11,7)        -165.5919         estimate D2E/DX2                !
 ! D43   D(9,10,15,14)          -0.2262         estimate D2E/DX2                !
 ! D44   D(9,10,15,22)        -179.9273         estimate D2E/DX2                !
 ! D45   D(11,10,15,14)       -178.9005         estimate D2E/DX2                !
 ! D46   D(11,10,15,22)          1.3983         estimate D2E/DX2                !
 ! D47   D(9,12,13,14)          -0.2616         estimate D2E/DX2                !
 ! D48   D(9,12,13,20)         179.6936         estimate D2E/DX2                !
 ! D49   D(19,12,13,14)        179.48           estimate D2E/DX2                !
 ! D50   D(19,12,13,20)         -0.5648         estimate D2E/DX2                !
 ! D51   D(12,13,14,15)          0.3888         estimate D2E/DX2                !
 ! D52   D(12,13,14,21)        179.8883         estimate D2E/DX2                !
 ! D53   D(20,13,14,15)       -179.5664         estimate D2E/DX2                !
 ! D54   D(20,13,14,21)         -0.0669         estimate D2E/DX2                !
 ! D55   D(13,14,15,10)         -0.1435         estimate D2E/DX2                !
 ! D56   D(13,14,15,22)        179.556          estimate D2E/DX2                !
 ! D57   D(21,14,15,10)       -179.6456         estimate D2E/DX2                !
 ! D58   D(21,14,15,22)          0.0539         estimate D2E/DX2                !
 --------------------------------------------------------------------------------
 Trust Radius=3.00D-01 FncErr=1.00D-07 GrdErr=1.00D-06 EigMax=2.50D+02 EigMin=1.00D-04
 Number of steps in this run=    133 maximum allowed number of steps=    138.
 GradGradGradGradGradGradGradGradGradGradGradGradGradGradGradGradGradGrad

                          Input orientation:                          
 ---------------------------------------------------------------------
 Center     Atomic      Atomic             Coordinates (Angstroms)
 Number     Number       Type             X           Y           Z
 ---------------------------------------------------------------------
      1         16           0       -2.196888    1.370503   -1.035647
      2          8           0       -2.172599    2.854572   -1.193034
      3          8           0       -3.553897    0.817030   -0.732724
      4          7           0       -1.069241    0.932506   -0.047450
      5          1           0       -1.227602   -0.046470    0.201331
      6          6           0       -1.826166    0.810711   -2.725863
      7          7           0       -1.758427   -0.641045   -2.815886
      8          6           0       -1.062608   -1.078938   -4.056854
      9          6           0       -2.171438   -1.136902   -5.071705
     10          6           0       -3.357499   -1.167282   -4.351462
     11          8           0       -3.130272   -1.095873   -2.989601
     12          6           0       -2.203491   -1.216332   -6.455631
     13          6           0       -3.448729   -1.328093   -7.088465
     14          6           0       -4.627493   -1.363952   -6.339749
     15          6           0       -4.604322   -1.281810   -4.942054
     16          1           0       -0.839121    1.222619   -2.944716
     17          1           0       -2.572048    1.251457   -3.398969
     18          1           0       -0.259126   -0.380304   -4.292223
     19          1           0       -1.285488   -1.196772   -7.036111
     20          1           0       -3.497495   -1.386638   -8.171416
     21          1           0       -5.583686   -1.449060   -6.847590
     22          1           0       -5.513069   -1.301405   -4.349348
     23          1           0       -0.631635   -2.070922   -3.889523
 ---------------------------------------------------------------------
                    Distance matrix (angstroms):
                    1          2          3          4          5
     1  S    0.000000
     2  O    1.492589   0.000000
     3  O    1.496519   2.504286   0.000000
     4  N    1.562038   2.494814   2.580010   0.000000
     5  H    2.115997   3.354597   2.651366   1.022431   0.000000
     6  C    1.818690   2.578168   2.637745   2.785977   3.108296
     7  N    2.721732   3.876148   3.112757   3.258110   3.120720
     8  C    4.051425   4.990596   4.566296   4.485674   4.384672
     9  C    4.751578   5.565605   4.955381   5.544405   5.466697
    10  C    4.333820   5.249282   4.131747   5.307519   5.149816
    11  O    3.282096   4.444188   2.988670   4.125339   3.860498
    12  C    6.005663   6.653431   6.221722   6.853380   6.829061
    13  C    6.744341   7.340252   6.708804   7.768408   7.727683
    14  C    6.443492   7.093034   6.111303   7.584715   7.488708
    15  C    5.300049   6.089178   4.819438   6.430952   6.275565
    16  H    2.347327   2.740406   3.525255   2.920834   3.414545
    17  H    2.395873   2.756027   2.874303   3.686847   4.056391
    18  H    4.174390   4.871424   4.995914   4.516398   4.608841
    19  H    6.589926   7.165326   6.995267   7.309033   7.328514
    20  H    7.759678   8.272909   7.758445   8.790544   8.777890
    21  H    7.293766   7.882307   6.829846   8.502586   8.404166
    22  H    5.395995   6.196225   4.626672   6.576039   6.375639
    23  H    4.736880   5.822896   5.181241   4.896285   4.603115
                    6          7          8          9         10
     6  C    0.000000
     7  N    1.456121   0.000000
     8  C    2.434200   1.488595   0.000000
     9  C    3.068450   2.346310   1.504256   0.000000
    10  C    2.983288   2.278585   2.315410   1.387953   0.000000
    11  O    2.324933   1.455680   2.326919   2.292641   1.382533
    12  C    4.261742   3.711709   2.659816   1.386574   2.400347
    13  C    5.122450   4.645868   3.866047   2.394858   2.743241
    14  C    5.063276   4.601276   4.242788   2.773390   2.367456
    15  C    4.124112   3.609749   3.656292   2.440642   1.384371
    16  H    1.091706   2.082058   2.565923   3.444777   3.746036
    17  H    1.097118   2.140918   2.853412   2.943262   2.715598
    18  H    2.515475   2.120250   1.090445   2.199311   3.197305
    19  H    4.785453   4.282850   2.989905   2.155779   3.391377
    20  H    6.105385   5.679962   4.790926   3.380681   3.828807
    21  H    6.017820   5.616060   5.325913   3.859358   3.356481
    22  H    4.548625   4.109126   4.465607   3.422771   2.159740
    23  H    3.329387   2.113505   1.094427   2.154284   2.908657
                   11         12         13         14         15
    11  O    0.000000
    12  C    3.589819   0.000000
    13  C    4.117770   1.401281   0.000000
    14  C    3.679270   2.431256   1.396906   0.000000
    15  C    2.453461   2.838872   2.438159   1.400298   0.000000
    16  H    3.259876   4.487372   5.521489   5.706870   4.943507
    17  H    2.447275   3.945757   4.586396   4.439978   3.595649
    18  H    3.233008   3.026521   4.346359   4.923673   4.485055
    19  H    4.448331   1.086310   2.167856   3.417875   3.925171
    20  H    5.202942   2.155776   1.085628   2.152304   3.415382
    21  H    4.585636   3.410794   2.151905   1.086025   2.148998
    22  H    2.751159   3.923898   3.430011   2.179416   1.085129
    23  H    2.829093   3.128253   4.326782   4.740284   4.184825
                   16         17         18         19         20
    16  H    0.000000
    17  H    1.791707   0.000000
    18  H    2.172909   2.968191   0.000000
    19  H    4.774119   4.569230   3.041210   0.000000
    20  H    6.418222   5.531026   5.152464   2.493580   0.000000
    21  H    6.699343   5.315613   6.001923   4.309721   2.471559
    22  H    5.494495   4.008732   5.334380   5.010198   4.321806
    23  H    3.432655   3.878666   1.777391   3.330567   5.197692
                   21         22         23
    21  H    0.000000
    22  H    2.503598   0.000000
    23  H    5.801696   4.963063   0.000000
 Stoichiometry    C8H9N2O3S(1-)
 Framework group  C1[X(C8H9N2O3S)]
 Deg. of freedom    63
 Full point group                 C1      NOp   1
 Largest Abelian subgroup         C1      NOp   1
 Largest concise Abelian subgroup C1      NOp   1
                         Standard orientation:                         
 ---------------------------------------------------------------------
 Center     Atomic      Atomic             Coordinates (Angstroms)
 Number     Number       Type             X           Y           Z
 ---------------------------------------------------------------------
      1         16           0        2.667366   -0.211249    0.209463
      2          8           0        3.218092   -0.364998    1.588188
      3          8           0        2.375731   -1.510669   -0.473198
      4          7           0        3.565184    0.775082   -0.603579
      5          1           0        3.295379    0.712329   -1.587770
      6          6           0        1.036997    0.523960    0.539606
      7          7           0        0.308346    0.806351   -0.689056
      8          6           0       -0.807837    1.762798   -0.453974
      9          6           0       -1.952003    0.868005   -0.062803
     10          6           0       -1.606780   -0.410260   -0.479061
     11          8           0       -0.351627   -0.437543   -1.058063
     12          6           0       -3.186901    1.090513    0.527202
     13          6           0       -4.056880    0.003173    0.683459
     14          6           0       -3.688053   -1.272218    0.249074
     15          6           0       -2.442012   -1.506173   -0.345468
     16          1           0        1.254680    1.467567    1.043633
     17          1           0        0.495672   -0.145900    1.219256
     18          1           0       -0.513201    2.490761    0.302552
     19          1           0       -3.475730    2.084466    0.856906
     20          1           0       -5.026766    0.153705    1.147409
     21          1           0       -4.374620   -2.103420    0.380144
     22          1           0       -2.140637   -2.493244   -0.680686
     23          1           0       -1.024098    2.290584   -1.388020
 ---------------------------------------------------------------------
 Rotational constants (GHZ):           1.6458511           0.3378014           0.3170681
 General basis read from cards:  (6D, 7F)
 There are   288 symmetry adapted cartesian basis functions of A   symmetry.
 There are   288 symmetry adapted basis functions of A   symmetry.
   288 basis functions,   508 primitive gaussians,   288 cartesian basis functions
    56 alpha electrons       56 beta electrons
       nuclear repulsion energy      1030.3027624452 Hartrees.
 NAtoms=   23 NActive=   23 NUniq=   23 SFac= 1.00D+00 NAtFMM=   60 NAOKFM=F Big=F
 Integral buffers will be    131072 words long.
 Raffenetti 2 integral format.
 Two-electron integral symmetry is turned on.
 ------------------------------------------------------------------------------
 Polarizable Continuum Model (PCM)
 =================================
 Model                : PCM.
 Atomic radii         : SMD-Coulomb.
 Polarization charges : Total charges.
 Charge compensation  : None.
 Solution method      : On-the-fly selection.
 Cavity type          : VdW (van der Waals Surface) (Alpha=1.000).
 Cavity algorithm     : GePol (No added spheres)
                        Default sphere list used, NSphG=   23.
                        Lebedev-Laikov grids with approx.  5.0 points / Ang**2.
                        Smoothing algorithm: York/Karplus (Gamma=1.0000).
                        Polarization charges: spherical gaussians, with
                                              point-specific exponents (IZeta= 3).
                        Self-potential: point-specific (ISelfS= 7).
                        Self-field    : sphere-specific E.n sum rule (ISelfD= 2).
 1st derivatives      : Analytical E(r).r(x)/FMM algorithm (CHGder, D1EAlg=3).
                        Cavity 1st derivative terms included.
 Solvent              : Water, Eps=  78.355300 Eps(inf)=   1.777849
 ------------------------------------------------------------------------------
 ------------------------------------------------------------------------------
 Atomic radii for non-electrostatic terms: SMD-CDS.
 ------------------------------------------------------------------------------
 Nuclear repulsion after PCM non-electrostatic terms =     1030.3060208184 Hartrees.
 One-electron integrals computed using PRISM.
 NBasis=   288 RedAO= T EigKep=  2.22D-06  NBF=   288
 NBsUse=   288 1.00D-06 EigRej= -1.00D+00 NBFU=   288
 ExpMin= 4.05D-02 ExpMax= 2.19D+04 ExpMxC= 3.30D+03 IAcc=3 IRadAn=         5 AccDes= 0.00D+00
 Harris functional with IExCor= 1009 and IRadAn=       5 diagonalized for initial guess.
 HarFok:  IExCor= 1009 AccDes= 0.00D+00 IRadAn=         5 IDoV= 1 UseB2=F ITyADJ=14
 ICtDFT=  3500011 ScaDFX=  1.000000  1.000000  1.000000  1.000000
 FoFCou: FMM=F IPFlag=           0 FMFlag=      100000 FMFlg1=           0
         NFxFlg=           0 DoJE=T BraDBF=F KetDBF=T FulRan=T
         wScrn=  0.000000 ICntrl=       500 IOpCl=  0 I1Cent=   200000004 NGrid=           0
         NMat0=    1 NMatS0=      1 NMatT0=    0 NMatD0=    1 NMtDS0=    0 NMtDT0=    0
 Petite list used in FoFCou.
 Requested convergence on RMS density matrix=1.00D-08 within 128 cycles.
 Requested convergence on MAX density matrix=1.00D-06.
 Requested convergence on             energy=1.00D-06.
 No special actions if energy rises.
 Inv3:  Mode=1 IEnd=     9915372.
 Iteration    1 A*A^-1 deviation from unit magnitude is 4.44D-15 for   1811.
 Iteration    1 A*A^-1 deviation from orthogonality  is 1.67D-15 for   1585    459.
 Iteration    1 A^-1*A deviation from unit magnitude is 4.33D-15 for   1804.
 Iteration    1 A^-1*A deviation from orthogonality  is 1.88D-15 for    758    572.
 Error on total polarization charges =  0.05926
 SCF Done:  E(RM062X) =  -1043.38772836     A.U. after   15 cycles
            NFock= 15  Conv=0.63D-08     -V/T= 2.0066
 SMD-CDS (non-electrostatic) energy       (kcal/mol) =       2.04
 (included in total energy above)

 **********************************************************************

            Population analysis using the SCF Density.

 **********************************************************************

 Orbital symmetries:
       Occupied  (A) (A) (A) (A) (A) (A) (A) (A) (A) (A) (A) (A)
                 (A) (A) (A) (A) (A) (A) (A) (A) (A) (A) (A) (A)
                 (A) (A) (A) (A) (A) (A) (A) (A) (A) (A) (A) (A)
                 (A) (A) (A) (A) (A) (A) (A) (A) (A) (A) (A) (A)
                 (A) (A) (A) (A) (A) (A) (A) (A)
       Virtual   (A) (A) (A) (A) (A) (A) (A) (A) (A) (A) (A) (A)
                 (A) (A) (A) (A) (A) (A) (A) (A) (A) (A) (A) (A)
                 (A) (A) (A) (A) (A) (A) (A) (A) (A) (A) (A) (A)
                 (A) (A) (A) (A) (A) (A) (A) (A) (A) (A) (A) (A)
                 (A) (A) (A) (A) (A) (A) (A) (A) (A) (A) (A) (A)
                 (A) (A) (A) (A) (A) (A) (A) (A) (A) (A) (A) (A)
                 (A) (A) (A) (A) (A) (A) (A) (A) (A) (A) (A) (A)
                 (A) (A) (A) (A) (A) (A) (A) (A) (A) (A) (A) (A)
                 (A) (A) (A) (A) (A) (A) (A) (A) (A) (A) (A) (A)
                 (A) (A) (A) (A) (A) (A) (A) (A) (A) (A) (A) (A)
                 (A) (A) (A) (A) (A) (A) (A) (A) (A) (A) (A) (A)
                 (A) (A) (A) (A) (A) (A) (A) (A) (A) (A) (A) (A)
                 (A) (A) (A) (A) (A) (A) (A) (A) (A) (A) (A) (A)
                 (A) (A) (A) (A) (A) (A) (A) (A) (A) (A) (A) (A)
                 (A) (A) (A) (A) (A) (A) (A) (A) (A) (A) (A) (A)
                 (A) (A) (A) (A) (A) (A) (A) (A) (A) (A) (A) (A)
                 (A) (A) (A) (A) (A) (A) (A) (A) (A) (A) (A) (A)
                 (A) (A) (A) (A) (A) (A) (A) (A) (A) (A) (A) (A)
                 (A) (A) (A) (A) (A) (A) (A) (A) (A) (A) (A) (A)
                 (A) (A) (A) (A)
 The electronic state is 1-A.
 Alpha  occ. eigenvalues --  -90.12774 -19.70655 -19.61766 -19.61738 -14.83579
 Alpha  occ. eigenvalues --  -14.71642 -10.61262 -10.59201 -10.58673 -10.56303
 Alpha  occ. eigenvalues --  -10.56095 -10.55919 -10.55844 -10.55248  -8.43755
 Alpha  occ. eigenvalues --   -6.35996  -6.35890  -6.35801  -1.23607  -1.20200
 Alpha  occ. eigenvalues --   -1.08730  -0.99805  -0.96731  -0.95630  -0.87827
 Alpha  occ. eigenvalues --   -0.84380  -0.81483  -0.73382  -0.69611  -0.68910
 Alpha  occ. eigenvalues --   -0.66085  -0.60208  -0.58947  -0.57471  -0.56251
 Alpha  occ. eigenvalues --   -0.55580  -0.52676  -0.51849  -0.51197  -0.49963
 Alpha  occ. eigenvalues --   -0.49449  -0.48111  -0.46111  -0.45110  -0.42538
 Alpha  occ. eigenvalues --   -0.41831  -0.41562  -0.40166  -0.38938  -0.37049
 Alpha  occ. eigenvalues --   -0.35389  -0.33565  -0.32072  -0.31070  -0.29718
 Alpha  occ. eigenvalues --   -0.28077
 Alpha virt. eigenvalues --    0.01100   0.01864   0.02815   0.03244   0.03678
 Alpha virt. eigenvalues --    0.04301   0.04811   0.05301   0.05804   0.06218
 Alpha virt. eigenvalues --    0.06662   0.06995   0.07494   0.08619   0.08967
 Alpha virt. eigenvalues --    0.09396   0.10381   0.10885   0.11771   0.12632
 Alpha virt. eigenvalues --    0.12848   0.13099   0.14226   0.14309   0.14559
 Alpha virt. eigenvalues --    0.15535   0.16044   0.16374   0.17135   0.17565
 Alpha virt. eigenvalues --    0.17782   0.18345   0.18666   0.19549   0.19951
 Alpha virt. eigenvalues --    0.20168   0.20572   0.21046   0.21293   0.21934
 Alpha virt. eigenvalues --    0.22601   0.22822   0.23508   0.24320   0.24587
 Alpha virt. eigenvalues --    0.24914   0.25465   0.25909   0.26351   0.26787
 Alpha virt. eigenvalues --    0.27045   0.27727   0.28008   0.28474   0.29324
 Alpha virt. eigenvalues --    0.29586   0.30963   0.31288   0.31499   0.32039
 Alpha virt. eigenvalues --    0.32307   0.32744   0.33354   0.33826   0.34972
 Alpha virt. eigenvalues --    0.35100   0.35525   0.36218   0.37455   0.37987
 Alpha virt. eigenvalues --    0.39311   0.40568   0.40834   0.41340   0.42431
 Alpha virt. eigenvalues --    0.42711   0.43841   0.45872   0.47647   0.49260
 Alpha virt. eigenvalues --    0.50287   0.61299   0.62092   0.63913   0.66832
 Alpha virt. eigenvalues --    0.67302   0.69034   0.70936   0.72509   0.73210
 Alpha virt. eigenvalues --    0.74307   0.75428   0.77732   0.78575   0.79379
 Alpha virt. eigenvalues --    0.79986   0.80293   0.82076   0.83353   0.84688
 Alpha virt. eigenvalues --    0.85713   0.87308   0.87787   0.88979   0.93871
 Alpha virt. eigenvalues --    0.96466   0.98555   0.99664   1.00149   1.01162
 Alpha virt. eigenvalues --    1.01391   1.02337   1.04296   1.05352   1.06949
 Alpha virt. eigenvalues --    1.07580   1.08437   1.08849   1.10545   1.11795
 Alpha virt. eigenvalues --    1.12709   1.14215   1.16231   1.18279   1.19080
 Alpha virt. eigenvalues --    1.20329   1.20720   1.21543   1.23471   1.24256
 Alpha virt. eigenvalues --    1.25788   1.28472   1.29116   1.30670   1.32082
 Alpha virt. eigenvalues --    1.34841   1.35870   1.36499   1.38401   1.39783
 Alpha virt. eigenvalues --    1.40995   1.41566   1.42910   1.43669   1.44599
 Alpha virt. eigenvalues --    1.44974   1.47194   1.49101   1.52270   1.53512
 Alpha virt. eigenvalues --    1.54708   1.55816   1.57476   1.60332   1.64879
 Alpha virt. eigenvalues --    1.70987   1.73507   1.75212   1.79096   1.81048
 Alpha virt. eigenvalues --    1.82914   1.83872   1.85609   1.86446   1.88487
 Alpha virt. eigenvalues --    1.89300   1.90192   1.90900   1.93516   1.95517
 Alpha virt. eigenvalues --    1.98012   1.99757   2.00876   2.02099   2.03277
 Alpha virt. eigenvalues --    2.03709   2.05540   2.07134   2.08871   2.11081
 Alpha virt. eigenvalues --    2.12629   2.15086   2.17332   2.18225   2.20243
 Alpha virt. eigenvalues --    2.21910   2.24714   2.25887   2.27518   2.29136
 Alpha virt. eigenvalues --    2.29534   2.32364   2.34713   2.36033   2.39340
 Alpha virt. eigenvalues --    2.41563   2.45238   2.53405   2.55243   2.56590
 Alpha virt. eigenvalues --    2.59617   2.63107   2.66181   2.68275   2.69115
 Alpha virt. eigenvalues --    2.70573   2.75921   2.78069   2.82280   2.84410
 Alpha virt. eigenvalues --    2.87700   2.88572   2.96667   2.98722   3.04502
 Alpha virt. eigenvalues --    3.09945   3.22751   3.45510   3.99873   4.08398
 Alpha virt. eigenvalues --    4.14571   4.19881   4.23913   4.28265   4.30464
 Alpha virt. eigenvalues --    4.37813   4.43759   4.46597   4.49299   4.56411
 Alpha virt. eigenvalues --    4.69292   4.88157
          Condensed to atoms (all electrons):
               1          2          3          4          5          6
     1  S   14.305171   0.279397   0.134668   0.111152   0.085341  -0.305292
     2  O    0.279397   9.064318  -0.122555  -0.191669   0.015174  -0.241580
     3  O    0.134668  -0.122555   9.039980  -0.151854  -0.009135  -0.168242
     4  N    0.111152  -0.191669  -0.151854   8.121490   0.188379  -0.121653
     5  H    0.085341   0.015174  -0.009135   0.188379   0.361178  -0.041933
     6  C   -0.305292  -0.241580  -0.168242  -0.121653  -0.041933   7.239252
     7  N    0.027817  -0.002876   0.026726   0.064128   0.001356   0.171514
     8  C   -0.131182  -0.021404   0.006983   0.015792  -0.005369  -0.124602
     9  C    0.078575   0.013508   0.062476   0.071927   0.000654  -0.568219
    10  C   -0.004655   0.013297  -0.008833  -0.065121   0.002136   0.445923
    11  O   -0.008208  -0.000557   0.013183  -0.006883  -0.000167  -0.128415
    12  C    0.022014  -0.010123   0.004544   0.009031  -0.000022  -0.351008
    13  C   -0.003124   0.000767   0.000173   0.001031  -0.000021  -0.018891
    14  C   -0.006821  -0.002725   0.000561  -0.001329   0.000030   0.042367
    15  C    0.015687  -0.001919  -0.047366  -0.010661  -0.000252   0.098860
    16  H   -0.012420   0.003035   0.007247  -0.008076   0.000286   0.370459
    17  H   -0.014790   0.008402  -0.005513   0.007004  -0.000027   0.272628
    18  H   -0.000409   0.000083  -0.000094   0.000230   0.000005  -0.003966
    19  H    0.000030  -0.000000  -0.000000   0.000001   0.000000  -0.000502
    20  H   -0.000009  -0.000000  -0.000000   0.000000  -0.000000  -0.000005
    21  H   -0.000025  -0.000000   0.000000  -0.000000   0.000000  -0.000135
    22  H   -0.000039  -0.000001  -0.000038   0.000003  -0.000000   0.000605
    23  H    0.001844   0.000010   0.000100   0.000186  -0.000000   0.006624
               7          8          9         10         11         12
     1  S    0.027817  -0.131182   0.078575  -0.004655  -0.008208   0.022014
     2  O   -0.002876  -0.021404   0.013508   0.013297  -0.000557  -0.010123
     3  O    0.026726   0.006983   0.062476  -0.008833   0.013183   0.004544
     4  N    0.064128   0.015792   0.071927  -0.065121  -0.006883   0.009031
     5  H    0.001356  -0.005369   0.000654   0.002136  -0.000167  -0.000022
     6  C    0.171514  -0.124602  -0.568219   0.445923  -0.128415  -0.351008
     7  N    7.609727  -0.081361  -1.333032   1.667359  -0.107123  -0.632213
     8  C   -0.081361   7.478801   0.200797  -1.833834  -0.105558   0.796790
     9  C   -1.333032   0.200797  19.465286  -6.384555   0.672924  -3.270910
    10  C    1.667359  -1.833834  -6.384555  20.035664  -0.237494  -3.127771
    11  O   -0.107123  -0.105558   0.672924  -0.237494   8.442105   0.180206
    12  C   -0.632213   0.796790  -3.270910  -3.127771   0.180206  14.459614
    13  C   -0.152054   0.085934   0.576475  -1.915177   0.028156   0.103334
    14  C    0.080188  -0.021408  -1.723370   0.768589  -0.050480   0.816558
    15  C    0.184660  -0.630629  -2.684375  -3.097127  -0.539488  -2.128903
    16  H   -0.048462  -0.010305  -0.024458   0.026362   0.011327  -0.020523
    17  H   -0.012979   0.025279   0.109030  -0.120136  -0.007429   0.005777
    18  H   -0.058586   0.409629  -0.036609  -0.058426   0.010705   0.034857
    19  H    0.001766  -0.014273   0.024815   0.073443  -0.000791   0.286649
    20  H   -0.000052  -0.000478   0.038127  -0.016853   0.000133  -0.049315
    21  H    0.000277  -0.000081  -0.015794   0.024783  -0.000571   0.015093
    22  H    0.000831   0.003764   0.033362  -0.039523  -0.000954  -0.021683
    23  H   -0.043870   0.416261   0.004249  -0.093324   0.007231   0.027600
              13         14         15         16         17         18
     1  S   -0.003124  -0.006821   0.015687  -0.012420  -0.014790  -0.000409
     2  O    0.000767  -0.002725  -0.001919   0.003035   0.008402   0.000083
     3  O    0.000173   0.000561  -0.047366   0.007247  -0.005513  -0.000094
     4  N    0.001031  -0.001329  -0.010661  -0.008076   0.007004   0.000230
     5  H   -0.000021   0.000030  -0.000252   0.000286  -0.000027   0.000005
     6  C   -0.018891   0.042367   0.098860   0.370459   0.272628  -0.003966
     7  N   -0.152054   0.080188   0.184660  -0.048462  -0.012979  -0.058586
     8  C    0.085934  -0.021408  -0.630629  -0.010305   0.025279   0.409629
     9  C    0.576475  -1.723370  -2.684375  -0.024458   0.109030  -0.036609
    10  C   -1.915177   0.768589  -3.097127   0.026362  -0.120136  -0.058426
    11  O    0.028156  -0.050480  -0.539488   0.011327  -0.007429   0.010705
    12  C    0.103334   0.816558  -2.128903  -0.020523   0.005777   0.034857
    13  C    6.187232   0.282147   0.626952  -0.000042   0.013655   0.008489
    14  C    0.282147   5.986407  -0.091242   0.000347  -0.014507  -0.002146
    15  C    0.626952  -0.091242  13.800529   0.007876   0.018780   0.012842
    16  H   -0.000042   0.000347   0.007876   0.419939  -0.021585   0.002384
    17  H    0.013655  -0.014507   0.018780  -0.021585   0.435751   0.001010
    18  H    0.008489  -0.002146   0.012842   0.002384   0.001010   0.427064
    19  H   -0.051671   0.009311  -0.024710  -0.000001  -0.000000   0.000503
    20  H    0.353475  -0.027784   0.017329  -0.000000  -0.000000   0.000000
    21  H   -0.015417   0.341861  -0.036323   0.000000  -0.000001  -0.000000
    22  H    0.010272  -0.026976   0.346526  -0.000000  -0.000017   0.000001
    23  H   -0.000290   0.001102  -0.024271   0.000046  -0.000231  -0.025369
              19         20         21         22         23
     1  S    0.000030  -0.000009  -0.000025  -0.000039   0.001844
     2  O   -0.000000  -0.000000  -0.000000  -0.000001   0.000010
     3  O   -0.000000  -0.000000   0.000000  -0.000038   0.000100
     4  N    0.000001   0.000000  -0.000000   0.000003   0.000186
     5  H    0.000000  -0.000000   0.000000  -0.000000  -0.000000
     6  C   -0.000502  -0.000005  -0.000135   0.000605   0.006624
     7  N    0.001766  -0.000052   0.000277   0.000831  -0.043870
     8  C   -0.014273  -0.000478  -0.000081   0.003764   0.416261
     9  C    0.024815   0.038127  -0.015794   0.033362   0.004249
    10  C    0.073443  -0.016853   0.024783  -0.039523  -0.093324
    11  O   -0.000791   0.000133  -0.000571  -0.000954   0.007231
    12  C    0.286649  -0.049315   0.015093  -0.021683   0.027600
    13  C   -0.051671   0.353475  -0.015417   0.010272  -0.000290
    14  C    0.009311  -0.027784   0.341861  -0.026976   0.001102
    15  C   -0.024710   0.017329  -0.036323   0.346526  -0.024271
    16  H   -0.000001  -0.000000   0.000000  -0.000000   0.000046
    17  H   -0.000000  -0.000000  -0.000001  -0.000017  -0.000231
    18  H    0.000503   0.000000  -0.000000   0.000001  -0.025369
    19  H    0.440276  -0.002521  -0.000111   0.000012   0.000253
    20  H   -0.002521   0.446556  -0.002989  -0.000097   0.000001
    21  H   -0.000111  -0.002989   0.443407  -0.002647   0.000000
    22  H    0.000012  -0.000097  -0.002647   0.430330   0.000002
    23  H    0.000253   0.000001   0.000000   0.000002   0.443022
 Mulliken charges:
               1
     1  S    1.425280
     2  O   -0.802582
     3  O   -0.783012
     4  N   -1.033108
     5  H    0.402386
     6  C   -0.573790
     7  N   -0.363742
     8  C   -0.459544
     9  C    0.689118
    10  C   -0.054727
    11  O   -0.171851
    12  C   -1.149597
    13  C   -0.121405
    14  C   -0.360680
    15  C    0.187225
    16  H    0.296563
    17  H    0.299900
    18  H    0.277801
    19  H    0.257521
    20  H    0.244481
    21  H    0.248672
    22  H    0.266266
    23  H    0.278825
 Sum of Mulliken charges =  -1.00000
 Mulliken charges with hydrogens summed into heavy atoms:
               1
     1  S    1.425280
     2  O   -0.802582
     3  O   -0.783012
     4  N   -0.630722
     6  C    0.022673
     7  N   -0.363742
     8  C    0.097081
     9  C    0.689118
    10  C   -0.054727
    11  O   -0.171851
    12  C   -0.892075
    13  C    0.123076
    14  C   -0.112007
    15  C    0.453491
 Electronic spatial extent (au):  <R**2>=           3488.8567
 Charge=             -1.0000 electrons
 Dipole moment (field-independent basis, Debye):
    X=            -19.6730    Y=              5.1405    Z=              0.0404  Tot=             20.3336
 Quadrupole moment (field-independent basis, Debye-Ang):
   XX=           -147.6966   YY=            -91.0962   ZZ=           -100.7297
   XY=              4.3203   XZ=            -11.0106   YZ=              1.3371
 Traceless Quadrupole moment (field-independent basis, Debye-Ang):
   XX=            -34.5225   YY=             22.0780   ZZ=             12.4445
   XY=              4.3203   XZ=            -11.0106   YZ=              1.3371
 Octapole moment (field-independent basis, Debye-Ang**2):
  XXX=           -259.4231  YYY=             11.6125  ZZZ=            -18.0173  XYY=            -46.1635
  XXY=             -6.0310  XXZ=            -15.3322  XZZ=            -11.4980  YZZ=              9.1729
  YYZ=              4.5864  XYZ=             -0.3212
 Hexadecapole moment (field-independent basis, Debye-Ang**3):
 XXXX=          -4463.7265 YYYY=           -618.3734 ZZZZ=           -394.4607 XXXY=            -32.7498
 XXXZ=           -202.4686 YYYX=              9.9693 YYYZ=             12.0532 ZZZX=            -44.2433
 ZZZY=             -0.3375 XXYY=           -764.5461 XXZZ=           -772.4670 YYZZ=           -170.4242
 XXYZ=             22.6883 YYXZ=             13.5666 ZZXY=              5.4829
 N-N= 1.030306020818D+03 E-N=-4.527350619781D+03  KE= 1.036498944602D+03
 D1PCM: PCM CHGder 1st derivatives, ID1Alg=3 FixD1E=F DoIter=F DoCFld=F I1PDM=0.
 Calling FoFJK, ICntrl=      2127 FMM=F ISym2X=0 I1Cent= 0 IOpClX= 0 NMat=1 NMatS=1 NMatT=0.
 ***** Axes restored to original set *****
 -------------------------------------------------------------------
 Center     Atomic                   Forces (Hartrees/Bohr)
 Number     Number              X              Y              Z
 -------------------------------------------------------------------
      1       16           0.000015166    0.000014116   -0.000002873
      2        8          -0.000035393    0.000031248   -0.000021510
      3        8           0.000016217   -0.000002374   -0.000009163
      4        7           0.000019043   -0.000018648    0.000025791
      5        1           0.000012923   -0.000012595   -0.000001295
      6        6          -0.000030538   -0.000010746    0.000007518
      7        7           0.000099148    0.000016662   -0.000035712
      8        6          -0.000000175    0.000023065   -0.000011823
      9        6          -0.000019398   -0.000001549   -0.000002364
     10        6           0.000042718   -0.000002643    0.000047456
     11        8          -0.000117775   -0.000037976   -0.000009468
     12        6          -0.000005176    0.000020099   -0.000018043
     13        6           0.000016517   -0.000007410    0.000002087
     14        6          -0.000005004   -0.000012990    0.000026602
     15        6          -0.000010599    0.000002271   -0.000014874
     16        1           0.000005237    0.000004802    0.000001683
     17        1           0.000006258    0.000000737    0.000002379
     18        1           0.000003538    0.000008424   -0.000000168
     19        1          -0.000004372    0.000004283   -0.000001718
     20        1          -0.000010639   -0.000001776    0.000001263
     21        1          -0.000003331   -0.000009916    0.000007210
     22        1           0.000001932   -0.000012431    0.000009030
     23        1           0.000003703    0.000005347   -0.000002010
 -------------------------------------------------------------------
 Cartesian Forces:  Max     0.000117775 RMS     0.000024475

 GradGradGradGradGradGradGradGradGradGradGradGradGradGradGradGradGradGrad
 Berny optimization.
 FormGI is forming the generalized inverse of G from B-inverse, IUseBI=4.
 Internal  Forces:  Max     0.000092675 RMS     0.000013635
 Search for a local minimum.
 Step number   1 out of a maximum of  133
 All quantities printed in internal units (Hartrees-Bohrs-Radians)
 Mixed Optimization -- En-DIIS/RFO-DIIS
 Second derivative matrix not updated -- first step.
 ITU=  0
     Eigenvalues ---    0.00230   0.00801   0.00949   0.01510   0.01733
     Eigenvalues ---    0.02094   0.02109   0.02111   0.02169   0.02183
     Eigenvalues ---    0.02203   0.02216   0.03121   0.04283   0.04936
     Eigenvalues ---    0.05421   0.05739   0.07247   0.08269   0.08531
     Eigenvalues ---    0.09072   0.09250   0.10002   0.12726   0.15790
     Eigenvalues ---    0.15999   0.16000   0.16000   0.16000   0.16000
     Eigenvalues ---    0.16758   0.18742   0.21463   0.22000   0.22069
     Eigenvalues ---    0.22621   0.24040   0.24632   0.24698   0.25000
     Eigenvalues ---    0.30950   0.31691   0.34003   0.34306   0.34616
     Eigenvalues ---    0.34761   0.35243   0.35276   0.35323   0.35382
     Eigenvalues ---    0.35525   0.37454   0.40965   0.42302   0.43953
     Eigenvalues ---    0.45149   0.45788   0.46923   0.47126   0.47883
     Eigenvalues ---    0.59320   0.77841   0.79184
 RFO step:  Lambda=-1.37406522D-07 EMin= 2.30000000D-03
 Linear search not attempted -- first point.
 Iteration  1 RMS(Cart)=  0.00046348 RMS(Int)=  0.00000012
 Iteration  2 RMS(Cart)=  0.00000019 RMS(Int)=  0.00000000
 Variable       Old X    -DE/DX   Delta X   Delta X   Delta X     New X
                                 (Linear)    (Quad)   (Total)
    R1        2.82058   0.00003   0.00000   0.00004   0.00004   2.82063
    R2        2.82801  -0.00002   0.00000  -0.00002  -0.00002   2.82799
    R3        2.95182   0.00004   0.00000   0.00007   0.00007   2.95190
    R4        3.43683  -0.00001   0.00000  -0.00002  -0.00002   3.43680
    R5        1.93211   0.00001   0.00000   0.00003   0.00003   1.93215
    R6        2.75167  -0.00000   0.00000  -0.00000  -0.00000   2.75167
    R7        2.06303   0.00001   0.00000   0.00002   0.00002   2.06304
    R8        2.07325  -0.00001   0.00000  -0.00002  -0.00002   2.07323
    R9        2.81304  -0.00002   0.00000  -0.00006  -0.00006   2.81298
   R10        2.75084   0.00009   0.00000   0.00025   0.00025   2.75109
   R11        2.84263  -0.00000   0.00000  -0.00001  -0.00001   2.84262
   R12        2.06064   0.00000   0.00000   0.00000   0.00000   2.06065
   R13        2.06817   0.00000   0.00000   0.00000   0.00000   2.06817
   R14        2.62285   0.00001   0.00000   0.00002   0.00002   2.62287
   R15        2.62025   0.00001   0.00000   0.00001   0.00001   2.62026
   R16        2.61261  -0.00003   0.00000  -0.00006  -0.00006   2.61255
   R17        2.61608   0.00001   0.00000   0.00002   0.00002   2.61610
   R18        2.64804  -0.00001   0.00000  -0.00003  -0.00003   2.64801
   R19        2.05283  -0.00000   0.00000  -0.00000  -0.00000   2.05283
   R20        2.63977   0.00001   0.00000   0.00002   0.00002   2.63979
   R21        2.05154   0.00000   0.00000   0.00000   0.00000   2.05154
   R22        2.64618  -0.00001   0.00000  -0.00003  -0.00003   2.64615
   R23        2.05229  -0.00000   0.00000  -0.00000  -0.00000   2.05229
   R24        2.05060   0.00000   0.00000   0.00000   0.00000   2.05060
    A1        1.98650  -0.00001   0.00000  -0.00011  -0.00011   1.98639
    A2        1.91109   0.00003   0.00000   0.00029   0.00029   1.91138
    A3        1.77698  -0.00002   0.00000  -0.00003  -0.00003   1.77695
    A4        2.00738  -0.00000   0.00000  -0.00006  -0.00006   2.00733
    A5        1.83291  -0.00002   0.00000  -0.00017  -0.00017   1.83273
    A6        1.93316   0.00001   0.00000   0.00006   0.00006   1.93322
    A7        1.88662   0.00001   0.00000   0.00004   0.00004   1.88667
    A8        1.95392   0.00003   0.00000   0.00013   0.00013   1.95405
    A9        1.82810  -0.00001   0.00000  -0.00003  -0.00003   1.82807
   A10        1.88383  -0.00001   0.00000  -0.00004  -0.00004   1.88379
   A11        1.89834  -0.00001   0.00000  -0.00004  -0.00004   1.89831
   A12        1.97602  -0.00001   0.00000  -0.00001  -0.00001   1.97600
   A13        1.91783   0.00000   0.00000  -0.00002  -0.00002   1.91781
   A14        1.94611  -0.00002   0.00000  -0.00009  -0.00009   1.94603
   A15        1.84944   0.00001   0.00000   0.00005   0.00005   1.84949
   A16        1.82256   0.00001   0.00000   0.00007   0.00007   1.82263
   A17        1.80205  -0.00000   0.00000  -0.00003  -0.00003   1.80202
   A18        1.91335  -0.00000   0.00000  -0.00001  -0.00001   1.91334
   A19        1.89995   0.00000   0.00000  -0.00005  -0.00005   1.89990
   A20        2.00668   0.00001   0.00000   0.00009   0.00009   2.00677
   A21        1.93745  -0.00000   0.00000  -0.00001  -0.00001   1.93744
   A22        1.90028  -0.00000   0.00000   0.00001   0.00001   1.90029
   A23        1.85527   0.00000   0.00000   0.00001   0.00001   1.85528
   A24        2.33590  -0.00001   0.00000  -0.00006  -0.00006   2.33584
   A25        2.09085   0.00001   0.00000   0.00005   0.00005   2.09089
   A26        1.94936   0.00003   0.00000   0.00010   0.00010   1.94946
   A27        2.15324  -0.00001   0.00000  -0.00005  -0.00005   2.15319
   A28        2.18039  -0.00001   0.00000  -0.00005  -0.00005   2.18034
   A29        1.86354  -0.00003   0.00000  -0.00013  -0.00013   1.86341
   A30        2.06674  -0.00000   0.00000  -0.00002  -0.00002   2.06672
   A31        2.10921   0.00000   0.00000  -0.00000  -0.00000   2.10921
   A32        2.10723   0.00000   0.00000   0.00002   0.00002   2.10725
   A33        2.10582  -0.00000   0.00000  -0.00001  -0.00001   2.10581
   A34        2.08830   0.00000   0.00000   0.00003   0.00003   2.08833
   A35        2.08906  -0.00000   0.00000  -0.00002  -0.00002   2.08904
   A36        2.11708   0.00001   0.00000   0.00003   0.00003   2.11711
   A37        2.08787  -0.00000   0.00000  -0.00002  -0.00002   2.08785
   A38        2.07820  -0.00000   0.00000  -0.00001  -0.00001   2.07819
   A39        2.03261   0.00000   0.00000   0.00000   0.00000   2.03262
   A40        2.12084  -0.00000   0.00000  -0.00001  -0.00001   2.12083
   A41        2.12972   0.00000   0.00000   0.00001   0.00001   2.12973
    D1        2.93264   0.00001   0.00000   0.00006   0.00006   2.93271
    D2        0.67001  -0.00001   0.00000  -0.00000  -0.00000   0.67001
    D3       -1.40451   0.00001   0.00000   0.00022   0.00022  -1.40430
    D4        3.11371   0.00002   0.00000   0.00105   0.00105   3.11477
    D5        1.05959   0.00002   0.00000   0.00104   0.00104   1.06063
    D6       -0.98338   0.00002   0.00000   0.00110   0.00110  -0.98228
    D7       -1.09429  -0.00000   0.00000   0.00085   0.00085  -1.09343
    D8        3.13478  -0.00000   0.00000   0.00084   0.00084   3.13562
    D9        1.09181  -0.00000   0.00000   0.00090   0.00090   1.09271
   D10        1.08291  -0.00001   0.00000   0.00071   0.00071   1.08362
   D11       -0.97121  -0.00001   0.00000   0.00070   0.00070  -0.97052
   D12       -3.01418  -0.00001   0.00000   0.00075   0.00075  -3.01343
   D13       -2.83831  -0.00000   0.00000  -0.00054  -0.00054  -2.83886
   D14        1.47213  -0.00001   0.00000  -0.00060  -0.00060   1.47153
   D15       -0.82666  -0.00000   0.00000  -0.00052  -0.00052  -0.82718
   D16       -2.79940  -0.00001   0.00000  -0.00058  -0.00058  -2.79999
   D17        1.31056  -0.00001   0.00000  -0.00058  -0.00058   1.30998
   D18       -0.66218  -0.00001   0.00000  -0.00064  -0.00064  -0.66283
   D19       -1.52862  -0.00000   0.00000  -0.00002  -0.00002  -1.52865
   D20        0.61795   0.00000   0.00000   0.00006   0.00006   0.61801
   D21        2.69490  -0.00000   0.00000   0.00003   0.00003   2.69493
   D22        0.46090  -0.00000   0.00000   0.00003   0.00003   0.46093
   D23        2.60747   0.00000   0.00000   0.00011   0.00011   2.60758
   D24       -1.59876   0.00000   0.00000   0.00008   0.00008  -1.59868
   D25        1.59837  -0.00001   0.00000   0.00002   0.00002   1.59839
   D26       -0.45864   0.00001   0.00000   0.00007   0.00007  -0.45857
   D27       -0.30928  -0.00000   0.00000  -0.00010  -0.00010  -0.30938
   D28        2.88632  -0.00000   0.00000  -0.00005  -0.00005   2.88627
   D29       -2.39257  -0.00000   0.00000  -0.00011  -0.00011  -2.39268
   D30        0.80303  -0.00000   0.00000  -0.00006  -0.00006   0.80297
   D31        1.72398  -0.00001   0.00000  -0.00018  -0.00018   1.72379
   D32       -1.36361  -0.00001   0.00000  -0.00013  -0.00013  -1.36374
   D33        0.03059  -0.00000   0.00000   0.00013   0.00013   0.03073
   D34       -3.09059  -0.00000   0.00000   0.00008   0.00008  -3.09050
   D35        3.12730  -0.00000   0.00000   0.00009   0.00009   3.12739
   D36        0.00612  -0.00000   0.00000   0.00004   0.00004   0.00616
   D37        3.08018  -0.00000   0.00000  -0.00031  -0.00031   3.07987
   D38       -0.05689   0.00000   0.00000  -0.00001  -0.00001  -0.05691
   D39       -0.00167  -0.00000   0.00000  -0.00025  -0.00025  -0.00192
   D40       -3.13875   0.00000   0.00000   0.00005   0.00005  -3.13870
   D41        0.27226  -0.00001   0.00000  -0.00015  -0.00015   0.27211
   D42       -2.89012  -0.00001   0.00000  -0.00010  -0.00010  -2.89022
   D43       -0.00395   0.00001   0.00000   0.00020   0.00020  -0.00375
   D44       -3.14032   0.00000   0.00000  -0.00001  -0.00001  -3.14033
   D45       -3.12240   0.00001   0.00000   0.00014   0.00014  -3.12226
   D46        0.02441   0.00000   0.00000  -0.00006  -0.00006   0.02434
   D47       -0.00457   0.00000   0.00000   0.00023   0.00023  -0.00434
   D48        3.13625   0.00000   0.00000   0.00019   0.00019   3.13643
   D49        3.13252  -0.00000   0.00000  -0.00007  -0.00007   3.13245
   D50       -0.00986  -0.00000   0.00000  -0.00011  -0.00011  -0.00997
   D51        0.00679  -0.00000   0.00000   0.00002   0.00002   0.00680
   D52        3.13964  -0.00000   0.00000  -0.00006  -0.00006   3.13958
   D53       -3.13402   0.00000   0.00000   0.00006   0.00006  -3.13397
   D54       -0.00117  -0.00000   0.00000  -0.00002  -0.00002  -0.00119
   D55       -0.00250  -0.00000   0.00000  -0.00022  -0.00022  -0.00273
   D56        3.13384   0.00000   0.00000  -0.00002  -0.00002   3.13383
   D57       -3.13541  -0.00000   0.00000  -0.00015  -0.00015  -3.13556
   D58        0.00094   0.00000   0.00000   0.00006   0.00006   0.00100
         Item               Value     Threshold  Converged?
 Maximum Force            0.000093     0.000450     YES
 RMS     Force            0.000014     0.000300     YES
 Maximum Displacement     0.002361     0.001800     NO 
 RMS     Displacement     0.000463     0.001200     YES
 Predicted change in Energy=-6.870256D-08
 GradGradGradGradGradGradGradGradGradGradGradGradGradGradGradGradGradGrad

                          Input orientation:                          
 ---------------------------------------------------------------------
 Center     Atomic      Atomic             Coordinates (Angstroms)
 Number     Number       Type             X           Y           Z
 ---------------------------------------------------------------------
      1         16           0       -2.197101    1.370462   -1.035834
      2          8           0       -2.173848    2.854522   -1.193674
      3          8           0       -3.553882    0.816222   -0.733340
      4          7           0       -1.069574    0.933150   -0.047138
      5          1           0       -1.227461   -0.045910    0.201685
      6          6           0       -1.825684    0.810482   -2.725823
      7          7           0       -1.758231   -0.641283   -2.815920
      8          6           0       -1.062556   -1.079116   -4.056953
      9          6           0       -2.171482   -1.136800   -5.071707
     10          6           0       -3.357490   -1.167237   -4.351363
     11          8           0       -3.130287   -1.095948   -2.989522
     12          6           0       -2.203595   -1.216007   -6.455652
     13          6           0       -3.448845   -1.327920   -7.088402
     14          6           0       -4.627564   -1.363873   -6.339600
     15          6           0       -4.604348   -1.281660   -4.941925
     16          1           0       -0.838421    1.222150   -2.944189
     17          1           0       -2.571102    1.251432   -3.399290
     18          1           0       -0.258945   -0.380597   -4.292236
     19          1           0       -1.285612   -1.196439   -7.036161
     20          1           0       -3.497698   -1.386475   -8.171349
     21          1           0       -5.583777   -1.449043   -6.847391
     22          1           0       -5.513069   -1.301312   -4.349177
     23          1           0       -0.631768   -2.071200   -3.889728
 ---------------------------------------------------------------------
                    Distance matrix (angstroms):
                    1          2          3          4          5
     1  S    0.000000
     2  O    1.492611   0.000000
     3  O    1.496508   2.504210   0.000000
     4  N    1.562076   2.495122   2.579987   0.000000
     5  H    2.116074   3.354874   2.651373   1.022448   0.000000
     6  C    1.818678   2.578138   2.637553   2.786055   3.108308
     7  N    2.721843   3.876218   3.112205   3.258718   3.121238
     8  C    4.051516   4.990675   4.565678   4.486411   4.385284
     9  C    4.751346   5.565052   4.954468   5.544835   5.467165
    10  C    4.333492   5.248481   4.130711   5.307781   5.150209
    11  O    3.281907   4.443654   2.987673   4.125701   3.860976
    12  C    6.005355   6.652706   6.220778   6.853753   6.829503
    13  C    6.744012   7.339363   6.707845   7.768704   7.728096
    14  C    6.443110   7.091976   6.110299   7.584899   7.489068
    15  C    5.299635   6.088080   4.818379   6.431093   6.275920
    16  H    2.347302   2.740859   3.525104   2.920592   3.414067
    17  H    2.395822   2.755440   2.874465   3.686843   4.056536
    18  H    4.174543   4.871748   4.995470   4.517069   4.609270
    19  H    6.589667   7.164768   6.994384   7.309464   7.328951
    20  H    7.759370   8.272036   7.757513   8.790862   8.778314
    21  H    7.293379   7.881168   6.828874   8.502725   8.404508
    22  H    5.395578   6.195042   4.625651   6.576094   6.375957
    23  H    4.737090   5.823183   5.180612   4.897275   4.603946
                    6          7          8          9         10
     6  C    0.000000
     7  N    1.456121   0.000000
     8  C    2.434102   1.488565   0.000000
     9  C    3.068332   2.346251   1.504251   0.000000
    10  C    2.983318   2.278562   2.315419   1.387961   0.000000
    11  O    2.325081   1.455815   2.327059   2.292699   1.382503
    12  C    4.261584   3.711645   2.659786   1.386581   2.400392
    13  C    5.122451   4.645831   3.866000   2.394836   2.743273
    14  C    5.063372   4.601253   4.242740   2.773346   2.367454
    15  C    4.124214   3.609759   3.656294   2.440627   1.384381
    16  H    1.091716   2.082039   2.565990   3.445001   3.746334
    17  H    1.097106   2.140899   2.853013   2.942844   2.715660
    18  H    2.515351   2.120218   1.090448   2.199368   3.197387
    19  H    4.785230   4.282756   2.989849   2.155783   3.391412
    20  H    6.105408   5.679937   4.790891   3.380675   3.828840
    21  H    6.017977   5.616052   5.325865   3.859314   3.356475
    22  H    4.548819   4.109175   4.465628   3.422764   2.159745
    23  H    3.329295   2.113444   1.094429   2.154274   2.908576
                   11         12         13         14         15
    11  O    0.000000
    12  C    3.589878   0.000000
    13  C    4.117779   1.401265   0.000000
    14  C    3.679217   2.431246   1.396917   0.000000
    15  C    2.453410   2.838889   2.438173   1.400283   0.000000
    16  H    3.260105   4.487614   5.521926   5.707358   4.943907
    17  H    2.447609   3.945208   4.586179   4.440076   3.595882
    18  H    3.233171   3.026540   4.346427   4.923755   4.485146
    19  H    4.448394   1.086309   2.167855   3.417876   3.925187
    20  H    5.202954   2.155778   1.085629   2.152305   3.415383
    21  H    4.585569   3.410777   2.151905   1.086025   2.148977
    22  H    2.751088   3.923917   3.430026   2.179407   1.085131
    23  H    2.829149   3.128251   4.326649   4.740102   4.184720
                   16         17         18         19         20
    16  H    0.000000
    17  H    1.791691   0.000000
    18  H    2.172975   2.967649   0.000000
    19  H    4.774283   4.568521   3.041179   0.000000
    20  H    6.418713   5.530794   5.152556   2.493610   0.000000
    21  H    6.699901   5.315842   6.002020   4.309718   2.471540
    22  H    5.494924   4.009234   5.334489   5.010217   4.321802
    23  H    3.432624   3.878328   1.777399   3.330579   5.197565
                   21         22         23
    21  H    0.000000
    22  H    2.503577   0.000000
    23  H    5.801486   4.962954   0.000000
 Stoichiometry    C8H9N2O3S(1-)
 Framework group  C1[X(C8H9N2O3S)]
 Deg. of freedom    63
 Full point group                 C1      NOp   1
 Largest Abelian subgroup         C1      NOp   1
 Largest concise Abelian subgroup C1      NOp   1
                         Standard orientation:                         
 ---------------------------------------------------------------------
 Center     Atomic      Atomic             Coordinates (Angstroms)
 Number     Number       Type             X           Y           Z
 ---------------------------------------------------------------------
      1         16           0        2.667233   -0.211297    0.209516
      2          8           0        3.217317   -0.366140    1.588399
      3          8           0        2.374967   -1.510232   -0.473776
      4          7           0        3.565760    0.774858   -0.603026
      5          1           0        3.296075    0.712693   -1.587305
      6          6           0        1.037104    0.524497    0.539479
      7          7           0        0.308337    0.806766   -0.689142
      8          6           0       -0.807931    1.763020   -0.453878
      9          6           0       -1.951894    0.868003   -0.062645
     10          6           0       -1.606564   -0.410160   -0.479158
     11          8           0       -0.351478   -0.437344   -1.058239
     12          6           0       -3.186733    1.090321    0.527570
     13          6           0       -4.056690    0.002937    0.683499
     14          6           0       -3.687788   -1.272348    0.248834
     15          6           0       -2.441706   -1.506162   -0.345643
     16          1           0        1.255115    1.468205    1.043196
     17          1           0        0.495667   -0.144975    1.219403
     18          1           0       -0.513275    2.491019    0.302609
     19          1           0       -3.475615    2.084210    0.857417
     20          1           0       -5.026609    0.153304    1.147438
     21          1           0       -4.374329   -2.103603    0.379708
     22          1           0       -2.140289   -2.493157   -0.681052
     23          1           0       -1.024367    2.290774   -1.387905
 ---------------------------------------------------------------------
 Rotational constants (GHZ):           1.6456776           0.3378388           0.3171028
 Basis read from rwf:  (6D, 7F)
 There are   288 symmetry adapted cartesian basis functions of A   symmetry.
 There are   288 symmetry adapted basis functions of A   symmetry.
   288 basis functions,   508 primitive gaussians,   288 cartesian basis functions
    56 alpha electrons       56 beta electrons
       nuclear repulsion energy      1030.3147655332 Hartrees.
 NAtoms=   23 NActive=   23 NUniq=   23 SFac= 1.00D+00 NAtFMM=   60 NAOKFM=F Big=F
 Integral buffers will be    131072 words long.
 Raffenetti 2 integral format.
 Two-electron integral symmetry is turned on.
 ------------------------------------------------------------------------------
 Polarizable Continuum Model (PCM)
 =================================
 Model                : PCM.
 Atomic radii         : SMD-Coulomb.
 Polarization charges : Total charges.
 Charge compensation  : None.
 Solution method      : On-the-fly selection.
 Cavity type          : VdW (van der Waals Surface) (Alpha=1.000).
 Cavity algorithm     : GePol (No added spheres)
                        Default sphere list used, NSphG=   23.
                        Lebedev-Laikov grids with approx.  5.0 points / Ang**2.
                        Smoothing algorithm: York/Karplus (Gamma=1.0000).
                        Polarization charges: spherical gaussians, with
                                              point-specific exponents (IZeta= 3).
                        Self-potential: point-specific (ISelfS= 7).
                        Self-field    : sphere-specific E.n sum rule (ISelfD= 2).
 1st derivatives      : Analytical E(r).r(x)/FMM algorithm (CHGder, D1EAlg=3).
                        Cavity 1st derivative terms included.
 Solvent              : Water, Eps=  78.355300 Eps(inf)=   1.777849
 ------------------------------------------------------------------------------
 ------------------------------------------------------------------------------
 Atomic radii for non-electrostatic terms: SMD-CDS.
 ------------------------------------------------------------------------------
 Nuclear repulsion after PCM non-electrostatic terms =     1030.3180218927 Hartrees.
 One-electron integrals computed using PRISM.
 NBasis=   288 RedAO= T EigKep=  2.22D-06  NBF=   288
 NBsUse=   288 1.00D-06 EigRej= -1.00D+00 NBFU=   288
 Initial guess from the checkpoint file:  "/jobfs/50000971.gadi-pbs/Gau-1691121.chk"
 B after Tr=    -0.000000    0.000000    0.000000
         Rot=    1.000000   -0.000114    0.000013    0.000011 Ang=  -0.01 deg.
 Requested convergence on RMS density matrix=1.00D-08 within 128 cycles.
 Requested convergence on MAX density matrix=1.00D-06.
 Requested convergence on             energy=1.00D-06.
 No special actions if energy rises.
 Inv3:  Mode=1 IEnd=     9926283.
 Iteration    1 A*A^-1 deviation from unit magnitude is 4.22D-15 for   1788.
 Iteration    1 A*A^-1 deviation from orthogonality  is 2.75D-15 for   1796    527.
 Iteration    1 A^-1*A deviation from unit magnitude is 4.66D-15 for   1788.
 Iteration    1 A^-1*A deviation from orthogonality  is 2.14D-15 for   1793    523.
 Error on total polarization charges =  0.05925
 SCF Done:  E(RM062X) =  -1043.38772848     A.U. after    8 cycles
            NFock=  8  Conv=0.61D-08     -V/T= 2.0066
 SMD-CDS (non-electrostatic) energy       (kcal/mol) =       2.04
 (included in total energy above)
 D1PCM: PCM CHGder 1st derivatives, ID1Alg=3 FixD1E=F DoIter=F DoCFld=F I1PDM=0.
 Calling FoFJK, ICntrl=      2127 FMM=F ISym2X=0 I1Cent= 0 IOpClX= 0 NMat=1 NMatS=1 NMatT=0.
 ***** Axes restored to original set *****
 -------------------------------------------------------------------
 Center     Atomic                   Forces (Hartrees/Bohr)
 Number     Number              X              Y              Z
 -------------------------------------------------------------------
      1       16          -0.000028740   -0.000027679   -0.000024200
      2        8           0.000018677   -0.000001210    0.000012429
      3        8           0.000000508    0.000001095    0.000021747
      4        7           0.000009643    0.000024815    0.000001374
      5        1           0.000004609    0.000005092   -0.000009787
      6        6          -0.000020078   -0.000007116    0.000003096
      7        7           0.000074224    0.000018432    0.000021383
      8        6          -0.000014898    0.000010940   -0.000006712
      9        6          -0.000012131    0.000000668   -0.000005418
     10        6           0.000024556    0.000001786    0.000025462
     11        8          -0.000027285   -0.000008870   -0.000031940
     12        6          -0.000005352   -0.000007422   -0.000005578
     13        6           0.000002074    0.000001400   -0.000000764
     14        6          -0.000007067   -0.000002782    0.000011915
     15        6          -0.000004714   -0.000014506   -0.000007586
     16        1           0.000000507   -0.000001506   -0.000007033
     17        1          -0.000004066    0.000005135   -0.000000419
     18        1          -0.000001688    0.000008258   -0.000003967
     19        1          -0.000004362    0.000009197   -0.000001901
     20        1          -0.000009469   -0.000000686    0.000002024
     21        1          -0.000003686   -0.000010305    0.000006183
     22        1           0.000002776   -0.000010544    0.000007844
     23        1           0.000005963    0.000005807   -0.000008150
 -------------------------------------------------------------------
 Cartesian Forces:  Max     0.000074224 RMS     0.000015185

 GradGradGradGradGradGradGradGradGradGradGradGradGradGradGradGradGradGrad
 Berny optimization.
 Using GEDIIS/GDIIS optimizer.
 FormGI is forming the generalized inverse of G from B-inverse, IUseBI=4.
 Internal  Forces:  Max     0.000031015 RMS     0.000007759
 Search for a local minimum.
 Step number   2 out of a maximum of  133
 All quantities printed in internal units (Hartrees-Bohrs-Radians)
 Mixed Optimization -- En-DIIS/RFO-DIIS
 Swapping is turned off.
 Update second derivatives using D2CorX and points    1    2
 DE= -1.23D-07 DEPred=-6.87D-08 R= 1.79D+00
 Trust test= 1.79D+00 RLast= 3.19D-03 DXMaxT set to 3.00D-01
 ITU=  0  0
     Eigenvalues ---    0.00283   0.00800   0.00912   0.01511   0.01715
     Eigenvalues ---    0.02094   0.02109   0.02112   0.02168   0.02185
     Eigenvalues ---    0.02206   0.02218   0.03103   0.04266   0.04979
     Eigenvalues ---    0.05428   0.05728   0.07238   0.08508   0.08772
     Eigenvalues ---    0.09065   0.09265   0.11023   0.12799   0.15518
     Eigenvalues ---    0.15977   0.15999   0.16000   0.16000   0.16054
     Eigenvalues ---    0.17981   0.19623   0.21309   0.21626   0.22017
     Eigenvalues ---    0.22838   0.23802   0.24628   0.24773   0.25324
     Eigenvalues ---    0.30589   0.31569   0.32142   0.34039   0.34307
     Eigenvalues ---    0.34621   0.34765   0.35243   0.35277   0.35323
     Eigenvalues ---    0.35382   0.37507   0.40892   0.42305   0.43987
     Eigenvalues ---    0.45032   0.45774   0.46576   0.47109   0.47927
     Eigenvalues ---    0.59598   0.77898   0.79118
 En-DIIS/RFO-DIIS/Sim-DIIS IScMMF=       -3 using points:     2    1
 RFO step:  Lambda=-5.38856643D-08.
 DidBck=T Rises=F RFO-DIIS coefs:    0.50239    0.49761
 Iteration  1 RMS(Cart)=  0.00042567 RMS(Int)=  0.00000012
 Iteration  2 RMS(Cart)=  0.00000014 RMS(Int)=  0.00000000
 Variable       Old X    -DE/DX   Delta X   Delta X   Delta X     New X
                                 (Linear)    (Quad)   (Total)
    R1        2.82063  -0.00000  -0.00002   0.00003   0.00001   2.82064
    R2        2.82799   0.00000   0.00001  -0.00001  -0.00000   2.82799
    R3        2.95190  -0.00001  -0.00004   0.00005   0.00001   2.95191
    R4        3.43680   0.00001   0.00001   0.00000   0.00001   3.43681
    R5        1.93215  -0.00000  -0.00002   0.00002   0.00000   1.93215
    R6        2.75167  -0.00001   0.00000  -0.00001  -0.00001   2.75166
    R7        2.06304   0.00000  -0.00001   0.00002   0.00001   2.06305
    R8        2.07323   0.00000   0.00001  -0.00001  -0.00000   2.07323
    R9        2.81298  -0.00000   0.00003  -0.00004  -0.00001   2.81297
   R10        2.75109   0.00003  -0.00013   0.00028   0.00015   2.75124
   R11        2.84262   0.00000   0.00000  -0.00001  -0.00000   2.84262
   R12        2.06065  -0.00000  -0.00000   0.00000  -0.00000   2.06065
   R13        2.06817   0.00000  -0.00000   0.00000   0.00000   2.06817
   R14        2.62287  -0.00001  -0.00001  -0.00001  -0.00002   2.62285
   R15        2.62026   0.00000  -0.00001   0.00001   0.00001   2.62027
   R16        2.61255  -0.00001   0.00003  -0.00007  -0.00004   2.61251
   R17        2.61610   0.00001  -0.00001   0.00003   0.00002   2.61612
   R18        2.64801  -0.00000   0.00001  -0.00003  -0.00001   2.64799
   R19        2.05283  -0.00000   0.00000  -0.00000  -0.00000   2.05283
   R20        2.63979   0.00000  -0.00001   0.00002   0.00001   2.63980
   R21        2.05154  -0.00000  -0.00000   0.00000   0.00000   2.05154
   R22        2.64615  -0.00000   0.00001  -0.00003  -0.00001   2.64614
   R23        2.05229   0.00000   0.00000   0.00000   0.00000   2.05229
   R24        2.05060  -0.00000  -0.00000   0.00000   0.00000   2.05060
    A1        1.98639   0.00000   0.00005  -0.00005   0.00000   1.98639
    A2        1.91138  -0.00002  -0.00015   0.00007  -0.00008   1.91130
    A3        1.77695   0.00000   0.00002  -0.00004  -0.00002   1.77693
    A4        2.00733  -0.00001   0.00003  -0.00005  -0.00002   2.00731
    A5        1.83273   0.00003   0.00009   0.00002   0.00011   1.83284
    A6        1.93322   0.00000  -0.00003   0.00005   0.00002   1.93324
    A7        1.88667  -0.00002  -0.00002  -0.00004  -0.00006   1.88661
    A8        1.95405   0.00003  -0.00007   0.00021   0.00014   1.95419
    A9        1.82807  -0.00000   0.00001  -0.00005  -0.00004   1.82803
   A10        1.88379  -0.00001   0.00002  -0.00001   0.00001   1.88380
   A11        1.89831  -0.00002   0.00002  -0.00018  -0.00016   1.89815
   A12        1.97600   0.00000   0.00001   0.00007   0.00007   1.97608
   A13        1.91781   0.00000   0.00001  -0.00004  -0.00003   1.91778
   A14        1.94603  -0.00000   0.00004  -0.00011  -0.00007   1.94596
   A15        1.84949   0.00000  -0.00002  -0.00000  -0.00003   1.84946
   A16        1.82263  -0.00001  -0.00003  -0.00001  -0.00004   1.82259
   A17        1.80202   0.00001   0.00002   0.00003   0.00005   1.80207
   A18        1.91334  -0.00001   0.00000  -0.00003  -0.00002   1.91332
   A19        1.89990   0.00000   0.00002  -0.00004  -0.00002   1.89988
   A20        2.00677   0.00000  -0.00004   0.00007   0.00003   2.00679
   A21        1.93744  -0.00001   0.00001  -0.00004  -0.00003   1.93741
   A22        1.90029   0.00000  -0.00000  -0.00000  -0.00001   1.90028
   A23        1.85528  -0.00000  -0.00000  -0.00001  -0.00002   1.85526
   A24        2.33584  -0.00000   0.00003  -0.00004  -0.00002   2.33583
   A25        2.09089   0.00000  -0.00002   0.00005   0.00003   2.09092
   A26        1.94946   0.00001  -0.00005   0.00009   0.00004   1.94950
   A27        2.15319  -0.00001   0.00002  -0.00006  -0.00003   2.15316
   A28        2.18034  -0.00000   0.00003  -0.00004  -0.00001   2.18033
   A29        1.86341   0.00000   0.00006  -0.00007  -0.00000   1.86341
   A30        2.06672   0.00000   0.00001  -0.00002  -0.00001   2.06671
   A31        2.10921  -0.00000   0.00000  -0.00001  -0.00001   2.10919
   A32        2.10725   0.00000  -0.00001   0.00003   0.00002   2.10727
   A33        2.10581  -0.00000   0.00000  -0.00001  -0.00001   2.10580
   A34        2.08833   0.00000  -0.00001   0.00003   0.00002   2.08835
   A35        2.08904  -0.00000   0.00001  -0.00002  -0.00001   2.08903
   A36        2.11711  -0.00000  -0.00001   0.00002   0.00001   2.11712
   A37        2.08785  -0.00000   0.00001  -0.00002  -0.00001   2.08784
   A38        2.07819   0.00000   0.00001  -0.00000   0.00000   2.07819
   A39        2.03262   0.00000  -0.00000   0.00001   0.00001   2.03263
   A40        2.12083  -0.00000   0.00000  -0.00002  -0.00001   2.12082
   A41        2.12973  -0.00000  -0.00000   0.00000   0.00000   2.12973
    D1        2.93271  -0.00000  -0.00003   0.00007   0.00004   2.93275
    D2        0.67001   0.00002   0.00000   0.00012   0.00013   0.67013
    D3       -1.40430  -0.00001  -0.00011   0.00009  -0.00002  -1.40431
    D4        3.11477  -0.00002  -0.00052  -0.00033  -0.00085   3.11391
    D5        1.06063  -0.00001  -0.00052  -0.00019  -0.00071   1.05993
    D6       -0.98228  -0.00001  -0.00055  -0.00011  -0.00066  -0.98294
    D7       -1.09343  -0.00001  -0.00042  -0.00039  -0.00082  -1.09425
    D8        3.13562   0.00000  -0.00042  -0.00025  -0.00067   3.13495
    D9        1.09271   0.00000  -0.00045  -0.00017  -0.00062   1.09208
   D10        1.08362   0.00000  -0.00035  -0.00041  -0.00076   1.08286
   D11       -0.97052   0.00001  -0.00035  -0.00027  -0.00062  -0.97113
   D12       -3.01343   0.00001  -0.00037  -0.00019  -0.00057  -3.01399
   D13       -2.83886  -0.00000   0.00027  -0.00036  -0.00009  -2.83894
[...]
 ,-0.00003006,-0.00000460,0.00000090,0.00001054,0.00053161,-0.00014730,
 0.00017112,-0.00096329,0.00133876,0.00060518,-0.00020470,-0.00083243,-
 0.00026797,0.00125244,-0.00419574,-0.00102421,-0.00381269,0.00204649,-
 0.00378130,0.00000832,0.00547021,-0.00103069,-0.00196891,0.00647687,0.
 00203086,-0.01142539,-0.06622374,0.00229648,0.03931514,0.14447269,-0.0
 0020866,0.00016130,0.00033620,0.00001441,-0.00014570,-0.00007625,0.000
 12353,0.00001722,-0.00009495,-0.00005938,-0.00002444,-0.00019641,-0.00
 000370,-0.00001202,0.00001941,0.00100013,0.00001312,-0.00014920,-0.000
 34343,0.00114426,0.00005885,0.00087750,0.00146982,0.00085192,0.0352335
 5,-0.00268516,-0.06055170,-0.09813303,-0.00703866,-0.02179633,0.004812
 60,-0.00249818,0.00296769,0.03272893,0.00611941,0.07009659,0.05906461,
 -0.00190143,-0.19127455,0.03020844,0.03072848,0.68582364,0.00028479,-0
 .00004336,-0.00013962,-0.00002362,0.00002828,0.00003340,-0.00010938,-0
 .00010369,-0.00006051,-0.00001909,0.00002399,0.00012294,0.00000874,0.0
 0000935,-0.00000722,-0.00081909,0.00013536,0.00027725,0.00464962,-0.00
 024312,0.00268018,-0.00231085,-0.00150547,0.00249316,-0.05143517,-0.00
 002591,0.03026763,-0.33226455,-0.02679768,-0.10793142,0.00051430,0.001
 91362,-0.01379055,-0.02248237,-0.00359386,-0.03296998,0.04409552,0.003
 21114,0.02210300,-0.12930295,-0.00202807,0.03512253,0.75692457,-0.0000
 9239,0.00003984,0.00005597,0.00002011,-0.00005594,-0.00002904,0.000003
 08,0.00003448,0.00004235,0.00005042,-0.00001231,-0.00003017,-0.0000004
 0,-0.00001927,-0.00000670,-0.00009072,0.00080560,0.00003582,-0.0012315
 9,0.00040531,-0.00180900,-0.00001346,0.00408095,-0.00058490,-0.0045578
 8,0.00760374,0.00576929,-0.02044435,-0.06472468,-0.01260551,-0.0018861
 9,0.00425953,-0.00157055,-0.00375902,-0.00323247,-0.00519268,0.0074258
 0,0.00736051,-0.00131651,-0.00589591,-0.06103090,-0.01286491,0.0370858
 0,0.13133787,-0.00007773,0.00027304,0.00078879,0.00006191,-0.00036138,
 -0.00019576,0.00016007,-0.00009203,-0.00023413,-0.00007639,-0.00000070
 ,-0.00019744,0.00000396,-0.00002687,0.00004441,-0.00158540,0.00107409,
 0.00060060,0.00152543,-0.00047377,-0.00477942,0.00432782,-0.00102562,-
 0.00383887,-0.02496160,0.00202280,0.06741309,-0.03488214,-0.00765198,-
 0.15238113,-0.04462844,-0.00350656,-0.02094375,-0.03514894,-0.00535627
 ,-0.05264376,0.07829733,0.00241001,-0.03155531,-0.03644570,-0.01716319
 ,-0.34072577,-0.04677876,0.03044046,0.69276177,-0.00688112,-0.00233158
 ,-0.00052495,0.00104992,0.00055823,-0.00025630,0.00038472,0.00027994,0
 .00177522,0.00105452,0.00029849,-0.00080711,0.00014518,-0.00003032,-0.
 00012915,-0.28786981,-0.09772058,0.05094716,0.00131290,0.00072063,-0.0
 0138965,0.00005037,0.00160448,0.00136649,-0.00008528,0.00041384,-0.000
 37138,0.00041906,0.00015136,0.00067306,0.00147525,-0.00025450,0.000630
 30,0.00006186,-0.00000962,0.00012452,-0.00010430,-0.00003003,-0.000017
 89,0.00006449,-0.00000435,-0.00008509,0.00004129,-0.00004950,0.0000880
 4,0.30271874,0.00618566,0.00335369,0.00202875,0.00006472,-0.00062497,-
 0.00075697,0.00250501,0.00053236,-0.00360589,-0.00060618,-0.00024227,-
 0.00017888,0.00009088,-0.00006214,0.00009359,-0.08725243,-0.08786427,0
 .02000590,-0.02931467,-0.01240068,0.00520512,-0.00223168,0.00041940,-0
 .00009819,0.00036398,-0.00006417,-0.00028660,0.00026630,-0.00039537,0.
 00278998,-0.00310415,-0.00758901,-0.00174866,-0.00009498,0.00007493,-0
 .00005832,0.00015082,0.00001215,-0.00020097,-0.00013710,0.00008986,0.0
 0022990,-0.00018646,0.00000207,-0.00058759,0.10160188,0.09934036,0.024
 75423,0.01030754,-0.00688191,-0.00260272,-0.00009954,0.00101076,0.0063
 1168,-0.00063784,-0.00743044,-0.00171314,-0.00115110,0.00108508,0.0001
 7502,-0.00010760,0.00036733,0.05292388,0.02482631,-0.05605149,-0.00266
 105,-0.00050193,-0.00018811,-0.00031806,-0.00163394,-0.00004156,0.0000
 1569,0.00004694,0.00006121,-0.00000050,-0.00003035,0.00102331,-0.00186
 834,-0.00340572,-0.00052233,0.00002796,-0.00008591,-0.00002807,0.00002
 859,0.00002578,-0.00003201,-0.00005793,-0.00003148,0.00001790,0.000000
 12,0.00017816,-0.00012474,-0.05825101,-0.01799653,0.06283092,0.0030559
 2,-0.00190485,0.00573506,-0.00017233,-0.00058862,-0.00030887,-0.000017
 05,0.00028076,-0.00014292,0.00176959,0.00032833,0.00260081,0.00009984,
 -0.00007061,-0.00032982,-0.17805718,0.07073247,-0.11552220,-0.00149088
 ,0.00184855,-0.00265576,0.00031163,-0.00018154,-0.00015562,-0.00018374
 ,-0.00011602,0.00017644,0.00092252,-0.00052421,-0.00069226,0.00205770,
 -0.00158564,0.00334190,0.00009769,0.00004149,0.00017869,-0.00011934,-0
 .00000541,0.00006856,0.00010501,-0.00001864,-0.00013458,0.00009770,0.0
 0009835,0.00033035,-0.01406189,0.01064748,-0.01747357,0.18543951,-0.00
 614332,0.00340163,-0.00095770,0.00008385,-0.00041172,-0.00058509,0.000
 82746,-0.00020220,0.00015382,-0.00074671,0.00011674,-0.00419118,-0.000
 02089,-0.00010361,0.00015275,0.06807563,-0.08585867,0.06079688,0.02346
 035,-0.02872969,0.02042470,-0.00076071,0.00073139,0.00254400,-0.000012
 34,-0.00047115,-0.00045032,-0.00049558,-0.00016743,-0.00048771,0.00200
 058,0.00440850,-0.00060785,-0.00022531,0.00007738,-0.00013668,0.000132
 90,-0.00002906,-0.00002565,-0.00015759,0.00000497,0.00012761,-0.000087
 43,-0.00007455,-0.00042550,-0.00687002,0.00578817,-0.00788762,-0.07943
 671,0.10147520,-0.01975959,0.00984406,-0.01414739,0.00183212,-0.001083
 56,0.00188606,0.00235422,-0.00064135,0.00176912,-0.00161901,-0.0006225
 8,-0.00817192,-0.00008755,-0.00032011,0.00011231,-0.11691844,0.0644443
 4,-0.15111523,0.00445725,0.00006777,0.00517686,-0.00021499,0.00034780,
 0.00072979,-0.00002959,-0.00109187,-0.00051158,-0.00004563,-0.00014648
 ,0.00100284,-0.00030590,-0.00030270,-0.00016092,0.00010302,0.00011916,
 0.00024981,-0.00018211,-0.00000969,-0.00002623,-0.00001868,-0.00005961
 ,-0.00014657,0.00017387,0.00030552,-0.00009748,0.00542235,-0.00388412,
 0.00616820,0.12470615,-0.06729850,0.15748251,0.00024203,0.00011467,0.0
 0036621,-0.00004571,-0.00009050,-0.00003921,0.00022393,0.00007458,-0.0
 0022144,-0.00007099,0.00001902,-0.00006134,0.00000219,0.00003238,0.000
 04225,-0.00028460,-0.00164856,-0.00076564,-0.01120626,-0.00708262,0.00
 221737,-0.19718098,-0.13257166,0.04714860,-0.01442473,-0.01147254,0.00
 363607,-0.00132618,-0.00033095,-0.00024610,-0.00295446,-0.00084163,0.0
 0126095,0.00114911,0.00046800,0.00123971,-0.00070543,0.00064338,-0.000
 17355,0.00023979,-0.00003228,-0.00018732,-0.00067072,0.00045497,0.0004
 5282,0.00002168,0.00078099,0.00073743,0.00007042,0.00014239,0.00001494
 ,0.21593248,0.00021186,0.00016558,-0.00000890,-0.00002957,0.00006413,0
 .00008499,0.00000227,-0.00006622,-0.00008426,0.00000542,-0.00003029,0.
 00006901,0.00000463,0.00002452,0.00005092,0.00141992,-0.00038210,-0.00
 214937,0.00851553,0.00643290,-0.00176772,-0.14176185,-0.17281714,0.041
 89734,0.00261146,0.00177015,-0.00083717,-0.00043315,-0.00014608,-0.001
 35002,0.00485902,-0.00001391,-0.00166536,0.00000292,0.00054413,0.00014
 993,-0.00052198,-0.00006677,-0.00004061,0.00018639,-0.00002277,-0.0005
 1605,0.00035071,0.00007632,0.00047120,0.00148614,-0.00067672,-0.001765
 38,0.00020085,0.00015435,0.00027694,0.14415428,0.18208158,-0.00021371,
 0.00018027,-0.00019205,0.00003238,0.00013145,0.00007114,-0.00016375,-0
 .00012977,0.00014213,0.00002700,-0.00002763,0.00003515,-0.00000381,-0.
 00002203,0.00000093,0.00175265,0.00145813,0.00116269,0.02144920,0.0160
 8203,-0.00632639,0.04133548,0.03507192,-0.06168700,-0.01732978,-0.0163
 8905,0.00899120,-0.00372324,-0.00035734,-0.00554858,0.00394490,-0.0009
 2397,-0.00342907,0.00104364,0.00072359,0.00127051,-0.00049823,0.000445
 35,0.00026747,-0.00002958,-0.00013214,-0.00052364,-0.00039350,0.000968
 79,0.00131465,0.00087521,-0.00107262,-0.00102024,0.00010268,-0.0003101
 2,-0.00007153,-0.05179332,-0.03893237,0.06567910,0.00001234,-0.0000309
 1,-0.00008564,-0.00000550,0.00004464,0.00002073,-0.00002106,0.00000508
 ,0.00002691,0.00001319,0.00000152,0.00003267,-0.00000026,0.00000212,-0
 .00000471,0.00001026,-0.00007582,0.00001097,0.00001077,0.00001566,0.00
 022702,0.00023601,0.00041694,0.00027406,0.00604201,-0.00010141,-0.0018
 1001,0.00111739,-0.00050004,-0.00149692,0.00032327,0.00008662,-0.00008
 735,-0.26675565,-0.00586301,0.13098888,-0.01664076,-0.00024155,0.01641
 903,-0.00300804,-0.00077072,-0.00379911,0.00012039,0.00006259,-0.00046
 627,-0.00000077,0.00000951,0.00000229,-0.00001306,0.00000263,0.0000026
 7,0.00003963,-0.00012235,0.00045087,0.27810392,0.00001752,0.00000873,0
 .00001298,-0.00000232,-0.00001730,-0.00000336,0.00000083,-0.00000509,-
 0.00001652,-0.00000470,-0.00000449,-0.00000245,0.00000015,-0.00000033,
 0.00000170,-0.00005133,0.00009064,0.00000377,-0.00047158,-0.00000182,-
 0.00008246,0.00049184,-0.00404873,0.00010646,0.00189940,0.00421047,-0.
 00143178,-0.00089400,0.00829676,-0.00090089,0.00043836,-0.00020565,0.0
 0003884,-0.00551956,-0.03967060,0.00215927,-0.00249284,0.00398551,0.00
 138815,-0.00062737,0.00708751,-0.00090455,0.00015786,-0.00097299,0.000
 17508,0.00001179,-0.00000578,-0.00000165,0.00002206,0.00000692,0.00001
 888,-0.00049851,-0.00011682,-0.00025297,0.00663027,0.02659335,-0.00000
 551,0.00006838,0.00014586,0.00000389,-0.00007145,-0.00003340,0.0000267
 8,-0.00003582,-0.00006528,-0.00002460,-0.00000207,-0.00005377,0.000001
 48,-0.00000494,0.00000649,-0.00005524,0.00010795,0.00004220,0.00036484
 ,0.00013877,0.00016834,0.00015984,0.00025351,0.00200216,0.02687930,0.0
 0066384,-0.01158427,-0.00186902,-0.00068179,-0.00393488,0.00128807,-0.
 00012917,-0.00183194,0.13203754,0.00163003,-0.14262867,-0.01313171,-0.
 00030611,0.01232259,-0.00308325,-0.00060955,-0.00063079,-0.00061794,-0
 .00003551,-0.00087851,-0.00000579,-0.00003736,-0.00001382,0.00001523,0
 .00000043,-0.00000509,-0.00026481,-0.00003184,-0.00018766,-0.14179166,
 -0.00128206,0.14605756,-0.00002293,0.00002756,0.00011018,0.00000667,-0
 .00005999,-0.00002995,0.00003444,-0.00000076,-0.00003267,-0.00001382,0
 .00000014,-0.00003918,0.00000029,-0.00000349,0.00000604,0.00001820,0.0
 0012805,-0.00002681,-0.00026594,-0.00005047,-0.00053283,0.00079608,-0.
 00015365,-0.00067248,-0.00487252,-0.00066319,-0.00222768,-0.00150815,-
 0.00004890,-0.00001572,0.00037730,-0.00000489,0.00001833,0.00276121,-0
 .00149757,-0.02859574,-0.05889568,-0.00225246,-0.01343243,0.00504646,0
 .00155850,0.02765740,-0.00416691,-0.00058328,0.00229101,-0.00000132,-0
 .00000200,0.00000154,0.00000383,-0.00001200,-0.00000187,-0.00000437,-0
 .00003031,0.00000669,0.00131634,0.00038043,0.00076074,0.05810313,-0.00
 000683,0.00001395,0.00001546,0.00000234,-0.00001771,-0.00000199,0.0000
 0698,-0.00000664,-0.00001225,-0.00000790,0.00000410,-0.00001331,0.0000
 0067,-0.00000071,-0.00000017,-0.00009099,0.00000572,0.00007601,0.00015
 937,-0.00038625,0.00001570,0.00011296,0.00058048,0.00004618,-0.0009216
 7,0.00655353,-0.00040187,-0.00008007,-0.00060412,-0.00010971,0.0002834
 5,-0.00029663,0.00009530,-0.00022200,0.00269801,-0.00253237,-0.0019958
 4,-0.03663666,-0.01685843,-0.00011555,0.00284781,0.00108456,-0.0005215
 7,0.00667913,-0.00035980,0.00000124,-0.00003442,0.00000845,-0.00000440
 ,-0.00001027,-0.00000734,-0.00000053,-0.00003236,0.00004125,0.00032073
 ,-0.00411148,0.00033070,0.00282371,0.02682821,-0.00001996,0.00004303,0
 .00012483,0.00000653,-0.00006253,-0.00003074,0.00003229,-0.00000713,-0
 .00004052,-0.00001658,-0.00000169,-0.00004435,0.00000019,-0.00000363,0
 .00000642,-0.00000826,0.00011529,-0.00000280,-0.00016769,-0.00000238,-
 0.00032872,0.00047547,-0.00004411,-0.00001135,-0.00238890,-0.00042944,
 0.00053726,0.00015153,0.00009574,0.00077384,-0.00004333,-0.00004901,-0
 .00014783,0.00159660,-0.00050825,-0.00857677,-0.01332419,-0.01687580,-
 0.35004253,-0.00295157,-0.00091549,-0.01119696,0.00281172,-0.00012733,
 0.00028343,-0.00000002,-0.00001281,-0.00000408,0.00001121,-0.00000794,
 -0.00000368,-0.00003026,-0.00001845,-0.00003946,-0.00000339,0.00024971
 ,0.00068320,0.01424618,0.01836984,0.36797083,-0.00000925,0.00002717,0.
 00006296,0.00000321,-0.00003028,-0.00001442,0.00001620,-0.00000709,-0.
 00002343,-0.00000902,-0.00000134,-0.00002372,0.00000021,-0.00000153,0.
 00000363,-0.00001945,0.00005300,0.00000749,0.00010527,0.00001358,-0.00
 004672,0.00009160,-0.00000074,-0.00001975,0.00020514,0.00014031,0.0006
 9385,0.00151979,-0.00033392,0.00110894,0.00006241,0.00001531,-0.000244
 64,-0.00271348,-0.00038192,0.00377708,-0.01735059,-0.00205629,-0.01396
 866,-0.28526679,-0.02140944,-0.12022137,0.00390700,0.00005496,0.001974
 32,-0.00000145,-0.00001054,-0.00000141,0.00000715,0.00000187,0.0000039
 8,-0.00001026,-0.00000286,-0.00000431,-0.00095088,-0.00011042,-0.00072
 230,0.00117162,0.00034026,-0.00007444,0.29878484,-0.00001025,0.0000089
 6,0.00002225,0.00000299,-0.00000923,-0.00000332,0.00000604,-0.00000191
 ,-0.00000606,-0.00000218,0.00000334,-0.00000474,-0.00000002,-0.0000003
 5,-0.00000153,0.00003237,-0.00007759,0.00003166,0.00011382,-0.00012689
 ,0.00019268,0.00015208,-0.00042418,0.00008434,-0.00001959,-0.00091165,
 -0.00004024,-0.00012614,0.00712021,-0.00050554,-0.00011794,0.00029400,
 -0.00017567,-0.00035317,0.00684838,-0.00001417,-0.00077239,0.00390686,
 -0.00036585,-0.02138320,-0.04034535,-0.01175002,-0.00153128,0.00374813
 ,-0.00100809,0.00001368,-0.00000936,-0.00001474,0.00000787,-0.00001258
 ,-0.00005526,-0.00009409,-0.00000099,-0.00000759,-0.00005646,-0.000004
 73,-0.00004170,0.00032737,-0.00433543,0.00026054,0.02342372,0.02861908
 ,-0.00004421,0.00006516,0.00016442,0.00001161,-0.00007520,-0.00003851,
 0.00004261,-0.00001587,-0.00005541,-0.00001930,-0.00000488,-0.00006061
 ,-0.00000027,-0.00000474,0.00000946,-0.00005572,0.00015321,0.00003465,
 -0.00014936,0.00008073,-0.00039816,-0.00000282,-0.00007713,0.00004345,
 0.00055815,0.00000458,-0.00091015,0.00131764,-0.00051138,-0.00480754,-
 0.00181673,-0.00043569,-0.00044279,0.00325358,-0.00020090,-0.00133128,
 0.01626253,0.00145394,0.01196476,-0.12015122,-0.01178187,-0.12251920,-
 0.02775529,-0.00229601,-0.01022458,-0.00000105,-0.00004147,-0.00001661
 ,0.00002540,-0.00001617,-0.00001907,-0.00004153,0.00000545,-0.00001326
 ,0.00084420,0.00006815,0.00046702,-0.00072868,0.00021238,0.00080139,0.
 12811942,0.01301600,0.12576478,-0.00005242,0.00001884,0.00010603,0.000
 01062,-0.00004929,-0.00002816,0.00005146,0.00000149,-0.00003767,-0.000
 00614,-0.00000019,-0.00003701,-0.00000078,-0.00000181,0.00000546,0.000
 00093,0.00009749,-0.00001956,-0.00032166,-0.00006259,-0.00000164,-0.00
 075952,-0.00013239,0.00098336,-0.00262068,-0.00072481,-0.00327390,-0.0
 1747554,-0.00032016,0.01593733,0.00176210,0.00042919,0.00130845,-0.000
 12386,-0.00000886,-0.00107611,0.00161815,-0.00041571,-0.00112493,0.006
 52347,0.00001401,-0.00250229,-0.26754379,-0.00616656,0.13473131,0.0000
 0987,-0.00000431,-0.00000497,0.00000833,-0.00000420,0.00000653,-0.0001
 7146,0.00001796,-0.00027859,-0.00001081,0.00009174,0.00014771,0.000203
 66,0.00000863,-0.00021860,0.00048650,0.00031591,0.00036782,0.27853659,
 0.00000233,0.00000404,-0.00002171,0.00000383,-0.00000510,0.00000593,-0
 .00000156,-0.00002614,-0.00001488,0.00000388,-0.00000407,0.00001072,0.
 ,0.00000016,0.00000050,-0.00014346,0.00011241,-0.00007388,0.00048335,-
 0.00028362,-0.00030941,-0.00008117,-0.00030487,0.00044581,-0.00101977,
 0.00656946,-0.00083041,-0.00186666,0.00449144,0.00234201,0.00013869,-0
 .00358254,0.00025799,-0.00000444,-0.00081279,-0.00018817,-0.00034847,0
 .00722329,-0.00074770,0.00184955,0.00298712,-0.00082086,-0.00642966,-0
 .03610336,0.00105917,-0.00001369,-0.00001420,0.00000597,0.00003065,0.0
 0001251,0.00005369,-0.00003846,-0.00000952,-0.00011684,0.00007210,-0.0
 0112736,0.00009061,0.00008315,0.00024323,-0.00006656,0.00026814,-0.004
 27695,0.00038679,0.00691468,0.02487144,0.00000269,-0.00002251,-0.00001
 652,-0.00000080,0.00001024,0.00000431,0.00000536,0.00001201,0.00001121
 ,0.00000364,0.00000253,0.00000726,-0.00000080,0.00000122,-0.00000063,0
 .00003127,-0.00000829,-0.00001845,0.00021990,-0.00004994,0.00012403,-0
 .00079607,-0.00006368,0.00055562,-0.00278021,-0.00054168,-0.00121595,-
 0.01282303,-0.00039508,0.01147726,0.00150806,0.00048918,0.00161001,-0.
 00054458,-0.00003798,-0.00070184,-0.00174862,-0.00078704,-0.00481147,0
 .02649118,0.00087177,-0.00994107,0.13436988,0.00151872,-0.14459140,-0.
 00000209,0.00001891,0.00000702,0.00000059,0.00000284,0.00001251,-0.000
 15638,0.00002083,-0.00015653,0.00014175,0.00008691,0.00013797,0.001309
 03,0.00003457,-0.00060497,-0.00035896,0.00033042,0.00158850,-0.1448359
 3,-0.00149704,0.14655514,0.00027210,0.00010995,-0.00094082,-0.00006858
 ,0.00035632,0.00030883,-0.00014616,-0.00005669,0.00011384,0.00006469,-
 0.00001721,0.00021296,0.00000229,0.00002209,0.00000922,-0.00088599,-0.
 00009718,0.00087444,-0.00378407,0.01526136,0.00403622,-0.08957139,0.09
 104309,-0.01561128,-0.01124218,0.01967930,-0.00940032,-0.00119624,-0.0
 0024544,-0.00222015,-0.00023392,-0.00102606,-0.00005849,0.00022916,0.0
 0036301,0.00203664,-0.00154120,-0.00107357,-0.00020249,0.00034651,-0.0
 0002960,-0.00116569,0.00050457,-0.00048484,0.00080702,0.00019608,0.000
 27725,-0.00002573,0.00006863,0.00024516,0.00010625,0.01113489,-0.02112
 729,0.00341113,0.00006127,0.00053037,-0.00011358,-0.00008760,-0.000093
 00,-0.00008455,-0.00002976,0.00007088,-0.00003679,-0.00012502,0.000096
 98,-0.00003586,0.09603193,-0.00007580,0.00009988,0.00136911,0.00003166
 ,-0.00055232,-0.00034019,0.00036012,0.00003342,-0.00038075,-0.00014036
 ,-0.00001634,-0.00036540,0.00000227,-0.00006652,-0.00002001,0.00145866
 ,0.00101907,-0.00194146,0.00155422,-0.00722802,-0.00437223,0.09061301,
 -0.27507948,0.04151250,-0.00001806,0.00588007,0.00201565,-0.00066605,0
 .00016848,-0.00019696,0.00197152,-0.00066265,0.00028871,0.00008168,0.0
 0004131,-0.00077365,0.00055370,-0.00013666,0.00036471,-0.00040599,-0.0
 0005747,0.00006629,0.00018146,-0.00020700,0.00011349,0.00017250,0.0003
 7037,-0.00004782,0.00019779,-0.00010682,0.00004504,0.00781766,-0.01693
 198,0.00357165,0.00009185,0.00001327,-0.00001483,0.00003405,0.00001849
 ,-0.00000161,0.00000804,-0.00001177,0.00001493,-0.00001906,0.00003540,
 0.00000310,-0.10380488,0.29337727,-0.00028491,-0.00023786,0.00216111,0
 .00008352,-0.00101049,-0.00075487,0.00047644,0.00020041,-0.00041138,-0
 .00021640,0.00006878,-0.00051149,0.00000152,-0.00000623,0.00003987,0.0
 0420213,-0.00186855,-0.00310420,0.01076946,-0.03330408,-0.00347846,-0.
 01925561,0.05131934,-0.05468117,-0.01131264,0.02068671,-0.00389538,0.0
 0046188,0.00002692,-0.00375242,0.00170830,0.00120703,0.00277230,-0.000
 67289,-0.00051768,0.00066897,-0.00023194,-0.00104122,0.00021794,-0.000
 47312,0.00009220,-0.00034880,-0.00001089,-0.00084627,0.00020529,-0.000
 06087,0.00019484,-0.00021632,0.00012254,-0.00081502,-0.00011333,-0.003
 13544,0.00614089,0.00026042,0.00010302,0.00056880,-0.00018530,-0.00007
 109,-0.00003317,-0.00010642,-0.00002754,0.00005663,-0.00000126,-0.0001
 5466,0.00002828,-0.00003200,0.01797919,-0.04091026,0.06526690\\-0.0000
 1000,-0.00000518,-0.00000692,0.00000769,0.00000652,-0.00000066,-0.0000
 0195,0.00000243,-0.00000352,0.00000134,-0.00000275,0.00000821,-0.00001
 192,-0.00000218,0.00000256,-0.00000391,-0.00000194,0.00000347,0.000015
 42,0.00000130,0.00000116,-0.00000346,0.00000030,0.00000716,-0.00000566
 ,-0.00000467,-0.00000063,0.00000450,0.00000428,-0.00000129,-0.00002038
 ,0.00000055,-0.00000060,0.00000408,-0.00000318,-0.00000068,0.00000754,
 0.00000178,-0.00000171,0.00000280,0.00000623,-0.00000214,-0.00000195,0
 .00000639,-0.00000779,0.00000360,-0.00000581,-0.00000004,0.00000599,0.
 00000012,0.00000306,0.00000196,-0.00001116,0.00000776,0.00000493,-0.00
 000615,0.00000421,0.00000618,0.00000124,-0.00000227,0.00000347,0.00000
 951,-0.00000744,-0.00000258,0.00001084,-0.00000713,-0.00000771,-0.0000
 0849,0.00000523\\\@
 The archive entry for this job was punched.


 ALL THINGS ARE POSSIBLE EXCEPT SKIING THROUGH A REVOLVING DOOR.
 Job cpu time:       0 days  1 hours 32 minutes  7.5 seconds.
 Elapsed time:       0 days  0 hours  5 minutes 47.4 seconds.
 File lengths (MBytes):  RWF=    282 Int=      0 D2E=      0 Chk=     14 Scr=      1
 Normal termination of Gaussian 16 at Sat Jul  2 01:46:13 2022.
