 Entering Gaussian System, Link 0=g16
 AtFile(1): //home/561/yj5695//Basis/6-31pGd.gbs
 Initial command:
 /apps/gaussian/g16c01/g16/l1.exe "/jobfs/40662236.gadi-pbs/Gau-3479171.inp" -scrdir="/jobfs/40662236.gadi-pbs/"
 Entering Link 1 = /apps/gaussian/g16c01/g16/l1.exe PID=   3479185.
  
 Copyright (c) 1988-2019, Gaussian, Inc.  All Rights Reserved.
  
 This is part of the Gaussian(R) 16 program.  It is based on
 the Gaussian(R) 09 system (copyright 2009, Gaussian, Inc.),
 the Gaussian(R) 03 system (copyright 2003, Gaussian, Inc.),
 the Gaussian(R) 98 system (copyright 1998, Gaussian, Inc.),
 the Gaussian(R) 94 system (copyright 1995, Gaussian, Inc.),
 the Gaussian 92(TM) system (copyright 1992, Gaussian, Inc.),
 the Gaussian 90(TM) system (copyright 1990, Gaussian, Inc.),
 the Gaussian 88(TM) system (copyright 1988, Gaussian, Inc.),
 the Gaussian 86(TM) system (copyright 1986, Carnegie Mellon
 University), and the Gaussian 82(TM) system (copyright 1983,
 Carnegie Mellon University). Gaussian is a federally registered
 trademark of Gaussian, Inc.
  
 This software contains proprietary and confidential information,
 including trade secrets, belonging to Gaussian, Inc.
  
 This software is provided under written license and may be
 used, copied, transmitted, or stored only in accord with that
 written license.
  
 The following legend is applicable only to US Government
 contracts under FAR:
  
                    RESTRICTED RIGHTS LEGEND
  
 Use, reproduction and disclosure by the US Government is
 subject to restrictions as set forth in subparagraphs (a)
 and (c) of the Commercial Computer Software - Restricted
 Rights clause in FAR 52.227-19.
  
 Gaussian, Inc.
 340 Quinnipiac St., Bldg. 40, Wallingford CT 06492
  
  
 ---------------------------------------------------------------
 Warning -- This program may not be used in any manner that
 competes with the business of Gaussian, Inc. or will provide
 assistance to any competitor of Gaussian, Inc.  The licensee
 of this program is prohibited from giving any competitor of
 Gaussian, Inc. access to this program.  By using this program,
 the user acknowledges that Gaussian, Inc. is engaged in the
 business of creating and licensing software in the field of
 computational chemistry and represents and warrants to the
 licensee that it is not a competitor of Gaussian, Inc. and that
 it will not use this program in any manner prohibited above.
 ---------------------------------------------------------------
  

 Cite this work as:
 Gaussian 16, Revision C.01,
 M. J. Frisch, G. W. Trucks, H. B. Schlegel, G. E. Scuseria, 
 M. A. Robb, J. R. Cheeseman, G. Scalmani, V. Barone, 
 G. A. Petersson, H. Nakatsuji, X. Li, M. Caricato, A. V. Marenich, 
 J. Bloino, B. G. Janesko, R. Gomperts, B. Mennucci, H. P. Hratchian, 
 J. V. Ortiz, A. F. Izmaylov, J. L. Sonnenberg, D. Williams-Young, 
 F. Ding, F. Lipparini, F. Egidi, J. Goings, B. Peng, A. Petrone, 
 T. Henderson, D. Ranasinghe, V. G. Zakrzewski, J. Gao, N. Rega, 
 G. Zheng, W. Liang, M. Hada, M. Ehara, K. Toyota, R. Fukuda, 
 J. Hasegawa, M. Ishida, T. Nakajima, Y. Honda, O. Kitao, H. Nakai, 
 T. Vreven, K. Throssell, J. A. Montgomery, Jr., J. E. Peralta, 
 F. Ogliaro, M. J. Bearpark, J. J. Heyd, E. N. Brothers, K. N. Kudin, 
 V. N. Staroverov, T. A. Keith, R. Kobayashi, J. Normand, 
 K. Raghavachari, A. P. Rendell, J. C. Burant, S. S. Iyengar, 
 J. Tomasi, M. Cossi, J. M. Millam, M. Klene, C. Adamo, R. Cammi, 
 J. W. Ochterski, R. L. Martin, K. Morokuma, O. Farkas, 
 J. B. Foresman, and D. J. Fox, Gaussian, Inc., Wallingford CT, 2019.
 
 ******************************************
 Gaussian 16:  ES64L-G16RevC.01  3-Jul-2019
                19-May-2022 
 ******************************************
 %nproc=16
 Will use up to   16 processors via shared memory.
 %mem=20gb
 ----------------------------------------------------------------------
 #m062X/gen 6D OPT Freq=Noraman INT(grid=ultrafine) SCRF=(SMD,Solvent=h
 2o)
 ----------------------------------------------------------------------
 1/18=20,19=15,26=6,38=1/1,3;
 2/9=110,12=2,17=6,18=5,40=1/2;
 3/5=7,8=2,11=2,25=1,30=1,70=32201,71=1,72=1,74=-55,75=-5/1,2,3;
 4//1;
 5/5=2,38=5,53=1/2;
 6/7=2,8=2,9=2,10=2,28=1/1;
 7//1,2,3,16;
 1/18=20,19=15,26=6/3(2);
 2/9=110/2;
 99//99;
 2/9=110/2;
 3/5=7,6=1,8=2,11=2,25=1,30=1,70=32205,71=1,72=1,74=-55,75=-5,82=7/1,2,3;
 4/5=5,16=3,69=1/1;
 5/5=2,38=5,53=1/2;
 7//1,2,3,16;
 1/18=20,19=15,26=6/3(-5);
 2/9=110/2;
 6/7=2,8=2,9=2,10=2,19=2,28=1/1;
 99/9=1/99;
 --------
 a2 b2 c2
 --------
 Symbolic Z-matrix:
 Charge = -1 Multiplicity = 1
 C                    -1.34865   0.71313  -0.88717 
 C                    -2.53264   0.86998  -1.60619 
 H                    -3.4828    0.92634  -1.08344 
 C                    -2.49921   0.96722  -2.99313 
 H                    -3.42173   1.09953  -3.55285 
 C                    -1.27931   0.90133  -3.68425 
 N                    -1.2493    0.9379   -5.07453 
 C                    -0.09307   0.73667  -2.94892 
 H                     0.85702   0.6882   -3.47505 
 C                    -0.1292    0.64266  -1.56373 
 H                     0.79825   0.52159  -1.0098 
 S                    -1.38566   0.49275   0.89107 
 O                    -1.24399  -0.98784   1.07235 
 O                    -0.22484   1.26995   1.40888 
 N                    -2.70211   1.09454   1.49226 
 H                    -2.80488   2.04437   1.12345 
 H                    -1.941     1.55121  -5.49373 
 H                    -1.24308   0.0253   -5.51883 
 

 GradGradGradGradGradGradGradGradGradGradGradGradGradGradGradGradGradGrad
 Berny optimization.
 Initialization pass.
                           ----------------------------
                           !    Initial Parameters    !
                           ! (Angstroms and Degrees)  !
 --------------------------                            --------------------------
 ! Name  Definition              Value          Derivative Info.                !
 --------------------------------------------------------------------------------
 ! R1    R(1,2)                  1.3941         estimate D2E/DX2                !
 ! R2    R(1,10)                 1.3963         estimate D2E/DX2                !
 ! R3    R(1,12)                 1.7922         estimate D2E/DX2                !
 ! R4    R(2,3)                  1.0859         estimate D2E/DX2                !
 ! R5    R(2,4)                  1.3907         estimate D2E/DX2                !
 ! R6    R(4,5)                  1.0871         estimate D2E/DX2                !
 ! R7    R(4,6)                  1.4036         estimate D2E/DX2                !
 ! R8    R(6,7)                  1.3911         estimate D2E/DX2                !
 ! R9    R(6,8)                  1.4053         estimate D2E/DX2                !
 ! R10   R(7,17)                 1.0151         estimate D2E/DX2                !
 ! R11   R(7,18)                 1.015          estimate D2E/DX2                !
 ! R12   R(8,9)                  1.0871         estimate D2E/DX2                !
 ! R13   R(8,10)                 1.3888         estimate D2E/DX2                !
 ! R14   R(10,11)                1.087          estimate D2E/DX2                !
 ! R15   R(12,13)                1.4984         estimate D2E/DX2                !
 ! R16   R(12,14)                1.4899         estimate D2E/DX2                !
 ! R17   R(12,15)                1.5674         estimate D2E/DX2                !
 ! R18   R(15,16)                1.0241         estimate D2E/DX2                !
 ! A1    A(2,1,10)             119.8338         estimate D2E/DX2                !
 ! A2    A(2,1,12)             120.5336         estimate D2E/DX2                !
 ! A3    A(10,1,12)            119.5101         estimate D2E/DX2                !
 ! A4    A(1,2,3)              120.0448         estimate D2E/DX2                !
 ! A5    A(1,2,4)              120.1199         estimate D2E/DX2                !
 ! A6    A(3,2,4)              119.8326         estimate D2E/DX2                !
 ! A7    A(2,4,5)              120.1035         estimate D2E/DX2                !
 ! A8    A(2,4,6)              120.574          estimate D2E/DX2                !
 ! A9    A(5,4,6)              119.3221         estimate D2E/DX2                !
 ! A10   A(4,6,7)              120.6387         estimate D2E/DX2                !
 ! A11   A(4,6,8)              118.782          estimate D2E/DX2                !
 ! A12   A(7,6,8)              120.5172         estimate D2E/DX2                !
 ! A13   A(6,7,17)             114.4513         estimate D2E/DX2                !
 ! A14   A(6,7,18)             114.4541         estimate D2E/DX2                !
 ! A15   A(17,7,18)            111.5092         estimate D2E/DX2                !
 ! A16   A(6,8,9)              119.3204         estimate D2E/DX2                !
 ! A17   A(6,8,10)             120.5194         estimate D2E/DX2                !
 ! A18   A(9,8,10)             120.1596         estimate D2E/DX2                !
 ! A19   A(1,10,8)             120.1692         estimate D2E/DX2                !
 ! A20   A(1,10,11)            120.253          estimate D2E/DX2                !
 ! A21   A(8,10,11)            119.5761         estimate D2E/DX2                !
 ! A22   A(1,12,13)            103.8625         estimate D2E/DX2                !
 ! A23   A(1,12,14)            105.3439         estimate D2E/DX2                !
 ! A24   A(1,12,15)            110.5306         estimate D2E/DX2                !
 ! A25   A(13,12,14)           113.5628         estimate D2E/DX2                !
 ! A26   A(13,12,15)           114.3561         estimate D2E/DX2                !
 ! A27   A(14,12,15)           108.7122         estimate D2E/DX2                !
 ! A28   A(12,15,16)           107.5931         estimate D2E/DX2                !
 ! D1    D(10,1,2,3)          -179.9295         estimate D2E/DX2                !
 ! D2    D(10,1,2,4)            -0.5309         estimate D2E/DX2                !
 ! D3    D(12,1,2,3)             4.1136         estimate D2E/DX2                !
 ! D4    D(12,1,2,4)          -176.4878         estimate D2E/DX2                !
 ! D5    D(2,1,10,8)             0.3959         estimate D2E/DX2                !
 ! D6    D(2,1,10,11)          179.9276         estimate D2E/DX2                !
 ! D7    D(12,1,10,8)          176.3943         estimate D2E/DX2                !
 ! D8    D(12,1,10,11)          -4.0739         estimate D2E/DX2                !
 ! D9    D(2,1,12,13)           99.0933         estimate D2E/DX2                !
 ! D10   D(2,1,12,14)         -141.2579         estimate D2E/DX2                !
 ! D11   D(2,1,12,15)          -24.0002         estimate D2E/DX2                !
 ! D12   D(10,1,12,13)         -76.8766         estimate D2E/DX2                !
 ! D13   D(10,1,12,14)          42.7722         estimate D2E/DX2                !
 ! D14   D(10,1,12,15)         160.03           estimate D2E/DX2                !
 ! D15   D(1,2,4,5)           -179.3872         estimate D2E/DX2                !
 ! D16   D(1,2,4,6)              0.3642         estimate D2E/DX2                !
 ! D17   D(3,2,4,5)              0.0127         estimate D2E/DX2                !
 ! D18   D(3,2,4,6)            179.7641         estimate D2E/DX2                !
 ! D19   D(2,4,6,7)            177.0878         estimate D2E/DX2                !
 ! D20   D(2,4,6,8)             -0.0601         estimate D2E/DX2                !
 ! D21   D(5,4,6,7)             -3.1588         estimate D2E/DX2                !
 ! D22   D(5,4,6,8)            179.6932         estimate D2E/DX2                !
 ! D23   D(4,6,7,17)            36.6711         estimate D2E/DX2                !
 ! D24   D(4,6,7,18)           -93.8136         estimate D2E/DX2                !
 ! D25   D(8,6,7,17)          -146.2305         estimate D2E/DX2                !
 ! D26   D(8,6,7,18)            83.2848         estimate D2E/DX2                !
 ! D27   D(4,6,8,9)           -179.7768         estimate D2E/DX2                !
 ! D28   D(4,6,8,10)            -0.0755         estimate D2E/DX2                !
 ! D29   D(7,6,8,9)              3.0717         estimate D2E/DX2                !
 ! D30   D(7,6,8,10)          -177.227          estimate D2E/DX2                !
 ! D31   D(6,8,10,1)            -0.0926         estimate D2E/DX2                !
 ! D32   D(6,8,10,11)         -179.6275         estimate D2E/DX2                !
 ! D33   D(9,8,10,1)           179.6062         estimate D2E/DX2                !
 ! D34   D(9,8,10,11)            0.0713         estimate D2E/DX2                !
 ! D35   D(1,12,15,16)         -49.8746         estimate D2E/DX2                !
 ! D36   D(13,12,15,16)       -166.642          estimate D2E/DX2                !
 ! D37   D(14,12,15,16)         65.2872         estimate D2E/DX2                !
 --------------------------------------------------------------------------------
 Trust Radius=3.00D-01 FncErr=5.00D-06 GrdErr=5.00D-06 EigMax=2.50D+02 EigMin=1.00D-04
 Number of steps in this run=     93 maximum allowed number of steps=    108.
 GradGradGradGradGradGradGradGradGradGradGradGradGradGradGradGradGradGrad

                          Input orientation:                          
 ---------------------------------------------------------------------
 Center     Atomic      Atomic             Coordinates (Angstroms)
 Number     Number       Type             X           Y           Z
 ---------------------------------------------------------------------
      1          6           0       -1.348647    0.713129   -0.887165
      2          6           0       -2.532640    0.869984   -1.606190
      3          1           0       -3.482802    0.926337   -1.083445
      4          6           0       -2.499207    0.967223   -2.993129
      5          1           0       -3.421731    1.099525   -3.552850
      6          6           0       -1.279313    0.901334   -3.684250
      7          7           0       -1.249295    0.937899   -5.074532
      8          6           0       -0.093065    0.736668   -2.948923
      9          1           0        0.857021    0.688203   -3.475051
     10          6           0       -0.129195    0.642662   -1.563732
     11          1           0        0.798253    0.521585   -1.009800
     12         16           0       -1.385660    0.492752    0.891068
     13          8           0       -1.243986   -0.987843    1.072348
     14          8           0       -0.224841    1.269952    1.408883
     15          7           0       -2.702113    1.094540    1.492255
     16          1           0       -2.804876    2.044371    1.123446
     17          1           0       -1.941001    1.551210   -5.493730
     18          1           0       -1.243076    0.025302   -5.518826
 ---------------------------------------------------------------------
                    Distance matrix (angstroms):
                    1          2          3          4          5
     1  C    0.000000
     2  C    1.394073   0.000000
     3  H    2.153741   1.085931   0.000000
     4  C    2.413180   1.390745   2.148493   0.000000
     5  H    3.398949   2.152361   2.476224   1.087126   0.000000
     6  C    2.804267   2.426962   3.408838   1.403614   2.155574
     7  N    4.194572   3.698781   4.573561   2.428040   2.657276
     8  C    2.414102   2.787872   3.873797   2.417567   3.402412
     9  H    3.400404   3.874982   4.960902   3.402112   4.299181
    10  C    1.396342   2.414545   3.399680   2.786660   3.873772
    11  H    2.158914   3.401751   4.300777   3.873684   4.960785
    12  S    1.792219   2.773836   2.912851   4.068427   4.925664
    13  O    2.596912   3.505241   3.650182   4.682517   5.521968
    14  O    2.616262   3.817928   4.116319   4.964080   5.904909
    15  N    2.763871   3.111191   2.696664   4.491776   5.096171
    16  H    2.816978   2.983992   2.565142   4.266131   4.810508
    17  H    4.719503   3.990874   4.713622   2.627858   2.482659
    18  H    4.683645   4.205376   5.049836   2.973924   3.124989
                    6          7          8          9         10
     6  C    0.000000
     7  N    1.391087   0.000000
     8  C    1.405349   2.428081   0.000000
     9  H    2.157107   2.656549   1.087117   0.000000
    10  C    2.426166   3.696959   1.388847   2.151241   0.000000
    11  H    3.407811   4.570319   2.144972   2.471574   1.087042
    12  S    4.594756   5.983739   4.059043   4.912313   2.761742
    13  O    5.118150   6.441478   4.524288   5.282253   3.293968
    14  O    5.214192   6.572247   4.392292   5.036037   3.039586
    15  N    5.371954   6.727400   5.163261   6.124269   4.020343
    16  H    5.171829   6.485294   5.064405   6.032815   4.042893
    17  H    2.033319   1.015054   3.248752   3.556511   4.421876
    18  H    2.033326   1.015022   2.903957   3.004474   4.155073
                   11         12         13         14         15
    11  H    0.000000
    12  S    2.895446   0.000000
    13  O    3.283969   1.498364   0.000000
    14  O    2.730715   1.489857   2.499910   0.000000
    15  N    4.340636   1.567362   2.576582   2.484874   0.000000
    16  H    4.455576   2.115584   3.410764   2.708834   1.024089
    17  H    5.354369   6.495720   7.074320   7.118313   7.042146
    18  H    4.974398   6.428498   6.668586   7.111899   7.240671
                   16         17         18
    16  H    0.000000
    17  H    6.691525   0.000000
    18  H    7.115872   1.678131   0.000000
 Stoichiometry    C6H7N2O2S(1-)
 Framework group  C1[X(C6H7N2O2S)]
 Deg. of freedom    48
 Full point group                 C1      NOp   1
 Largest Abelian subgroup         C1      NOp   1
 Largest concise Abelian subgroup C1      NOp   1
                         Standard orientation:                         
 ---------------------------------------------------------------------
 Center     Atomic      Atomic             Coordinates (Angstroms)
 Number     Number       Type             X           Y           Z
 ---------------------------------------------------------------------
      1          6           0        0.144491    0.003607   -0.046776
      2          6           0       -0.563164    1.202469    0.026676
      3          1           0       -0.029287    2.146836    0.075589
      4          6           0       -1.953877    1.193208    0.024909
      5          1           0       -2.505443    2.128828    0.072156
      6          6           0       -2.659689   -0.018143   -0.042834
      7          7           0       -4.049451   -0.033116    0.015985
      8          6           0       -1.935269   -1.220515   -0.110085
      9          1           0       -2.473069   -2.163600   -0.166524
     10          6           0       -0.546478   -1.208091   -0.110979
     11          1           0       -0.001554   -2.146855   -0.169617
     12         16           0        1.934130   -0.004673    0.049000
     13          8           0        2.215644   -0.368233    1.475068
     14          8           0        2.376420   -1.039054   -0.927785
     15          7           0        2.514572    1.383195   -0.390922
     16          1           0        2.082317    1.629841   -1.285953
     17          1           0       -4.498352    0.745594   -0.455644
     18          1           0       -4.429129   -0.173334    0.946819
 ---------------------------------------------------------------------
 Rotational constants (GHZ):           2.6341753           0.5614764           0.5135585
 General basis read from cards:  (6D, 7F)
 There are   227 symmetry adapted cartesian basis functions of A   symmetry.
 There are   227 symmetry adapted basis functions of A   symmetry.
   227 basis functions,   404 primitive gaussians,   227 cartesian basis functions
    45 alpha electrons       45 beta electrons
       nuclear repulsion energy       709.7661035913 Hartrees.
 NAtoms=   18 NActive=   18 NUniq=   18 SFac= 1.00D+00 NAtFMM=   60 NAOKFM=F Big=F
 Integral buffers will be    131072 words long.
 Raffenetti 2 integral format.
 Two-electron integral symmetry is turned on.
 ------------------------------------------------------------------------------
 Polarizable Continuum Model (PCM)
 =================================
 Model                : PCM.
 Atomic radii         : SMD-Coulomb.
 Polarization charges : Total charges.
 Charge compensation  : None.
 Solution method      : On-the-fly selection.
 Cavity type          : VdW (van der Waals Surface) (Alpha=1.000).
 Cavity algorithm     : GePol (No added spheres)
                        Default sphere list used, NSphG=   18.
                        Lebedev-Laikov grids with approx.  5.0 points / Ang**2.
                        Smoothing algorithm: York/Karplus (Gamma=1.0000).
                        Polarization charges: spherical gaussians, with
                                              point-specific exponents (IZeta= 3).
                        Self-potential: point-specific (ISelfS= 7).
                        Self-field    : sphere-specific E.n sum rule (ISelfD= 2).
 1st derivatives      : Analytical E(r).r(x)/FMM algorithm (CHGder, D1EAlg=3).
                        Cavity 1st derivative terms included.
 Solvent              : Water, Eps=  78.355300 Eps(inf)=   1.777849
 ------------------------------------------------------------------------------
 Spheres list:
 ISph  on   Nord     Re0    Alpha      Xe            Ye            Ze
    1   C      1    1.8500  1.000      0.144491      0.003607     -0.046776
    2   C      2    1.8500  1.000     -0.563164      1.202469      0.026676
    3   H      3    1.2000  1.000     -0.029287      2.146836      0.075589
    4   C      4    1.8500  1.000     -1.953877      1.193208      0.024909
    5   H      5    1.2000  1.000     -2.505443      2.128828      0.072156
    6   C      6    1.8500  1.000     -2.659689     -0.018143     -0.042834
    7   N      7    1.8900  1.000     -4.049451     -0.033116      0.015985
    8   C      8    1.8500  1.000     -1.935269     -1.220515     -0.110085
    9   H      9    1.2000  1.000     -2.473069     -2.163600     -0.166524
   10   C     10    1.8500  1.000     -0.546478     -1.208091     -0.110979
   11   H     11    1.2000  1.000     -0.001554     -2.146855     -0.169617
   12   S     12    2.4900  1.000      1.934130     -0.004673      0.049000
   13   O     13    1.5200  1.000      2.215644     -0.368233      1.475068
   14   O     14    1.5200  1.000      2.376420     -1.039054     -0.927785
   15   N     15    1.8900  1.000      2.514572      1.383195     -0.390922
   16   H     16    1.2000  1.000      2.082317      1.629841     -1.285953
   17   H     17    1.2000  1.000     -4.498352      0.745594     -0.455644
   18   H     18    1.2000  1.000     -4.429129     -0.173334      0.946819
 ------------------------------------------------------------------------------
 ------------------------------------------------------------------------------
 Atomic radii for non-electrostatic terms: SMD-CDS.
 ------------------------------------------------------------------------------
 Nuclear repulsion after PCM non-electrostatic terms =      709.7712455806 Hartrees.
 One-electron integrals computed using PRISM.
 NBasis=   227 RedAO= T EigKep=  2.92D-06  NBF=   227
 NBsUse=   227 1.00D-06 EigRej= -1.00D+00 NBFU=   227
 ExpMin= 4.05D-02 ExpMax= 2.19D+04 ExpMxC= 3.30D+03 IAcc=3 IRadAn=         5 AccDes= 0.00D+00
 Harris functional with IExCor= 1009 and IRadAn=       5 diagonalized for initial guess.
 HarFok:  IExCor= 1009 AccDes= 0.00D+00 IRadAn=         5 IDoV= 1 UseB2=F ITyADJ=14
 ICtDFT=  3500011 ScaDFX=  1.000000  1.000000  1.000000  1.000000
 FoFCou: FMM=F IPFlag=           0 FMFlag=      100000 FMFlg1=           0
         NFxFlg=           0 DoJE=T BraDBF=F KetDBF=T FulRan=T
         wScrn=  0.000000 ICntrl=       500 IOpCl=  0 I1Cent=   200000004 NGrid=           0
         NMat0=    1 NMatS0=      1 NMatT0=    0 NMatD0=    1 NMtDS0=    0 NMtDT0=    0
 Petite list used in FoFCou.
 Requested convergence on RMS density matrix=1.00D-08 within 128 cycles.
 Requested convergence on MAX density matrix=1.00D-06.
 Requested convergence on             energy=1.00D-06.
 No special actions if energy rises.
 Inv3:  Mode=1 IEnd=     6922083.
 Iteration    1 A*A^-1 deviation from unit magnitude is 4.33D-15 for   1490.
 Iteration    1 A*A^-1 deviation from orthogonality  is 2.14D-15 for   1496    393.
 Iteration    1 A^-1*A deviation from unit magnitude is 3.77D-15 for   1490.
 Iteration    1 A^-1*A deviation from orthogonality  is 4.04D-15 for   1516    969.
 Error on total polarization charges =  0.05250
 SCF Done:  E(RM062X) =  -890.850060997     A.U. after   15 cycles
            NFock= 15  Conv=0.62D-08     -V/T= 2.0064
 SMD-CDS (non-electrostatic) energy       (kcal/mol) =       3.23
 (included in total energy above)

 **********************************************************************

            Population analysis using the SCF Density.

 **********************************************************************

 Orbital symmetries:
       Occupied  (A) (A) (A) (A) (A) (A) (A) (A) (A) (A) (A) (A)
                 (A) (A) (A) (A) (A) (A) (A) (A) (A) (A) (A) (A)
                 (A) (A) (A) (A) (A) (A) (A) (A) (A) (A) (A) (A)
                 (A) (A) (A) (A) (A) (A) (A) (A) (A)
       Virtual   (A) (A) (A) (A) (A) (A) (A) (A) (A) (A) (A) (A)
                 (A) (A) (A) (A) (A) (A) (A) (A) (A) (A) (A) (A)
                 (A) (A) (A) (A) (A) (A) (A) (A) (A) (A) (A) (A)
                 (A) (A) (A) (A) (A) (A) (A) (A) (A) (A) (A) (A)
                 (A) (A) (A) (A) (A) (A) (A) (A) (A) (A) (A) (A)
                 (A) (A) (A) (A) (A) (A) (A) (A) (A) (A) (A) (A)
                 (A) (A) (A) (A) (A) (A) (A) (A) (A) (A) (A) (A)
                 (A) (A) (A) (A) (A) (A) (A) (A) (A) (A) (A) (A)
                 (A) (A) (A) (A) (A) (A) (A) (A) (A) (A) (A) (A)
                 (A) (A) (A) (A) (A) (A) (A) (A) (A) (A) (A) (A)
                 (A) (A) (A) (A) (A) (A) (A) (A) (A) (A) (A) (A)
                 (A) (A) (A) (A) (A) (A) (A) (A) (A) (A) (A) (A)
                 (A) (A) (A) (A) (A) (A) (A) (A) (A) (A) (A) (A)
                 (A) (A) (A) (A) (A) (A) (A) (A) (A) (A) (A) (A)
                 (A) (A) (A) (A) (A) (A) (A) (A) (A) (A) (A) (A)
                 (A) (A)
 The electronic state is 1-A.
 Alpha  occ. eigenvalues --  -90.13265 -19.62392 -19.61133 -14.75069 -14.71312
 Alpha  occ. eigenvalues --  -10.59315 -10.57318 -10.56335 -10.56262 -10.55425
 Alpha  occ. eigenvalues --  -10.55359  -8.44173  -6.36398  -6.36307  -6.36269
 Alpha  occ. eigenvalues --   -1.20393  -1.08783  -1.02114  -0.96257  -0.94503
 Alpha  occ. eigenvalues --   -0.84994  -0.83429  -0.71756  -0.69908  -0.65517
 Alpha  occ. eigenvalues --   -0.60832  -0.57398  -0.57091  -0.54625  -0.52592
 Alpha  occ. eigenvalues --   -0.52121  -0.51005  -0.49055  -0.46170  -0.44793
 Alpha  occ. eigenvalues --   -0.41332  -0.41033  -0.38953  -0.38125  -0.35915
 Alpha  occ. eigenvalues --   -0.33944  -0.33170  -0.31467  -0.28602  -0.28158
 Alpha virt. eigenvalues --    0.00815   0.01491   0.01866   0.03230   0.04156
 Alpha virt. eigenvalues --    0.04905   0.05249   0.05868   0.06596   0.08491
 Alpha virt. eigenvalues --    0.08701   0.08795   0.09872   0.10579   0.11883
 Alpha virt. eigenvalues --    0.12759   0.13587   0.13959   0.14282   0.14776
 Alpha virt. eigenvalues --    0.15251   0.16265   0.16383   0.17052   0.17389
 Alpha virt. eigenvalues --    0.18172   0.18313   0.19050   0.19842   0.21142
 Alpha virt. eigenvalues --    0.21606   0.21671   0.22904   0.23528   0.23864
 Alpha virt. eigenvalues --    0.24431   0.24792   0.24974   0.25676   0.26342
 Alpha virt. eigenvalues --    0.26460   0.26892   0.27778   0.28445   0.29859
 Alpha virt. eigenvalues --    0.30175   0.31446   0.32513   0.32852   0.33110
 Alpha virt. eigenvalues --    0.33351   0.34252   0.34801   0.35790   0.36740
 Alpha virt. eigenvalues --    0.37217   0.39372   0.39744   0.41846   0.42810
 Alpha virt. eigenvalues --    0.43428   0.46469   0.48965   0.57058   0.58951
 Alpha virt. eigenvalues --    0.64459   0.66850   0.68754   0.70170   0.70788
 Alpha virt. eigenvalues --    0.72009   0.72522   0.75537   0.76302   0.76893
 Alpha virt. eigenvalues --    0.78194   0.79241   0.81928   0.84214   0.85023
 Alpha virt. eigenvalues --    0.90017   0.92175   0.94395   0.96058   0.98357
 Alpha virt. eigenvalues --    1.00079   1.00242   1.01755   1.03029   1.05192
 Alpha virt. eigenvalues --    1.06700   1.07771   1.08753   1.10718   1.12117
 Alpha virt. eigenvalues --    1.12839   1.13759   1.14074   1.15392   1.16472
 Alpha virt. eigenvalues --    1.18285   1.19870   1.20403   1.22350   1.22948
 Alpha virt. eigenvalues --    1.29414   1.30774   1.31196   1.34415   1.35844
 Alpha virt. eigenvalues --    1.37747   1.39264   1.40517   1.41844   1.42558
 Alpha virt. eigenvalues --    1.46929   1.48552   1.49795   1.51605   1.53083
 Alpha virt. eigenvalues --    1.54629   1.55881   1.56364   1.60499   1.66013
 Alpha virt. eigenvalues --    1.78922   1.81997   1.83695   1.84821   1.87544
 Alpha virt. eigenvalues --    1.88652   1.89768   1.90168   1.92122   1.95488
 Alpha virt. eigenvalues --    1.95796   1.96765   1.99434   2.03292   2.04797
 Alpha virt. eigenvalues --    2.06466   2.07607   2.15697   2.16308   2.17054
 Alpha virt. eigenvalues --    2.18562   2.21134   2.22781   2.25518   2.27515
 Alpha virt. eigenvalues --    2.31438   2.33777   2.34539   2.36892   2.40798
 Alpha virt. eigenvalues --    2.43425   2.55512   2.59893   2.62238   2.66239
 Alpha virt. eigenvalues --    2.67081   2.69314   2.77317   2.77830   2.79601
 Alpha virt. eigenvalues --    2.86792   2.91871   2.93384   2.96544   3.12017
 Alpha virt. eigenvalues --    3.39929   4.02067   4.02702   4.09066   4.13659
 Alpha virt. eigenvalues --    4.27168   4.28085   4.33829   4.35789   4.42218
 Alpha virt. eigenvalues --    4.47162   4.74330
          Condensed to atoms (all electrons):
               1          2          3          4          5          6
     1  C   17.343096  -2.751392  -0.012933  -1.471135   0.072543  -2.137597
     2  C   -2.751392  21.837018   0.329593  -1.388741  -0.047487   0.383901
     3  H   -0.012933   0.329593   0.438294  -0.000555  -0.003164   0.004373
     4  C   -1.471135  -1.388741  -0.000555   9.677015   0.390214   0.477674
     5  H    0.072543  -0.047487  -0.003164   0.390214   0.446800  -0.107439
     6  C   -2.137597   0.383901   0.004373   0.477674  -0.107439   7.089009
     7  N   -0.024586  -0.014992  -0.001070  -0.208295  -0.005772   0.394166
     8  C   -0.503962  -1.440665  -0.012580  -0.171780   0.005338  -0.602866
     9  H    0.057028  -0.004544   0.000012   0.008895  -0.000105  -0.084784
    10  C   -3.148066 -10.705940   0.007001  -1.355291  -0.004502   0.611299
    11  H    0.065914   0.065205  -0.000121  -0.019917   0.000012  -0.015642
    12  S   -0.619923  -0.176929  -0.015856  -0.045221   0.000109  -0.002295
    13  O    0.113625   0.142902  -0.000784  -0.065427   0.000013   0.013043
    14  O    0.103293   0.280246   0.000537   0.100483   0.000022  -0.020744
    15  N   -0.195415   0.007233   0.007479   0.069177   0.000241   0.017822
    16  H    0.087391  -0.092729  -0.000914  -0.045470   0.000001   0.001181
    17  H    0.003851   0.011401  -0.000003  -0.086532   0.001830  -0.073064
    18  H   -0.000849  -0.010344   0.000002   0.017809   0.000026   0.059767
               7          8          9         10         11         12
     1  C   -0.024586  -0.503962   0.057028  -3.148066   0.065914  -0.619923
     2  C   -0.014992  -1.440665  -0.004544 -10.705940   0.065205  -0.176929
     3  H   -0.001070  -0.012580   0.000012   0.007001  -0.000121  -0.015856
     4  C   -0.208295  -0.171780   0.008895  -1.355291  -0.019917  -0.045221
     5  H   -0.005772   0.005338  -0.000105  -0.004502   0.000012   0.000109
     6  C    0.394166  -0.602866  -0.084784   0.611299  -0.015642  -0.002295
     7  N    7.345085  -0.135429   0.004014  -0.006214  -0.000425   0.003613
     8  C   -0.135429  11.495592   0.411107  -3.139105  -0.051694   0.008758
     9  H    0.004014   0.411107   0.444507  -0.084212  -0.003279   0.000421
    10  C   -0.006214  -3.139105  -0.084212  23.921673   0.255147   0.487205
    11  H   -0.000425  -0.051694  -0.003279   0.255147   0.437392   0.001730
    12  S    0.003613   0.008758   0.000421   0.487205   0.001730  14.368315
    13  O    0.000099  -0.035628   0.000009  -0.235570  -0.000782   0.295249
    14  O    0.000256   0.031813   0.000050  -0.555302   0.004131   0.053472
    15  N    0.000090   0.033743   0.000068   0.075758   0.001016   0.074008
    16  H   -0.000012  -0.006727   0.000000   0.044951   0.000004   0.057132
    17  H    0.313762   0.116110  -0.000055  -0.001563   0.000002   0.000054
    18  H    0.302647  -0.078158   0.000277  -0.010531   0.000000   0.000319
              13         14         15         16         17         18
     1  C    0.113625   0.103293  -0.195415   0.087391   0.003851  -0.000849
     2  C    0.142902   0.280246   0.007233  -0.092729   0.011401  -0.010344
     3  H   -0.000784   0.000537   0.007479  -0.000914  -0.000003   0.000002
     4  C   -0.065427   0.100483   0.069177  -0.045470  -0.086532   0.017809
     5  H    0.000013   0.000022   0.000241   0.000001   0.001830   0.000026
     6  C    0.013043  -0.020744   0.017822   0.001181  -0.073064   0.059767
     7  N    0.000099   0.000256   0.000090  -0.000012   0.313762   0.302647
     8  C   -0.035628   0.031813   0.033743  -0.006727   0.116110  -0.078158
     9  H    0.000009   0.000050   0.000068   0.000000  -0.000055   0.000277
    10  C   -0.235570  -0.555302   0.075758   0.044951  -0.001563  -0.010531
    11  H   -0.000782   0.004131   0.001016   0.000004   0.000002   0.000000
    12  S    0.295249   0.053472   0.074008   0.057132   0.000054   0.000319
    13  O    8.843096  -0.191210  -0.173912   0.012477   0.000000  -0.000001
    14  O   -0.191210   9.089672  -0.152425  -0.017821  -0.000000   0.000000
    15  N   -0.173912  -0.152425   8.078535   0.198928   0.000005   0.000000
    16  H    0.012477  -0.017821   0.198928   0.357308   0.000000   0.000000
    17  H    0.000000  -0.000000   0.000005   0.000000   0.305346  -0.021919
    18  H   -0.000001   0.000000   0.000000   0.000000  -0.021919   0.280887
 Mulliken charges:
               1
     1  C   -0.980883
     2  C   -0.423737
     3  H    0.260688
     4  C    0.117097
     5  H    0.251321
     6  C   -0.007805
     7  N   -0.966936
     8  C    0.076135
     9  H    0.250589
    10  C   -0.156740
    11  H    0.261307
    12  S    1.509838
    13  O   -0.717199
    14  O   -0.726473
    15  N   -1.042349
    16  H    0.404303
    17  H    0.430777
    18  H    0.460067
 Sum of Mulliken charges =  -1.00000
 Mulliken charges with hydrogens summed into heavy atoms:
               1
     1  C   -0.980883
     2  C   -0.163049
     4  C    0.368418
     6  C   -0.007805
     7  N   -0.076092
     8  C    0.326724
    10  C    0.104567
    12  S    1.509838
    13  O   -0.717199
    14  O   -0.726473
    15  N   -0.638046
 Electronic spatial extent (au):  <R**2>=           2196.1639
 Charge=             -1.0000 electrons
 Dipole moment (field-independent basis, Debye):
    X=            -16.8944    Y=              2.2871    Z=             -1.0484  Tot=             17.0807
 Quadrupole moment (field-independent basis, Debye-Ang):
   XX=           -105.3639   YY=            -76.5290   ZZ=            -83.6964
   XY=             -6.3550   XZ=             -7.3845   YZ=             -4.2978
 Traceless Quadrupole moment (field-independent basis, Debye-Ang):
   XX=            -16.8341   YY=             12.0007   ZZ=              4.8334
   XY=             -6.3550   XZ=             -7.3845   YZ=             -4.2978
 Octapole moment (field-independent basis, Debye-Ang**2):
  XXX=           -162.0851  YYY=             -7.6369  ZZZ=             -7.4244  XYY=            -34.0361
  XXY=             22.4137  XXZ=             17.8181  XZZ=            -21.1044  YZZ=              8.3671
  YYZ=             -1.1078  XYZ=             -1.0815
 Hexadecapole moment (field-independent basis, Debye-Ang**3):
 XXXX=          -2370.3912 YYYY=           -461.5438 ZZZZ=           -235.0051 XXXY=           -189.7060
 XXXZ=            -86.0670 YYYX=            -37.9784 YYYZ=             -9.6112 ZZZX=            -32.1192
 ZZZY=             -8.5271 XXYY=           -510.7880 XXZZ=           -443.9418 YYZZ=           -121.3467
 XXYZ=            -38.9705 YYXZ=              1.8338 ZZXY=             14.0052
 N-N= 7.097712455806D+02 E-N=-3.528328267376D+03  KE= 8.852079202346D+02
 D1PCM: PCM CHGder 1st derivatives, ID1Alg=3 FixD1E=F DoIter=F DoCFld=F I1PDM=0.
 Calling FoFJK, ICntrl=      2127 FMM=F ISym2X=0 I1Cent= 0 IOpClX= 0 NMat=1 NMatS=1 NMatT=0.
 ***** Axes restored to original set *****
 -------------------------------------------------------------------
 Center     Atomic                   Forces (Hartrees/Bohr)
 Number     Number              X              Y              Z
 -------------------------------------------------------------------
      1        6           0.000484424   -0.000045874   -0.005391278
      2        6          -0.001451891    0.003039911    0.003633387
      3        1          -0.000271236   -0.000638048    0.000656423
      4        6           0.004418180    0.003785088    0.001305955
      5        1           0.000201739   -0.000981672   -0.000076498
      6        6          -0.007267575   -0.008119530    0.020303802
      7        7           0.013072635    0.010067326   -0.022638619
      8        6          -0.003489076   -0.000038742   -0.004318467
      9        1          -0.000672385    0.000090436   -0.000122036
     10        6           0.001382282   -0.000759338    0.003342231
     11        1          -0.000372162    0.000003401    0.000321845
     12       16          -0.005305592    0.011976727    0.002059529
     13        8          -0.006554242    0.010300267    0.007269691
     14        8           0.019786170   -0.003595669   -0.003545632
     15        7          -0.011108549   -0.018822102   -0.006748937
     16        1           0.002664595   -0.000571436    0.002681536
     17        1          -0.005224810   -0.005550531    0.001468145
     18        1          -0.000292507   -0.000140214   -0.000201076
 -------------------------------------------------------------------
 Cartesian Forces:  Max     0.022638619 RMS     0.007258763

 GradGradGradGradGradGradGradGradGradGradGradGradGradGradGradGradGradGrad
 Berny optimization.
 FormGI is forming the generalized inverse of G from B-inverse, IUseBI=4.
 Internal  Forces:  Max     0.022453336 RMS     0.005438792
 Search for a local minimum.
 Step number   1 out of a maximum of   93
 All quantities printed in internal units (Hartrees-Bohrs-Radians)
 Mixed Optimization -- RFO/linear search
 Second derivative matrix not updated -- first step.
 ITU=  0
     Eigenvalues ---    0.00473   0.01490   0.01810   0.01975   0.02057
     Eigenvalues ---    0.02115   0.02133   0.02166   0.02167   0.02190
     Eigenvalues ---    0.02195   0.03051   0.04579   0.10252   0.11820
     Eigenvalues ---    0.15999   0.15999   0.16000   0.16000   0.16000
     Eigenvalues ---    0.16000   0.16000   0.17278   0.21725   0.22000
     Eigenvalues ---    0.22959   0.23978   0.24937   0.24967   0.25000
     Eigenvalues ---    0.26739   0.35147   0.35148   0.35157   0.35287
     Eigenvalues ---    0.41732   0.42138   0.43692   0.45137   0.45142
     Eigenvalues ---    0.45432   0.45759   0.46676   0.47130   0.47372
     Eigenvalues ---    0.58085   0.77221   0.80136
 RFO step:  Lambda=-1.32423738D-02 EMin= 4.73230524D-03
 Linear search not attempted -- first point.
 Iteration  1 RMS(Cart)=  0.04601914 RMS(Int)=  0.00244058
 Iteration  2 RMS(Cart)=  0.00264075 RMS(Int)=  0.00069983
 Iteration  3 RMS(Cart)=  0.00001170 RMS(Int)=  0.00069976
 Iteration  4 RMS(Cart)=  0.00000001 RMS(Int)=  0.00069976
 Variable       Old X    -DE/DX   Delta X   Delta X   Delta X     New X
                                 (Linear)    (Quad)   (Total)
    R1        2.63442  -0.00133   0.00000  -0.00254  -0.00258   2.63184
    R2        2.63870  -0.00100   0.00000  -0.00194  -0.00199   2.63671
    R3        3.38680   0.00180   0.00000   0.00642   0.00642   3.39322
    R4        2.05211   0.00052   0.00000   0.00142   0.00142   2.05353
    R5        2.62813   0.00205   0.00000   0.00432   0.00433   2.63245
    R6        2.05437  -0.00025   0.00000  -0.00069  -0.00069   2.05368
    R7        2.65245  -0.00035   0.00000  -0.00092  -0.00087   2.65157
    R8        2.62877   0.02164   0.00000   0.04466   0.04466   2.67343
    R9        2.65572  -0.00351   0.00000  -0.00788  -0.00784   2.64789
   R10        1.91817  -0.00040   0.00000  -0.00087  -0.00087   1.91731
   R11        1.91811   0.00021   0.00000   0.00045   0.00045   1.91857
   R12        2.05435  -0.00053   0.00000  -0.00146  -0.00146   2.05289
   R13        2.62454   0.00217   0.00000   0.00435   0.00434   2.62889
   R14        2.05421  -0.00015   0.00000  -0.00042  -0.00042   2.05379
   R15        2.83150  -0.00991   0.00000  -0.01262  -0.01262   2.81887
   R16        2.81542   0.01230   0.00000   0.01510   0.01510   2.83052
   R17        2.96188  -0.00191   0.00000  -0.00322  -0.00322   2.95866
   R18        1.93525  -0.00175   0.00000  -0.00389  -0.00389   1.93135
    A1        2.09149   0.00126   0.00000   0.00572   0.00565   2.09714
    A2        2.10371  -0.00059   0.00000  -0.00230  -0.00231   2.10140
    A3        2.08585  -0.00065   0.00000  -0.00251  -0.00252   2.08333
    A4        2.09518   0.00046   0.00000   0.00098   0.00093   2.09610
    A5        2.09649  -0.00195   0.00000  -0.00779  -0.00782   2.08867
    A6        2.09147   0.00150   0.00000   0.00698   0.00692   2.09840
    A7        2.09620  -0.00066   0.00000  -0.00243  -0.00249   2.09371
    A8        2.10441   0.00165   0.00000   0.00677   0.00687   2.11129
    A9        2.08256  -0.00099   0.00000  -0.00435  -0.00440   2.07816
   A10        2.10554   0.00638   0.00000   0.02540   0.02491   2.13045
   A11        2.07314  -0.00124   0.00000  -0.00494  -0.00521   2.06792
   A12        2.10342  -0.00506   0.00000  -0.01813  -0.01862   2.08481
   A13        1.99755  -0.00402   0.00000  -0.03951  -0.04099   1.95656
   A14        1.99760  -0.00052   0.00000  -0.01927  -0.02073   1.97687
   A15        1.94620  -0.00110   0.00000  -0.03076  -0.03324   1.91296
   A16        2.08253  -0.00113   0.00000  -0.00506  -0.00510   2.07743
   A17        2.10346   0.00137   0.00000   0.00502   0.00511   2.10857
   A18        2.09718  -0.00024   0.00000   0.00004  -0.00000   2.09718
   A19        2.09735  -0.00109   0.00000  -0.00469  -0.00471   2.09264
   A20        2.09881   0.00006   0.00000  -0.00051  -0.00053   2.09828
   A21        2.08700   0.00103   0.00000   0.00510   0.00508   2.09208
   A22        1.81274   0.01077   0.00000   0.02109   0.01994   1.83268
   A23        1.83860  -0.00980   0.00000  -0.02014  -0.02211   1.81649
   A24        1.92912  -0.00141   0.00000   0.00096  -0.00057   1.92855
   A25        1.98205  -0.00524   0.00000  -0.03481  -0.03320   1.94884
   A26        1.99589  -0.01735   0.00000  -0.10349  -0.10278   1.89311
   A27        1.89739   0.02245   0.00000   0.13540   0.13564   2.03303
   A28        1.87785  -0.00183   0.00000  -0.01059  -0.01059   1.86726
    D1       -3.14036  -0.00018   0.00000  -0.00318  -0.00310   3.13972
    D2       -0.00927   0.00044   0.00000   0.01409   0.01399   0.00473
    D3        0.07180  -0.00057   0.00000  -0.01816  -0.01811   0.05368
    D4       -3.08029   0.00006   0.00000  -0.00089  -0.00102  -3.08131
    D5        0.00691   0.00015   0.00000   0.00206   0.00193   0.00884
    D6        3.14033  -0.00033   0.00000  -0.01089  -0.01086   3.12947
    D7        3.07866   0.00054   0.00000   0.01688   0.01679   3.09545
    D8       -0.07110   0.00006   0.00000   0.00394   0.00401  -0.06710
    D9        1.72950  -0.00294   0.00000  -0.01372  -0.01386   1.71565
   D10       -2.46542  -0.00824   0.00000  -0.05217  -0.05200  -2.51741
   D11       -0.41888   0.01202   0.00000   0.09672   0.09662  -0.32226
   D12       -1.34175  -0.00341   0.00000  -0.02898  -0.02908  -1.37083
   D13        0.74652  -0.00871   0.00000  -0.06744  -0.06722   0.67930
   D14        2.79305   0.01156   0.00000   0.08145   0.08140   2.87445
   D15       -3.13090  -0.00043   0.00000  -0.01109  -0.01084   3.14145
   D16        0.00636  -0.00053   0.00000  -0.01476  -0.01465  -0.00830
   D17        0.00022   0.00019   0.00000   0.00611   0.00624   0.00646
   D18        3.13748   0.00009   0.00000   0.00244   0.00243   3.13990
   D19        3.09077   0.00163   0.00000   0.05247   0.05309  -3.13933
   D20       -0.00105   0.00002   0.00000  -0.00066  -0.00063  -0.00168
   D21       -0.05513   0.00153   0.00000   0.04883   0.04932  -0.00582
   D22        3.13624  -0.00008   0.00000  -0.00430  -0.00440   3.13183
   D23        0.64003  -0.00709   0.00000  -0.17980  -0.17896   0.46107
   D24       -1.63736  -0.00099   0.00000  -0.07644  -0.07744  -1.71479
   D25       -2.55220  -0.00534   0.00000  -0.12534  -0.12434  -2.67654
   D26        1.45359   0.00077   0.00000  -0.02198  -0.02282   1.43078
   D27       -3.13770   0.00056   0.00000   0.01596   0.01575  -3.12195
   D28       -0.00132   0.00057   0.00000   0.01681   0.01673   0.01542
   D29        0.05361  -0.00138   0.00000  -0.03838  -0.03780   0.01581
   D30       -3.09320  -0.00137   0.00000  -0.03754  -0.03682  -3.13001
   D31       -0.00162  -0.00065   0.00000  -0.01758  -0.01748  -0.01910
   D32       -3.13509  -0.00017   0.00000  -0.00470  -0.00472  -3.13981
   D33        3.13472  -0.00064   0.00000  -0.01674  -0.01650   3.11822
   D34        0.00124  -0.00016   0.00000  -0.00386  -0.00373  -0.00249
   D35       -0.87048  -0.00161   0.00000  -0.07709  -0.07770  -0.94817
   D36       -2.90845  -0.00312   0.00000  -0.03760  -0.03984  -2.94829
   D37        1.13948  -0.00130   0.00000  -0.02319  -0.02033   1.11915
         Item               Value     Threshold  Converged?
 Maximum Force            0.022453     0.000450     NO 
 RMS     Force            0.005439     0.000300     NO 
 Maximum Displacement     0.162933     0.001800     NO 
 RMS     Displacement     0.045887     0.001200     NO 
 Predicted change in Energy=-7.500983D-03
 GradGradGradGradGradGradGradGradGradGradGradGradGradGradGradGradGradGrad

                          Input orientation:                          
 ---------------------------------------------------------------------
 Center     Atomic      Atomic             Coordinates (Angstroms)
 Number     Number       Type             X           Y           Z
 ---------------------------------------------------------------------
      1          6           0       -1.345577    0.724405   -0.887763
      2          6           0       -2.531435    0.896524   -1.597517
      3          1           0       -3.478171    0.964844   -1.068460
      4          6           0       -2.498008    0.972569   -2.988074
      5          1           0       -3.420551    1.106698   -3.546618
      6          6           0       -1.284129    0.888184   -3.686795
      7          7           0       -1.222946    0.965305   -5.098083
      8          6           0       -0.100912    0.727191   -2.953690
      9          1           0        0.845715    0.679383   -3.484498
     10          6           0       -0.129525    0.634289   -1.565945
     11          1           0        0.797703    0.511270   -1.012509
     12         16           0       -1.374760    0.531243    0.897193
     13          8           0       -1.286189   -0.939820    1.127956
     14          8           0       -0.138621    1.238961    1.360485
     15          7           0       -2.733550    1.044055    1.481996
     16          1           0       -2.857661    2.003293    1.151840
     17          1           0       -2.000049    1.489896   -5.485793
     18          1           0       -1.167509    0.056546   -5.547349
 ---------------------------------------------------------------------
                    Distance matrix (angstroms):
                    1          2          3          4          5
     1  C    0.000000
     2  C    1.392708   0.000000
     3  H    2.153699   1.086682   0.000000
     4  C    2.408524   1.393035   2.155388   0.000000
     5  H    3.394286   2.152602   2.482884   1.086760   0.000000
     6  C    2.804493   2.433294   3.416925   1.403151   2.152137
     7  N    4.218989   3.737758   4.617781   2.465355   2.693789
     8  C    2.411899   2.788426   3.875107   2.409868   3.393463
     9  H    3.398061   3.874660   4.961322   3.393063   4.288063
    10  C    1.395289   2.416389   3.401497   2.783270   3.870024
    11  H    2.157461   3.402031   4.300228   3.870060   4.956804
    12  S    1.795614   2.773969   2.911380   4.068384   4.925836
    13  O    2.614631   3.514399   3.640985   4.697599   5.531309
    14  O    2.603100   3.820027   4.138539   4.954557   5.904932
    15  N    2.764851   3.089663   2.658111   4.476841   5.075711
    16  H    2.842874   2.981665   2.528466   4.281428   4.816247
    17  H    4.707037   3.969024   4.687574   2.598883   2.434145
    18  H    4.710572   4.262280   5.120998   3.026420   3.190916
                    6          7          8          9         10
     6  C    0.000000
     7  N    1.414718   0.000000
     8  C    1.401201   2.431888   0.000000
     9  H    2.149595   2.639085   1.086345   0.000000
    10  C    2.428081   3.712297   1.391146   2.152667   0.000000
    11  H    3.409970   4.580512   2.149957   2.478163   1.086819
    12  S    4.598757   6.012886   4.060836   4.914435   2.761933
    13  O    5.150090   6.511303   4.565484   5.333063   3.327580
    14  O    5.187511   6.554675   4.344588   4.975531   2.988261
    15  N    5.370429   6.751708   5.167833   6.132714   4.029739
    16  H    5.208825   6.543031   5.107199   6.079750   4.086961
    17  H    2.027559   1.014596   3.255762   3.572183   4.426752
    18  H    2.041295   1.015261   2.883480   2.948958   4.154850
                   11         12         13         14         15
    11  H    0.000000
    12  S    2.892570   0.000000
    13  O    3.321123   1.491684   0.000000
    14  O    2.652799   1.497847   2.473473   0.000000
    15  N    4.356164   1.565657   2.481121   2.605075   0.000000
    16  H    4.502469   2.104940   3.336467   2.832122   1.022029
    17  H    5.366134   6.484791   7.082004   7.099254   7.020461
    18  H    4.963225   6.465324   6.750298   7.083424   7.269068
                   16         17         18
    16  H    0.000000
    17  H    6.712469   0.000000
    18  H    7.178132   1.658737   0.000000
 Stoichiometry    C6H7N2O2S(1-)
 Framework group  C1[X(C6H7N2O2S)]
 Deg. of freedom    48
 Full point group                 C1      NOp   1
 Largest Abelian subgroup         C1      NOp   1
 Largest concise Abelian subgroup C1      NOp   1
                         Standard orientation:                         
 ---------------------------------------------------------------------
 Center     Atomic      Atomic             Coordinates (Angstroms)
 Number     Number       Type             X           Y           Z
 ---------------------------------------------------------------------
      1          6           0        0.144008    0.004452   -0.051182
      2          6           0       -0.553464    1.209416   -0.016105
      3          1           0       -0.012662    2.151834    0.000064
      4          6           0       -1.946287    1.199597    0.006102
      5          1           0       -2.495275    2.137095    0.033632
      6          6           0       -2.660240   -0.008129   -0.016315
      7          7           0       -4.074345   -0.045126    0.002755
      8          6           0       -1.940225   -1.209250   -0.063762
      9          1           0       -2.484231   -2.148869   -0.100072
     10          6           0       -0.549094   -1.206374   -0.069715
     11          1           0       -0.006083   -2.147019   -0.108464
     12         16           0        1.938424   -0.009007    0.013026
     13          8           0        2.271731   -0.290821    1.439423
     14          8           0        2.326428   -1.146743   -0.880593
     15          7           0        2.510991    1.399338   -0.361153
     16          1           0        2.115725    1.650620   -1.269539
     17          1           0       -4.483571    0.797437   -0.387151
     18          1           0       -4.458663   -0.214228    0.927125
 ---------------------------------------------------------------------
 Rotational constants (GHZ):           2.6349806           0.5616993           0.5098048
 Basis read from rwf:  (6D, 7F)
 There are   227 symmetry adapted cartesian basis functions of A   symmetry.
 There are   227 symmetry adapted basis functions of A   symmetry.
   227 basis functions,   404 primitive gaussians,   227 cartesian basis functions
    45 alpha electrons       45 beta electrons
       nuclear repulsion energy       709.1918167296 Hartrees.
 NAtoms=   18 NActive=   18 NUniq=   18 SFac= 1.00D+00 NAtFMM=   60 NAOKFM=F Big=F
 Integral buffers will be    131072 words long.
 Raffenetti 2 integral format.
 Two-electron integral symmetry is turned on.
 ------------------------------------------------------------------------------
 Polarizable Continuum Model (PCM)
 =================================
 Model                : PCM.
 Atomic radii         : SMD-Coulomb.
 Polarization charges : Total charges.
 Charge compensation  : None.
 Solution method      : On-the-fly selection.
 Cavity type          : VdW (van der Waals Surface) (Alpha=1.000).
 Cavity algorithm     : GePol (No added spheres)
                        Default sphere list used, NSphG=   18.
                        Lebedev-Laikov grids with approx.  5.0 points / Ang**2.
                        Smoothing algorithm: York/Karplus (Gamma=1.0000).
                        Polarization charges: spherical gaussians, with
                                              point-specific exponents (IZeta= 3).
                        Self-potential: point-specific (ISelfS= 7).
                        Self-field    : sphere-specific E.n sum rule (ISelfD= 2).
 1st derivatives      : Analytical E(r).r(x)/FMM algorithm (CHGder, D1EAlg=3).
                        Cavity 1st derivative terms included.
 Solvent              : Water, Eps=  78.355300 Eps(inf)=   1.777849
 ------------------------------------------------------------------------------
 Spheres list:
 ISph  on   Nord     Re0    Alpha      Xe            Ye            Ze
    1   C      1    1.8500  1.000      0.144008      0.004452     -0.051182
    2   C      2    1.8500  1.000     -0.553464      1.209416     -0.016105
    3   H      3    1.2000  1.000     -0.012662      2.151834      0.000064
    4   C      4    1.8500  1.000     -1.946287      1.199597      0.006102
    5   H      5    1.2000  1.000     -2.495275      2.137095      0.033632
    6   C      6    1.8500  1.000     -2.660240     -0.008129     -0.016315
    7   N      7    1.8900  1.000     -4.074345     -0.045126      0.002755
    8   C      8    1.8500  1.000     -1.940225     -1.209250     -0.063762
    9   H      9    1.2000  1.000     -2.484231     -2.148869     -0.100072
   10   C     10    1.8500  1.000     -0.549094     -1.206374     -0.069715
   11   H     11    1.2000  1.000     -0.006083     -2.147019     -0.108464
   12   S     12    2.4900  1.000      1.938424     -0.009007      0.013026
   13   O     13    1.5200  1.000      2.271731     -0.290821      1.439423
   14   O     14    1.5200  1.000      2.326428     -1.146743     -0.880593
   15   N     15    1.8900  1.000      2.510991      1.399338     -0.361153
   16   H     16    1.2000  1.000      2.115725      1.650620     -1.269539
   17   H     17    1.2000  1.000     -4.483571      0.797437     -0.387151
   18   H     18    1.2000  1.000     -4.458663     -0.214228      0.927125
 ------------------------------------------------------------------------------
 ------------------------------------------------------------------------------
 Atomic radii for non-electrostatic terms: SMD-CDS.
 ------------------------------------------------------------------------------
 Nuclear repulsion after PCM non-electrostatic terms =      709.1968983300 Hartrees.
 One-electron integrals computed using PRISM.
 NBasis=   227 RedAO= T EigKep=  2.84D-06  NBF=   227
 NBsUse=   227 1.00D-06 EigRej= -1.00D+00 NBFU=   227
 Initial guess from the checkpoint file:  "/jobfs/40662236.gadi-pbs/Gau-3479185.chk"
 B after Tr=    -0.000000    0.000000    0.000000
         Rot=    0.999896    0.014260   -0.001996    0.001133 Ang=   1.66 deg.
 ExpMin= 4.05D-02 ExpMax= 2.19D+04 ExpMxC= 3.30D+03 IAcc=3 IRadAn=         5 AccDes= 0.00D+00
 Harris functional with IExCor= 1009 and IRadAn=       5 diagonalized for initial guess.
 HarFok:  IExCor= 1009 AccDes= 0.00D+00 IRadAn=         5 IDoV= 1 UseB2=F ITyADJ=14
 ICtDFT=  3500011 ScaDFX=  1.000000  1.000000  1.000000  1.000000
 FoFCou: FMM=F IPFlag=           0 FMFlag=      100000 FMFlg1=           0
         NFxFlg=           0 DoJE=T BraDBF=F KetDBF=T FulRan=T
         wScrn=  0.000000 ICntrl=       500 IOpCl=  0 I1Cent=   200000004 NGrid=           0
         NMat0=    1 NMatS0=      1 NMatT0=    0 NMatD0=    1 NMtDS0=    0 NMtDT0=    0
 Petite list used in FoFCou.
 Requested convergence on RMS density matrix=1.00D-08 within 128 cycles.
 Requested convergence on MAX density matrix=1.00D-06.
 Requested convergence on             energy=1.00D-06.
 No special actions if energy rises.
 Inv3:  Mode=1 IEnd=     6876588.
 Iteration    1 A*A^-1 deviation from unit magnitude is 4.44D-15 for   1505.
 Iteration    1 A*A^-1 deviation from orthogonality  is 2.69D-15 for   1483    374.
 Iteration    1 A^-1*A deviation from unit magnitude is 4.66D-15 for   1505.
 Iteration    1 A^-1*A deviation from orthogonality  is 1.21D-15 for   1481    322.
 Error on total polarization charges =  0.05209
 SCF Done:  E(RM062X) =  -890.857194012     A.U. after   14 cycles
            NFock= 14  Conv=0.37D-08     -V/T= 2.0064
 SMD-CDS (non-electrostatic) energy       (kcal/mol) =       3.19
 (included in total energy above)
 D1PCM: PCM CHGder 1st derivatives, ID1Alg=3 FixD1E=F DoIter=F DoCFld=F I1PDM=0.
 Calling FoFJK, ICntrl=      2127 FMM=F ISym2X=0 I1Cent= 0 IOpClX= 0 NMat=1 NMatS=1 NMatT=0.
 ***** Axes restored to original set *****
 -------------------------------------------------------------------
 Center     Atomic                   Forces (Hartrees/Bohr)
 Number     Number              X              Y              Z
 -------------------------------------------------------------------
      1        6          -0.000416205    0.001678337   -0.001399064
      2        6          -0.000029567    0.000652446    0.000373109
      3        1           0.000232761   -0.000112251   -0.000284790
      4        6           0.001709765    0.003159041   -0.002295629
      5        1          -0.000422587   -0.000487965   -0.000053005
      6        6          -0.003729642   -0.003820488    0.006150059
      7        7           0.005048981    0.008229600   -0.002283302
      8        6          -0.000048073   -0.002174091   -0.000994564
      9        1           0.000179315   -0.000122583    0.000053166
     10        6           0.001074086    0.000160051    0.000060922
     11        1          -0.000367766    0.000016991   -0.000131789
     12       16          -0.002535357   -0.003343063    0.001119767
     13        8           0.001669937   -0.003463992    0.002695414
     14        8          -0.001158950    0.001852731   -0.000691439
     15        7           0.003320825   -0.000341783   -0.005230243
     16        1          -0.000942234    0.003437262    0.002945717
     17        1          -0.004524525   -0.003705661   -0.000156051
     18        1           0.000939236   -0.001614582    0.000121721
 -------------------------------------------------------------------
 Cartesian Forces:  Max     0.008229600 RMS     0.002508856

 GradGradGradGradGradGradGradGradGradGradGradGradGradGradGradGradGradGrad
 Berny optimization.
 Using GEDIIS/GDIIS optimizer.
 FormGI is forming the generalized inverse of G from B-inverse, IUseBI=4.
 Internal  Forces:  Max     0.004987751 RMS     0.001475644
 Search for a local minimum.
 Step number   2 out of a maximum of   93
 All quantities printed in internal units (Hartrees-Bohrs-Radians)
 Mixed Optimization -- RFO/linear search
 Update second derivatives using D2CorX and points    1    2
 DE= -7.13D-03 DEPred=-7.50D-03 R= 9.51D-01
 TightC=F SS=  1.41D+00  RLast= 3.67D-01 DXNew= 5.0454D-01 1.1021D+00
 Trust test= 9.51D-01 RLast= 3.67D-01 DXMaxT set to 5.05D-01
 ITU=  1  0
 Use linear search instead of GDIIS.
     Eigenvalues ---    0.00473   0.01490   0.01601   0.01979   0.02055
     Eigenvalues ---    0.02115   0.02133   0.02166   0.02172   0.02191
     Eigenvalues ---    0.02196   0.02965   0.04983   0.11825   0.12430
     Eigenvalues ---    0.15856   0.15997   0.15999   0.16000   0.16000
     Eigenvalues ---    0.16000   0.16224   0.17369   0.21760   0.22135
     Eigenvalues ---    0.23118   0.24211   0.24867   0.24962   0.25364
     Eigenvalues ---    0.26737   0.35147   0.35151   0.35159   0.35293
     Eigenvalues ---    0.41720   0.42156   0.43788   0.45101   0.45141
     Eigenvalues ---    0.45451   0.45722   0.46581   0.46709   0.47416
     Eigenvalues ---    0.58072   0.77979   0.80306
 RFO step:  Lambda=-3.17554431D-03 EMin= 4.73155152D-03
 Quartic linear search produced a step of  0.10200.
 Iteration  1 RMS(Cart)=  0.04096369 RMS(Int)=  0.00407704
 Iteration  2 RMS(Cart)=  0.00398796 RMS(Int)=  0.00039408
 Iteration  3 RMS(Cart)=  0.00004015 RMS(Int)=  0.00039194
 Iteration  4 RMS(Cart)=  0.00000004 RMS(Int)=  0.00039194
 Variable       Old X    -DE/DX   Delta X   Delta X   Delta X     New X
                                 (Linear)    (Quad)   (Total)
    R1        2.63184   0.00026  -0.00026   0.00048   0.00019   2.63203
    R2        2.63671   0.00018  -0.00020   0.00042   0.00019   2.63690
    R3        3.39322   0.00103   0.00065   0.00460   0.00526   3.39848
    R4        2.05353  -0.00035   0.00014  -0.00095  -0.00080   2.05273
    R5        2.63245  -0.00008   0.00044   0.00011   0.00055   2.63301
    R6        2.05368   0.00032  -0.00007   0.00093   0.00086   2.05454
    R7        2.65157  -0.00261  -0.00009  -0.00644  -0.00650   2.64507
    R8        2.67343   0.00254   0.00456   0.00934   0.01390   2.68732
    R9        2.64789  -0.00017  -0.00080  -0.00114  -0.00191   2.64597
   R10        1.91731   0.00160  -0.00009   0.00374   0.00365   1.92096
   R11        1.91857   0.00144   0.00005   0.00345   0.00349   1.92206
   R12        2.05289   0.00014  -0.00015   0.00030   0.00015   2.05304
   R13        2.62889  -0.00052   0.00044  -0.00076  -0.00031   2.62857
   R14        2.05379  -0.00038  -0.00004  -0.00119  -0.00124   2.05255
   R15        2.81887   0.00394  -0.00129   0.00446   0.00318   2.82205
   R16        2.83052  -0.00031   0.00154   0.00080   0.00235   2.83287
   R17        2.95866  -0.00190  -0.00033  -0.00377  -0.00410   2.95456
   R18        1.93135   0.00240  -0.00040   0.00558   0.00518   1.93654
    A1        2.09714   0.00039   0.00058   0.00283   0.00337   2.10051
    A2        2.10140  -0.00020  -0.00024  -0.00129  -0.00153   2.09987
    A3        2.08333  -0.00018  -0.00026  -0.00123  -0.00149   2.08183
    A4        2.09610   0.00013   0.00009   0.00081   0.00089   2.09700
    A5        2.08867   0.00000  -0.00080  -0.00030  -0.00111   2.08756
    A6        2.09840  -0.00014   0.00071  -0.00053   0.00017   2.09857
    A7        2.09371   0.00028  -0.00025   0.00101   0.00072   2.09444
    A8        2.11129  -0.00091   0.00070  -0.00409  -0.00333   2.10795
    A9        2.07816   0.00062  -0.00045   0.00309   0.00261   2.08077
   A10        2.13045  -0.00066   0.00254  -0.00075   0.00154   2.13199
   A11        2.06792   0.00175  -0.00053   0.00672   0.00607   2.07399
   A12        2.08481  -0.00110  -0.00190  -0.00606  -0.00820   2.07661
   A13        1.95656  -0.00204  -0.00418  -0.02906  -0.03449   1.92207
   A14        1.97687  -0.00183  -0.00211  -0.02592  -0.02925   1.94762
   A15        1.91296  -0.00050  -0.00339  -0.02638  -0.03214   1.88083
   A16        2.07743   0.00041  -0.00052   0.00181   0.00126   2.07869
   A17        2.10857  -0.00050   0.00052  -0.00191  -0.00133   2.10723
   A18        2.09718   0.00009  -0.00000   0.00008   0.00005   2.09723
   A19        2.09264  -0.00074  -0.00048  -0.00327  -0.00374   2.08889
   A20        2.09828   0.00028  -0.00005   0.00084   0.00078   2.09906
   A21        2.09208   0.00045   0.00052   0.00240   0.00291   2.09499
   A22        1.83268   0.00333   0.00203   0.02574   0.02771   1.86039
   A23        1.81649  -0.00047  -0.00226  -0.01187  -0.01436   1.80213
   A24        1.92855  -0.00201  -0.00006  -0.01043  -0.01069   1.91787
   A25        1.94884  -0.00022  -0.00339  -0.00018  -0.00333   1.94552
   A26        1.89311   0.00130  -0.01048   0.00792  -0.00245   1.89065
   A27        2.03303  -0.00154   0.01384  -0.00851   0.00522   2.03825
   A28        1.86726   0.00472  -0.00108   0.03038   0.02930   1.89656
    D1        3.13972  -0.00004  -0.00032  -0.00103  -0.00132   3.13841
    D2        0.00473   0.00002   0.00143   0.00249   0.00391   0.00864
    D3        0.05368  -0.00013  -0.00185  -0.00733  -0.00916   0.04452
    D4       -3.08131  -0.00006  -0.00010  -0.00380  -0.00393  -3.08524
    D5        0.00884   0.00001   0.00020  -0.00035  -0.00018   0.00866
    D6        3.12947  -0.00001  -0.00111  -0.00173  -0.00284   3.12664
    D7        3.09545   0.00010   0.00171   0.00588   0.00758   3.10303
    D8       -0.06710   0.00008   0.00041   0.00449   0.00492  -0.06218
    D9        1.71565   0.00062  -0.00141   0.01911   0.01770   1.73335
   D10       -2.51741   0.00157  -0.00530   0.02463   0.01925  -2.49816
   D11       -0.32226  -0.00177   0.00986   0.00065   0.01056  -0.31170
   D12       -1.37083   0.00051  -0.00297   0.01274   0.00978  -1.36104
   D13        0.67930   0.00146  -0.00686   0.01826   0.01133   0.69063
   D14        2.87445  -0.00187   0.00830  -0.00573   0.00265   2.87709
   D15        3.14145  -0.00010  -0.00111  -0.00494  -0.00598   3.13547
   D16       -0.00830  -0.00007  -0.00149  -0.00368  -0.00513  -0.01343
   D17        0.00646  -0.00004   0.00064  -0.00142  -0.00074   0.00572
   D18        3.13990  -0.00000   0.00025  -0.00015   0.00010   3.14000
   D19       -3.13933   0.00061   0.00542   0.03040   0.03599  -3.10334
   D20       -0.00168   0.00007  -0.00006   0.00265   0.00256   0.00088
   D21       -0.00582   0.00064   0.00503   0.03164   0.03682   0.03101
   D22        3.13183   0.00010  -0.00045   0.00389   0.00339   3.13522
   D23        0.46107  -0.00499  -0.01825  -0.20145  -0.21871   0.24236
   D24       -1.71479  -0.00123  -0.00790  -0.12209  -0.13088  -1.84567
   D25       -2.67654  -0.00445  -0.01268  -0.17347  -0.18526  -2.86181
   D26        1.43078  -0.00069  -0.00233  -0.09411  -0.09743   1.33335
   D27       -3.12195   0.00006   0.00161   0.00352   0.00510  -3.11685
   D28        0.01542  -0.00003   0.00171  -0.00046   0.00126   0.01668
   D29        0.01581  -0.00046  -0.00386  -0.02348  -0.02723  -0.01142
   D30       -3.13001  -0.00055  -0.00376  -0.02745  -0.03107   3.12210
   D31       -0.01910   0.00000  -0.00178  -0.00061  -0.00238  -0.02148
   D32       -3.13981   0.00003  -0.00048   0.00079   0.00030  -3.13951
   D33        3.11822  -0.00009  -0.00168  -0.00463  -0.00626   3.11196
   D34       -0.00249  -0.00007  -0.00038  -0.00323  -0.00358  -0.00607
   D35       -0.94817   0.00037  -0.00793  -0.04428  -0.05226  -1.00043
   D36       -2.94829  -0.00326  -0.00406  -0.07391  -0.07820  -3.02650
   D37        1.11915  -0.00287  -0.00207  -0.07384  -0.07563   1.04352
         Item               Value     Threshold  Converged?
 Maximum Force            0.004988     0.000450     NO 
 RMS     Force            0.001476     0.000300     NO 
 Maximum Displacement     0.205128     0.001800     NO 
 RMS     Displacement     0.042144     0.001200     NO 
 Predicted change in Energy=-1.782830D-03
 GradGradGradGradGradGradGradGradGradGradGradGradGradGradGradGradGradGrad

                          Input orientation:                          
 ---------------------------------------------------------------------
 Center     Atomic      Atomic             Coordinates (Angstroms)
 Number     Number       Type             X           Y           Z
 ---------------------------------------------------------------------
      1          6           0       -1.347316    0.715068   -0.894370
      2          6           0       -2.532909    0.903497   -1.600612
      3          1           0       -3.478079    0.976846   -1.070301
      4          6           0       -2.500575    0.983023   -2.991293
      5          1           0       -3.422889    1.124308   -3.549338
      6          6           0       -1.288819    0.891793   -3.685927
      7          7           0       -1.216426    1.014782   -5.100818
      8          6           0       -0.105078    0.717607   -2.958641
      9          1           0        0.840355    0.669564   -3.491712
     10          6           0       -0.131273    0.616468   -1.571589
     11          1           0        0.794092    0.483441   -1.018634
     12         16           0       -1.376493    0.523045    0.893508
     13          8           0       -1.284288   -0.942241    1.166595
     14          8           0       -0.138423    1.242759    1.336744
     15          7           0       -2.736304    1.044505    1.462261
     16          1           0       -2.855520    2.022901    1.181751
     17          1           0       -2.087269    1.392949   -5.464063
     18          1           0       -1.058960    0.114518   -5.547184
 ---------------------------------------------------------------------
                    Distance matrix (angstroms):
                    1          2          3          4          5
     1  C    0.000000
     2  C    1.392808   0.000000
     3  H    2.153980   1.086258   0.000000
     4  C    2.408089   1.393328   2.155403   0.000000
     5  H    3.394752   2.153684   2.484032   1.087216   0.000000
     6  C    2.797757   2.428257   3.411977   1.399711   2.151040
     7  N    4.219143   3.741250   4.621859   2.469848   2.699550
     8  C    2.409227   2.788038   3.874295   2.410377   3.394436
     9  H    3.396198   3.874260   4.960496   3.392711   4.287816
    10  C    1.395388   2.418901   3.403274   2.786309   3.873517
    11  H    2.157480   3.403539   4.300879   3.872440   4.959647
    12  S    1.798397   2.775369   2.911897   4.070235   4.928299
    13  O    2.645415   3.552919   3.674142   4.740678   5.575327
    14  O    2.591862   3.804829   4.125273   4.937522   5.888595
    15  N    2.755272   3.072856   2.639826   4.460212   5.059041
    16  H    2.880171   3.016404   2.559990   4.315279   4.848978
    17  H    4.678584   3.919746   4.627379   2.540365   2.349940
    18  H    4.700265   4.286075   5.161223   3.060251   3.255645
                    6          7          8          9         10
     6  C    0.000000
     7  N    1.422071   0.000000
     8  C    1.400189   2.431528   0.000000
     9  H    2.149532   2.634150   1.086424   0.000000
    10  C    2.426138   3.713714   1.390981   2.152616   0.000000
    11  H    3.408771   4.581346   2.151039   2.480504   1.086165
    12  S    4.595093   6.016592   4.061207   4.915896   2.763332
    13  O    5.187549   6.566203   4.600348   5.367667   3.355095
    14  O    5.164669   6.531177   4.327496   4.959894   2.975011
    15  N    5.349988   6.736833   5.155054   6.121676   4.021647
    16  H    5.237198   6.570663   5.139219   6.110014   4.120735
    17  H    2.012572   1.016526   3.265319   3.603392   4.424952
    18  H    2.030091   1.017111   2.823856   2.853145   4.113139
                   11         12         13         14         15
    11  H    0.000000
    12  S    2.892973   0.000000
    13  O    3.335784   1.493365   0.000000
    14  O    2.644608   1.499088   2.473092   0.000000
    15  N    4.351244   1.563485   2.478493   2.608457   0.000000
    16  H    4.531147   2.126070   3.355751   2.831124   1.024772
    17  H    5.375061   6.456055   7.075557   7.076124   6.965387
    18  H    4.906900   6.461442   6.800172   7.036247   7.267095
                   16         17         18
    16  H    0.000000
    17  H    6.719665   0.000000
    18  H    7.221366   1.642776   0.000000
 Stoichiometry    C6H7N2O2S(1-)
 Framework group  C1[X(C6H7N2O2S)]
 Deg. of freedom    48
 Full point group                 C1      NOp   1
 Largest Abelian subgroup         C1      NOp   1
 Largest concise Abelian subgroup C1      NOp   1
                         Standard orientation:                         
 ---------------------------------------------------------------------
 Center     Atomic      Atomic             Coordinates (Angstroms)
 Number     Number       Type             X           Y           Z
 ---------------------------------------------------------------------
      1          6           0        0.140220    0.004434   -0.040960
      2          6           0       -0.554850    1.210958   -0.007884
      3          1           0       -0.013165    2.152367    0.008943
      4          6           0       -1.947915    1.202406    0.017796
      5          1           0       -2.496838    2.140341    0.049434
      6          6           0       -2.657299   -0.004005   -0.005397
      7          7           0       -4.078597   -0.045951   -0.026276
      8          6           0       -1.942299   -1.206897   -0.053923
      9          1           0       -2.488668   -2.145015   -0.095556
     10          6           0       -0.551327   -1.207405   -0.058830
     11          1           0       -0.008167   -2.147163   -0.098646
     12         16           0        1.937755   -0.009355    0.012956
     13          8           0        2.319753   -0.307312    1.425556
     14          8           0        2.300450   -1.138928   -0.903441
     15          7           0        2.491803    1.404744   -0.358314
     16          1           0        2.140010    1.661653   -1.285889
     17          1           0       -4.452373    0.872299   -0.250850
     18          1           0       -4.458130   -0.323374    0.875670
 ---------------------------------------------------------------------
 Rotational constants (GHZ):           2.6322080           0.5614797           0.5093222
 Basis read from rwf:  (6D, 7F)
 There are   227 symmetry adapted cartesian basis functions of A   symmetry.
 There are   227 symmetry adapted basis functions of A   symmetry.
   227 basis functions,   404 primitive gaussians,   227 cartesian basis functions
    45 alpha electrons       45 beta electrons
       nuclear repulsion energy       708.9328032450 Hartrees.
 NAtoms=   18 NActive=   18 NUniq=   18 SFac= 1.00D+00 NAtFMM=   60 NAOKFM=F Big=F
 Integral buffers will be    131072 words long.
 Raffenetti 2 integral format.
 Two-electron integral symmetry is turned on.
 ------------------------------------------------------------------------------
 Polarizable Continuum Model (PCM)
 =================================
 Model                : PCM.
 Atomic radii         : SMD-Coulomb.
 Polarization charges : Total charges.
 Charge compensation  : None.
 Solution method      : On-the-fly selection.
 Cavity type          : VdW (van der Waals Surface) (Alpha=1.000).
 Cavity algorithm     : GePol (No added spheres)
                        Default sphere list used, NSphG=   18.
                        Lebedev-Laikov grids with approx.  5.0 points / Ang**2.
                        Smoothing algorithm: York/Karplus (Gamma=1.0000).
                        Polarization charges: spherical gaussians, with
                                              point-specific exponents (IZeta= 3).
                        Self-potential: point-specific (ISelfS= 7).
                        Self-field    : sphere-specific E.n sum rule (ISelfD= 2).
 1st derivatives      : Analytical E(r).r(x)/FMM algorithm (CHGder, D1EAlg=3).
                        Cavity 1st derivative terms included.
 Solvent              : Water, Eps=  78.355300 Eps(inf)=   1.777849
 ------------------------------------------------------------------------------
 Spheres list:
 ISph  on   Nord     Re0    Alpha      Xe            Ye            Ze
    1   C      1    1.8500  1.000      0.140220      0.004434     -0.040960
    2   C      2    1.8500  1.000     -0.554850      1.210958     -0.007884
    3   H      3    1.2000  1.000     -0.013165      2.152367      0.008943
    4   C      4    1.8500  1.000     -1.947915      1.202406      0.017796
    5   H      5    1.2000  1.000     -2.496838      2.140341      0.049434
    6   C      6    1.8500  1.000     -2.657299     -0.004005     -0.005397
    7   N      7    1.8900  1.000     -4.078597     -0.045951     -0.026276
    8   C      8    1.8500  1.000     -1.942299     -1.206897     -0.053923
    9   H      9    1.2000  1.000     -2.488668     -2.145015     -0.095556
   10   C     10    1.8500  1.000     -0.551327     -1.207405     -0.058830
   11   H     11    1.2000  1.000     -0.008167     -2.147163     -0.098646
   12   S     12    2.4900  1.000      1.937755     -0.009355      0.012956
   13   O     13    1.5200  1.000      2.319753     -0.307312      1.425556
   14   O     14    1.5200  1.000      2.300450     -1.138928     -0.903441
   15   N     15    1.8900  1.000      2.491803      1.404744     -0.358314
   16   H     16    1.2000  1.000      2.140010      1.661653     -1.285889
   17   H     17    1.2000  1.000     -4.452373      0.872299     -0.250850
   18   H     18    1.2000  1.000     -4.458130     -0.323374      0.875670
 ------------------------------------------------------------------------------
 ------------------------------------------------------------------------------
 Atomic radii for non-electrostatic terms: SMD-CDS.
 ------------------------------------------------------------------------------
 Nuclear repulsion after PCM non-electrostatic terms =      708.9378164834 Hartrees.
 One-electron integrals computed using PRISM.
 NBasis=   227 RedAO= T EigKep=  2.84D-06  NBF=   227
 NBsUse=   227 1.00D-06 EigRej= -1.00D+00 NBFU=   227
 Initial guess from the checkpoint file:  "/jobfs/40662236.gadi-pbs/Gau-3479185.chk"
 B after Tr=     0.000000   -0.000000   -0.000000
         Rot=    0.999992   -0.003658   -0.001556    0.000039 Ang=  -0.46 deg.
 ExpMin= 4.05D-02 ExpMax= 2.19D+04 ExpMxC= 3.30D+03 IAcc=3 IRadAn=         5 AccDes= 0.00D+00
 Harris functional with IExCor= 1009 and IRadAn=       5 diagonalized for initial guess.
 HarFok:  IExCor= 1009 AccDes= 0.00D+00 IRadAn=         5 IDoV= 1 UseB2=F ITyADJ=14
 ICtDFT=  3500011 ScaDFX=  1.000000  1.000000  1.000000  1.000000
 FoFCou: FMM=F IPFlag=           0 FMFlag=      100000 FMFlg1=           0
         NFxFlg=           0 DoJE=T BraDBF=F KetDBF=T FulRan=T
         wScrn=  0.000000 ICntrl=       500 IOpCl=  0 I1Cent=   200000004 NGrid=           0
         NMat0=    1 NMatS0=      1 NMatT0=    0 NMatD0=    1 NMtDS0=    0 NMtDT0=    0
 Petite list used in FoFCou.
 Requested convergence on RMS density matrix=1.00D-08 within 128 cycles.
 Requested convergence on MAX density matrix=1.00D-06.
 Requested convergence on             energy=1.00D-06.
 No special actions if energy rises.
[...]
 933111,3.3902121,0.028018,-0.1658626,-0.0684321,3.3194291,0.0490733,-0
 .1515062,0.0356021,3.8020324,-0.9606149,0.1181902,-0.0707186,0.1662546
 ,-1.9916033,0.5529601,0.0039102,0.233559,-1.4049229,-1.8688392,-0.4188
 776,-0.5506576,-0.4862899,-1.2528253,-0.2964862,-0.2627658,-0.1699091,
 -1.4727224,-1.7048232,0.3192789,0.5166697,0.4126588,-0.972528,-0.28048
 74,0.3126454,-0.1865177,-1.5435846,0.3088855,-0.0629504,0.0336675,-0.0
 466105,0.0712155,0.0883173,0.0412555,0.0918218,0.395278,0.2124392,-0.0
 197937,0.085333,-0.0482627,0.387533,-0.2589129,0.0458257,-0.0276946,0.
 2747738,0.2589504,0.0678811,-0.1705894,0.0997909,0.3450915,-0.2162711,
 -0.05362,-0.0106007,0.2758932\Polar=172.4998294,-9.8366895,114.196846,
 -4.7894435,-7.3335206,217.7781905\Quadrupole=7.2510815,-0.2977987,-6.9
 532828,-4.4878686,0.3305303,9.7880357\PG=C01 [X(C6H7N2O2S1)]\NImag=0\\
 0.67467298,-0.08904692,0.15490311,0.00469690,-0.03602538,0.54863699,-0
 .28301336,0.04590379,-0.11865919,0.71745668,0.04228822,-0.06630258,0.0
 2867011,-0.09458231,0.15547804,-0.06031043,0.02001779,-0.16532787,-0.0
 3931242,-0.03506402,0.70353211,-0.01792661,0.00269568,0.01275600,-0.27
 364153,0.03047671,0.12449831,0.28760911,0.00450591,0.00332367,-0.00294
 883,0.03053432,-0.04349689,-0.01425171,-0.03421401,0.03173905,-0.01134
 654,0.00125399,0.01249333,0.12488822,-0.01464752,-0.12868635,-0.134334
 42,0.01489359,0.13354318,0.03333076,-0.00127845,-0.02272251,-0.1265336
 5,0.01322927,-0.03393848,0.00520034,-0.00197683,0.02609727,0.69943796,
 0.00027988,0.00645101,0.00601989,0.00923665,-0.06055688,0.02835853,0.0
 0006074,0.00473995,-0.00328904,-0.09989995,0.14428294,-0.08040382,0.01
 542648,-0.03183718,0.03756315,0.01590508,-0.36001467,-0.00196246,0.001
 20862,-0.01013273,0.02955347,-0.04796761,0.72687109,0.00200770,0.00080
 069,0.00057316,0.00495545,-0.00062057,0.00229636,0.00045105,-0.0008197
 3,-0.00034006,-0.26719865,0.04832239,-0.12024350,0.28041294,0.00067076
 ,0.00684397,0.00062683,0.00155058,0.00230030,0.00049659,-0.00086741,-0
 .00438911,-0.00035345,0.04818600,-0.04507190,0.02692484,-0.05304075,0.
 03532033,0.00132743,0.00072731,-0.00525860,-0.02703824,0.00564834,-0.0
 1124653,0.00013858,-0.00047856,0.00155182,-0.12064831,0.02666878,-0.12
 753335,0.12886485,-0.02934720,0.13225005,-0.08280745,0.01277140,0.0010
 7485,0.04384116,-0.01221874,0.08556417,0.00169053,0.00104132,-0.001279
 55,-0.27908364,0.03382592,0.03899763,-0.01772950,0.00272120,0.01436861
 ,0.69114968,0.01338002,-0.00784938,-0.00295195,-0.01015778,0.00252599,
 -0.01157481,0.00126216,0.00769407,0.00125028,0.03129803,-0.07269522,-0
 .00110048,0.00465780,0.00389465,-0.00277342,-0.08946214,0.18429675,-0.
 00085105,0.00022570,0.01640588,0.02855850,-0.00346186,-0.03224928,-0.0
 0154301,0.00111036,-0.00443502,0.10559724,-0.01236293,-0.16014707,-0.0
 1497893,0.00236235,0.00987459,-0.00787659,-0.02681437,0.69933109,0.007
 18750,-0.00132935,0.00096056,-0.00955299,0.00171050,-0.00650074,0.0001
 5222,-0.00009760,0.00144929,0.00047195,-0.00383994,0.04691113,0.001040
 86,0.00016258,0.00079613,-0.12055394,0.01347976,-0.00339978,0.76350401
 ,-0.00187604,-0.00043178,0.00631831,0.00352923,0.00545138,-0.00301303,
 -0.00019985,-0.00005160,-0.00051056,-0.00676609,0.00942507,-0.00047004
 ,-0.00052977,-0.00289786,-0.00020060,0.01351310,-0.04658280,-0.0186329
 0,-0.11003599,0.15806733,0.00133327,-0.00095128,-0.01617580,0.00140540
 ,-0.00076003,0.01033720,0.00025339,0.00010968,-0.00051770,0.01833914,0
 .00177653,-0.04512661,-0.00137268,0.00019138,0.00194195,0.00594725,0.0
 3538143,-0.30150212,0.02358982,0.13665286,0.64935066,0.03344093,-0.006
 98382,0.02188574,-0.01876845,0.00424789,-0.02476542,0.00034246,-0.0000
 8996,-0.00051259,-0.04428503,0.00702547,0.01872176,-0.00286089,0.00130
 637,0.00306321,-0.27181954,0.03963995,-0.10059703,0.00437334,0.0080777
 2,-0.01635855,0.69531976,-0.00907719,0.01049601,-0.00109666,0.00451344
 ,-0.00429805,0.00699368,-0.00019531,-0.00102682,0.00006377,0.00982137,
 0.00439973,-0.00656550,0.00121960,0.00576059,-0.00002466,0.03720289,-0
 .07569672,0.02263383,0.00549323,0.00493231,0.00764803,-0.09452792,0.14
 440211,0.08200351,-0.01178403,-0.03482467,-0.03349207,0.00850597,-0.05
 273240,-0.00062651,0.00015902,-0.00080351,-0.01924578,-0.00037613,0.06
 277132,0.00365664,-0.00011631,-0.00140263,-0.03331641,0.01145308,-0.15
 752154,-0.04458519,0.01476577,-0.04413087,-0.04675588,-0.03489411,0.73
 431352,0.00199043,0.00100813,-0.00036896,-0.00013864,-0.00004460,-0.00
 119598,-0.00002383,-0.00014290,0.00011899,-0.00277720,0.00172019,-0.00
 345482,-0.00096760,0.00006953,0.00075673,-0.01754110,0.00284452,0.0150
 9255,0.00073458,-0.00067682,0.00128696,-0.27139811,0.03148104,0.123486
 50,0.28485446,0.00104224,0.00728512,0.00081314,-0.00004835,-0.00072204
 ,0.00018404,-0.00013778,-0.00076497,-0.00008926,0.00163050,0.00528889,
 0.00108517,0.00016135,-0.00032463,-0.00018808,0.00478929,0.00374942,-0
 .00284351,-0.00137436,-0.00243872,-0.00030181,0.03162863,-0.03975866,-
 0.01440725,-0.03501001,0.02932183,-0.00095412,0.00109493,-0.00513968,-
 0.00057688,0.00010926,-0.00077678,0.00012278,-0.00008717,0.00008084,-0
 .00288684,0.00097544,-0.00137715,-0.00077376,0.00007372,0.00059576,-0.
 01433541,0.00207926,0.00989024,-0.00079598,0.00007202,0.00173470,0.123
 64888,-0.01481718,-0.12942892,-0.13240065,0.01510829,0.13437871,-0.277
 35389,0.02942368,0.11643934,-0.05833556,0.01261394,-0.02848748,-0.0027
 3195,0.00173597,-0.00318438,-0.01985328,0.00080961,0.03497951,-0.00019
 876,-0.00019884,0.00056570,0.04661186,-0.00501522,-0.02828723,-0.00962
 310,0.00169264,-0.00155627,-0.12672392,0.01398715,-0.03241791,0.004492
 12,-0.00224499,0.02733284,0.70755941,0.03243487,-0.06700045,-0.0128832
 4,0.00980519,0.00534513,0.00160006,0.00176816,0.00580394,0.00112626,0.
 00133255,-0.00287028,-0.00322759,-0.00018197,-0.00085121,-0.00007579,-
 0.00295617,0.00120128,0.00642073,0.00344722,0.00506672,-0.00033771,0.0
 0989377,-0.06153476,0.02738279,-0.00010496,0.00313765,-0.00360061,-0.0
 9960481,0.15964332,0.05801165,-0.00214164,-0.16088040,0.02650315,-0.00
 773785,0.06499739,-0.00370042,0.00105850,-0.00165093,0.02552232,-0.001
 28326,-0.05281109,0.00113699,-0.00024950,-0.00075422,-0.08425673,0.017
 03038,-0.03131849,0.00507672,-0.00475185,0.00983013,0.03976369,0.01591
 934,-0.37015030,-0.00213183,0.00124571,-0.01141545,0.03022718,-0.04474
 694,0.70872073,-0.01735633,0.00440288,-0.01312355,-0.00284085,0.001223
 72,0.00402630,-0.00080145,0.00023694,-0.00079971,0.00038540,-0.0002584
 8,0.00050286,-0.00002998,-0.00012719,-0.00014166,0.00161838,0.00089219
 ,0.00170386,0.00014862,0.00011567,-0.00032206,0.00500191,-0.00018747,0
 .00208600,0.00047852,-0.00084462,-0.00025923,-0.26919572,0.04734551,-0
 .12079742,0.28278599,0.00248263,0.00292204,0.00147299,0.00139499,0.005
 96216,-0.00016043,0.00012108,0.00021135,0.00014830,-0.00030743,-0.0008
 9937,-0.00014110,-0.00012935,-0.00085881,-0.00004834,0.00096411,0.0080
 2847,0.00058918,0.00003356,-0.00014746,0.00022348,0.00199223,0.0044370
 0,0.00071528,-0.00090860,-0.00457356,-0.00039841,0.04675431,-0.0492031
 0,0.02648363,-0.05190954,0.03693363,0.01263036,-0.00279407,0.01226564,
 0.00333390,-0.00011134,-0.00154026,0.00076524,-0.00011644,0.00065469,0
 .00044525,-0.00009263,-0.00081155,-0.00015272,-0.00003804,0.00010589,0
 .00172083,0.00071773,-0.00462854,-0.00166370,0.00000601,-0.00056774,-0
 .02696039,0.00571486,-0.01031784,0.00022012,-0.00041957,0.00151044,-0.
 12011676,0.02642820,-0.12756758,0.12899849,-0.02907162,0.13219695,-0.0
 6794124,0.00481856,-0.00115623,0.00783592,0.00111146,-0.01594316,-0.00
 297646,0.00000368,-0.00136986,-0.00376356,0.00168159,-0.00314298,0.000
 20775,0.00001852,-0.00104218,-0.00400700,0.00067538,-0.00026720,0.0002
 8101,-0.00019142,0.00024062,-0.00363041,0.00093773,0.00414812,0.000185
 26,0.00005550,0.00116382,0.00725320,-0.00398982,0.01878740,-0.00211748
 ,-0.00019697,0.00102310,0.68391698,0.00407068,-0.05082711,0.01166318,-
 0.00015616,-0.00188627,0.00324335,0.00020401,-0.00276569,0.00035533,0.
 00190890,0.00561602,-0.00049628,-0.00002487,0.00057297,-0.00007229,0.0
 0048689,-0.00076075,0.00152121,-0.00004212,0.00005161,-0.00160565,0.00
 130636,0.00485399,-0.00161721,0.00014686,0.00063299,-0.00046223,-0.002
 80663,-0.00161538,-0.00329044,-0.00033571,-0.00224925,-0.00030294,0.01
 002695,0.73228356,0.00450733,0.01048503,-0.15416301,-0.01665537,0.0038
 6941,-0.02037785,0.00244601,-0.00059337,-0.00110173,-0.00347593,0.0003
 4878,0.01124548,0.00074341,-0.00011915,0.00197649,-0.00058200,0.002772
 92,-0.01714000,-0.00096074,-0.00656687,0.01779162,0.00505744,-0.001040
 88,0.01257866,-0.00070617,0.00012115,0.00182465,0.01593612,-0.00137310
 ,-0.02151132,-0.00156122,0.00016510,-0.00116706,-0.00602773,0.00950498
 ,0.47164021,0.00941802,0.00281034,-0.00001490,-0.00077002,-0.00044175,
 0.00022434,0.00026601,0.00021790,0.00007206,0.00028938,-0.00053905,0.0
 0046067,-0.00003105,0.00009077,0.00004149,0.00106647,-0.00039003,0.000
 65544,-0.00002006,0.00037147,-0.00072728,-0.00031005,-0.00025441,-0.00
 150295,-0.00001729,-0.00008115,-0.00014298,-0.00128623,0.00068317,0.00
 004785,0.00037184,0.00033193,-0.00020935,-0.07206011,0.03759791,-0.006
 10813,0.07322093,0.00530508,-0.01251803,0.00006818,-0.00351490,-0.0009
 6014,0.00342329,-0.00049450,-0.00068591,-0.00020598,0.00013039,0.00110
 267,0.00251205,0.00012998,0.00010559,0.00074007,0.00020687,0.00047772,
 -0.00361862,-0.00031821,-0.00152367,0.00391561,0.00050766,0.00077487,0
 .00222702,-0.00012175,0.00005941,0.00056169,0.00275883,-0.00044151,0.0
 0058209,-0.00023264,-0.00053952,-0.00027900,0.03716235,-0.40110168,0.0
 6208484,-0.05175786,0.48279578,-0.00620036,0.02788971,-0.00570348,0.00
 522241,0.00152911,-0.00003720,-0.00015002,0.00086473,0.00022081,0.0005
 9843,-0.00185658,-0.00357287,-0.00017785,-0.00022161,-0.00067659,-0.00
 082316,-0.00054185,0.00468378,0.00040852,0.00198846,-0.00505276,-0.001
 41218,-0.00103829,-0.00214192,0.00015797,-0.00010107,-0.00043799,-0.00
 300789,0.00177591,0.00117138,0.00022713,0.00042798,0.00023740,-0.00674
 560,0.07001229,-0.08589476,0.00660101,-0.07408569,0.07141128,-0.007142
 25,-0.01046891,-0.00138375,0.00252851,-0.00085504,-0.00347708,0.000531
 29,-0.00068439,0.00044578,0.00028129,0.00101178,-0.00152466,-0.0000415
 2,0.00016307,-0.00057382,0.00016066,-0.00054778,0.00303433,0.00029540,
 0.00097991,-0.00307840,0.00038960,0.00082654,-0.00202225,0.00009591,0.
 00008771,-0.00044896,-0.00304760,0.00144884,0.00064474,0.00113753,-0.0
 0075256,0.00017353,-0.27730110,-0.14054426,-0.08005222,0.00167453,-0.0
 0544289,-0.00369635,0.31734157,-0.00894407,0.00444252,0.00193952,0.001
 46798,0.00019971,-0.00382433,0.00021562,0.00002302,0.00003354,-0.00096
 009,-0.00003390,-0.00034006,-0.00000561,0.00004326,-0.00041217,0.00025
 639,-0.00025272,0.00091774,0.00005803,0.00037167,-0.00104559,-0.000244
 40,-0.00013697,-0.00075168,0.00004569,-0.00001876,-0.00019586,-0.00044
 404,0.00085409,0.00056728,-0.00016068,-0.00005512,0.00021746,-0.133939
 55,-0.15753424,-0.05449826,-0.03469921,-0.03551253,-0.01026685,0.17672
 346,0.17592273,-0.03023726,-0.01536970,-0.00867357,0.00609060,-0.00303
 212,-0.00351257,-0.00046288,-0.00055708,0.00036439,-0.00020334,0.00174
 660,-0.00379374,-0.00001097,0.00041787,-0.00098326,-0.00141206,-0.0005
 3086,0.00433608,0.00041093,0.00159934,-0.00472119,-0.00112471,0.000717
 21,-0.00122325,0.00019999,-0.00000672,-0.00045004,-0.00203915,-0.00040
 374,-0.00026287,-0.00081025,-0.00021853,-0.00038928,-0.07945555,-0.055
 16631,-0.10909555,-0.00030811,0.00131064,0.01413503,0.09743083,0.06877
 181,0.10062085,-0.00862739,0.00582926,0.00015594,-0.00339900,0.0005336
 9,-0.00273271,0.00205459,-0.00010445,0.00002091,0.00080051,-0.00057581
 ,0.00133062,0.00005609,-0.00004254,0.00036074,0.00006532,0.00039780,-0
 .00261276,0.00002758,-0.00091347,0.00248821,-0.00046514,-0.00019212,0.
 00124489,-0.00004369,-0.00012757,0.00059060,0.00294046,-0.00040439,0.0
 0395879,0.00042368,0.00008843,-0.00027812,-0.24749195,0.04825259,0.085
 95356,-0.00860784,0.01021210,0.00525399,-0.04234915,0.00350255,0.01143
 268,0.32675939,0.00321978,0.00736329,0.00114935,0.00102179,0.00005690,
 0.00087146,-0.00051767,-0.00008630,0.00011520,-0.00023124,-0.00030835,
 -0.00038562,-0.00001123,0.00002380,-0.00009910,-0.00009214,-0.00014046
 ,0.00065006,0.00002141,0.00027018,-0.00064299,0.00011851,-0.00047921,-
 0.00020017,-0.00003169,-0.00024021,-0.00016727,-0.00059899,0.00148094,
 -0.00106316,-0.00004503,0.00019402,0.00001983,0.09028304,-0.10724915,-
 0.03455508,0.04326076,-0.03353005,-0.01463741,-0.01769655,0.00998430,0
 .00158065,-0.11421565,0.54306028,0.02608244,-0.01029277,-0.00278689,0.
 00057937,-0.00037442,-0.00162812,0.00238974,-0.00021325,-0.00068299,0.
 00178008,0.00019134,-0.00129022,-0.00017659,0.00004199,-0.00044470,0.0
 0047774,-0.00068889,0.00297376,0.00021786,0.00112704,-0.00347910,0.001
 80721,0.00052640,-0.00250335,0.00007650,0.00022734,-0.00101202,-0.0054
 6634,0.00014931,-0.00605461,0.00020590,-0.00027280,0.00033772,0.081946
 97,-0.01726240,-0.09982766,-0.00175820,0.00187488,0.00627680,-0.005859
 41,-0.00018561,0.01440622,-0.10893326,0.00508104,0.10790066,-0.0003646
 6,-0.00129447,-0.00049151,0.00043822,0.00010698,0.00011259,-0.00019083
 ,-0.00004865,0.00004877,-0.00005557,0.00012092,0.00005065,-0.00000593,
 0.00000735,-0.00002333,0.00015192,-0.00003849,0.00023073,-0.00000809,0
 .00007742,-0.00025488,-0.00013633,0.00007246,-0.00027275,0.00000891,0.
 00002315,-0.00001972,-0.00025661,-0.00004644,0.00024584,-0.00000795,0.
 00000042,0.00003524,-0.01839866,0.03998954,0.00086791,-0.00316798,0.00
 535747,0.00388991,0.00557080,-0.00284489,0.00067839,-0.02222023,-0.004
 45151,0.00674404,0.03865470,-0.00094380,0.00091983,0.00059050,-0.00014
 160,0.00033903,0.00006117,-0.00022030,-0.00008974,-0.00028418,-0.00011
 980,-0.00010982,-0.00003347,0.00001657,-0.00000921,0.00004430,-0.00020
 724,0.00022344,-0.00031984,-0.00000973,-0.00015712,0.00038670,0.000031
 93,-0.00018904,0.00041667,-0.00001625,-0.00003149,0.00006215,0.0004937
 5,0.00026361,0.00005225,-0.00000132,0.00002698,-0.00002840,-0.00847557
 ,-0.01763627,0.00597303,0.00292808,0.00081741,-0.00079361,-0.00363538,
 0.00188309,0.00002760,0.04727146,-0.42028295,0.02067325,-0.03698147,0.
 43396415,-0.00021819,0.00242118,-0.00010137,0.00007236,-0.00001627,-0.
 00013729,-0.00049708,-0.00015255,-0.00059335,-0.00020651,0.00001908,0.
 00011086,0.00001735,0.00000768,0.00004106,0.00000544,0.00005703,-0.000
 18951,-0.00003263,-0.00008657,0.00026815,-0.00010554,-0.00028134,0.000
 16060,-0.00002479,-0.00008674,0.00004560,0.00019306,0.00041897,0.00024
 945,-0.00000415,0.00012016,0.00000826,0.00785504,-0.01598792,-0.006241
 39,0.00262685,-0.00096430,0.00519700,0.00031478,-0.00095429,-0.0008752
 5,0.00185052,0.04225217,-0.01224508,-0.01184807,-0.02681297,0.01430821
 ,0.00024313,0.00004257,0.00109199,-0.00021487,0.00092166,-0.00094470,-
 0.00004114,-0.00002964,0.00004169,0.00095251,0.00014754,0.00382468,-0.
 00028559,-0.00060614,-0.00074956,0.00531797,0.00015611,-0.00037897,-0.
 36057543,-0.05025566,-0.14939296,0.00133501,-0.00068028,0.00195372,0.0
 0017380,-0.00016638,0.00006294,0.00017703,0.00006303,-0.00011650,0.000
 04538,-0.00002083,0.00007171,-0.00002701,-0.00004998,-0.00121428,0.000
 05009,-0.00028280,0.00038827,0.00016723,0.00007275,0.00027715,-0.00015
 525,0.00004891,0.00021209,0.00001291,-0.00002203,-0.00001403,0.3701167
 6,0.00079513,-0.00014966,-0.00196160,-0.00033927,-0.00069434,0.0005893
 2,0.00004515,0.00002332,0.00000263,0.00175562,-0.00043158,-0.00222790,
 0.00009611,0.00003167,-0.00010198,0.00676223,-0.00575450,0.01628696,-0
 .08203581,-0.02380087,-0.06636593,-0.00202316,0.00276621,-0.00071802,-
 0.00019180,-0.00043822,-0.00002510,0.00036694,0.00115337,0.00211826,-0
 .00008649,-0.00021446,0.00012631,0.00004907,-0.00019085,0.00196949,-0.
 00008130,0.00041074,-0.00055775,-0.00035146,-0.00010722,-0.00046704,0.
 00026589,-0.00005859,-0.00036415,-0.00002341,0.00004677,0.00003605,0.0
 5959105,0.02698794,0.00033406,-0.00012991,0.00053101,-0.00024643,0.000
 65965,-0.00042285,-0.00000338,-0.00004566,0.00009037,-0.00177587,0.000
 78711,0.00222905,0.00093616,-0.00055948,-0.00014744,-0.03490326,-0.006
 14434,-0.01910535,-0.14056140,-0.04100425,-0.13457588,0.00270815,-0.00
 058027,-0.00485302,-0.00004305,-0.00011473,0.00010997,-0.00157544,0.00
 080916,-0.00017247,0.00007529,0.00001842,-0.00042671,0.00001462,-0.000
 02271,-0.00024785,0.00001508,-0.00008779,0.00010317,0.00006082,0.00001
 840,0.00006040,-0.00000403,0.00000240,0.00004333,0.00000032,-0.0000095
 5,-0.00000890,0.15838600,0.04055215,0.14647054,0.00024175,-0.00010507,
 -0.00171386,0.00015298,0.00029897,0.00088652,0.00003622,-0.00006788,-0
 .00001587,0.00240048,0.00087055,-0.00216387,0.00021761,-0.00006388,-0.
 00006637,0.00186824,-0.00307228,0.00591990,-0.27788346,0.14308794,0.11
 817902,0.00019486,-0.00044077,-0.00434167,-0.00010653,0.00061685,0.000
 67268,-0.00042745,-0.00093375,0.00107660,-0.00004748,0.00006159,-0.000
 03672,0.00003485,-0.00003096,0.00183201,-0.00008665,0.00039483,-0.0005
 3424,-0.00029270,-0.00009993,-0.00045629,0.00023202,-0.00008250,-0.000
 32614,-0.00002461,0.00003271,0.00001560,-0.01729253,0.01540551,0.01658
 236,0.29078242,-0.00058717,0.00012841,-0.00146436,-0.00001760,0.001258
 56,0.00204906,-0.00000248,-0.00020134,0.00013711,0.00224725,0.00167102
 ,-0.00010656,-0.00004065,-0.00049440,-0.00000661,-0.00960519,-0.002359
 26,0.01533592,0.17467682,-0.10560441,-0.11427469,-0.00190723,0.0002974
 0,-0.00076070,-0.00006658,-0.00016404,-0.00038293,0.00027671,-0.000433
 35,0.00020721,-0.00002773,0.00002501,0.00002366,-0.00003052,-0.0001944
 9,0.00145198,-0.00004756,0.00026884,-0.00038746,-0.00026209,-0.0000729
 4,-0.00041961,0.00022223,-0.00005845,-0.00023833,-0.00002639,0.0000213
 3,0.00001063,-0.00892989,0.00042027,0.00585141,-0.15587192,0.10549186,
 -0.00040518,-0.00005333,0.00053966,0.00176355,0.00030849,-0.00017666,-
 0.00008989,0.00004014,-0.00039515,-0.00282962,0.00033611,-0.00477957,0
 .00000214,-0.00013852,0.00010970,0.03062863,-0.01762114,-0.01925850,0.
 11867921,-0.08729314,-0.13540465,0.00193622,0.00012178,0.00221013,-0.0
 0107008,-0.00022610,-0.00013289,0.00046510,0.00053733,-0.00041936,-0.0
 0000655,-0.00005329,0.00009958,-0.00002919,-0.00001395,-0.00028895,0.0
 0002713,-0.00005896,0.00008094,0.00001210,0.00000896,0.00005761,-0.000
 08055,0.00002865,0.00001625,0.00000586,-0.00000560,0.00000296,-0.01349
 925,0.01110830,0.01032263,-0.13550965,0.09297426,0.14741627\\-0.000020
 01,-0.00000432,-0.00000248,0.00001511,-0.00000390,0.00002586,-0.000000
 76,-0.00000743,0.00000434,0.00000414,-0.00000207,-0.00001491,-0.000007
 78,-0.00000066,0.00001051,-0.00001934,0.00000825,-0.00000359,-0.000012
 81,0.00000934,-0.00000299,0.00000177,0.00000204,0.00002077,-0.00000589
 ,0.00000945,-0.00001209,0.00001360,-0.00000022,-0.00002345,0.00000309,
 0.00000551,-0.00000495,-0.00002678,-0.00000583,0.00000046,0.00001819,-
 0.00000587,-0.00000843,0.00002016,0.00000977,0.00000558,0.00003421,-0.
 00001076,0.00000024,0.00000570,-0.00001283,0.00000599,-0.00001090,0.00
 000236,0.00000214,-0.00001170,0.00000718,-0.00000302\\\@
 The archive entry for this job was punched.


 FROM WHENCE IT HAPPENS, THAT THEY WHICH TRUST TO BOOKS, DO AS THEY THAT CAST UP MANY LITTLE SUMMS INTO GREATER,
 WITHOUT CONSIDERING WETHER THOSE LITTLE SUMMES WERE RIGHTLY CAST UP OR NOT...
 AND AT LAST FINDING THE ERROUR VISIBLE, AND NOT MISTRUSTING THEIR FIRST GROUNDS,
 KNOW NOT WHICH WAY TO CLEERE THEMSELVES...
 BUT SPEND TIME IN FLUTTERING OVER THEIR BOOKES....
 AS BIRDS THAT ENTERING BY THE CHIMNEY, AND FINDING THEMSELVES INCLOSED IN A CHAMBER,
 FLUTTER AT THE FALSE LIGHT OF A GLASSE WINDOW,
 FOR WANT OF WIT TO CONSIDER WHICH WAY THEY CAME IN....
           LEVIATHAN
 Job cpu time:       0 days  0 hours 45 minutes 10.9 seconds.
 Elapsed time:       0 days  0 hours  2 minutes 57.8 seconds.
 File lengths (MBytes):  RWF=    154 Int=      0 D2E=      0 Chk=     11 Scr=      1
 Normal termination of Gaussian 16 at Thu May 19 19:14:41 2022.
