 Entering Gaussian System, Link 0=g16
 AtFile(1): //home/561/yj5695//Basis/6-31pGd.gbs
 Initial command:
 /apps/gaussian/g16c01/g16/l1.exe "/jobfs/40644941.gadi-pbs/Gau-1192636.inp" -scrdir="/jobfs/40644941.gadi-pbs/"
 Entering Link 1 = /apps/gaussian/g16c01/g16/l1.exe PID=   1192637.
  
 Copyright (c) 1988-2019, Gaussian, Inc.  All Rights Reserved.
  
 This is part of the Gaussian(R) 16 program.  It is based on
 the Gaussian(R) 09 system (copyright 2009, Gaussian, Inc.),
 the Gaussian(R) 03 system (copyright 2003, Gaussian, Inc.),
 the Gaussian(R) 98 system (copyright 1998, Gaussian, Inc.),
 the Gaussian(R) 94 system (copyright 1995, Gaussian, Inc.),
 the Gaussian 92(TM) system (copyright 1992, Gaussian, Inc.),
 the Gaussian 90(TM) system (copyright 1990, Gaussian, Inc.),
 the Gaussian 88(TM) system (copyright 1988, Gaussian, Inc.),
 the Gaussian 86(TM) system (copyright 1986, Carnegie Mellon
 University), and the Gaussian 82(TM) system (copyright 1983,
 Carnegie Mellon University). Gaussian is a federally registered
 trademark of Gaussian, Inc.
  
 This software contains proprietary and confidential information,
 including trade secrets, belonging to Gaussian, Inc.
  
 This software is provided under written license and may be
 used, copied, transmitted, or stored only in accord with that
 written license.
  
 The following legend is applicable only to US Government
 contracts under FAR:
  
                    RESTRICTED RIGHTS LEGEND
  
 Use, reproduction and disclosure by the US Government is
 subject to restrictions as set forth in subparagraphs (a)
 and (c) of the Commercial Computer Software - Restricted
 Rights clause in FAR 52.227-19.
  
 Gaussian, Inc.
 340 Quinnipiac St., Bldg. 40, Wallingford CT 06492
  
  
 ---------------------------------------------------------------
 Warning -- This program may not be used in any manner that
 competes with the business of Gaussian, Inc. or will provide
 assistance to any competitor of Gaussian, Inc.  The licensee
 of this program is prohibited from giving any competitor of
 Gaussian, Inc. access to this program.  By using this program,
 the user acknowledges that Gaussian, Inc. is engaged in the
 business of creating and licensing software in the field of
 computational chemistry and represents and warrants to the
 licensee that it is not a competitor of Gaussian, Inc. and that
 it will not use this program in any manner prohibited above.
 ---------------------------------------------------------------
  

 Cite this work as:
 Gaussian 16, Revision C.01,
 M. J. Frisch, G. W. Trucks, H. B. Schlegel, G. E. Scuseria, 
 M. A. Robb, J. R. Cheeseman, G. Scalmani, V. Barone, 
 G. A. Petersson, H. Nakatsuji, X. Li, M. Caricato, A. V. Marenich, 
 J. Bloino, B. G. Janesko, R. Gomperts, B. Mennucci, H. P. Hratchian, 
 J. V. Ortiz, A. F. Izmaylov, J. L. Sonnenberg, D. Williams-Young, 
 F. Ding, F. Lipparini, F. Egidi, J. Goings, B. Peng, A. Petrone, 
 T. Henderson, D. Ranasinghe, V. G. Zakrzewski, J. Gao, N. Rega, 
 G. Zheng, W. Liang, M. Hada, M. Ehara, K. Toyota, R. Fukuda, 
 J. Hasegawa, M. Ishida, T. Nakajima, Y. Honda, O. Kitao, H. Nakai, 
 T. Vreven, K. Throssell, J. A. Montgomery, Jr., J. E. Peralta, 
 F. Ogliaro, M. J. Bearpark, J. J. Heyd, E. N. Brothers, K. N. Kudin, 
 V. N. Staroverov, T. A. Keith, R. Kobayashi, J. Normand, 
 K. Raghavachari, A. P. Rendell, J. C. Burant, S. S. Iyengar, 
 J. Tomasi, M. Cossi, J. M. Millam, M. Klene, C. Adamo, R. Cammi, 
 J. W. Ochterski, R. L. Martin, K. Morokuma, O. Farkas, 
 J. B. Foresman, and D. J. Fox, Gaussian, Inc., Wallingford CT, 2019.
 
 ******************************************
 Gaussian 16:  ES64L-G16RevC.01  3-Jul-2019
                19-May-2022 
 ******************************************
 %nproc=16
 Will use up to   16 processors via shared memory.
 %mem=20gb
 -----------------------------------------------------
 #m062X/gen 6D OPT Freq=noraman SCRF=(SMD,Solvent=h2o)
 -----------------------------------------------------
 1/18=20,19=15,26=3,38=1/1,3;
 2/9=110,12=2,17=6,18=5,40=1/2;
 3/5=7,8=2,11=2,25=1,30=1,70=32201,71=1,72=1,74=-55/1,2,3;
 4//1;
 5/5=2,38=5,53=1/2;
 6/7=2,8=2,9=2,10=2,28=1/1;
 7//1,2,3,16;
 1/18=20,19=15,26=3/3(2);
 2/9=110/2;
 99//99;
 2/9=110/2;
 3/5=7,6=1,8=2,11=2,25=1,30=1,70=32205,71=1,72=1,74=-55,82=7/1,2,3;
 4/5=5,16=3,69=1/1;
 5/5=2,38=5,53=1/2;
 7//1,2,3,16;
 1/18=20,19=15,26=3/3(-5);
 2/9=110/2;
 6/7=2,8=2,9=2,10=2,19=2,28=1/1;
 99/9=1/99;
 -----
 a1 b1
 -----
 Symbolic Z-matrix:
 Charge = -1 Multiplicity = 1
 C                    -1.37392   0.68529  -0.82923 
 C                    -2.55414   0.82715  -1.55151 
 H                    -3.51127   0.82257  -1.03906 
 C                    -2.49658   0.98171  -2.93801 
 H                    -3.41918   1.09748  -3.50153 
 C                    -1.27344   0.99206  -3.61336 
 C                    -1.20678   1.16845  -5.10737 
 C                    -0.0969    0.84235  -2.86471 
 H                     0.86416   0.84871  -3.37405 
 C                    -0.13992   0.68852  -1.48325 
 H                     0.78139   0.57641  -0.91738 
 S                    -1.42262   0.39502   0.94504 
 O                    -0.31684   1.25398   1.47488 
 O                    -2.77809   0.83305   1.37724 
 N                    -1.26261  -1.13312   1.24489 
 H                    -0.29386  -1.3915    1.03665 
 H                    -0.62306   0.36613  -5.5704 
 H                    -2.20663   1.1678   -5.54939 
 H                    -0.72029   2.11567  -5.36526 
 

 GradGradGradGradGradGradGradGradGradGradGradGradGradGradGradGradGradGrad
 Berny optimization.
 Initialization pass.
                           ----------------------------
                           !    Initial Parameters    !
                           ! (Angstroms and Degrees)  !
 --------------------------                            --------------------------
 ! Name  Definition              Value          Derivative Info.                !
 --------------------------------------------------------------------------------
 ! R1    R(1,2)                  1.3909         estimate D2E/DX2                !
 ! R2    R(1,10)                 1.3966         estimate D2E/DX2                !
 ! R3    R(1,12)                 1.7985         estimate D2E/DX2                !
 ! R4    R(2,3)                  1.0857         estimate D2E/DX2                !
 ! R5    R(2,4)                  1.3963         estimate D2E/DX2                !
 ! R6    R(4,5)                  1.0873         estimate D2E/DX2                !
 ! R7    R(4,6)                  1.3972         estimate D2E/DX2                !
 ! R8    R(6,7)                  1.5059         estimate D2E/DX2                !
 ! R9    R(6,8)                  1.4025         estimate D2E/DX2                !
 ! R10   R(7,17)                 1.0949         estimate D2E/DX2                !
 ! R11   R(7,18)                 1.0932         estimate D2E/DX2                !
 ! R12   R(7,19)                 1.0956         estimate D2E/DX2                !
 ! R13   R(8,9)                  1.0877         estimate D2E/DX2                !
 ! R14   R(8,10)                 1.3907         estimate D2E/DX2                !
 ! R15   R(10,11)                1.087          estimate D2E/DX2                !
 ! R16   R(12,13)                1.4971         estimate D2E/DX2                !
 ! R17   R(12,14)                1.4886         estimate D2E/DX2                !
 ! R18   R(12,15)                1.5655         estimate D2E/DX2                !
 ! R19   R(15,16)                1.024          estimate D2E/DX2                !
 ! A1    A(2,1,10)             120.4183         estimate D2E/DX2                !
 ! A2    A(2,1,12)             120.3816         estimate D2E/DX2                !
 ! A3    A(10,1,12)            119.0958         estimate D2E/DX2                !
 ! A4    A(1,2,3)              120.1653         estimate D2E/DX2                !
 ! A5    A(1,2,4)              119.4684         estimate D2E/DX2                !
 ! A6    A(3,2,4)              120.3656         estimate D2E/DX2                !
 ! A7    A(2,4,5)              119.4371         estimate D2E/DX2                !
 ! A8    A(2,4,6)              121.1229         estimate D2E/DX2                !
 ! A9    A(5,4,6)              119.44           estimate D2E/DX2                !
 ! A10   A(4,6,7)              121.276          estimate D2E/DX2                !
 ! A11   A(4,6,8)              118.3943         estimate D2E/DX2                !
 ! A12   A(7,6,8)              120.3284         estimate D2E/DX2                !
 ! A13   A(6,7,17)             110.9359         estimate D2E/DX2                !
 ! A14   A(6,7,18)             111.1368         estimate D2E/DX2                !
 ! A15   A(6,7,19)             110.7594         estimate D2E/DX2                !
 ! A16   A(17,7,18)            108.4314         estimate D2E/DX2                !
 ! A17   A(17,7,19)            107.2927         estimate D2E/DX2                !
 ! A18   A(18,7,19)            108.1476         estimate D2E/DX2                !
 ! A19   A(6,8,9)              119.3806         estimate D2E/DX2                !
 ! A20   A(6,8,10)             121.072          estimate D2E/DX2                !
 ! A21   A(9,8,10)             119.5474         estimate D2E/DX2                !
 ! A22   A(1,10,8)             119.523          estimate D2E/DX2                !
 ! A23   A(1,10,11)            120.3228         estimate D2E/DX2                !
 ! A24   A(8,10,11)            120.1536         estimate D2E/DX2                !
 ! A25   A(1,12,13)            103.6822         estimate D2E/DX2                !
 ! A26   A(1,12,14)            105.2828         estimate D2E/DX2                !
 ! A27   A(1,12,15)            110.1047         estimate D2E/DX2                !
 ! A28   A(13,12,14)           113.6387         estimate D2E/DX2                !
 ! A29   A(13,12,15)           114.632          estimate D2E/DX2                !
 ! A30   A(14,12,15)           108.9473         estimate D2E/DX2                !
 ! A31   A(12,15,16)           107.7006         estimate D2E/DX2                !
 ! D1    D(10,1,2,3)           179.9076         estimate D2E/DX2                !
 ! D2    D(10,1,2,4)            -0.4009         estimate D2E/DX2                !
 ! D3    D(12,1,2,3)             3.6537         estimate D2E/DX2                !
 ! D4    D(12,1,2,4)          -176.6548         estimate D2E/DX2                !
 ! D5    D(2,1,10,8)             0.357          estimate D2E/DX2                !
 ! D6    D(2,1,10,11)         -179.93           estimate D2E/DX2                !
 ! D7    D(12,1,10,8)          176.6587         estimate D2E/DX2                !
 ! D8    D(12,1,10,11)          -3.6283         estimate D2E/DX2                !
 ! D9    D(2,1,12,13)         -138.9741         estimate D2E/DX2                !
 ! D10   D(2,1,12,14)          -19.3486         estimate D2E/DX2                !
 ! D11   D(2,1,12,15)           97.9393         estimate D2E/DX2                !
 ! D12   D(10,1,12,13)          44.7228         estimate D2E/DX2                !
 ! D13   D(10,1,12,14)         164.3483         estimate D2E/DX2                !
 ! D14   D(10,1,12,15)         -78.3638         estimate D2E/DX2                !
 ! D15   D(1,2,4,5)           -179.6995         estimate D2E/DX2                !
 ! D16   D(1,2,4,6)              0.2066         estimate D2E/DX2                !
 ! D17   D(3,2,4,5)             -0.0086         estimate D2E/DX2                !
 ! D18   D(3,2,4,6)            179.8974         estimate D2E/DX2                !
 ! D19   D(2,4,6,7)           -179.5536         estimate D2E/DX2                !
 ! D20   D(2,4,6,8)              0.0297         estimate D2E/DX2                !
 ! D21   D(5,4,6,7)              0.3524         estimate D2E/DX2                !
 ! D22   D(5,4,6,8)            179.9357         estimate D2E/DX2                !
 ! D23   D(4,6,7,17)          -126.9781         estimate D2E/DX2                !
 ! D24   D(4,6,7,18)            -6.258          estimate D2E/DX2                !
 ! D25   D(4,6,7,19)           113.9845         estimate D2E/DX2                !
 ! D26   D(8,6,7,17)            53.4466         estimate D2E/DX2                !
 ! D27   D(8,6,7,18)           174.1666         estimate D2E/DX2                !
 ! D28   D(8,6,7,19)           -65.5908         estimate D2E/DX2                !
 ! D29   D(4,6,8,9)           -179.9605         estimate D2E/DX2                !
 ! D30   D(4,6,8,10)            -0.0748         estimate D2E/DX2                !
 ! D31   D(7,6,8,9)             -0.3731         estimate D2E/DX2                !
 ! D32   D(7,6,8,10)           179.5126         estimate D2E/DX2                !
 ! D33   D(6,8,10,1)            -0.1165         estimate D2E/DX2                !
 ! D34   D(6,8,10,11)         -179.83           estimate D2E/DX2                !
 ! D35   D(9,8,10,1)           179.769          estimate D2E/DX2                !
 ! D36   D(9,8,10,11)            0.0556         estimate D2E/DX2                !
 ! D37   D(1,12,15,16)          71.0838         estimate D2E/DX2                !
 ! D38   D(13,12,15,16)        -45.3353         estimate D2E/DX2                !
 ! D39   D(14,12,15,16)       -173.9282         estimate D2E/DX2                !
 --------------------------------------------------------------------------------
 Trust Radius=3.00D-01 FncErr=1.00D-07 GrdErr=1.00D-06 EigMax=2.50D+02 EigMin=1.00D-04
 Number of steps in this run=     99 maximum allowed number of steps=    114.
 GradGradGradGradGradGradGradGradGradGradGradGradGradGradGradGradGradGrad

                          Input orientation:                          
 ---------------------------------------------------------------------
 Center     Atomic      Atomic             Coordinates (Angstroms)
 Number     Number       Type             X           Y           Z
 ---------------------------------------------------------------------
      1          6           0       -1.373922    0.685292   -0.829232
      2          6           0       -2.554144    0.827154   -1.551511
      3          1           0       -3.511274    0.822565   -1.039057
      4          6           0       -2.496580    0.981707   -2.938007
      5          1           0       -3.419182    1.097484   -3.501531
      6          6           0       -1.273436    0.992060   -3.613364
      7          6           0       -1.206780    1.168452   -5.107373
      8          6           0       -0.096904    0.842354   -2.864707
      9          1           0        0.864163    0.848714   -3.374046
     10          6           0       -0.139917    0.688524   -1.483245
     11          1           0        0.781392    0.576410   -0.917381
     12         16           0       -1.422621    0.395016    0.945041
     13          8           0       -0.316843    1.253980    1.474878
     14          8           0       -2.778092    0.833054    1.377239
     15          7           0       -1.262614   -1.133124    1.244891
     16          1           0       -0.293856   -1.391503    1.036649
     17          1           0       -0.623060    0.366134   -5.570398
     18          1           0       -2.206635    1.167795   -5.549391
     19          1           0       -0.720286    2.115673   -5.365255
 ---------------------------------------------------------------------
                    Distance matrix (angstroms):
                    1          2          3          4          5
     1  C    0.000000
     2  C    1.390948   0.000000
     3  H    2.152009   1.085692   0.000000
     4  C    2.407313   1.396271   2.158921   0.000000
     5  H    3.390306   2.150336   2.479484   1.087271   0.000000
     6  C    2.802783   2.432826   3.415217   1.397246   2.151243
     7  C    4.308581   3.817857   4.688446   2.530732   2.734682
     8  C    2.408029   2.786170   3.871862   2.404836   3.392369
     9  H    3.392906   3.873877   4.959567   3.391520   4.292457
    10  C    1.396607   2.419167   3.403134   2.784986   3.872248
    11  H    2.159862   3.404525   4.301439   3.871989   4.959251
    12  S    1.798521   2.774862   2.912373   4.071321   4.924604
    13  O    2.598027   3.787707   4.087833   4.929396   5.866314
    14  O    2.619550   2.937306   2.525104   4.326973   4.927811
    15  N    2.760618   3.651110   3.754678   4.846836   5.670531
    16  H    2.993515   4.090222   4.422944   5.126598   6.046304
    17  H    4.810853   4.482530   5.392881   3.289147   3.554347
    18  H    4.817273   4.027387   4.707906   2.634013   2.380955
    19  H    4.800910   4.423569   5.308270   3.214441   3.434271
                    6          7          8          9         10
     6  C    0.000000
     7  C    1.505862   0.000000
     8  C    1.402543   2.523433   0.000000
     9  H    2.155725   2.719459   1.087712   0.000000
    10  C    2.431955   3.808258   1.390666   2.146850   0.000000
    11  H    3.415173   4.675401   2.152721   2.473096   1.087006
    12  S    4.599758   6.105449   4.058549   4.908130   2.761892
    13  O    5.184002   6.642690   4.364608   5.007103   3.016875
    14  O    5.214920   6.680697   5.018263   5.986733   3.893999
    15  N    5.302751   6.756599   4.706399   5.457604   3.467214
    16  H    5.316349   6.718319   4.499943   5.080729   3.271097
    17  H    2.155169   1.094913   2.797211   2.696049   4.128218
    18  H    2.156373   1.093202   3.429928   3.776737   4.586346
    19  H    2.153510   1.095631   2.874489   2.842636   4.176552
                   11         12         13         14         15
    11  H    0.000000
    12  S    2.891227   0.000000
    13  O    2.718110   1.497094   0.000000
    14  O    4.242767   1.488615   2.498891   0.000000
    15  N    3.431601   1.565479   2.577914   2.485970   0.000000
    16  H    2.974403   2.115219   2.681633   3.352027   1.024020
    17  H    4.864902   6.564379   7.107598   7.289159   7.007494
    18  H    5.543786   6.587072   7.274551   6.958219   7.235169
    19  H    4.940440   6.578280   6.905990   7.165257   7.385312
                   16         17         18         19
    16  H    0.000000
    17  H    6.844760   0.000000
    18  H    7.320154   1.775053   0.000000
    19  H    7.312079   1.764206   1.772459   0.000000
 Stoichiometry    C7H8NO2S(1-)
 Framework group  C1[X(C7H8NO2S)]
 Deg. of freedom    51
 Full point group                 C1      NOp   1
 Largest Abelian subgroup         C1      NOp   1
 Largest concise Abelian subgroup C1      NOp   1
                         Standard orientation:                         
 ---------------------------------------------------------------------
 Center     Atomic      Atomic             Coordinates (Angstroms)
 Number     Number       Type             X           Y           Z
 ---------------------------------------------------------------------
      1          6           0        0.153286    0.020995   -0.055728
      2          6           0       -0.544213    1.223673   -0.013321
      3          1           0       -0.006125    2.166640   -0.011688
      4          6           0       -1.939979    1.207413    0.020504
      5          1           0       -2.484803    2.147908    0.048682
      6          6           0       -2.648502    0.003139    0.016798
      7          6           0       -4.153981   -0.018265    0.043184
      8          6           0       -1.923704   -1.197006   -0.021225
      9          1           0       -2.459069   -2.143834   -0.025314
     10          6           0       -0.533477   -1.195093   -0.056100
     11          1           0        0.013209   -2.134076   -0.088127
     12         16           0        1.951176    0.010050   -0.009389
     13          8           0        2.324787   -1.040040   -1.008897
     14          8           0        2.362278    1.384724   -0.405927
     15          7           0        2.450217   -0.269262    1.447891
     16          1           0        2.248661   -1.249841    1.663432
     17          1           0       -4.522052   -0.649856    0.858323
     18          1           0       -4.560279    0.988014    0.175146
     19          1           0       -4.552985   -0.427518   -0.891544
 ---------------------------------------------------------------------
 Rotational constants (GHZ):           2.6147167           0.5611476           0.5112586
 General basis read from cards:  (6D, 7F)
 There are   229 symmetry adapted cartesian basis functions of A   symmetry.
 There are   229 symmetry adapted basis functions of A   symmetry.
   229 basis functions,   408 primitive gaussians,   229 cartesian basis functions
    45 alpha electrons       45 beta electrons
       nuclear repulsion energy       706.7437173623 Hartrees.
 NAtoms=   19 NActive=   19 NUniq=   19 SFac= 1.00D+00 NAtFMM=   60 NAOKFM=F Big=F
 Integral buffers will be    131072 words long.
 Raffenetti 2 integral format.
 Two-electron integral symmetry is turned on.
 ------------------------------------------------------------------------------
 Polarizable Continuum Model (PCM)
 =================================
 Model                : PCM.
 Atomic radii         : SMD-Coulomb.
 Polarization charges : Total charges.
 Charge compensation  : None.
 Solution method      : On-the-fly selection.
 Cavity type          : VdW (van der Waals Surface) (Alpha=1.000).
 Cavity algorithm     : GePol (No added spheres)
                        Default sphere list used, NSphG=   19.
                        Lebedev-Laikov grids with approx.  5.0 points / Ang**2.
                        Smoothing algorithm: York/Karplus (Gamma=1.0000).
                        Polarization charges: spherical gaussians, with
                                              point-specific exponents (IZeta= 3).
                        Self-potential: point-specific (ISelfS= 7).
                        Self-field    : sphere-specific E.n sum rule (ISelfD= 2).
 1st derivatives      : Analytical E(r).r(x)/FMM algorithm (CHGder, D1EAlg=3).
                        Cavity 1st derivative terms included.
 Solvent              : Water, Eps=  78.355300 Eps(inf)=   1.777849
 ------------------------------------------------------------------------------
 Spheres list:
 ISph  on   Nord     Re0    Alpha      Xe            Ye            Ze
    1   C      1    1.8500  1.000      0.153286      0.020995     -0.055728
    2   C      2    1.8500  1.000     -0.544213      1.223673     -0.013321
    3   H      3    1.2000  1.000     -0.006125      2.166640     -0.011688
    4   C      4    1.8500  1.000     -1.939979      1.207413      0.020504
    5   H      5    1.2000  1.000     -2.484803      2.147908      0.048682
    6   C      6    1.8500  1.000     -2.648502      0.003139      0.016798
    7   C      7    1.8500  1.000     -4.153981     -0.018265      0.043184
    8   C      8    1.8500  1.000     -1.923704     -1.197006     -0.021225
    9   H      9    1.2000  1.000     -2.459069     -2.143834     -0.025314
   10   C     10    1.8500  1.000     -0.533477     -1.195093     -0.056100
   11   H     11    1.2000  1.000      0.013209     -2.134076     -0.088127
   12   S     12    2.4900  1.000      1.951176      0.010050     -0.009389
   13   O     13    1.5200  1.000      2.324787     -1.040040     -1.008897
   14   O     14    1.5200  1.000      2.362278      1.384724     -0.405927
   15   N     15    1.8900  1.000      2.450217     -0.269262      1.447891
   16   H     16    1.2000  1.000      2.248661     -1.249841      1.663432
   17   H     17    1.2000  1.000     -4.522052     -0.649856      0.858323
   18   H     18    1.2000  1.000     -4.560279      0.988014      0.175146
   19   H     19    1.2000  1.000     -4.552985     -0.427518     -0.891544
 ------------------------------------------------------------------------------
 ------------------------------------------------------------------------------
 Atomic radii for non-electrostatic terms: SMD-CDS.
 ------------------------------------------------------------------------------
 Nuclear repulsion after PCM non-electrostatic terms =      706.7491497959 Hartrees.
 One-electron integrals computed using PRISM.
 NBasis=   229 RedAO= T EigKep=  2.10D-06  NBF=   229
 NBsUse=   229 1.00D-06 EigRej= -1.00D+00 NBFU=   229
 ExpMin= 4.05D-02 ExpMax= 2.19D+04 ExpMxC= 3.30D+03 IAcc=3 IRadAn=         5 AccDes= 0.00D+00
 Harris functional with IExCor= 1009 and IRadAn=       5 diagonalized for initial guess.
 HarFok:  IExCor= 1009 AccDes= 0.00D+00 IRadAn=         5 IDoV= 1 UseB2=F ITyADJ=14
 ICtDFT=  3500011 ScaDFX=  1.000000  1.000000  1.000000  1.000000
 FoFCou: FMM=F IPFlag=           0 FMFlag=      100000 FMFlg1=           0
         NFxFlg=           0 DoJE=T BraDBF=F KetDBF=T FulRan=T
         wScrn=  0.000000 ICntrl=       500 IOpCl=  0 I1Cent=   200000004 NGrid=           0
         NMat0=    1 NMatS0=      1 NMatT0=    0 NMatD0=    1 NMtDS0=    0 NMtDT0=    0
 Petite list used in FoFCou.
 Requested convergence on RMS density matrix=1.00D-08 within 128 cycles.
 Requested convergence on MAX density matrix=1.00D-06.
 Requested convergence on             energy=1.00D-06.
 No special actions if energy rises.
 Inv3:  Mode=1 IEnd=     7394700.
 Iteration    1 A*A^-1 deviation from unit magnitude is 3.33D-15 for    839.
 Iteration    1 A*A^-1 deviation from orthogonality  is 2.59D-15 for   1561    181.
 Iteration    1 A^-1*A deviation from unit magnitude is 3.33D-15 for   1570.
 Iteration    1 A^-1*A deviation from orthogonality  is 8.86D-14 for    748    696.
 Error on total polarization charges =  0.05659
 SCF Done:  E(RM062X) =  -874.818809358     A.U. after   15 cycles
            NFock= 15  Conv=0.84D-08     -V/T= 2.0064
 SMD-CDS (non-electrostatic) energy       (kcal/mol) =       3.41
 (included in total energy above)

 **********************************************************************

            Population analysis using the SCF Density.

 **********************************************************************

 Orbital symmetries:
       Occupied  (A) (A) (A) (A) (A) (A) (A) (A) (A) (A) (A) (A)
                 (A) (A) (A) (A) (A) (A) (A) (A) (A) (A) (A) (A)
                 (A) (A) (A) (A) (A) (A) (A) (A) (A) (A) (A) (A)
                 (A) (A) (A) (A) (A) (A) (A) (A) (A)
       Virtual   (A) (A) (A) (A) (A) (A) (A) (A) (A) (A) (A) (A)
                 (A) (A) (A) (A) (A) (A) (A) (A) (A) (A) (A) (A)
                 (A) (A) (A) (A) (A) (A) (A) (A) (A) (A) (A) (A)
                 (A) (A) (A) (A) (A) (A) (A) (A) (A) (A) (A) (A)
                 (A) (A) (A) (A) (A) (A) (A) (A) (A) (A) (A) (A)
                 (A) (A) (A) (A) (A) (A) (A) (A) (A) (A) (A) (A)
                 (A) (A) (A) (A) (A) (A) (A) (A) (A) (A) (A) (A)
                 (A) (A) (A) (A) (A) (A) (A) (A) (A) (A) (A) (A)
                 (A) (A) (A) (A) (A) (A) (A) (A) (A) (A) (A) (A)
                 (A) (A) (A) (A) (A) (A) (A) (A) (A) (A) (A) (A)
                 (A) (A) (A) (A) (A) (A) (A) (A) (A) (A) (A) (A)
                 (A) (A) (A) (A) (A) (A) (A) (A) (A) (A) (A) (A)
                 (A) (A) (A) (A) (A) (A) (A) (A) (A) (A) (A) (A)
                 (A) (A) (A) (A) (A) (A) (A) (A) (A) (A) (A) (A)
                 (A) (A) (A) (A) (A) (A) (A) (A) (A) (A) (A) (A)
                 (A) (A) (A) (A)
 The electronic state is 1-A.
 Alpha  occ. eigenvalues --  -90.13208 -19.61861 -19.61728 -14.71632 -10.57295
 Alpha  occ. eigenvalues --  -10.56588 -10.56173 -10.56052 -10.55422 -10.55387
 Alpha  occ. eigenvalues --  -10.53551  -8.44108  -6.36354  -6.36255  -6.36172
 Alpha  occ. eigenvalues --   -1.20472  -1.08902  -0.97250  -0.95556  -0.87800
 Alpha  occ. eigenvalues --   -0.84728  -0.78579  -0.70376  -0.69532  -0.64888
 Alpha  occ. eigenvalues --   -0.60034  -0.55509  -0.54125  -0.52911  -0.51318
 Alpha  occ. eigenvalues --   -0.50750  -0.48942  -0.48528  -0.44435  -0.43623
 Alpha  occ. eigenvalues --   -0.41932  -0.41652  -0.39912  -0.39129  -0.37154
 Alpha  occ. eigenvalues --   -0.35734  -0.32936  -0.31515  -0.31249  -0.27996
 Alpha virt. eigenvalues --    0.00902   0.01494   0.02165   0.03645   0.04339
 Alpha virt. eigenvalues --    0.04888   0.05268   0.05901   0.06496   0.07050
 Alpha virt. eigenvalues --    0.07637   0.08446   0.09803   0.10318   0.10934
 Alpha virt. eigenvalues --    0.11485   0.11549   0.12392   0.13808   0.14487
 Alpha virt. eigenvalues --    0.14834   0.15771   0.16071   0.16520   0.17146
 Alpha virt. eigenvalues --    0.17869   0.18217   0.18838   0.18942   0.20050
 Alpha virt. eigenvalues --    0.21272   0.22076   0.22317   0.22964   0.23733
 Alpha virt. eigenvalues --    0.24039   0.24728   0.24855   0.25251   0.25668
 Alpha virt. eigenvalues --    0.26888   0.27806   0.28469   0.29068   0.29411
 Alpha virt. eigenvalues --    0.30024   0.30483   0.31188   0.31636   0.31846
 Alpha virt. eigenvalues --    0.32466   0.33276   0.33574   0.34326   0.36364
 Alpha virt. eigenvalues --    0.37145   0.37936   0.39224   0.40057   0.41045
 Alpha virt. eigenvalues --    0.43267   0.43961   0.44686   0.48436   0.57555
 Alpha virt. eigenvalues --    0.59495   0.61857   0.65512   0.67468   0.70382
 Alpha virt. eigenvalues --    0.71238   0.72720   0.73242   0.74685   0.75496
 Alpha virt. eigenvalues --    0.76691   0.76806   0.77979   0.79919   0.81908
 Alpha virt. eigenvalues --    0.82942   0.83201   0.84820   0.85270   0.90574
 Alpha virt. eigenvalues --    0.92070   0.95554   0.97254   0.97918   1.00868
 Alpha virt. eigenvalues --    1.02321   1.04162   1.05506   1.06312   1.07624
 Alpha virt. eigenvalues --    1.09786   1.10915   1.11779   1.13502   1.14232
 Alpha virt. eigenvalues --    1.16906   1.18795   1.20514   1.21602   1.22956
 Alpha virt. eigenvalues --    1.23135   1.26135   1.27610   1.30362   1.32756
 Alpha virt. eigenvalues --    1.35205   1.36715   1.39211   1.39883   1.40047
 Alpha virt. eigenvalues --    1.41197   1.42645   1.42957   1.45608   1.50263
 Alpha virt. eigenvalues --    1.51104   1.52929   1.53471   1.55984   1.57818
 Alpha virt. eigenvalues --    1.63180   1.70412   1.77690   1.82425   1.84074
 Alpha virt. eigenvalues --    1.85494   1.85971   1.88051   1.89391   1.91579
 Alpha virt. eigenvalues --    1.92389   1.93190   1.94536   1.98131   1.98531
 Alpha virt. eigenvalues --    2.02178   2.03323   2.05529   2.06628   2.15428
 Alpha virt. eigenvalues --    2.17100   2.18048   2.19191   2.22094   2.22309
 Alpha virt. eigenvalues --    2.24982   2.28014   2.30662   2.33571   2.34283
 Alpha virt. eigenvalues --    2.36005   2.40146   2.41825   2.43278   2.46623
 Alpha virt. eigenvalues --    2.60726   2.64998   2.67226   2.68340   2.75310
 Alpha virt. eigenvalues --    2.78738   2.79857   2.84308   2.88850   2.93762
 Alpha virt. eigenvalues --    2.95252   3.09340   3.39419   3.99213   4.10680
 Alpha virt. eigenvalues --    4.24963   4.26355   4.27662   4.29496   4.33988
 Alpha virt. eigenvalues --    4.39370   4.42827   4.50064   4.73933
          Condensed to atoms (all electrons):
               1          2          3          4          5          6
     1  C   26.247384  -9.497907   0.002604  -0.666011   0.031655  -3.401869
     2  C   -9.497907  37.105706   0.324422  -3.193947  -0.028386   2.621482
     3  H    0.002604   0.324422   0.437668  -0.025866  -0.003321   0.006065
     4  C   -0.666011  -3.193947  -0.025866  11.374632   0.287681  -0.102055
     5  H    0.031655  -0.028386  -0.003321   0.287681   0.455429   0.026699
     6  C   -3.401869   2.621482   0.006065  -0.102055   0.026699   8.536334
     7  C   -0.489197   0.898620  -0.000626  -0.609451  -0.041260  -0.830469
     8  C   -0.917943   1.086302  -0.010924  -1.238020   0.052795   0.170650
     9  H    0.027999  -0.030878   0.000013   0.083644  -0.000119   0.041580
    10  C   -2.661724 -22.873363   0.013232   0.606538  -0.030807  -0.870073
    11  H    0.047965   0.062162  -0.000118  -0.021280   0.000013  -0.003369
    12  S   -1.207088   0.070120  -0.009361   0.115048   0.001765  -0.066100
    13  O    0.035172   0.042602   0.000665   0.080757   0.000026  -0.031240
    14  O   -0.081734  -0.398817   0.004934   0.046943   0.000243  -0.020125
    15  N   -0.139787   0.183128  -0.000422   0.004510   0.000061   0.037489
    16  H   -0.047222   0.045567  -0.000011   0.000316   0.000000  -0.001753
    17  H   -0.003057   0.006211   0.000002  -0.013096   0.000108  -0.091388
    18  H    0.001269   0.004197  -0.000003   0.050700   0.002776  -0.165077
    19  H    0.001727  -0.003961   0.000002  -0.001503   0.000128   0.027140
               7          8          9         10         11         12
     1  C   -0.489197  -0.917943   0.027999  -2.661724   0.047965  -1.207088
     2  C    0.898620   1.086302  -0.030878 -22.873363   0.062162   0.070120
     3  H   -0.000626  -0.010924   0.000013   0.013232  -0.000118  -0.009361
     4  C   -0.609451  -1.238020   0.083644   0.606538  -0.021280   0.115048
     5  H   -0.041260   0.052795  -0.000119  -0.030807   0.000013   0.001765
     6  C   -0.830469   0.170650   0.041580  -0.870073  -0.003369  -0.066100
     7  C    6.973831   0.105424  -0.017688  -0.529981  -0.000913  -0.071391
     8  C    0.105424  11.270955   0.270898  -4.629067  -0.065455  -0.111185
     9  H   -0.017688   0.270898   0.453599  -0.073850  -0.003236   0.000690
    10  C   -0.529981  -4.629067  -0.073850  35.601863   0.280451   0.510248
    11  H   -0.000913  -0.065455  -0.003236   0.280451   0.439508  -0.000601
    12  S   -0.071391  -0.111185   0.000690   0.510248  -0.000601  14.750375
    13  O   -0.005678   0.016393   0.000058  -0.220103   0.005573   0.082614
    14  O   -0.002460   0.042851   0.000029   0.217383   0.000612   0.211560
    15  N    0.000348   0.004301   0.000010  -0.078559  -0.000237   0.097452
    16  H   -0.000371  -0.002314  -0.000000  -0.050970  -0.000365   0.095697
    17  H    0.431399   0.010322   0.000697  -0.001145  -0.000001   0.000035
    18  H    0.461973  -0.002306   0.000071  -0.005383   0.000001   0.000010
    19  H    0.347769  -0.037567   0.000420   0.004851  -0.000000   0.000028
              13         14         15         16         17         18
     1  C    0.035172  -0.081734  -0.139787  -0.047222  -0.003057   0.001269
     2  C    0.042602  -0.398817   0.183128   0.045567   0.006211   0.004197
     3  H    0.000665   0.004934  -0.000422  -0.000011   0.000002  -0.000003
     4  C    0.080757   0.046943   0.004510   0.000316  -0.013096   0.050700
     5  H    0.000026   0.000243   0.000061   0.000000   0.000108   0.002776
     6  C   -0.031240  -0.020125   0.037489  -0.001753  -0.091388  -0.165077
     7  C   -0.005678  -0.002460   0.000348  -0.000371   0.431399   0.461973
     8  C    0.016393   0.042851   0.004301  -0.002314   0.010322  -0.002306
     9  H    0.000058   0.000029   0.000010  -0.000000   0.000697   0.000071
    10  C   -0.220103   0.217383  -0.078559  -0.050970  -0.001145  -0.005383
    11  H    0.005573   0.000612  -0.000237  -0.000365  -0.000001   0.000001
    12  S    0.082614   0.211560   0.097452   0.095697   0.000035   0.000010
    13  O    8.994287  -0.101232  -0.168403  -0.013387  -0.000001   0.000000
    14  O   -0.101232   9.044719  -0.193312   0.017823  -0.000000   0.000001
    15  N   -0.168403  -0.193312   8.016881   0.191423  -0.000006  -0.000000
    16  H   -0.013387   0.017823   0.191423   0.362994  -0.000000  -0.000000
    17  H   -0.000001  -0.000000  -0.000006  -0.000000   0.463863  -0.023084
    18  H    0.000000   0.000001  -0.000000  -0.000000  -0.023084   0.464623
    19  H    0.000000  -0.000000   0.000003   0.000000  -0.027624  -0.022954
              19
     1  C    0.001727
     2  C   -0.003961
     3  H    0.000002
     4  C   -0.001503
     5  H    0.000128
     6  C    0.027140
     7  C    0.347769
     8  C   -0.037567
     9  H    0.000420
    10  C    0.004851
    11  H   -0.000000
    12  S    0.000028
    13  O    0.000000
    14  O   -0.000000
    15  N    0.000003
    16  H    0.000000
    17  H   -0.027624
    18  H   -0.022954
    19  H    0.458179
 Mulliken charges:
               1
     1  C   -1.282235
     2  C   -0.423260
     3  H    0.261045
     4  C   -0.779540
     5  H    0.244514
     6  C    0.116079
     7  C   -0.619879
     8  C   -0.016109
     9  H    0.246063
    10  C    0.790459
    11  H    0.259291
    12  S    1.530083
    13  O   -0.718104
    14  O   -0.789416
    15  N   -0.954877
    16  H    0.402574
    17  H    0.246765
    18  H    0.233185
    19  H    0.253362
 Sum of Mulliken charges =  -1.00000
 Mulliken charges with hydrogens summed into heavy atoms:
               1
     1  C   -1.282235
     2  C   -0.162214
     4  C   -0.535026
     6  C    0.116079
     7  C    0.113433
     8  C    0.229953
    10  C    1.049751
    12  S    1.530083
    13  O   -0.718104
    14  O   -0.789416
    15  N   -0.552304
 Electronic spatial extent (au):  <R**2>=           2247.0825
 Charge=             -1.0000 electrons
 Dipole moment (field-independent basis, Debye):
    X=            -16.2451    Y=             -2.1563    Z=              0.8144  Tot=             16.4078
 Quadrupole moment (field-independent basis, Debye-Ang):
   XX=           -104.8633   YY=            -74.8103   ZZ=            -87.4064
   XY=             -4.3516   XZ=              0.6122   YZ=             -3.9550
 Traceless Quadrupole moment (field-independent basis, Debye-Ang):
   XX=            -15.8366   YY=             14.2164   ZZ=              1.6203
   XY=             -4.3516   XZ=              0.6122   YZ=             -3.9550
 Octapole moment (field-independent basis, Debye-Ang**2):
  XXX=           -137.1278  YYY=             -7.6329  ZZZ=            -10.7541  XYY=            -24.9542
  XXY=            -10.9567  XXZ=             -3.9860  XZZ=            -18.7989  YZZ=             -2.6852
  YYZ=              8.9165  XYZ=             -9.2094
 Hexadecapole moment (field-independent basis, Debye-Ang**3):
 XXXX=          -2550.4503 YYYY=           -441.6759 ZZZZ=           -265.3523 XXXY=            -16.2543
 XXXZ=            -34.1007 YYYX=            -21.0367 YYYZ=             -6.1536 ZZZX=            -27.2311
 ZZZY=            -13.9008 XXYY=           -495.3672 XXZZ=           -506.0663 YYZZ=           -123.6728
 XXYZ=            -18.8005 YYXZ=             17.5290 ZZXY=             -0.5413
 N-N= 7.067491497959D+02 E-N=-3.483814691158D+03  KE= 8.692637190866D+02
 D1PCM: PCM CHGder 1st derivatives, ID1Alg=3 FixD1E=F DoIter=F DoCFld=F I1PDM=0.
 Calling FoFJK, ICntrl=      2127 FMM=F ISym2X=0 I1Cent= 0 IOpClX= 0 NMat=1 NMatS=1 NMatT=0.
 ***** Axes restored to original set *****
 -------------------------------------------------------------------
 Center     Atomic                   Forces (Hartrees/Bohr)
 Number     Number              X              Y              Z
 -------------------------------------------------------------------
      1        6          -0.000018465    0.000004358   -0.000007965
      2        6           0.000009347    0.000005496    0.000002195
      3        1          -0.000000577    0.000007889   -0.000000884
      4        6           0.000003780    0.000005035   -0.000005356
      5        1           0.000001501    0.000008665    0.000000392
      6        6          -0.000008019    0.000002136   -0.000003165
      7        6           0.000000273    0.000000794    0.000004390
      8        6           0.000009323   -0.000004962    0.000009813
      9        1           0.000000587   -0.000006757    0.000000521
     10        6           0.000003866   -0.000004993   -0.000008833
     11        1           0.000000292   -0.000008423    0.000000952
     12       16          -0.000014686   -0.000006027    0.000004632
     13        8          -0.000004074   -0.000014909    0.000003723
     14        8           0.000009335    0.000015328   -0.000003647
     15        7          -0.000002796   -0.000012735    0.000006529
     16        1          -0.000001907    0.000000615   -0.000003233
     17        1           0.000001784    0.000000151   -0.000000502
     18        1           0.000002145    0.000006276   -0.000000463
     19        1           0.000008289    0.000002063    0.000000901
 -------------------------------------------------------------------
 Cartesian Forces:  Max     0.000018465 RMS     0.000006633

 GradGradGradGradGradGradGradGradGradGradGradGradGradGradGradGradGradGrad
 Berny optimization.
 FormGI is forming the generalized inverse of G from B-inverse, IUseBI=4.
 Internal  Forces:  Max     0.000016941 RMS     0.000004616
 Search for a local minimum.
 Step number   1 out of a maximum of   99
 All quantities printed in internal units (Hartrees-Bohrs-Radians)
 Mixed Optimization -- En-DIIS/RFO-DIIS
 Second derivative matrix not updated -- first step.
 ITU=  0
     Eigenvalues ---    0.00390   0.00688   0.01442   0.01553   0.02095
     Eigenvalues ---    0.02131   0.02134   0.02156   0.02164   0.02177
     Eigenvalues ---    0.02186   0.03076   0.07155   0.07250   0.10318
     Eigenvalues ---    0.11828   0.16000   0.16000   0.16000   0.16000
     Eigenvalues ---    0.16000   0.16000   0.16000   0.16000   0.17158
     Eigenvalues ---    0.21668   0.22000   0.22968   0.23985   0.24947
     Eigenvalues ---    0.24999   0.25000   0.26234   0.31770   0.34170
     Eigenvalues ---    0.34251   0.34445   0.35078   0.35130   0.35161
     Eigenvalues ---    0.35315   0.42045   0.42197   0.43703   0.45750
     Eigenvalues ---    0.46135   0.46643   0.47031   0.58518   0.77647
     Eigenvalues ---    0.80574
 RFO step:  Lambda=-1.04952240D-08 EMin= 3.89870829D-03
 Linear search not attempted -- first point.
 Iteration  1 RMS(Cart)=  0.00006460 RMS(Int)=  0.00000000
 Iteration  2 RMS(Cart)=  0.00000000 RMS(Int)=  0.00000000
 Variable       Old X    -DE/DX   Delta X   Delta X   Delta X     New X
                                 (Linear)    (Quad)   (Total)
    R1        2.62851  -0.00001   0.00000  -0.00001  -0.00001   2.62850
    R2        2.63921   0.00001   0.00000   0.00002   0.00002   2.63922
    R3        3.39871   0.00001   0.00000   0.00004   0.00004   3.39875
    R4        2.05166   0.00000   0.00000   0.00000   0.00000   2.05166
    R5        2.63857   0.00000   0.00000   0.00000   0.00000   2.63857
    R6        2.05464  -0.00000   0.00000  -0.00000  -0.00000   2.05464
    R7        2.64041  -0.00000   0.00000  -0.00001  -0.00001   2.64040
    R8        2.84567  -0.00000   0.00000  -0.00001  -0.00001   2.84566
    R9        2.65042   0.00001   0.00000   0.00002   0.00002   2.65044
   R10        2.06909   0.00000   0.00000   0.00000   0.00000   2.06909
   R11        2.06585   0.00000   0.00000   0.00000   0.00000   2.06586
   R12        2.07044   0.00000   0.00000   0.00001   0.00001   2.07045
   R13        2.05548  -0.00000   0.00000  -0.00000  -0.00000   2.05548
   R14        2.62798  -0.00001   0.00000  -0.00001  -0.00001   2.62796
   R15        2.05414   0.00000   0.00000   0.00000   0.00000   2.05415
   R16        2.82910  -0.00001   0.00000  -0.00001  -0.00001   2.82909
   R17        2.81307  -0.00001   0.00000  -0.00001  -0.00001   2.81307
   R18        2.95833   0.00001   0.00000   0.00001   0.00001   2.95834
   R19        1.93512   0.00001   0.00000   0.00001   0.00001   1.93513
    A1        2.10170  -0.00000   0.00000  -0.00001  -0.00001   2.10169
    A2        2.10105   0.00001   0.00000   0.00002   0.00002   2.10108
    A3        2.07861  -0.00000   0.00000  -0.00002  -0.00002   2.07860
    A4        2.09728  -0.00000   0.00000  -0.00000  -0.00000   2.09728
    A5        2.08512   0.00000   0.00000   0.00001   0.00001   2.08512
    A6        2.10078  -0.00000   0.00000  -0.00001  -0.00001   2.10077
    A7        2.08457  -0.00000   0.00000  -0.00001  -0.00001   2.08457
    A8        2.11399  -0.00000   0.00000  -0.00000  -0.00000   2.11399
    A9        2.08462   0.00000   0.00000   0.00001   0.00001   2.08463
   A10        2.11667   0.00000   0.00000   0.00000   0.00000   2.11667
   A11        2.06637   0.00000   0.00000   0.00000   0.00000   2.06637
   A12        2.10013  -0.00000   0.00000  -0.00001  -0.00001   2.10012
   A13        1.93620  -0.00000   0.00000  -0.00000  -0.00000   1.93620
   A14        1.93970   0.00000   0.00000   0.00001   0.00001   1.93971
   A15        1.93312  -0.00000   0.00000  -0.00001  -0.00001   1.93311
   A16        1.89249   0.00000   0.00000   0.00001   0.00001   1.89249
   A17        1.87261  -0.00000   0.00000  -0.00001  -0.00001   1.87260
   A18        1.88753   0.00000   0.00000   0.00000   0.00000   1.88754
   A19        2.08358   0.00000   0.00000  -0.00000  -0.00000   2.08358
   A20        2.11310  -0.00000   0.00000  -0.00000  -0.00000   2.11310
   A21        2.08650   0.00000   0.00000   0.00001   0.00001   2.08650
   A22        2.08607   0.00000   0.00000   0.00000   0.00000   2.08607
   A23        2.10003  -0.00000   0.00000  -0.00000  -0.00000   2.10003
   A24        2.09708  -0.00000   0.00000  -0.00000  -0.00000   2.09707
   A25        1.80960   0.00001   0.00000   0.00001   0.00001   1.80960
   A26        1.83753  -0.00001   0.00000  -0.00002  -0.00002   1.83752
   A27        1.92169   0.00001   0.00000   0.00004   0.00004   1.92173
   A28        1.98337  -0.00001   0.00000  -0.00005  -0.00005   1.98332
   A29        2.00071  -0.00002   0.00000  -0.00010  -0.00010   2.00061
   A30        1.90149   0.00002   0.00000   0.00012   0.00012   1.90161
   A31        1.87973  -0.00002   0.00000  -0.00010  -0.00010   1.87963
    D1        3.13998  -0.00000   0.00000   0.00000   0.00000   3.13998
    D2       -0.00700   0.00000   0.00000   0.00001   0.00001  -0.00699
    D3        0.06377  -0.00000   0.00000  -0.00001  -0.00001   0.06376
    D4       -3.08321   0.00000   0.00000   0.00000   0.00000  -3.08321
    D5        0.00623   0.00000   0.00000   0.00001   0.00001   0.00624
    D6       -3.14037  -0.00000   0.00000  -0.00001  -0.00001  -3.14038
    D7        3.08328   0.00000   0.00000   0.00003   0.00003   3.08330
    D8       -0.06333   0.00000   0.00000   0.00000   0.00000  -0.06332
    D9       -2.42556  -0.00000   0.00000   0.00002   0.00002  -2.42553
   D10       -0.33770  -0.00001   0.00000  -0.00004  -0.00004  -0.33774
   D11        1.70936   0.00001   0.00000   0.00011   0.00011   1.70947
   D12        0.78056  -0.00000   0.00000   0.00001   0.00001   0.78057
   D13        2.86842  -0.00001   0.00000  -0.00005  -0.00005   2.86837
   D14       -1.36771   0.00001   0.00000   0.00010   0.00010  -1.36761
   D15       -3.13635  -0.00000   0.00000  -0.00001  -0.00001  -3.13636
   D16        0.00361  -0.00000   0.00000  -0.00003  -0.00003   0.00357
   D17       -0.00015   0.00000   0.00000  -0.00000  -0.00000  -0.00015
   D18        3.13980  -0.00000   0.00000  -0.00002  -0.00002   3.13978
   D19       -3.13380   0.00000   0.00000   0.00004   0.00004  -3.13377
   D20        0.00052   0.00000   0.00000   0.00002   0.00002   0.00054
   D21        0.00615   0.00000   0.00000   0.00002   0.00002   0.00617
   D22        3.14047   0.00000   0.00000   0.00001   0.00001   3.14048
   D23       -2.21619  -0.00000   0.00000  -0.00004  -0.00004  -2.21622
   D24       -0.10922  -0.00000   0.00000  -0.00002  -0.00002  -0.10925
   D25        1.98941   0.00000   0.00000  -0.00002  -0.00002   1.98939
   D26        0.93282  -0.00000   0.00000  -0.00002  -0.00002   0.93280
   D27        3.03978   0.00000   0.00000  -0.00001  -0.00001   3.03977
   D28       -1.14477   0.00000   0.00000  -0.00000  -0.00000  -1.14478
   D29       -3.14090   0.00000   0.00000   0.00000   0.00000  -3.14090
   D30       -0.00130  -0.00000   0.00000   0.00000   0.00000  -0.00130
   D31       -0.00651  -0.00000   0.00000  -0.00001  -0.00001  -0.00652
   D32        3.13309  -0.00000   0.00000  -0.00001  -0.00001   3.13308
   D33       -0.00203  -0.00000   0.00000  -0.00002  -0.00002  -0.00205
   D34       -3.13863   0.00000   0.00000   0.00000   0.00000  -3.13862
   D35        3.13756  -0.00000   0.00000  -0.00002  -0.00002   3.13754
   D36        0.00097   0.00000   0.00000   0.00000   0.00000   0.00097
   D37        1.24065   0.00000   0.00000  -0.00001  -0.00001   1.24064
   D38       -0.79125  -0.00000   0.00000   0.00002   0.00002  -0.79123
   D39       -3.03562   0.00000   0.00000   0.00007   0.00007  -3.03556
         Item               Value     Threshold  Converged?
 Maximum Force            0.000017     0.000450     YES
 RMS     Force            0.000005     0.000300     YES
 Maximum Displacement     0.000267     0.001800     YES
 RMS     Displacement     0.000065     0.001200     YES
 Predicted change in Energy=-5.247676D-09
 Optimization completed.
    -- Stationary point found.
                           ----------------------------
                           !   Optimized Parameters   !
                           ! (Angstroms and Degrees)  !
 --------------------------                            --------------------------
 ! Name  Definition              Value          Derivative Info.                !
 --------------------------------------------------------------------------------
 ! R1    R(1,2)                  1.3909         -DE/DX =    0.0                 !
 ! R2    R(1,10)                 1.3966         -DE/DX =    0.0                 !
 ! R3    R(1,12)                 1.7985         -DE/DX =    0.0                 !
 ! R4    R(2,3)                  1.0857         -DE/DX =    0.0                 !
 ! R5    R(2,4)                  1.3963         -DE/DX =    0.0                 !
 ! R6    R(4,5)                  1.0873         -DE/DX =    0.0                 !
 ! R7    R(4,6)                  1.3972         -DE/DX =    0.0                 !
 ! R8    R(6,7)                  1.5059         -DE/DX =    0.0                 !
 ! R9    R(6,8)                  1.4025         -DE/DX =    0.0                 !
 ! R10   R(7,17)                 1.0949         -DE/DX =    0.0                 !
 ! R11   R(7,18)                 1.0932         -DE/DX =    0.0                 !
 ! R12   R(7,19)                 1.0956         -DE/DX =    0.0                 !
 ! R13   R(8,9)                  1.0877         -DE/DX =    0.0                 !
 ! R14   R(8,10)                 1.3907         -DE/DX =    0.0                 !
 ! R15   R(10,11)                1.087          -DE/DX =    0.0                 !
 ! R16   R(12,13)                1.4971         -DE/DX =    0.0                 !
 ! R17   R(12,14)                1.4886         -DE/DX =    0.0                 !
 ! R18   R(12,15)                1.5655         -DE/DX =    0.0                 !
 ! R19   R(15,16)                1.024          -DE/DX =    0.0                 !
 ! A1    A(2,1,10)             120.4183         -DE/DX =    0.0                 !
 ! A2    A(2,1,12)             120.3816         -DE/DX =    0.0                 !
 ! A3    A(10,1,12)            119.0958         -DE/DX =    0.0                 !
 ! A4    A(1,2,3)              120.1653         -DE/DX =    0.0                 !
 ! A5    A(1,2,4)              119.4684         -DE/DX =    0.0                 !
 ! A6    A(3,2,4)              120.3656         -DE/DX =    0.0                 !
 ! A7    A(2,4,5)              119.4371         -DE/DX =    0.0                 !
 ! A8    A(2,4,6)              121.1229         -DE/DX =    0.0                 !
 ! A9    A(5,4,6)              119.44           -DE/DX =    0.0                 !
 ! A10   A(4,6,7)              121.276          -DE/DX =    0.0                 !
 ! A11   A(4,6,8)              118.3943         -DE/DX =    0.0                 !
 ! A12   A(7,6,8)              120.3284         -DE/DX =    0.0                 !
 ! A13   A(6,7,17)             110.9359         -DE/DX =    0.0                 !
 ! A14   A(6,7,18)             111.1368         -DE/DX =    0.0                 !
 ! A15   A(6,7,19)             110.7594         -DE/DX =    0.0                 !
 ! A16   A(17,7,18)            108.4314         -DE/DX =    0.0                 !
 ! A17   A(17,7,19)            107.2927         -DE/DX =    0.0                 !
 ! A18   A(18,7,19)            108.1476         -DE/DX =    0.0                 !
 ! A19   A(6,8,9)              119.3806         -DE/DX =    0.0                 !
 ! A20   A(6,8,10)             121.072          -DE/DX =    0.0                 !
 ! A21   A(9,8,10)             119.5474         -DE/DX =    0.0                 !
 ! A22   A(1,10,8)             119.523          -DE/DX =    0.0                 !
 ! A23   A(1,10,11)            120.3228         -DE/DX =    0.0                 !
 ! A24   A(8,10,11)            120.1536         -DE/DX =    0.0                 !
 ! A25   A(1,12,13)            103.6822         -DE/DX =    0.0                 !
 ! A26   A(1,12,14)            105.2828         -DE/DX =    0.0                 !
 ! A27   A(1,12,15)            110.1047         -DE/DX =    0.0                 !
 ! A28   A(13,12,14)           113.6387         -DE/DX =    0.0                 !
 ! A29   A(13,12,15)           114.632          -DE/DX =    0.0                 !
 ! A30   A(14,12,15)           108.9473         -DE/DX =    0.0                 !
 ! A31   A(12,15,16)           107.7006         -DE/DX =    0.0                 !
 ! D1    D(10,1,2,3)           179.9076         -DE/DX =    0.0                 !
 ! D2    D(10,1,2,4)            -0.4009         -DE/DX =    0.0                 !
 ! D3    D(12,1,2,3)             3.6537         -DE/DX =    0.0                 !
 ! D4    D(12,1,2,4)          -176.6548         -DE/DX =    0.0                 !
 ! D5    D(2,1,10,8)             0.357          -DE/DX =    0.0                 !
 ! D6    D(2,1,10,11)         -179.93           -DE/DX =    0.0                 !
 ! D7    D(12,1,10,8)          176.6587         -DE/DX =    0.0                 !
 ! D8    D(12,1,10,11)          -3.6283         -DE/DX =    0.0                 !
 ! D9    D(2,1,12,13)         -138.9741         -DE/DX =    0.0                 !
 ! D10   D(2,1,12,14)          -19.3486         -DE/DX =    0.0                 !
 ! D11   D(2,1,12,15)           97.9393         -DE/DX =    0.0                 !
 ! D12   D(10,1,12,13)          44.7228         -DE/DX =    0.0                 !
 ! D13   D(10,1,12,14)         164.3483         -DE/DX =    0.0                 !
 ! D14   D(10,1,12,15)         -78.3638         -DE/DX =    0.0                 !
 ! D15   D(1,2,4,5)           -179.6995         -DE/DX =    0.0                 !
 ! D16   D(1,2,4,6)              0.2066         -DE/DX =    0.0                 !
 ! D17   D(3,2,4,5)             -0.0086         -DE/DX =    0.0                 !
 ! D18   D(3,2,4,6)            179.8974         -DE/DX =    0.0                 !
 ! D19   D(2,4,6,7)           -179.5536         -DE/DX =    0.0                 !
 ! D20   D(2,4,6,8)              0.0297         -DE/DX =    0.0                 !
 ! D21   D(5,4,6,7)              0.3524         -DE/DX =    0.0                 !
 ! D22   D(5,4,6,8)            179.9357         -DE/DX =    0.0                 !
 ! D23   D(4,6,7,17)          -126.9781         -DE/DX =    0.0                 !
 ! D24   D(4,6,7,18)            -6.258          -DE/DX =    0.0                 !
 ! D25   D(4,6,7,19)           113.9845         -DE/DX =    0.0                 !
 ! D26   D(8,6,7,17)            53.4466         -DE/DX =    0.0                 !
 ! D27   D(8,6,7,18)           174.1666         -DE/DX =    0.0                 !
 ! D28   D(8,6,7,19)           -65.5908         -DE/DX =    0.0                 !
 ! D29   D(4,6,8,9)           -179.9605         -DE/DX =    0.0                 !
 ! D30   D(4,6,8,10)            -0.0748         -DE/DX =    0.0                 !
 ! D31   D(7,6,8,9)             -0.3731         -DE/DX =    0.0                 !
 ! D32   D(7,6,8,10)           179.5126         -DE/DX =    0.0                 !
 ! D33   D(6,8,10,1)            -0.1165         -DE/DX =    0.0                 !
 ! D34   D(6,8,10,11)         -179.83           -DE/DX =    0.0                 !
 ! D35   D(9,8,10,1)           179.769          -DE/DX =    0.0                 !
 ! D36   D(9,8,10,11)            0.0556         -DE/DX =    0.0                 !
 ! D37   D(1,12,15,16)          71.0838         -DE/DX =    0.0                 !
 ! D38   D(13,12,15,16)        -45.3353         -DE/DX =    0.0                 !
 ! D39   D(14,12,15,16)       -173.9282         -DE/DX =    0.0                 !
 --------------------------------------------------------------------------------
 GradGradGradGradGradGradGradGradGradGradGradGradGradGradGradGradGradGrad

                          Input orientation:                          
 ---------------------------------------------------------------------
 Center     Atomic      Atomic             Coordinates (Angstroms)
 Number     Number       Type             X           Y           Z
 ---------------------------------------------------------------------
      1          6           0       -1.373922    0.685292   -0.829232
      2          6           0       -2.554144    0.827154   -1.551511
      3          1           0       -3.511274    0.822565   -1.039057
      4          6           0       -2.496580    0.981707   -2.938007
      5          1           0       -3.419182    1.097484   -3.501531
      6          6           0       -1.273436    0.992060   -3.613364
      7          6           0       -1.206780    1.168452   -5.107373
      8          6           0       -0.096904    0.842354   -2.864707
      9          1           0        0.864163    0.848714   -3.374046
     10          6           0       -0.139917    0.688524   -1.483245
     11          1           0        0.781392    0.576410   -0.917381
     12         16           0       -1.422621    0.395016    0.945041
     13          8           0       -0.316843    1.253980    1.474878
     14          8           0       -2.778092    0.833054    1.377239
     15          7           0       -1.262614   -1.133124    1.244891
     16          1           0       -0.293856   -1.391503    1.036649
     17          1           0       -0.623060    0.366134   -5.570398
     18          1           0       -2.206635    1.167795   -5.549391
     19          1           0       -0.720286    2.115673   -5.365255
 ---------------------------------------------------------------------
                    Distance matrix (angstroms):
                    1          2          3          4          5
     1  C    0.000000
     2  C    1.390948   0.000000
     3  H    2.152009   1.085692   0.000000
     4  C    2.407313   1.396271   2.158921   0.000000
     5  H    3.390306   2.150336   2.479484   1.087271   0.000000
     6  C    2.802783   2.432826   3.415217   1.397246   2.151243
     7  C    4.308581   3.817857   4.688446   2.530732   2.734682
     8  C    2.408029   2.786170   3.871862   2.404836   3.392369
     9  H    3.392906   3.873877   4.959567   3.391520   4.292457
    10  C    1.396607   2.419167   3.403134   2.784986   3.872248
    11  H    2.159862   3.404525   4.301439   3.871989   4.959251
    12  S    1.798521   2.774862   2.912373   4.071321   4.924604
    13  O    2.598027   3.787707   4.087833   4.929396   5.866314
    14  O    2.619550   2.937306   2.525104   4.326973   4.927811
    15  N    2.760618   3.651110   3.754678   4.846836   5.670531
    16  H    2.993515   4.090222   4.422944   5.126598   6.046304
    17  H    4.810853   4.482530   5.392881   3.289147   3.554347
    18  H    4.817273   4.027387   4.707906   2.634013   2.380955
    19  H    4.800910   4.423569   5.308270   3.214441   3.434271
                    6          7          8          9         10
     6  C    0.000000
     7  C    1.505862   0.000000
     8  C    1.402543   2.523433   0.000000
     9  H    2.155725   2.719459   1.087712   0.000000
    10  C    2.431955   3.808258   1.390666   2.146850   0.000000
    11  H    3.415173   4.675401   2.152721   2.473096   1.087006
    12  S    4.599758   6.105449   4.058549   4.908130   2.761892
    13  O    5.184002   6.642690   4.364608   5.007103   3.016875
    14  O    5.214920   6.680697   5.018263   5.986733   3.893999
    15  N    5.302751   6.756599   4.706399   5.457604   3.467214
    16  H    5.316349   6.718319   4.499943   5.080729   3.271097
    17  H    2.155169   1.094913   2.797211   2.696049   4.128218
    18  H    2.156373   1.093202   3.429928   3.776737   4.586346
    19  H    2.153510   1.095631   2.874489   2.842636   4.176552
                   11         12         13         14         15
    11  H    0.000000
    12  S    2.891227   0.000000
    13  O    2.718110   1.497094   0.000000
    14  O    4.242767   1.488615   2.498891   0.000000
    15  N    3.431601   1.565479   2.577914   2.485970   0.000000
    16  H    2.974403   2.115219   2.681633   3.352027   1.024020
    17  H    4.864902   6.564379   7.107598   7.289159   7.007494
    18  H    5.543786   6.587072   7.274551   6.958219   7.235169
    19  H    4.940440   6.578280   6.905990   7.165257   7.385312
                   16         17         18         19
    16  H    0.000000
    17  H    6.844760   0.000000
    18  H    7.320154   1.775053   0.000000
    19  H    7.312079   1.764206   1.772459   0.000000
 Stoichiometry    C7H8NO2S(1-)
 Framework group  C1[X(C7H8NO2S)]
 Deg. of freedom    51
 Full point group                 C1      NOp   1
 Largest Abelian subgroup         C1      NOp   1
 Largest concise Abelian subgroup C1      NOp   1
                         Standard orientation:                         
 ---------------------------------------------------------------------
 Center     Atomic      Atomic             Coordinates (Angstroms)
 Number     Number       Type             X           Y           Z
 ---------------------------------------------------------------------
      1          6           0        0.153286    0.020995   -0.055728
      2          6           0       -0.544213    1.223673   -0.013321
      3          1           0       -0.006125    2.166640   -0.011688
      4          6           0       -1.939979    1.207413    0.020504
      5          1           0       -2.484803    2.147908    0.048682
      6          6           0       -2.648502    0.003139    0.016798
      7          6           0       -4.153981   -0.018265    0.043184
      8          6           0       -1.923704   -1.197006   -0.021225
      9          1           0       -2.459069   -2.143834   -0.025314
     10          6           0       -0.533477   -1.195093   -0.056100
     11          1           0        0.013209   -2.134076   -0.088127
     12         16           0        1.951176    0.010050   -0.009389
     13          8           0        2.324787   -1.040040   -1.008897
     14          8           0        2.362278    1.384724   -0.405927
     15          7           0        2.450217   -0.269262    1.447891
     16          1           0        2.248661   -1.249841    1.663432
     17          1           0       -4.522052   -0.649856    0.858323
     18          1           0       -4.560279    0.988014    0.175146
     19          1           0       -4.552985   -0.427518   -0.891544
 ---------------------------------------------------------------------
 Rotational constants (GHZ):           2.6147167           0.5611476           0.5112586
 Unable to Open any file for archive entry.
 1\1\GINC-GADI-CPU-CLX-1834\FOpt\RM062X\Gen\C7H8N1O2S1(1-)\YJ5695\19-Ma
 y-2022\0\\#m062X/gen 6D OPT Freq=noraman SCRF=(SMD,Solvent=h2o)\\a1 b1
 \\-1,1\C,-1.373922,0.685292,-0.829232\C,-2.554144,0.827154,-1.551511\H
 ,-3.511274,0.822565,-1.039057\C,-2.49658,0.981707,-2.938007\H,-3.41918
 2,1.097484,-3.501531\C,-1.273436,0.99206,-3.613364\C,-1.20678,1.168452
 ,-5.107373\C,-0.096904,0.842354,-2.864707\H,0.864163,0.848714,-3.37404
 6\C,-0.139917,0.688524,-1.483245\H,0.781392,0.57641,-0.917381\S,-1.422
 621,0.395016,0.945041\O,-0.316843,1.25398,1.474878\O,-2.778092,0.83305
 4,1.377239\N,-1.262614,-1.133124,1.244891\H,-0.293856,-1.391503,1.0366
 49\H,-0.62306,0.366134,-5.570398\H,-2.206635,1.167795,-5.549391\H,-0.7
 20286,2.115673,-5.365255\\Version=ES64L-G16RevC.01\State=1-A\HF=-874.8
 188094\RMSD=8.420e-09\RMSF=6.633e-06\Dipole=1.0234799,0.4867649,-6.355
 0444\Quadrupole=9.8870482,1.6357552,-11.5228035,-4.0401155,3.3573672,1
 .0110365\PG=C01 [X(C7H8N1O2S1)]\\@
 The archive entry for this job was punched.


 A ROPE OVER THE TOP OF A FENCE HAS THE SAME LENGTH ON EACH SIDE.
 WEIGHS 1/3 POUND PER FOOT.  ON ONE END HANGS A MONKEY HOLDING A
 BANANA, AND ON THE OTHER END A WEIGHT EQUAL TO THE WEIGHT
 OF THE MONKEY.  THE BANANA WEIGHS TWO OUNCES PER INCH.
 THE ROPE IS AS LONG AS THE AGE OF THE MONKEY, 
 AND THE WEIGHT OF THE MONKEY (IN OUNCES) IS AS MUCH
 AS THE AGE OF THE MONKEY'S MOTHER.  THE COMBINED AGES OF MONKEY
 AND MOTHER ARE THIRTY YEARS.  HALF THE WEIGHT OF THE MONKEY,
  PLUS THE WEIGHT OF THE BANANA, IS ONE FOURTH AS MUCH AS THE WEIGHT
 OF THE WEIGHT AND THE ROPE.
 THE MONKEY'S MOTHER IS HALF AS OLD AS THE MONKEY WILL BE
 WHEN IT IS 3 TIMES AS OLD AS ITS MOTHER WAS WHEN
 SHE WAS HALF AS OLD AS THE MONKEY WILL BE WHEN IT IS
 AS OLD AS ITS MOTHER WILL BE WHEN SHE IS 4 TIMES AS
 OLD AS THE MONKEY WAS WHEN IT WAS TWICE AS OLD AS 
 ITS MOTHER WAS WHEN SHE WAS ONE THIRD AS OLD AS THE
 MONKEY WAS WHEN IT WAS AS OLD AS ITS MOTHER WAS WHEN 
 SHE WAS 3 TIMES AS OLD AS THE MONKEY WAS WHEN IT WAS AS OLD AS ITS
 MOTHER WAS WHEN SHE WAS 3 TIMES AS OLD AS THE MONKEY 
 WAS WHEN IT WAS ONE FOURTH WAS OLD AS IT IS NOW.

 HOW LONG IS THE BANANA?
 Job cpu time:       0 days  0 hours  8 minutes 35.1 seconds.
 Elapsed time:       0 days  0 hours  0 minutes 33.0 seconds.
 File lengths (MBytes):  RWF=     75 Int=      0 D2E=      0 Chk=      6 Scr=      1
 Normal termination of Gaussian 16 at Thu May 19 14:54:05 2022.
 Link1:  Proceeding to internal job step number  2.
 ------------------------------------------------------------------
 #N Geom=AllCheck Guess=TCheck SCRF=Check GenChk RM062X/ChkBas Freq
 ------------------------------------------------------------------
 1/10=4,29=7,30=1,38=1,40=1/1,3;
 2/12=2,40=1/2;
 3/5=7,6=2,8=2,11=2,14=-4,25=1,30=1,67=1,70=2,71=2,74=-55,82=7,116=1,140=1/1,2,3;
 4/5=101/1;
 5/5=2,38=6,98=1/2;
 8/6=4,10=90,11=11/1;
 11/6=1,8=1,9=11,15=111,16=1/1,2,10;
 10/6=1/2;
 6/7=2,8=2,9=2,10=2,28=1/1;
 7/8=1,10=1,25=1/1,2,3,16;
 1/10=4,30=1/3;
 99//99;
 Structure from the checkpoint file:  "/jobfs/40644941.gadi-pbs/Gau-1192637.chk"
 -----
 a1 b1
 -----
 Charge = -1 Multiplicity = 1
 Redundant internal coordinates found in file.  (old form).
 C,0,-1.373922,0.685292,-0.829232
 C,0,-2.554144,0.827154,-1.551511
 H,0,-3.511274,0.822565,-1.039057
 C,0,-2.49658,0.981707,-2.938007
 H,0,-3.419182,1.097484,-3.501531
 C,0,-1.273436,0.99206,-3.613364
 C,0,-1.20678,1.168452,-5.107373
 C,0,-0.096904,0.842354,-2.864707
 H,0,0.864163,0.848714,-3.374046
 C,0,-0.139917,0.688524,-1.483245
 H,0,0.781392,0.57641,-0.917381
 S,0,-1.422621,0.395016,0.945041
 O,0,-0.316843,1.25398,1.474878
 O,0,-2.778092,0.833054,1.377239
 N,0,-1.262614,-1.133124,1.244891
 H,0,-0.293856,-1.391503,1.036649
 H,0,-0.62306,0.366134,-5.570398
 H,0,-2.206635,1.167795,-5.549391
 H,0,-0.720286,2.115673,-5.365255
 Recover connectivity data from disk.

 GradGradGradGradGradGradGradGradGradGradGradGradGradGradGradGradGradGrad
 Berny optimization.
 Initialization pass.
                           ----------------------------
                           !    Initial Parameters    !
                           ! (Angstroms and Degrees)  !
 --------------------------                            --------------------------
 ! Name  Definition              Value          Derivative Info.                !
 --------------------------------------------------------------------------------
 ! R1    R(1,2)                  1.3909         calculate D2E/DX2 analytically  !
 ! R2    R(1,10)                 1.3966         calculate D2E/DX2 analytically  !
 ! R3    R(1,12)                 1.7985         calculate D2E/DX2 analytically  !
 ! R4    R(2,3)                  1.0857         calculate D2E/DX2 analytically  !
 ! R5    R(2,4)                  1.3963         calculate D2E/DX2 analytically  !
 ! R6    R(4,5)                  1.0873         calculate D2E/DX2 analytically  !
 ! R7    R(4,6)                  1.3972         calculate D2E/DX2 analytically  !
 ! R8    R(6,7)                  1.5059         calculate D2E/DX2 analytically  !
 ! R9    R(6,8)                  1.4025         calculate D2E/DX2 analytically  !
 ! R10   R(7,17)                 1.0949         calculate D2E/DX2 analytically  !
 ! R11   R(7,18)                 1.0932         calculate D2E/DX2 analytically  !
 ! R12   R(7,19)                 1.0956         calculate D2E/DX2 analytically  !
 ! R13   R(8,9)                  1.0877         calculate D2E/DX2 analytically  !
 ! R14   R(8,10)                 1.3907         calculate D2E/DX2 analytically  !
 ! R15   R(10,11)                1.087          calculate D2E/DX2 analytically  !
 ! R16   R(12,13)                1.4971         calculate D2E/DX2 analytically  !
 ! R17   R(12,14)                1.4886         calculate D2E/DX2 analytically  !
 ! R18   R(12,15)                1.5655         calculate D2E/DX2 analytically  !
 ! R19   R(15,16)                1.024          calculate D2E/DX2 analytically  !
 ! A1    A(2,1,10)             120.4183         calculate D2E/DX2 analytically  !
 ! A2    A(2,1,12)             120.3816         calculate D2E/DX2 analytically  !
 ! A3    A(10,1,12)            119.0958         calculate D2E/DX2 analytically  !
 ! A4    A(1,2,3)              120.1653         calculate D2E/DX2 analytically  !
 ! A5    A(1,2,4)              119.4684         calculate D2E/DX2 analytically  !
 ! A6    A(3,2,4)              120.3656         calculate D2E/DX2 analytically  !
 ! A7    A(2,4,5)              119.4371         calculate D2E/DX2 analytically  !
 ! A8    A(2,4,6)              121.1229         calculate D2E/DX2 analytically  !
 ! A9    A(5,4,6)              119.44           calculate D2E/DX2 analytically  !
 ! A10   A(4,6,7)              121.276          calculate D2E/DX2 analytically  !
 ! A11   A(4,6,8)              118.3943         calculate D2E/DX2 analytically  !
 ! A12   A(7,6,8)              120.3284         calculate D2E/DX2 analytically  !
 ! A13   A(6,7,17)             110.9359         calculate D2E/DX2 analytically  !
 ! A14   A(6,7,18)             111.1368         calculate D2E/DX2 analytically  !
 ! A15   A(6,7,19)             110.7594         calculate D2E/DX2 analytically  !
 ! A16   A(17,7,18)            108.4314         calculate D2E/DX2 analytically  !
 ! A17   A(17,7,19)            107.2927         calculate D2E/DX2 analytically  !
 ! A18   A(18,7,19)            108.1476         calculate D2E/DX2 analytically  !
 ! A19   A(6,8,9)              119.3806         calculate D2E/DX2 analytically  !
 ! A20   A(6,8,10)             121.072          calculate D2E/DX2 analytically  !
 ! A21   A(9,8,10)             119.5474         calculate D2E/DX2 analytically  !
 ! A22   A(1,10,8)             119.523          calculate D2E/DX2 analytically  !
 ! A23   A(1,10,11)            120.3228         calculate D2E/DX2 analytically  !
 ! A24   A(8,10,11)            120.1536         calculate D2E/DX2 analytically  !
 ! A25   A(1,12,13)            103.6822         calculate D2E/DX2 analytically  !
 ! A26   A(1,12,14)            105.2828         calculate D2E/DX2 analytically  !
 ! A27   A(1,12,15)            110.1047         calculate D2E/DX2 analytically  !
 ! A28   A(13,12,14)           113.6387         calculate D2E/DX2 analytically  !
 ! A29   A(13,12,15)           114.632          calculate D2E/DX2 analytically  !
 ! A30   A(14,12,15)           108.9473         calculate D2E/DX2 analytically  !
 ! A31   A(12,15,16)           107.7006         calculate D2E/DX2 analytically  !
 ! D1    D(10,1,2,3)           179.9076         calculate D2E/DX2 analytically  !
 ! D2    D(10,1,2,4)            -0.4009         calculate D2E/DX2 analytically  !
 ! D3    D(12,1,2,3)             3.6537         calculate D2E/DX2 analytically  !
 ! D4    D(12,1,2,4)          -176.6548         calculate D2E/DX2 analytically  !
 ! D5    D(2,1,10,8)             0.357          calculate D2E/DX2 analytically  !
 ! D6    D(2,1,10,11)         -179.93           calculate D2E/DX2 analytically  !
 ! D7    D(12,1,10,8)          176.6587         calculate D2E/DX2 analytically  !
 ! D8    D(12,1,10,11)          -3.6283         calculate D2E/DX2 analytically  !
 ! D9    D(2,1,12,13)         -138.9741         calculate D2E/DX2 analytically  !
 ! D10   D(2,1,12,14)          -19.3486         calculate D2E/DX2 analytically  !
 ! D11   D(2,1,12,15)           97.9393         calculate D2E/DX2 analytically  !
 ! D12   D(10,1,12,13)          44.7228         calculate D2E/DX2 analytically  !
 ! D13   D(10,1,12,14)         164.3483         calculate D2E/DX2 analytically  !
 ! D14   D(10,1,12,15)         -78.3638         calculate D2E/DX2 analytically  !
 ! D15   D(1,2,4,5)           -179.6995         calculate D2E/DX2 analytically  !
 ! D16   D(1,2,4,6)              0.2066         calculate D2E/DX2 analytically  !
 ! D17   D(3,2,4,5)             -0.0086         calculate D2E/DX2 analytically  !
 ! D18   D(3,2,4,6)            179.8974         calculate D2E/DX2 analytically  !
 ! D19   D(2,4,6,7)           -179.5536         calculate D2E/DX2 analytically  !
 ! D20   D(2,4,6,8)              0.0297         calculate D2E/DX2 analytically  !
 ! D21   D(5,4,6,7)              0.3524         calculate D2E/DX2 analytically  !
 ! D22   D(5,4,6,8)            179.9357         calculate D2E/DX2 analytically  !
 ! D23   D(4,6,7,17)          -126.9781         calculate D2E/DX2 analytically  !
 ! D24   D(4,6,7,18)            -6.258          calculate D2E/DX2 analytically  !
 ! D25   D(4,6,7,19)           113.9845         calculate D2E/DX2 analytically  !
 ! D26   D(8,6,7,17)            53.4466         calculate D2E/DX2 analytically  !
 ! D27   D(8,6,7,18)           174.1666         calculate D2E/DX2 analytically  !
 ! D28   D(8,6,7,19)           -65.5908         calculate D2E/DX2 analytically  !
 ! D29   D(4,6,8,9)           -179.9605         calculate D2E/DX2 analytically  !
 ! D30   D(4,6,8,10)            -0.0748         calculate D2E/DX2 analytically  !
 ! D31   D(7,6,8,9)             -0.3731         calculate D2E/DX2 analytically  !
 ! D32   D(7,6,8,10)           179.5126         calculate D2E/DX2 analytically  !
 ! D33   D(6,8,10,1)            -0.1165         calculate D2E/DX2 analytically  !
 ! D34   D(6,8,10,11)         -179.83           calculate D2E/DX2 analytically  !
 ! D35   D(9,8,10,1)           179.769          calculate D2E/DX2 analytically  !
 ! D36   D(9,8,10,11)            0.0556         calculate D2E/DX2 analytically  !
 ! D37   D(1,12,15,16)          71.0838         calculate D2E/DX2 analytically  !
 ! D38   D(13,12,15,16)        -45.3353         calculate D2E/DX2 analytically  !
 ! D39   D(14,12,15,16)       -173.9282         calculate D2E/DX2 analytically  !
 --------------------------------------------------------------------------------
 Trust Radius=3.00D-01 FncErr=1.00D-07 GrdErr=1.00D-07 EigMax=2.50D+02 EigMin=1.00D-04
 Number of steps in this run=      2 maximum allowed number of steps=      2.
 GradGradGradGradGradGradGradGradGradGradGradGradGradGradGradGradGradGrad

                          Input orientation:                          
 ---------------------------------------------------------------------
 Center     Atomic      Atomic             Coordinates (Angstroms)
 Number     Number       Type             X           Y           Z
 ---------------------------------------------------------------------
      1          6           0       -1.373922    0.685292   -0.829232
      2          6           0       -2.554144    0.827154   -1.551511
      3          1           0       -3.511274    0.822565   -1.039057
      4          6           0       -2.496580    0.981707   -2.938007
      5          1           0       -3.419182    1.097484   -3.501531
      6          6           0       -1.273436    0.992060   -3.613364
      7          6           0       -1.206780    1.168452   -5.107373
      8          6           0       -0.096904    0.842354   -2.864707
      9          1           0        0.864163    0.848714   -3.374046
     10          6           0       -0.139917    0.688524   -1.483245
     11          1           0        0.781392    0.576410   -0.917381
     12         16           0       -1.422621    0.395016    0.945041
     13          8           0       -0.316843    1.253980    1.474878
     14          8           0       -2.778092    0.833054    1.377239
     15          7           0       -1.262614   -1.133124    1.244891
     16          1           0       -0.293856   -1.391503    1.036649
     17          1           0       -0.623060    0.366134   -5.570398
     18          1           0       -2.206635    1.167795   -5.549391
     19          1           0       -0.720286    2.115673   -5.365255
 ---------------------------------------------------------------------
                    Distance matrix (angstroms):
                    1          2          3          4          5
     1  C    0.000000
     2  C    1.390948   0.000000
     3  H    2.152009   1.085692   0.000000
     4  C    2.407313   1.396271   2.158921   0.000000
     5  H    3.390306   2.150336   2.479484   1.087271   0.000000
     6  C    2.802783   2.432826   3.415217   1.397246   2.151243
     7  C    4.308581   3.817857   4.688446   2.530732   2.734682
     8  C    2.408029   2.786170   3.871862   2.404836   3.392369
     9  H    3.392906   3.873877   4.959567   3.391520   4.292457
    10  C    1.396607   2.419167   3.403134   2.784986   3.872248
    11  H    2.159862   3.404525   4.301439   3.871989   4.959251
    12  S    1.798521   2.774862   2.912373   4.071321   4.924604
    13  O    2.598027   3.787707   4.087833   4.929396   5.866314
    14  O    2.619550   2.937306   2.525104   4.326973   4.927811
    15  N    2.760618   3.651110   3.754678   4.846836   5.670531
    16  H    2.993515   4.090222   4.422944   5.126598   6.046304
    17  H    4.810853   4.482530   5.392881   3.289147   3.554347
    18  H    4.817273   4.027387   4.707906   2.634013   2.380955
    19  H    4.800910   4.423569   5.308270   3.214441   3.434271
                    6          7          8          9         10
     6  C    0.000000
     7  C    1.505862   0.000000
     8  C    1.402543   2.523433   0.000000
     9  H    2.155725   2.719459   1.087712   0.000000
    10  C    2.431955   3.808258   1.390666   2.146850   0.000000
    11  H    3.415173   4.675401   2.152721   2.473096   1.087006
    12  S    4.599758   6.105449   4.058549   4.908130   2.761892
    13  O    5.184002   6.642690   4.364608   5.007103   3.016875
    14  O    5.214920   6.680697   5.018263   5.986733   3.893999
    15  N    5.302751   6.756599   4.706399   5.457604   3.467214
    16  H    5.316349   6.718319   4.499943   5.080729   3.271097
    17  H    2.155169   1.094913   2.797211   2.696049   4.128218
    18  H    2.156373   1.093202   3.429928   3.776737   4.586346
    19  H    2.153510   1.095631   2.874489   2.842636   4.176552
                   11         12         13         14         15
    11  H    0.000000
    12  S    2.891227   0.000000
    13  O    2.718110   1.497094   0.000000
    14  O    4.242767   1.488615   2.498891   0.000000
    15  N    3.431601   1.565479   2.577914   2.485970   0.000000
    16  H    2.974403   2.115219   2.681633   3.352027   1.024020
    17  H    4.864902   6.564379   7.107598   7.289159   7.007494
    18  H    5.543786   6.587072   7.274551   6.958219   7.235169
    19  H    4.940440   6.578280   6.905990   7.165257   7.385312
                   16         17         18         19
    16  H    0.000000
    17  H    6.844760   0.000000
[...]
 0010479,-0.03575084,0.14780464,-0.08500604,0.00881549,-0.03105249,0.04
 785006,0.03043617,-0.34224034,-0.00166909,0.00156884,-0.00898065,0.029
 35027,-0.06581414,0.70028794,0.00161791,0.00019560,0.00077769,0.005467
 10,-0.00048009,0.00310798,0.00054905,-0.00020620,-0.00038493,-0.266012
 56,0.02730352,-0.12593200,0.27972487,0.00009461,0.00701581,0.00120496,
 0.00310020,0.00323327,0.00155298,-0.00032068,-0.00420532,-0.00058872,0
 .02732927,-0.04195079,0.01777579,-0.02971077,0.03029292,0.00125949,0.0
 0161062,-0.00530479,-0.02672454,0.00334221,-0.01200079,0.00018538,-0.0
 0066034,0.00144940,-0.12668369,0.01775454,-0.13430656,0.13464038,-0.02
 035388,0.14030429,-0.08415382,0.00405625,-0.00215077,0.03863999,-0.010
 45498,0.08826255,0.00166010,0.00045137,-0.00113491,-0.29028882,0.00665
 815,0.04671847,-0.01860850,-0.00033377,0.01299276,0.68061618,0.0046675
 0,-0.00829827,-0.00090439,-0.00561669,0.00699098,-0.00215021,0.0004847
 7,0.00726531,0.00142971,-0.00214838,-0.06932912,0.00975000,0.00302429,
 0.00442142,-0.00131262,-0.02633604,0.18564457,-0.00391821,-0.00100053,
 0.00344685,0.03032863,0.00159244,-0.02063362,-0.00085808,0.00145142,-0
 .00476387,0.12433540,0.00521068,-0.17423581,-0.01544216,0.00013505,0.0
 0952417,-0.01074232,-0.05566021,0.65735486,-0.00050040,-0.00003186,0.0
 0174026,-0.00407588,0.00016715,0.00035728,0.00005420,-0.00014140,0.001
 17208,0.00084533,-0.00344680,0.02945822,0.00091075,-0.00016774,0.00114
 307,-0.08853690,0.00067314,0.00151920,0.59856477,-0.00023383,-0.000435
 07,0.00044774,0.00095756,0.00810463,0.00056443,-0.00002398,-0.00015800
 ,-0.00015965,-0.00025987,0.00647441,0.00112070,-0.00020281,-0.00425719
 ,-0.00067253,0.00000204,-0.07510360,0.01731355,-0.00430793,0.55469767,
 0.00157543,-0.00007413,-0.00142194,0.00021616,0.00063213,0.00126138,-0
 .00012599,0.00003227,-0.00004079,0.00364586,0.00283735,-0.01815779,-0.
 00167243,-0.00042415,0.00124257,0.00783868,0.01830553,-0.22992123,0.01
 195548,0.00808834,0.50905174,0.03466589,-0.00574750,0.02795696,-0.0187
 6993,0.00379933,-0.03104065,0.00027686,0.00003450,-0.00060477,-0.05672
 775,0.00105432,0.02260710,-0.00329806,0.00027089,0.00322955,-0.2695954
 6,0.02482048,-0.12156670,0.00591253,0.00059581,-0.00328421,0.71940178,
 -0.01122143,0.00986157,0.00244379,0.00434945,-0.00721547,0.00769260,-0
 .00000575,-0.00100951,0.00004486,0.00671966,0.00862739,-0.00809696,0.0
 0014706,0.00681906,0.00070271,0.01671923,-0.07326044,0.01899255,0.0035
 9341,0.00363817,0.00353518,-0.02726713,0.14703411,0.08852771,-0.000924
 69,-0.02630882,-0.03361959,0.00701574,-0.06049366,-0.00068624,0.000035
 54,-0.00082442,-0.02983016,-0.00540331,0.07058752,0.00367087,0.0007662
 3,-0.00095788,-0.04702724,0.01528341,-0.17800966,-0.02842369,0.0046692
 5,-0.02350451,-0.04028306,-0.06292965,0.70732549,0.00167304,0.00035218
 ,-0.00015430,0.00003737,0.00003834,-0.00085642,-0.00001515,-0.00007187
 ,0.00014233,-0.00276023,0.00094000,-0.00365707,-0.00101499,-0.00002965
 ,0.00068964,-0.01835717,-0.00032366,0.01383744,0.00106997,-0.00024647,
 0.00114432,-0.28281363,-0.00038094,0.11839394,0.29784799,0.00049717,0.
 00747198,0.00132360,0.00007118,-0.00091088,-0.00001370,-0.00007770,-0.
 00100051,-0.00013460,0.00081715,0.00662259,0.00119504,0.00015061,-0.00
 006311,-0.00009943,0.00307749,0.00424820,-0.00167072,-0.00036015,-0.00
 263577,-0.00037710,-0.00026157,-0.03924554,0.00288861,-0.00023964,0.02
 663786,-0.00080376,0.00171995,-0.00538268,-0.00056460,0.00001733,-0.00
 071052,0.00012386,-0.00013511,0.00010178,-0.00322834,0.00109922,-0.001
 49161,-0.00083882,-0.00001688,0.00060276,-0.01513796,0.00005595,0.0107
 8536,-0.00041027,-0.00039359,0.00096229,0.11797441,0.00271390,-0.12030
 881,-0.12655934,-0.00426441,0.12419073,-0.29177610,0.00085748,0.114401
 42,-0.05818617,0.00704476,-0.03248005,-0.00258628,0.00083727,-0.003234
 62,-0.02351457,-0.00321627,0.03708059,-0.00011365,-0.00019676,0.000595
 16,0.04820553,0.00109909,-0.02443153,-0.00521217,0.00055943,-0.0021397
 0,-0.13044545,0.00741436,-0.03077571,0.00354685,-0.00338658,0.02811361
 ,0.72233337,0.00619949,-0.06822955,0.00457233,0.00151815,0.01072069,-0
 .00387223,0.00099247,0.00642559,0.00103541,-0.00234754,-0.00655153,0.0
 0271698,-0.00015394,-0.00099916,-0.00007144,0.00601783,0.00628046,0.00
 560091,0.00133515,0.00517778,0.00016146,-0.00072798,-0.06799872,0.0361
 3158,0.00025923,0.00389227,0.00024705,-0.03598091,0.15163276,0.0525003
 8,0.00890145,-0.15933874,0.02341294,-0.00695302,0.06873406,-0.00371952
 ,0.00108992,-0.00178430,0.03314991,0.00384813,-0.05681069,0.00090538,-
 0.00016236,-0.00061013,-0.08306851,0.00844834,-0.02999452,-0.00304040,
 -0.00008224,0.00386525,0.04578835,0.03148390,-0.35670116,-0.00203389,0
 .00166292,-0.01055700,0.03487438,-0.06709373,0.70228438,-0.01798900,0.
 00263999,-0.01409963,-0.00310220,0.00002026,0.00383280,-0.00080920,0.0
 0015436,-0.00084442,0.00022764,-0.00013642,0.00074571,0.00000357,-0.00
 002585,-0.00014225,0.00141589,0.00011914,0.00127729,0.00019420,-0.0000
 0519,0.00012429,0.00588557,-0.00038908,0.00260708,0.00059431,-0.000211
 03,-0.00027806,-0.26716397,0.02670039,-0.12686910,0.28088315,-0.000296
 66,0.00354812,-0.00040865,0.00025904,0.00630407,0.00059818,-0.00002030
 ,0.00029204,0.00005518,-0.00016519,-0.00088216,-0.00008551,-0.00003662
 ,-0.00101042,-0.00011449,0.00009666,0.00784391,0.00141303,0.00013364,-
 0.00013590,0.00003134,0.00329340,0.00431356,0.00164852,-0.00032568,-0.
 00449495,-0.00066942,0.02555263,-0.04239478,0.01771764,-0.02822134,0.0
 2978461,0.01210090,-0.00177307,0.01202100,0.00314763,0.00056242,-0.001
 33469,0.00073652,-0.00004780,0.00064547,0.00065698,-0.00001546,-0.0007
 7470,-0.00017600,-0.00011008,0.00008647,0.00181389,0.00130395,-0.00471
 640,-0.00145266,0.00000359,-0.00009267,-0.02715430,0.00326277,-0.01085
 217,0.00024953,-0.00063719,0.00146604,-0.12638658,0.01783911,-0.135090
 27,0.13565363,-0.02010258,0.14047278,-0.06792136,0.00223268,0.00305239
 ,0.00870657,0.00287025,-0.01624908,-0.00286972,0.00019723,-0.00100785,
 -0.00367703,0.00108144,-0.00390904,0.00020738,-0.00000623,-0.00115239,
 -0.00386511,0.00021600,-0.00024252,-0.00001933,-0.00001134,0.00004221,
 -0.00405009,-0.00026727,0.00376752,0.00015283,0.00004671,0.00111786,0.
 00615688,-0.00460091,0.01956247,-0.00210222,-0.00032473,0.00109883,0.7
 9040209,0.00396798,-0.05310250,0.01475679,0.00089543,-0.00054805,0.002
 38592,0.00014959,-0.00287938,-0.00028788,0.00074253,0.00613235,-0.0004
 6945,-0.00012901,0.00033795,-0.00025323,0.00033636,-0.00075383,0.00024
 278,0.00010723,-0.00057644,-0.00017267,0.00056375,0.00543326,-0.001321
 40,0.00014715,0.00035087,-0.00046346,-0.00251889,-0.00108911,-0.000790
 80,-0.00039200,-0.00235971,-0.00034570,-0.00571102,0.64624730,0.001660
 56,0.02326040,-0.15848695,-0.01319157,0.00225920,-0.01425069,0.0020369
 3,-0.00033515,-0.00061617,-0.00039183,-0.00010358,0.00562902,0.0007322
 6,-0.00006418,0.00194330,-0.00017896,0.00048060,-0.00158274,-0.0015430
 0,-0.00065539,0.00072444,0.00052982,-0.00048808,0.00701450,-0.00086087
 ,0.00001362,0.00194007,0.01452040,0.00129910,-0.01318019,-0.00174280,-
 0.00014020,-0.00138308,-0.01302520,0.03413965,0.48229960,-0.00579545,-
 0.01193438,-0.00066815,0.00204616,0.00034367,-0.00421421,0.00041252,-0
 .00063610,0.00031792,-0.00062808,0.00097947,-0.00015048,-0.00004586,0.
 00011534,-0.00055205,0.00022701,-0.00019706,0.00024565,0.00037387,-0.0
 0007483,-0.00012656,0.00102802,0.00078421,-0.00082089,0.00010316,0.000
 04881,-0.00042205,-0.00253352,0.00163098,-0.00011900,0.00142171,-0.000
 61228,0.00026983,-0.25189278,-0.14128290,-0.09218343,0.29073253,-0.007
 66042,0.00357224,0.00386606,0.00150357,0.00086518,-0.00401993,0.000161
 24,0.00008276,0.00004400,-0.00119427,-0.00032746,0.00023024,0.00000137
 ,0.00002419,-0.00039106,0.00039254,-0.00004133,-0.00001985,0.00014581,
 0.00003683,-0.00003026,0.00001565,-0.00017422,-0.00050377,0.00006082,0
 .00001956,-0.00018746,-0.00049432,0.00095767,0.00027417,0.00002696,-0.
 00013200,0.00021736,-0.14399309,-0.17937377,-0.07145030,0.17975992,0.1
 9631854,-0.02884556,-0.01847912,-0.00779021,0.00585453,-0.00127888,-0.
 00591013,-0.00029560,-0.00068368,0.00031726,-0.00143570,0.00207558,-0.
 00215428,-0.00004542,0.00033599,-0.00105168,-0.00129092,-0.00022256,-0
 .00000365,0.00038697,0.00003603,-0.00012971,-0.00025083,0.00060451,0.0
 0021395,0.00024250,-0.00000932,-0.00048082,-0.00110578,-0.00068575,-0.
 00228309,-0.00086895,-0.00028364,-0.00049753,-0.09201743,-0.07094806,-
 0.12429999,0.11447424,0.08478132,0.11692284,-0.01354426,0.00839288,-0.
 00120788,-0.00309676,-0.00036433,-0.00145348,0.00199649,0.00025736,-0.
 00036241,0.00123171,-0.00063184,0.00074931,0.00007808,-0.00004785,0.00
 045224,0.00039144,0.00020511,-0.00032376,-0.00011454,-0.00006318,0.000
 08130,-0.00152308,-0.00036686,0.00019238,-0.00007856,-0.00016059,0.000
 76339,0.00300824,-0.00065029,0.00629864,0.00043574,0.00026284,-0.00039
 481,-0.37292079,0.09693170,0.10121139,-0.03953712,0.00468046,0.0063148
 7,0.44089893,0.00146298,0.00529064,0.00360624,0.00042001,0.00043809,0.
 00101796,-0.00019782,-0.00009148,0.00022065,-0.00006871,-0.00022150,-0
 .00049280,0.00000588,0.00002574,-0.00006179,-0.00054845,0.00007929,-0.
 00001164,-0.00001406,0.00000381,0.00001791,0.00055831,-0.00051081,0.00
 056911,-0.00001041,-0.00015438,-0.00012466,-0.00003373,0.00150175,-0.0
 0160772,-0.00006258,0.00012634,-0.00002092,0.09520372,-0.09916345,-0.0
 3173466,-0.02099762,0.00934108,0.00086121,-0.12465318,0.11149174,0.031
 77264,-0.01028505,-0.00396943,0.00024638,0.00000251,-0.00227037,0.0018
 8759,-0.00014142,-0.00132704,0.00094874,0.00018890,-0.00005877,-0.0001
 8926,0.00001204,-0.00041460,0.00061937,-0.00013898,0.00005472,0.000332
 54,0.00008252,-0.00009448,0.00252784,0.00079549,-0.00165868,0.00011028
 ,0.00018604,-0.00106718,-0.00537141,0.00049490,-0.00742453,0.00025676,
 -0.00028274,0.00042369,0.10023335,-0.03102159,-0.11188668,-0.01106072,
 -0.00117777,0.01384638,-0.12024994,0.03814833,0.10424055,0.01062378,0.
 00092401,0.00079156,-0.00091099,-0.00023098,0.00001971,0.00018170,0.00
 002540,0.00018102,-0.00000500,-0.00036327,0.00105817,-0.00004147,0.000
 09901,0.00006731,0.00123342,-0.00008323,0.00007244,0.00004106,0.000064
 09,-0.00003711,0.00003292,-0.00010449,-0.00130300,-0.00000706,-0.00007
 530,-0.00019885,-0.00114858,0.00049372,-0.00083371,0.00012947,0.000303
 09,-0.00010097,-0.08520752,0.05647080,-0.00300332,0.00351597,-0.030687
 84,-0.00049306,-0.01980541,0.04738711,-0.00237591,0.47159491,0.0031728
 2,-0.01064032,-0.00280147,-0.00268134,-0.00072740,0.00367387,-0.000271
 80,-0.00065736,-0.00017865,0.00056018,0.00104507,0.00133903,0.00009869
 ,0.00002722,0.00066743,0.00031559,-0.00001167,-0.00019170,-0.00037531,
 -0.00037473,0.00012735,-0.00037343,0.00096797,0.00093172,-0.00016478,-
 0.00001517,0.00054980,0.00207463,-0.00016783,0.00269045,0.00001203,-0.
 00050478,-0.00029428,0.01265217,-0.29255279,0.05147639,-0.00661996,-0.
 03758375,0.00155724,0.01201431,-0.02227214,0.00140323,-0.14247347,0.41
 182693,-0.00655374,0.02422645,0.00070860,0.00383052,0.00157559,-0.0017
 2247,-0.00017858,0.00084554,0.00017908,0.00010423,-0.00179439,-0.00185
 674,-0.00013335,-0.00009124,-0.00061855,-0.00103283,-0.00010100,0.0000
 2213,0.00049665,0.00041275,-0.00015081,-0.00019827,-0.00122992,-0.0001
 5287,0.00020565,0.00003358,-0.00038763,-0.00219731,0.00134191,-0.00119
 170,0.00029030,0.00034652,0.00023581,0.00491171,0.04732936,-0.07177032
 ,-0.00336674,-0.01335817,0.01460629,0.00716324,-0.01131812,0.00636976,
 -0.07733377,-0.03805667,0.08110782,0.00107170,-0.00078741,-0.00020217,
 -0.00037413,-0.00028854,0.00008155,0.00001502,-0.00006673,0.00000877,-
 0.00006347,0.00017100,0.00031327,0.00001163,0.00002059,0.00005202,0.00
 029625,-0.00009811,0.00002479,-0.00003467,0.00000205,0.00000682,-0.000
 04723,0.00005351,-0.00027043,-0.00001989,-0.00000571,0.00002669,0.0001
 8567,-0.00016472,0.00027851,0.00000037,0.00008769,-0.00011625,-0.01117
 956,-0.01015902,0.00457879,0.00070942,-0.00267577,-0.00045983,0.002449
 87,0.00154265,0.00047726,-0.38017216,0.12189312,0.07420130,0.38714207,
 -0.00187331,-0.00016590,0.00015948,0.00028038,0.00017956,-0.00020764,-
 0.00002450,-0.00002030,-0.00000640,-0.00007019,0.00004869,-0.00026271,
 -0.00000561,-0.00002472,-0.00006532,-0.00019076,-0.00005500,-0.0000321
 6,0.00001672,0.00002907,-0.00000462,-0.00007927,-0.00002142,0.00010202
 ,0.00002331,0.00000809,-0.00001226,0.00013046,-0.00000468,0.00027460,-
 0.00022423,-0.00011562,0.00009248,0.04042537,-0.02605009,-0.00780566,-
 0.00133364,0.00638539,0.00228082,0.00421383,-0.00591024,0.00168972,0.0
 6823644,-0.04831713,-0.01021891,-0.10952094,0.07402824,0.00263402,-0.0
 0136649,-0.00014000,-0.00046070,0.00003133,0.00010926,-0.00004696,-0.0
 0011823,0.00004554,-0.00012849,0.00014021,0.00051377,0.00000548,0.0000
 2825,0.00006152,0.00050128,0.00007793,0.00007179,-0.00003543,-0.000038
 69,-0.00000444,-0.00002225,-0.00008611,-0.00050805,-0.00002093,-0.0000
 3273,-0.00001376,-0.00002923,0.00017598,-0.00012333,0.00010272,0.00019
 540,-0.00004820,-0.00610824,0.00757749,-0.00523327,-0.00108869,0.00199
 991,-0.00034979,0.00019362,0.00097475,0.00604095,0.08358449,-0.0236502
 7,-0.02443783,-0.07907967,0.01408961,0.02394873,0.00072120,-0.00002269
 ,-0.00048644,-0.00047133,-0.00031141,-0.00018460,0.00000429,0.00002647
 ,0.00007851,0.00030146,0.00005444,0.00117284,0.00023905,0.00025786,0.0
 0010185,-0.00116260,-0.00088129,0.00170250,-0.12547631,0.10937394,0.05
 839470,-0.00020100,0.00006862,-0.00209812,0.00000921,0.00044718,0.0001
 2417,-0.00024702,-0.00057596,0.00113400,-0.00001768,0.00001017,0.00004
 467,0.00002945,0.00010691,0.00032666,-0.00002475,-0.00001940,-0.000016
 06,0.00002747,-0.00000870,-0.00002842,-0.00002051,0.00007291,-0.000117
 43,0.00000505,-0.00000154,0.00000201,0.13119503,-0.00044283,-0.0000326
 8,0.00004794,0.00000416,-0.00045718,0.00042092,-0.00000748,0.00001006,
 0.00004286,-0.00019429,-0.00033129,0.00038790,0.00001393,0.00019000,0.
 00006997,-0.00423351,0.00553383,0.00363640,0.10938521,-0.19526720,-0.0
 8498559,-0.00002311,0.00070023,0.00042485,-0.00003154,-0.00022289,-0.0
 0024117,0.00010981,0.00018211,-0.00048275,0.00000539,-0.00000140,-0.00
 002864,-0.00002205,-0.00001334,0.00001749,0.00000147,0.00000114,-0.000
 01768,0.00001386,0.00000318,-0.00000838,0.00000605,0.00001148,-0.00001
 169,0.00000325,-0.00000076,0.00000585,-0.11916323,0.20901127,0.0002027
 7,-0.00012065,-0.00056360,0.00083791,0.00139930,-0.00033551,0.00001014
 ,0.00005453,-0.00033362,-0.00153455,0.00025582,-0.00364863,0.00000123,
 -0.00047027,-0.00002176,0.01840665,-0.02368519,-0.01498096,0.05830389,
 -0.08453237,-0.09309742,0.00102836,0.00052268,0.00107282,-0.00053790,-
 0.00037309,0.00007510,0.00023549,0.00076801,0.00025600,-0.00004293,-0.
 00004892,-0.00002756,-0.00004515,-0.00021521,0.00115503,-0.00023389,-0
 .00009953,-0.00036649,0.00019863,-0.00001293,-0.00029270,-0.00001790,0
 .00025417,-0.00033557,0.00002820,-0.00002905,0.00002436,-0.06613265,0.
 09033945,0.10275246,0.00015872,-0.00002604,-0.00005976,0.00027747,0.00
 017354,-0.00012632,-0.00000951,-0.00000195,-0.00004792,0.00070842,-0.0
 0018252,0.00176181,0.00021067,-0.00007946,-0.00019665,0.00249956,0.000
 22640,0.00236877,-0.28374968,-0.00017863,-0.10257893,0.00070065,-0.000
 15319,0.00009357,0.00012708,-0.00001157,0.00011563,-0.00007738,-0.0000
 5548,0.00030197,0.00001072,0.00000163,-0.00003216,0.00000849,-0.000063
 02,0.00024905,-0.00005076,-0.00001621,-0.00007989,0.00005644,-0.000004
 36,-0.00008186,-0.00001109,0.00006247,-0.00006569,0.00000460,-0.000004
 29,0.00000272,-0.01359202,-0.00128515,-0.00605156,0.30410989,0.0001219
 2,0.00001100,-0.00006591,-0.00004404,-0.00013577,-0.00006479,-0.000003
 10,-0.00004296,-0.00000484,0.00020228,-0.00001933,-0.00014167,-0.00005
 461,0.00009003,-0.00008527,0.00415581,-0.00156777,0.00200075,-0.000798
 90,-0.04802800,-0.00095391,-0.00024081,0.00112694,0.00082379,-0.000066
 49,-0.00014038,-0.00000765,0.00017776,0.00036663,0.00031586,-0.0000125
 8,-0.00016680,0.00005356,-0.00000365,0.00000223,-0.00000461,-0.0000040
 2,-0.00000137,0.00001330,-0.00000351,0.00000625,0.00000778,0.00000377,
 -0.00000303,-0.00000377,0.00000018,0.00000139,0.00000210,0.02185525,0.
 00116462,0.01094836,0.00073391,0.04576336,0.00028256,-0.00003000,-0.00
 018909,-0.00021453,0.00006813,-0.00002248,0.00001876,-0.00001238,0.000
 02905,-0.00173998,0.00005260,0.00121319,0.00086321,-0.00007995,-0.0000
 0685,-0.03116733,-0.00017768,-0.01275927,-0.09757183,-0.00060655,-0.09
 165213,0.00188931,0.00068385,-0.00639288,0.00005046,-0.00008506,0.0000
 6330,-0.00180433,0.00037118,-0.00011833,0.00004076,0.00005134,-0.00050
 869,-0.00000325,-0.00010996,0.00068903,-0.00008685,-0.00005376,-0.0002
 1011,0.00015896,-0.00001396,-0.00018803,-0.00002601,0.00015790,-0.0001
 8277,0.00001608,-0.00001827,0.00001178,0.01291858,0.00173585,0.0057538
 6,0.10906340,-0.00077471,0.10176824,0.00105524,-0.00005828,-0.00043718
 ,-0.00054276,0.00058244,-0.00043647,-0.00000524,-0.00005882,0.00005513
 ,0.00003586,-0.00006012,0.00145790,0.00011503,-0.00036900,0.00004271,-
 0.00061697,0.00014856,0.00181318,-0.10024680,-0.10594686,0.02493970,-0
 .00043256,0.00030663,-0.00211495,-0.00009512,-0.00036645,0.00008243,-0
 .00043169,0.00011032,0.00147721,-0.00001806,0.00000201,0.00004133,0.00
 004180,-0.00016360,0.00027512,-0.00006206,-0.00000701,-0.00006806,0.00
 004610,0.00001894,-0.00005521,-0.00002345,0.00003118,-0.00002590,-0.00
 000056,0.00000178,-0.00000575,0.00868102,0.01586006,-0.00465674,-0.011
 38227,-0.02601915,0.00731200,0.10388248,0.00014099,-0.00008419,-0.0001
 1086,-0.00010221,-0.00008904,0.00009550,0.00000836,0.00003052,0.000048
 99,0.00068055,-0.00042231,0.00002708,0.00003872,0.00003311,-0.00000608
 ,-0.00018182,0.00011306,0.00099725,-0.10591329,-0.25119048,0.05325359,
 -0.00028564,0.00091386,-0.00020756,0.00007010,-0.00036784,0.00011289,-
 0.00003022,0.00029764,0.00046524,0.00000180,-0.00001415,0.00004048,0.0
 0001472,-0.00004150,-0.00016465,0.00002892,0.00002930,0.00006268,-0.00
 003073,0.00001607,0.00004446,0.00000509,-0.00005058,0.00007216,-0.0000
 0709,0.00000542,-0.00000629,-0.01128955,-0.02048118,0.00504490,0.00086
 392,0.00157296,-0.00115856,0.11598738,0.26972933,0.00033142,0.00007459
 ,-0.00062943,0.00025342,-0.00149632,-0.00078999,0.00002967,0.00005285,
 -0.00024445,-0.00138215,0.00028199,-0.00246238,0.00010989,0.00055042,0
 .00007911,0.01577811,0.02921744,-0.00965814,0.02561166,0.05440212,-0.0
 5883973,0.00087336,-0.00064806,0.00045930,-0.00038537,0.00039393,0.000
 21259,0.00013520,-0.00103275,0.00006830,-0.00004320,0.00007901,-0.0000
 2530,-0.00002621,-0.00003256,0.00129509,-0.00021392,-0.00012123,-0.000
 37926,0.00021430,-0.00001697,-0.00032357,-0.00005110,0.00034445,-0.000
 42223,0.00003431,-0.00002572,0.00003100,-0.00693677,-0.01135357,0.0029
 1421,-0.00463616,-0.01205839,0.00270221,-0.02969646,-0.05861123,0.0660
 1268\\0.00001848,-0.00000435,0.00000797,-0.00000935,-0.00000550,-0.000
 00219,0.00000058,-0.00000789,0.00000088,-0.00000379,-0.00000503,0.0000
 0536,-0.00000150,-0.00000867,-0.00000039,0.00000803,-0.00000213,0.0000
 0314,-0.00000027,-0.00000080,-0.00000439,-0.00000932,0.00000496,-0.000
 00982,-0.00000059,0.00000676,-0.00000052,-0.00000387,0.00000499,0.0000
 0885,-0.00000029,0.00000842,-0.00000095,0.00001469,0.00000603,-0.00000
 463,0.00000407,0.00001491,-0.00000372,-0.00000934,-0.00001533,0.000003
 65,0.00000279,0.00001274,-0.00000653,0.00000191,-0.00000062,0.00000323
 ,-0.00000178,-0.00000015,0.00000050,-0.00000214,-0.00000628,0.00000046
 ,-0.00000829,-0.00000206,-0.00000090\\\@
 The archive entry for this job was punched.


 Life may have no meaning.  Or even worse, it may have a
 meaning of which I disapprove.
                                 -- Ashleigh Brilliant
 Job cpu time:       0 days  0 hours 47 minutes 14.8 seconds.
 Elapsed time:       0 days  0 hours  2 minutes 59.8 seconds.
 File lengths (MBytes):  RWF=    164 Int=      0 D2E=      0 Chk=     11 Scr=      1
 Normal termination of Gaussian 16 at Thu May 19 14:57:05 2022.
