 Entering Gaussian System, Link 0=g16
 AtFile(1): //home/561/yj5695//Basis/6-31pGd.gbs
 Initial command:
 /apps/gaussian/g16c01/g16/l1.exe "/jobfs/40645255.gadi-pbs/Gau-1110711.inp" -scrdir="/jobfs/40645255.gadi-pbs/"
 Entering Link 1 = /apps/gaussian/g16c01/g16/l1.exe PID=   1110712.
  
 Copyright (c) 1988-2019, Gaussian, Inc.  All Rights Reserved.
  
 This is part of the Gaussian(R) 16 program.  It is based on
 the Gaussian(R) 09 system (copyright 2009, Gaussian, Inc.),
 the Gaussian(R) 03 system (copyright 2003, Gaussian, Inc.),
 the Gaussian(R) 98 system (copyright 1998, Gaussian, Inc.),
 the Gaussian(R) 94 system (copyright 1995, Gaussian, Inc.),
 the Gaussian 92(TM) system (copyright 1992, Gaussian, Inc.),
 the Gaussian 90(TM) system (copyright 1990, Gaussian, Inc.),
 the Gaussian 88(TM) system (copyright 1988, Gaussian, Inc.),
 the Gaussian 86(TM) system (copyright 1986, Carnegie Mellon
 University), and the Gaussian 82(TM) system (copyright 1983,
 Carnegie Mellon University). Gaussian is a federally registered
 trademark of Gaussian, Inc.
  
 This software contains proprietary and confidential information,
 including trade secrets, belonging to Gaussian, Inc.
  
 This software is provided under written license and may be
 used, copied, transmitted, or stored only in accord with that
 written license.
  
 The following legend is applicable only to US Government
 contracts under FAR:
  
                    RESTRICTED RIGHTS LEGEND
  
 Use, reproduction and disclosure by the US Government is
 subject to restrictions as set forth in subparagraphs (a)
 and (c) of the Commercial Computer Software - Restricted
 Rights clause in FAR 52.227-19.
  
 Gaussian, Inc.
 340 Quinnipiac St., Bldg. 40, Wallingford CT 06492
  
  
 ---------------------------------------------------------------
 Warning -- This program may not be used in any manner that
 competes with the business of Gaussian, Inc. or will provide
 assistance to any competitor of Gaussian, Inc.  The licensee
 of this program is prohibited from giving any competitor of
 Gaussian, Inc. access to this program.  By using this program,
 the user acknowledges that Gaussian, Inc. is engaged in the
 business of creating and licensing software in the field of
 computational chemistry and represents and warrants to the
 licensee that it is not a competitor of Gaussian, Inc. and that
 it will not use this program in any manner prohibited above.
 ---------------------------------------------------------------
  

 Cite this work as:
 Gaussian 16, Revision C.01,
 M. J. Frisch, G. W. Trucks, H. B. Schlegel, G. E. Scuseria, 
 M. A. Robb, J. R. Cheeseman, G. Scalmani, V. Barone, 
 G. A. Petersson, H. Nakatsuji, X. Li, M. Caricato, A. V. Marenich, 
 J. Bloino, B. G. Janesko, R. Gomperts, B. Mennucci, H. P. Hratchian, 
 J. V. Ortiz, A. F. Izmaylov, J. L. Sonnenberg, D. Williams-Young, 
 F. Ding, F. Lipparini, F. Egidi, J. Goings, B. Peng, A. Petrone, 
 T. Henderson, D. Ranasinghe, V. G. Zakrzewski, J. Gao, N. Rega, 
 G. Zheng, W. Liang, M. Hada, M. Ehara, K. Toyota, R. Fukuda, 
 J. Hasegawa, M. Ishida, T. Nakajima, Y. Honda, O. Kitao, H. Nakai, 
 T. Vreven, K. Throssell, J. A. Montgomery, Jr., J. E. Peralta, 
 F. Ogliaro, M. J. Bearpark, J. J. Heyd, E. N. Brothers, K. N. Kudin, 
 V. N. Staroverov, T. A. Keith, R. Kobayashi, J. Normand, 
 K. Raghavachari, A. P. Rendell, J. C. Burant, S. S. Iyengar, 
 J. Tomasi, M. Cossi, J. M. Millam, M. Klene, C. Adamo, R. Cammi, 
 J. W. Ochterski, R. L. Martin, K. Morokuma, O. Farkas, 
 J. B. Foresman, and D. J. Fox, Gaussian, Inc., Wallingford CT, 2019.
 
 ******************************************
 Gaussian 16:  ES64L-G16RevC.01  3-Jul-2019
                19-May-2022 
 ******************************************
 %nproc=16
 Will use up to   16 processors via shared memory.
 %mem=20gb
 -----------------------------------------------------
 #m062X/gen 6D OPT Freq=noraman SCRF=(SMD,Solvent=h2o)
 -----------------------------------------------------
 1/18=20,19=15,26=3,38=1/1,3;
 2/9=110,12=2,17=6,18=5,40=1/2;
 3/5=7,8=2,11=2,25=1,30=1,70=32201,71=1,72=1,74=-55/1,2,3;
 4//1;
 5/5=2,38=5,53=1/2;
 6/7=2,8=2,9=2,10=2,28=1/1;
 7//1,2,3,16;
 1/18=20,19=15,26=3/3(2);
 2/9=110/2;
 99//99;
 2/9=110/2;
 3/5=7,6=1,8=2,11=2,25=1,30=1,70=32205,71=1,72=1,74=-55,82=7/1,2,3;
 4/5=5,16=3,69=1/1;
 5/5=2,38=5,53=1/2;
 7//1,2,3,16;
 1/18=20,19=15,26=3/3(-5);
 2/9=110/2;
 6/7=2,8=2,9=2,10=2,19=2,28=1/1;
 99/9=1/99;
 -----
 a1 b1
 -----
 Symbolic Z-matrix:
 Charge = -1 Multiplicity = 1
 C                    -1.3828    0.66721  -0.83495 
 C                    -2.57732   0.78248  -1.54262 
 H                    -3.52629   0.78319  -1.01617 
 C                    -2.55129   0.9062   -2.93117 
 H                    -3.4624    1.00512  -3.51219 
 C                    -1.31928   0.90339  -3.56437 
 C                    -0.11578   0.78632  -2.88471 
 H                     0.82156   0.79313  -3.4313 
 C                    -0.15495   0.66498  -1.49845 
 H                     0.77252   0.57467  -0.94003 
 S                    -1.41135   0.41442   0.94796 
 O                    -0.28965   1.27238   1.44097 
 O                    -2.75703   0.8771    1.38154 
 N                    -1.26461  -1.10807   1.27384 
 H                    -0.29936  -1.38084   1.06801 
 F                    -1.2868    1.02389  -4.91236 
 

 GradGradGradGradGradGradGradGradGradGradGradGradGradGradGradGradGradGrad
 Berny optimization.
 Initialization pass.
                           ----------------------------
                           !    Initial Parameters    !
                           ! (Angstroms and Degrees)  !
 --------------------------                            --------------------------
 ! Name  Definition              Value          Derivative Info.                !
 --------------------------------------------------------------------------------
 ! R1    R(1,2)                  1.3932         estimate D2E/DX2                !
 ! R2    R(1,9)                  1.3957         estimate D2E/DX2                !
 ! R3    R(1,11)                 1.801          estimate D2E/DX2                !
 ! R4    R(2,3)                  1.0852         estimate D2E/DX2                !
 ! R5    R(2,4)                  1.3943         estimate D2E/DX2                !
 ! R6    R(4,5)                  1.0851         estimate D2E/DX2                !
 ! R7    R(4,6)                  1.3852         estimate D2E/DX2                !
 ! R8    R(6,7)                  1.3871         estimate D2E/DX2                !
 ! R9    R(6,16)                 1.3538         estimate D2E/DX2                !
 ! R10   R(7,8)                  1.0851         estimate D2E/DX2                !
 ! R11   R(7,9)                  1.3921         estimate D2E/DX2                !
 ! R12   R(9,10)                 1.0864         estimate D2E/DX2                !
 ! R13   R(11,12)                1.4958         estimate D2E/DX2                !
 ! R14   R(11,13)                1.4876         estimate D2E/DX2                !
 ! R15   R(11,14)                1.5639         estimate D2E/DX2                !
 ! R16   R(14,15)                1.024          estimate D2E/DX2                !
 ! A1    A(2,1,9)              120.8615         estimate D2E/DX2                !
 ! A2    A(2,1,11)             120.0579         estimate D2E/DX2                !
 ! A3    A(9,1,11)             118.9708         estimate D2E/DX2                !
 ! A4    A(1,2,3)              120.2255         estimate D2E/DX2                !
 ! A5    A(1,2,4)              119.8142         estimate D2E/DX2                !
 ! A6    A(3,2,4)              119.9589         estimate D2E/DX2                !
 ! A7    A(2,4,5)              121.7119         estimate D2E/DX2                !
 ! A8    A(2,4,6)              118.1421         estimate D2E/DX2                !
 ! A9    A(5,4,6)              120.1459         estimate D2E/DX2                !
 ! A10   A(4,6,7)              123.2207         estimate D2E/DX2                !
 ! A11   A(4,6,16)             118.4459         estimate D2E/DX2                !
 ! A12   A(7,6,16)             118.3332         estimate D2E/DX2                !
 ! A13   A(6,7,8)              120.1418         estimate D2E/DX2                !
 ! A14   A(6,7,9)              118.0907         estimate D2E/DX2                !
 ! A15   A(8,7,9)              121.7673         estimate D2E/DX2                !
 ! A16   A(1,9,7)              119.8695         estimate D2E/DX2                !
 ! A17   A(1,9,10)             120.454          estimate D2E/DX2                !
 ! A18   A(7,9,10)             119.6756         estimate D2E/DX2                !
 ! A19   A(1,11,12)            103.5268         estimate D2E/DX2                !
 ! A20   A(1,11,13)            105.0245         estimate D2E/DX2                !
 ! A21   A(1,11,14)            109.9653         estimate D2E/DX2                !
 ! A22   A(12,11,13)           113.8222         estimate D2E/DX2                !
 ! A23   A(12,11,14)           114.7941         estimate D2E/DX2                !
 ! A24   A(13,11,14)           109.0831         estimate D2E/DX2                !
 ! A25   A(11,14,15)           107.8124         estimate D2E/DX2                !
 ! D1    D(9,1,2,3)           -179.992          estimate D2E/DX2                !
 ! D2    D(9,1,2,4)             -0.4183         estimate D2E/DX2                !
 ! D3    D(11,1,2,3)             3.8562         estimate D2E/DX2                !
 ! D4    D(11,1,2,4)          -176.5701         estimate D2E/DX2                !
 ! D5    D(2,1,9,7)              0.3449         estimate D2E/DX2                !
 ! D6    D(2,1,9,10)          -179.9966         estimate D2E/DX2                !
 ! D7    D(11,1,9,7)           176.5379         estimate D2E/DX2                !
 ! D8    D(11,1,9,10)           -3.8036         estimate D2E/DX2                !
 ! D9    D(2,1,11,12)         -140.1215         estimate D2E/DX2                !
 ! D10   D(2,1,11,13)          -20.4716         estimate D2E/DX2                !
 ! D11   D(2,1,11,14)           96.7649         estimate D2E/DX2                !
 ! D12   D(9,1,11,12)           43.6542         estimate D2E/DX2                !
 ! D13   D(9,1,11,13)          163.3041         estimate D2E/DX2                !
 ! D14   D(9,1,11,14)          -79.4594         estimate D2E/DX2                !
 ! D15   D(1,2,4,5)           -179.5503         estimate D2E/DX2                !
 ! D16   D(1,2,4,6)              0.3018         estimate D2E/DX2                !
 ! D17   D(3,2,4,5)              0.0246         estimate D2E/DX2                !
 ! D18   D(3,2,4,6)            179.8767         estimate D2E/DX2                !
 ! D19   D(2,4,6,7)             -0.1235         estimate D2E/DX2                !
 ! D20   D(2,4,6,16)          -179.9645         estimate D2E/DX2                !
 ! D21   D(5,4,6,7)            179.731          estimate D2E/DX2                !
 ! D22   D(5,4,6,16)            -0.11           estimate D2E/DX2                !
 ! D23   D(4,6,7,8)           -179.8033         estimate D2E/DX2                !
 ! D24   D(4,6,7,9)              0.0515         estimate D2E/DX2                !
 ! D25   D(16,6,7,8)             0.0379         estimate D2E/DX2                !
 ! D26   D(16,6,7,9)           179.8927         estimate D2E/DX2                !
 ! D27   D(6,7,9,1)             -0.158          estimate D2E/DX2                !
 ! D28   D(6,7,9,10)          -179.8192         estimate D2E/DX2                !
 ! D29   D(8,7,9,1)            179.6942         estimate D2E/DX2                !
 ! D30   D(8,7,9,10)             0.0331         estimate D2E/DX2                !
 ! D31   D(1,11,14,15)          71.6981         estimate D2E/DX2                !
 ! D32   D(12,11,14,15)        -44.5298         estimate D2E/DX2                !
 ! D33   D(13,11,14,15)       -173.6236         estimate D2E/DX2                !
 --------------------------------------------------------------------------------
 Trust Radius=3.00D-01 FncErr=1.00D-07 GrdErr=1.00D-06 EigMax=2.50D+02 EigMin=1.00D-04
 Number of steps in this run=     84 maximum allowed number of steps=    100.
 GradGradGradGradGradGradGradGradGradGradGradGradGradGradGradGradGradGrad

                          Input orientation:                          
 ---------------------------------------------------------------------
 Center     Atomic      Atomic             Coordinates (Angstroms)
 Number     Number       Type             X           Y           Z
 ---------------------------------------------------------------------
      1          6           0       -1.382798    0.667205   -0.834951
      2          6           0       -2.577321    0.782482   -1.542615
      3          1           0       -3.526286    0.783194   -1.016170
      4          6           0       -2.551290    0.906201   -2.931169
      5          1           0       -3.462395    1.005118   -3.512185
      6          6           0       -1.319278    0.903394   -3.564373
      7          6           0       -0.115779    0.786315   -2.884708
      8          1           0        0.821559    0.793128   -3.431300
      9          6           0       -0.154954    0.664978   -1.498453
     10          1           0        0.772521    0.574667   -0.940026
     11         16           0       -1.411350    0.414420    0.947957
     12          8           0       -0.289653    1.272379    1.440971
     13          8           0       -2.757034    0.877102    1.381544
     14          7           0       -1.264611   -1.108067    1.273840
     15          1           0       -0.299360   -1.380835    1.068012
     16          9           0       -1.286799    1.023890   -4.912364
 ---------------------------------------------------------------------
                    Distance matrix (angstroms):
                    1          2          3          4          5
     1  C    0.000000
     2  C    1.393184   0.000000
     3  H    2.154260   1.085209   0.000000
     4  C    2.411768   1.394298   2.152433   0.000000
     5  H    3.406830   2.170744   2.506676   1.085116   0.000000
     6  C    2.740358   2.384281   3.373229   1.385211   2.146164
     7  C    2.412681   2.803644   3.888830   2.438902   3.411956
     8  H    3.408236   3.888397   4.973601   3.411602   4.289959
     9  C    1.395651   2.425617   3.407705   2.802372   3.887155
    10  H    2.159862   3.409948   4.304535   3.888738   4.973510
    11  S    1.800965   2.774510   2.909767   4.072951   4.944550
    12  O    2.596348   3.791465   4.092999   4.936061   5.888249
    13  O    2.616378   2.931204   2.519841   4.317716   4.945959
    14  N    2.759087   3.637279   3.733120   4.836829   5.674667
    15  H    2.998262   4.084657   4.409069   5.127882   6.056052
    16  F    4.094110   3.616481   4.500396   2.353279   2.587290
                    6          7          8          9         10
     6  C    0.000000
     7  C    1.387106   0.000000
     8  H    2.147801   1.085086   0.000000
     9  C    2.383384   1.392106   2.169308   0.000000
    10  H    3.372074   2.148409   2.501315   1.086373   0.000000
    11  S    4.539680   4.062774   4.930233   2.761563   2.891272
    12  O    5.123451   4.356373   5.020309   3.004545   2.698919
    13  O    5.150721   5.018503   5.998070   3.887184   4.235435
    14  N    5.239968   4.711902   5.486801   3.472843   3.447130
    15  H    5.264687   4.511567   5.121170   3.285262   3.000855
    16  F    1.353755   2.353533   2.586885   3.614510   4.496896
                   11         12         13         14         15
    11  S    0.000000
    12  O    1.495781   0.000000
    13  O    1.487595   2.499549   0.000000
    14  N    1.563873   2.577790   2.485925   0.000000
    15  H    2.115154   2.679317   3.352125   1.023952   0.000000
    16  F    5.893244   6.435908   6.465015   6.543306   6.520938
                   16
    16  F    0.000000
 Stoichiometry    C6H5FNO2S(1-)
 Framework group  C1[X(C6H5FNO2S)]
 Deg. of freedom    42
 Full point group                 C1      NOp   1
 Largest Abelian subgroup         C1      NOp   1
 Largest concise Abelian subgroup C1      NOp   1
                         Standard orientation:                         
 ---------------------------------------------------------------------
 Center     Atomic      Atomic             Coordinates (Angstroms)
 Number     Number       Type             X           Y           Z
 ---------------------------------------------------------------------
      1          6           0        0.113463    0.017193   -0.057868
      2          6           0       -0.581720    1.223798   -0.015607
      3          1           0       -0.042253    2.165422   -0.016641
      4          6           0       -1.975579    1.219938    0.019140
      5          1           0       -2.548051    2.141389    0.045203
      6          6           0       -2.625808   -0.003175    0.016592
      7          6           0       -1.958390   -1.218570   -0.021243
      8          1           0       -2.518522   -2.147899   -0.024627
      9          6           0       -0.566856   -1.201416   -0.057257
     10          1           0       -0.018088   -2.138415   -0.090299
     11         16           0        1.913773    0.011204   -0.009669
     12          8           0        2.286392   -1.057506   -0.987613
     13          8           0        2.315431    1.379562   -0.432995
     14          7           0        2.407965   -0.237156    1.453133
     15          1           0        2.217624   -1.215910    1.686132
     16          9           0       -3.979120   -0.014091    0.049481
 ---------------------------------------------------------------------
 Rotational constants (GHZ):           2.6413412           0.5486231           0.5002454
 General basis read from cards:  (6D, 7F)
 There are   223 symmetry adapted cartesian basis functions of A   symmetry.
 There are   223 symmetry adapted basis functions of A   symmetry.
   223 basis functions,   396 primitive gaussians,   223 cartesian basis functions
    45 alpha electrons       45 beta electrons
       nuclear repulsion energy       709.0767946032 Hartrees.
 NAtoms=   16 NActive=   16 NUniq=   16 SFac= 1.00D+00 NAtFMM=   60 NAOKFM=F Big=F
 Integral buffers will be    131072 words long.
 Raffenetti 2 integral format.
 Two-electron integral symmetry is turned on.
 ------------------------------------------------------------------------------
 Polarizable Continuum Model (PCM)
 =================================
 Model                : PCM.
 Atomic radii         : SMD-Coulomb.
 Polarization charges : Total charges.
 Charge compensation  : None.
 Solution method      : On-the-fly selection.
 Cavity type          : VdW (van der Waals Surface) (Alpha=1.000).
 Cavity algorithm     : GePol (No added spheres)
                        Default sphere list used, NSphG=   16.
                        Lebedev-Laikov grids with approx.  5.0 points / Ang**2.
                        Smoothing algorithm: York/Karplus (Gamma=1.0000).
                        Polarization charges: spherical gaussians, with
                                              point-specific exponents (IZeta= 3).
                        Self-potential: point-specific (ISelfS= 7).
                        Self-field    : sphere-specific E.n sum rule (ISelfD= 2).
 1st derivatives      : Analytical E(r).r(x)/FMM algorithm (CHGder, D1EAlg=3).
                        Cavity 1st derivative terms included.
 Solvent              : Water, Eps=  78.355300 Eps(inf)=   1.777849
 ------------------------------------------------------------------------------
 Spheres list:
 ISph  on   Nord     Re0    Alpha      Xe            Ye            Ze
    1   C      1    1.8500  1.000      0.113463      0.017193     -0.057868
    2   C      2    1.8500  1.000     -0.581720      1.223798     -0.015607
    3   H      3    1.2000  1.000     -0.042253      2.165422     -0.016641
    4   C      4    1.8500  1.000     -1.975579      1.219938      0.019140
    5   H      5    1.2000  1.000     -2.548051      2.141389      0.045203
    6   C      6    1.8500  1.000     -2.625808     -0.003175      0.016592
    7   C      7    1.8500  1.000     -1.958390     -1.218570     -0.021243
    8   H      8    1.2000  1.000     -2.518522     -2.147899     -0.024627
    9   C      9    1.8500  1.000     -0.566856     -1.201416     -0.057257
   10   H     10    1.2000  1.000     -0.018088     -2.138415     -0.090299
   11   S     11    2.4900  1.000      1.913773      0.011204     -0.009669
   12   O     12    1.5200  1.000      2.286392     -1.057506     -0.987613
   13   O     13    1.5200  1.000      2.315431      1.379562     -0.432995
   14   N     14    1.8900  1.000      2.407965     -0.237156      1.453133
   15   H     15    1.2000  1.000      2.217624     -1.215910      1.686132
   16   F     16    1.7300  1.000     -3.979120     -0.014091      0.049481
 ------------------------------------------------------------------------------
 ------------------------------------------------------------------------------
 Atomic radii for non-electrostatic terms: SMD-CDS.
 ------------------------------------------------------------------------------
 Nuclear repulsion after PCM non-electrostatic terms =      709.0825035247 Hartrees.
 One-electron integrals computed using PRISM.
 NBasis=   223 RedAO= T EigKep=  3.50D-06  NBF=   223
 NBsUse=   223 1.00D-06 EigRej= -1.00D+00 NBFU=   223
 ExpMin= 4.05D-02 ExpMax= 2.19D+04 ExpMxC= 3.30D+03 IAcc=3 IRadAn=         5 AccDes= 0.00D+00
 Harris functional with IExCor= 1009 and IRadAn=       5 diagonalized for initial guess.
 HarFok:  IExCor= 1009 AccDes= 0.00D+00 IRadAn=         5 IDoV= 1 UseB2=F ITyADJ=14
 ICtDFT=  3500011 ScaDFX=  1.000000  1.000000  1.000000  1.000000
 FoFCou: FMM=F IPFlag=           0 FMFlag=      100000 FMFlg1=           0
         NFxFlg=           0 DoJE=T BraDBF=F KetDBF=T FulRan=T
         wScrn=  0.000000 ICntrl=       500 IOpCl=  0 I1Cent=   200000004 NGrid=           0
         NMat0=    1 NMatS0=      1 NMatT0=    0 NMatD0=    1 NMtDS0=    0 NMtDT0=    0
 Petite list used in FoFCou.
 Requested convergence on RMS density matrix=1.00D-08 within 128 cycles.
 Requested convergence on MAX density matrix=1.00D-06.
 Requested convergence on             energy=1.00D-06.
 No special actions if energy rises.
 Inv3:  Mode=1 IEnd=     5964300.
 Iteration    1 A*A^-1 deviation from unit magnitude is 3.77D-15 for   1399.
 Iteration    1 A*A^-1 deviation from orthogonality  is 3.41D-15 for   1404    185.
 Iteration    1 A^-1*A deviation from unit magnitude is 4.00D-15 for   1399.
 Iteration    1 A^-1*A deviation from orthogonality  is 4.98D-14 for    514    473.
 Error on total polarization charges =  0.04582
 SCF Done:  E(RM062X) =  -934.734169018     A.U. after   16 cycles
            NFock= 16  Conv=0.27D-08     -V/T= 2.0063
 SMD-CDS (non-electrostatic) energy       (kcal/mol) =       3.58
 (included in total energy above)

 **********************************************************************

            Population analysis using the SCF Density.

 **********************************************************************

 Orbital symmetries:
       Occupied  (A) (A) (A) (A) (A) (A) (A) (A) (A) (A) (A) (A)
                 (A) (A) (A) (A) (A) (A) (A) (A) (A) (A) (A) (A)
                 (A) (A) (A) (A) (A) (A) (A) (A) (A) (A) (A) (A)
                 (A) (A) (A) (A) (A) (A) (A) (A) (A)
       Virtual   (A) (A) (A) (A) (A) (A) (A) (A) (A) (A) (A) (A)
                 (A) (A) (A) (A) (A) (A) (A) (A) (A) (A) (A) (A)
                 (A) (A) (A) (A) (A) (A) (A) (A) (A) (A) (A) (A)
                 (A) (A) (A) (A) (A) (A) (A) (A) (A) (A) (A) (A)
                 (A) (A) (A) (A) (A) (A) (A) (A) (A) (A) (A) (A)
                 (A) (A) (A) (A) (A) (A) (A) (A) (A) (A) (A) (A)
                 (A) (A) (A) (A) (A) (A) (A) (A) (A) (A) (A) (A)
                 (A) (A) (A) (A) (A) (A) (A) (A) (A) (A) (A) (A)
                 (A) (A) (A) (A) (A) (A) (A) (A) (A) (A) (A) (A)
                 (A) (A) (A) (A) (A) (A) (A) (A) (A) (A) (A) (A)
                 (A) (A) (A) (A) (A) (A) (A) (A) (A) (A) (A) (A)
                 (A) (A) (A) (A) (A) (A) (A) (A) (A) (A) (A) (A)
                 (A) (A) (A) (A) (A) (A) (A) (A) (A) (A) (A) (A)
                 (A) (A) (A) (A) (A) (A) (A) (A) (A) (A) (A) (A)
                 (A) (A) (A) (A) (A) (A) (A) (A) (A) (A)
 The electronic state is 1-A.
 Alpha  occ. eigenvalues --  -90.13447 -25.28534 -19.62022 -19.61902 -14.71778
 Alpha  occ. eigenvalues --  -10.64722 -10.57878 -10.57245 -10.57137 -10.56672
 Alpha  occ. eigenvalues --  -10.56625  -8.44336  -6.36581  -6.36485  -6.36404
 Alpha  occ. eigenvalues --   -1.37766  -1.20707  -1.09129  -0.98205  -0.95837
 Alpha  occ. eigenvalues --   -0.86382  -0.86345  -0.73539  -0.71908  -0.66765
 Alpha  occ. eigenvalues --   -0.63394  -0.59462  -0.58324  -0.57203  -0.55287
 Alpha  occ. eigenvalues --   -0.52684  -0.52237  -0.50545  -0.48715  -0.47968
 Alpha  occ. eigenvalues --   -0.45067  -0.42042  -0.41452  -0.39388  -0.37382
 Alpha  occ. eigenvalues --   -0.36111  -0.33230  -0.32356  -0.32142  -0.28450
 Alpha virt. eigenvalues --    0.00630   0.00965   0.02045   0.03452   0.04234
 Alpha virt. eigenvalues --    0.04807   0.05169   0.05913   0.06725   0.08302
 Alpha virt. eigenvalues --    0.08531   0.08620   0.09753   0.10560   0.11826
 Alpha virt. eigenvalues --    0.12388   0.13577   0.13996   0.14159   0.14764
 Alpha virt. eigenvalues --    0.15648   0.15927   0.16440   0.16928   0.18226
 Alpha virt. eigenvalues --    0.18671   0.19259   0.19459   0.20601   0.20844
 Alpha virt. eigenvalues --    0.20978   0.23046   0.23511   0.23977   0.24912
 Alpha virt. eigenvalues --    0.24959   0.25673   0.26641   0.26718   0.27372
 Alpha virt. eigenvalues --    0.29116   0.29167   0.30020   0.30274   0.31133
 Alpha virt. eigenvalues --    0.31910   0.32890   0.33914   0.34425   0.34635
 Alpha virt. eigenvalues --    0.35932   0.36678   0.37630   0.38856   0.40215
 Alpha virt. eigenvalues --    0.41502   0.41897   0.42772   0.43671   0.46268
 Alpha virt. eigenvalues --    0.48908   0.57094   0.59361   0.61651   0.65545
 Alpha virt. eigenvalues --    0.68039   0.70635   0.71316   0.71911   0.72864
 Alpha virt. eigenvalues --    0.75853   0.76982   0.77037   0.78005   0.78735
 Alpha virt. eigenvalues --    0.81669   0.83371   0.85175   0.90671   0.92313
 Alpha virt. eigenvalues --    0.95502   0.96971   0.97767   1.00121   1.03037
 Alpha virt. eigenvalues --    1.04731   1.04916   1.06746   1.08391   1.10647
 Alpha virt. eigenvalues --    1.11201   1.12459   1.13530   1.16568   1.19415
 Alpha virt. eigenvalues --    1.20565   1.22984   1.24690   1.27351   1.28949
 Alpha virt. eigenvalues --    1.31359   1.34595   1.36300   1.37337   1.37787
 Alpha virt. eigenvalues --    1.39048   1.40004   1.40604   1.42429   1.42592
 Alpha virt. eigenvalues --    1.49238   1.50009   1.50325   1.53930   1.55572
 Alpha virt. eigenvalues --    1.62286   1.69208   1.70602   1.71069   1.76363
 Alpha virt. eigenvalues --    1.80087   1.81647   1.82556   1.82824   1.83291
 Alpha virt. eigenvalues --    1.84935   1.87689   1.89007   1.90338   1.91331
 Alpha virt. eigenvalues --    1.94161   1.95222   1.98649   1.99527   2.00546
 Alpha virt. eigenvalues --    2.04110   2.05756   2.06299   2.08430   2.16698
 Alpha virt. eigenvalues --    2.17525   2.18668   2.20461   2.21733   2.28088
 Alpha virt. eigenvalues --    2.28125   2.30689   2.31689   2.32885   2.34459
 Alpha virt. eigenvalues --    2.35754   2.41415   2.55946   2.56295   2.63886
 Alpha virt. eigenvalues --    2.66661   2.68696   2.70003   2.73796   2.79125
 Alpha virt. eigenvalues --    2.84997   2.88187   2.91587   2.96494   3.16340
 Alpha virt. eigenvalues --    3.24287   3.43754   3.99146   4.10327   4.23112
 Alpha virt. eigenvalues --    4.24569   4.26944   4.29969   4.32224   4.41256
 Alpha virt. eigenvalues --    4.47462   4.74210   5.96048
          Condensed to atoms (all electrons):
               1          2          3          4          5          6
     1  C   21.496561  -7.058432   0.015426  -1.694859   0.033645  -2.163018
     2  C   -7.058432  27.459993   0.317240   0.303582  -0.020636   1.484799
     3  H    0.015426   0.317240   0.421919  -0.023790  -0.003150   0.002833
     4  C   -1.694859   0.303582  -0.023790   8.683852   0.356604   0.087592
     5  H    0.033645  -0.020636  -0.003150   0.356604   0.419182  -0.054248
     6  C   -2.163018   1.484799   0.002833   0.087592  -0.054248   6.196194
     7  C   -0.262139  -0.086350  -0.012147  -0.287009   0.012383   0.128069
     8  H    0.043920  -0.013385   0.000009   0.015125  -0.000091  -0.056159
     9  C   -2.364967 -16.625843   0.013385  -1.403643  -0.017784  -0.130323
    10  H    0.045886   0.049214  -0.000111  -0.019766   0.000010  -0.001717
    11  S   -0.938654   0.704957  -0.009500   0.034113   0.001115   0.057472
    12  O    0.054888   0.145301   0.000691   0.060592   0.000022  -0.023384
    13  O   -0.154134  -0.283342   0.004974   0.036700   0.000198  -0.003015
    14  N   -0.163681   0.181246  -0.000268   0.022076   0.000049   0.025429
    15  H   -0.032356   0.051734  -0.000011  -0.000737   0.000000   0.001498
    16  F   -0.031124  -0.027601  -0.000346  -0.137553  -0.002717   0.303084
               7          8          9         10         11         12
     1  C   -0.262139   0.043920  -2.364967   0.045886  -0.938654   0.054888
     2  C   -0.086350  -0.013385 -16.625843   0.049214   0.704957   0.145301
     3  H   -0.012147   0.000009   0.013385  -0.000111  -0.009500   0.000691
     4  C   -0.287009   0.015125  -1.403643  -0.019766   0.034113   0.060592
     5  H    0.012383  -0.000091  -0.017784   0.000010   0.001115   0.000022
     6  C    0.128069  -0.056159  -0.130323  -0.001717   0.057472  -0.023384
     7  C    9.738153   0.367378  -3.191139  -0.061728  -0.229780   0.006626
     8  H    0.367378   0.417869  -0.045288  -0.003037   0.000657   0.000045
     9  C   -3.191139  -0.045288  29.474434   0.293910   0.028317  -0.325164
    10  H   -0.061728  -0.003037   0.293910   0.423744  -0.003037   0.005815
    11  S   -0.229780   0.000657   0.028317  -0.003037  14.434758   0.083611
    12  O    0.006626   0.000045  -0.325164   0.005815   0.083611   9.004614
    13  O    0.032432   0.000027   0.173652   0.000540   0.219972  -0.098188
    14  N    0.009079   0.000011  -0.092921  -0.000106   0.140484  -0.166244
    15  H   -0.007110  -0.000000  -0.055112  -0.000365   0.084280  -0.014204
    16  F   -0.154713  -0.002930   0.006441  -0.000349   0.000094   0.000029
              13         14         15         16
     1  C   -0.154134  -0.163681  -0.032356  -0.031124
     2  C   -0.283342   0.181246   0.051734  -0.027601
     3  H    0.004974  -0.000268  -0.000011  -0.000346
     4  C    0.036700   0.022076  -0.000737  -0.137553
     5  H    0.000198   0.000049   0.000000  -0.002717
     6  C   -0.003015   0.025429   0.001498   0.303084
     7  C    0.032432   0.009079  -0.007110  -0.154713
     8  H    0.000027   0.000011  -0.000000  -0.002930
     9  C    0.173652  -0.092921  -0.055112   0.006441
    10  H    0.000540  -0.000106  -0.000365  -0.000349
    11  S    0.219972   0.140484   0.084280   0.000094
    12  O   -0.098188  -0.166244  -0.014204   0.000029
    13  O    9.047437  -0.195076   0.017374   0.000002
    14  N   -0.195076   8.016880   0.190587   0.000005
    15  H    0.017374   0.190587   0.360979   0.000000
    16  F    0.000002   0.000005   0.000000   9.397934
 Mulliken charges:
               1
     1  C   -0.826965
     2  C   -0.582477
     3  H    0.272845
     4  C   -0.032877
     5  H    0.275417
     6  C    0.144896
     7  C   -0.002006
     8  H    0.275850
     9  C    0.262047
    10  H    0.271096
    11  S    1.391140
    12  O   -0.735050
    13  O   -0.799551
    14  N   -0.967549
    15  H    0.403443
    16  F   -0.350257
 Sum of Mulliken charges =  -1.00000
 Mulliken charges with hydrogens summed into heavy atoms:
               1
     1  C   -0.826965
     2  C   -0.309632
     4  C    0.242540
     6  C    0.144896
     7  C    0.273844
     9  C    0.533143
    11  S    1.391140
    12  O   -0.735050
    13  O   -0.799551
    14  N   -0.564107
    16  F   -0.350257
 Electronic spatial extent (au):  <R**2>=           2140.4040
 Charge=             -1.0000 electrons
 Dipole moment (field-independent basis, Debye):
    X=            -13.0048    Y=             -2.0918    Z=              0.8169  Tot=             13.1973
 Quadrupole moment (field-independent basis, Debye-Ang):
   XX=           -116.4875   YY=            -70.1693   ZZ=            -84.1451
   XY=             -4.6811   XZ=              0.9161   YZ=             -3.9813
 Traceless Quadrupole moment (field-independent basis, Debye-Ang):
   XX=            -26.2202   YY=             20.0980   ZZ=              6.1222
   XY=             -4.6811   XZ=              0.9161   YZ=             -3.9813
 Octapole moment (field-independent basis, Debye-Ang**2):
  XXX=            -81.8860  YYY=             -7.8653  ZZZ=             -9.9155  XYY=            -37.5613
  XXY=             -9.6173  XXZ=             -4.2214  XZZ=            -27.1303  YZZ=             -2.6327
  YYZ=              8.7637  XYZ=             -9.2841
 Hexadecapole moment (field-independent basis, Debye-Ang**3):
 XXXX=          -2490.7457 YYYY=           -416.9330 ZZZZ=           -250.1652 XXXY=            -20.8677
 XXXZ=            -30.4525 YYYX=            -17.0378 YYYZ=             -5.8380 ZZZX=            -28.6565
 ZZZY=            -14.4942 XXYY=           -423.4985 XXZZ=           -441.2389 YYZZ=           -118.8537
 XXYZ=            -18.8688 YYXZ=             18.1247 ZZXY=             -5.2232
 N-N= 7.090825035247D+02 E-N=-3.633925127309D+03  KE= 9.288639739611D+02
 D1PCM: PCM CHGder 1st derivatives, ID1Alg=3 FixD1E=F DoIter=F DoCFld=F I1PDM=0.
 Calling FoFJK, ICntrl=      2127 FMM=F ISym2X=0 I1Cent= 0 IOpClX= 0 NMat=1 NMatS=1 NMatT=0.
 ***** Axes restored to original set *****
 -------------------------------------------------------------------
 Center     Atomic                   Forces (Hartrees/Bohr)
 Number     Number              X              Y              Z
 -------------------------------------------------------------------
      1        6          -0.000008814    0.000000329    0.000000875
      2        6           0.000005311   -0.000003058    0.000004662
      3        1          -0.000001944   -0.000004230   -0.000002048
      4        6           0.000003470    0.000002135   -0.000004597
      5        1           0.000000691    0.000001791    0.000000027
      6        6          -0.000005192    0.000007836   -0.000009205
      7        6           0.000003786    0.000003977    0.000010466
      8        1           0.000000734    0.000008198    0.000001145
      9        6           0.000005176    0.000001134   -0.000004324
     10        1          -0.000001164    0.000002423    0.000002451
     11       16           0.000015471   -0.000001608   -0.000000144
     12        8          -0.000009947   -0.000009359   -0.000001578
     13        8          -0.000011557   -0.000005749    0.000001755
     14        7          -0.000000775   -0.000005905   -0.000002314
     15        1           0.000001915   -0.000004777   -0.000003841
     16        9           0.000002839    0.000006864    0.000006669
 -------------------------------------------------------------------
 Cartesian Forces:  Max     0.000015471 RMS     0.000005457

 GradGradGradGradGradGradGradGradGradGradGradGradGradGradGradGradGradGrad
 Berny optimization.
 FormGI is forming the generalized inverse of G from B-inverse, IUseBI=4.
 Internal  Forces:  Max     0.000009430 RMS     0.000002161
 Search for a local minimum.
 Step number   1 out of a maximum of   84
 All quantities printed in internal units (Hartrees-Bohrs-Radians)
 Mixed Optimization -- En-DIIS/RFO-DIIS
 Second derivative matrix not updated -- first step.
 ITU=  0
     Eigenvalues ---    0.00358   0.01463   0.02162   0.02171   0.02173
     Eigenvalues ---    0.02194   0.02219   0.02228   0.02253   0.02272
     Eigenvalues ---    0.03097   0.10355   0.11858   0.16000   0.16000
     Eigenvalues ---    0.16000   0.16000   0.16000   0.17095   0.21644
     Eigenvalues ---    0.22000   0.22996   0.23986   0.24946   0.25000
     Eigenvalues ---    0.25000   0.26041   0.35235   0.35372   0.35383
     Eigenvalues ---    0.35387   0.42573   0.42906   0.43714   0.46556
     Eigenvalues ---    0.46801   0.47358   0.47863   0.54230   0.58891
     Eigenvalues ---    0.78091   0.80936
 RFO step:  Lambda= 0.00000000D+00 EMin= 3.57530964D-03
 Linear search not attempted -- first point.
 Iteration  1 RMS(Cart)=  0.00002399 RMS(Int)=  0.00000000
 Iteration  2 RMS(Cart)=  0.00000000 RMS(Int)=  0.00000000
 Variable       Old X    -DE/DX   Delta X   Delta X   Delta X     New X
                                 (Linear)    (Quad)   (Total)
    R1        2.63274  -0.00000   0.00000  -0.00001  -0.00001   2.63273
    R2        2.63740   0.00000   0.00000   0.00001   0.00001   2.63740
    R3        3.40333  -0.00000   0.00000  -0.00000  -0.00000   3.40333
    R4        2.05075   0.00000   0.00000   0.00000   0.00000   2.05075
    R5        2.63484   0.00000   0.00000   0.00001   0.00001   2.63485
    R6        2.05057  -0.00000   0.00000  -0.00000  -0.00000   2.05057
    R7        2.61767  -0.00000   0.00000  -0.00000  -0.00000   2.61766
    R8        2.62125   0.00001   0.00000   0.00001   0.00001   2.62126
    R9        2.55823  -0.00001   0.00000  -0.00001  -0.00001   2.55822
   R10        2.05052  -0.00000   0.00000  -0.00000  -0.00000   2.05052
   R11        2.63070  -0.00000   0.00000  -0.00001  -0.00001   2.63069
   R12        2.05295  -0.00000   0.00000  -0.00000  -0.00000   2.05295
   R13        2.82662  -0.00001   0.00000  -0.00001  -0.00001   2.82660
   R14        2.81115   0.00001   0.00000   0.00001   0.00001   2.81116
   R15        2.95529   0.00000   0.00000   0.00000   0.00000   2.95529
   R16        1.93499   0.00000   0.00000   0.00000   0.00000   1.93499
    A1        2.10943  -0.00000   0.00000  -0.00000  -0.00000   2.10943
    A2        2.09541   0.00000   0.00000   0.00001   0.00001   2.09542
    A3        2.07643  -0.00000   0.00000  -0.00001  -0.00001   2.07642
    A4        2.09833   0.00000   0.00000   0.00001   0.00001   2.09834
    A5        2.09115   0.00000   0.00000   0.00000   0.00000   2.09116
    A6        2.09368  -0.00000   0.00000  -0.00001  -0.00001   2.09367
    A7        2.12427  -0.00000   0.00000  -0.00001  -0.00001   2.12427
    A8        2.06197   0.00000   0.00000   0.00000   0.00000   2.06197
    A9        2.09694   0.00000   0.00000   0.00001   0.00001   2.09695
   A10        2.15061  -0.00000   0.00000  -0.00001  -0.00001   2.15060
   A11        2.06727   0.00000   0.00000   0.00001   0.00001   2.06728
   A12        2.06530   0.00000   0.00000  -0.00000  -0.00000   2.06530
   A13        2.09687  -0.00000   0.00000  -0.00001  -0.00001   2.09686
   A14        2.06107   0.00000   0.00000   0.00001   0.00001   2.06108
   A15        2.12524   0.00000   0.00000   0.00000   0.00000   2.12524
   A16        2.09212  -0.00000   0.00000  -0.00000  -0.00000   2.09212
   A17        2.10232  -0.00000   0.00000  -0.00001  -0.00001   2.10231
   A18        2.08873   0.00000   0.00000   0.00001   0.00001   2.08874
   A19        1.80688  -0.00000   0.00000  -0.00001  -0.00001   1.80688
   A20        1.83302  -0.00000   0.00000  -0.00000  -0.00000   1.83302
   A21        1.91926   0.00000   0.00000   0.00001   0.00001   1.91927
   A22        1.98657   0.00000   0.00000   0.00000   0.00000   1.98658
   A23        2.00354   0.00000   0.00000   0.00000   0.00000   2.00354
   A24        1.90386  -0.00000   0.00000  -0.00000  -0.00000   1.90385
   A25        1.88168   0.00000   0.00000   0.00001   0.00001   1.88169
    D1       -3.14145  -0.00000   0.00000  -0.00001  -0.00001  -3.14146
    D2       -0.00730  -0.00000   0.00000  -0.00003  -0.00003  -0.00733
    D3        0.06730  -0.00000   0.00000  -0.00003  -0.00003   0.06728
    D4       -3.08173  -0.00000   0.00000  -0.00004  -0.00004  -3.08177
    D5        0.00602   0.00000   0.00000   0.00002   0.00002   0.00604
    D6       -3.14153   0.00000   0.00000   0.00000   0.00000  -3.14153
    D7        3.08117   0.00000   0.00000   0.00004   0.00004   3.08121
    D8       -0.06639   0.00000   0.00000   0.00002   0.00002  -0.06637
    D9       -2.44558   0.00000   0.00000  -0.00000  -0.00000  -2.44558
   D10       -0.35730   0.00000   0.00000  -0.00000  -0.00000  -0.35730
   D11        1.68887  -0.00000   0.00000  -0.00001  -0.00001   1.68886
   D12        0.76191   0.00000   0.00000  -0.00002  -0.00002   0.76189
   D13        2.85019  -0.00000   0.00000  -0.00002  -0.00002   2.85018
   D14       -1.38683  -0.00000   0.00000  -0.00002  -0.00002  -1.38685
   D15       -3.13374   0.00000   0.00000   0.00001   0.00001  -3.13373
   D16        0.00527   0.00000   0.00000   0.00001   0.00001   0.00528
   D17        0.00043  -0.00000   0.00000  -0.00000  -0.00000   0.00043
   D18        3.13944  -0.00000   0.00000  -0.00001  -0.00001   3.13943
   D19       -0.00216   0.00000   0.00000   0.00001   0.00001  -0.00215
   D20       -3.14097  -0.00000   0.00000  -0.00001  -0.00001  -3.14099
   D21        3.13690   0.00000   0.00000   0.00001   0.00001   3.13691
   D22       -0.00192  -0.00000   0.00000  -0.00002  -0.00002  -0.00194
   D23       -3.13816  -0.00000   0.00000  -0.00000  -0.00000  -3.13816
   D24        0.00090  -0.00000   0.00000  -0.00002  -0.00002   0.00088
   D25        0.00066   0.00000   0.00000   0.00002   0.00002   0.00068
   D26        3.13972   0.00000   0.00000   0.00001   0.00001   3.13973
   D27       -0.00276  -0.00000   0.00000  -0.00000  -0.00000  -0.00276
   D28       -3.13844   0.00000   0.00000   0.00002   0.00002  -3.13842
   D29        3.13626  -0.00000   0.00000  -0.00001  -0.00001   3.13624
   D30        0.00058   0.00000   0.00000   0.00001   0.00001   0.00059
   D31        1.25137  -0.00000   0.00000  -0.00001  -0.00001   1.25136
   D32       -0.77719   0.00000   0.00000  -0.00000  -0.00000  -0.77720
   D33       -3.03030  -0.00000   0.00000  -0.00001  -0.00001  -3.03031
         Item               Value     Threshold  Converged?
 Maximum Force            0.000009     0.000450     YES
 RMS     Force            0.000002     0.000300     YES
 Maximum Displacement     0.000075     0.001800     YES
 RMS     Displacement     0.000024     0.001200     YES
 Predicted change in Energy=-4.439390D-10
 Optimization completed.
    -- Stationary point found.
                           ----------------------------
                           !   Optimized Parameters   !
                           ! (Angstroms and Degrees)  !
 --------------------------                            --------------------------
 ! Name  Definition              Value          Derivative Info.                !
 --------------------------------------------------------------------------------
 ! R1    R(1,2)                  1.3932         -DE/DX =    0.0                 !
 ! R2    R(1,9)                  1.3957         -DE/DX =    0.0                 !
 ! R3    R(1,11)                 1.801          -DE/DX =    0.0                 !
 ! R4    R(2,3)                  1.0852         -DE/DX =    0.0                 !
 ! R5    R(2,4)                  1.3943         -DE/DX =    0.0                 !
 ! R6    R(4,5)                  1.0851         -DE/DX =    0.0                 !
 ! R7    R(4,6)                  1.3852         -DE/DX =    0.0                 !
 ! R8    R(6,7)                  1.3871         -DE/DX =    0.0                 !
 ! R9    R(6,16)                 1.3538         -DE/DX =    0.0                 !
 ! R10   R(7,8)                  1.0851         -DE/DX =    0.0                 !
 ! R11   R(7,9)                  1.3921         -DE/DX =    0.0                 !
 ! R12   R(9,10)                 1.0864         -DE/DX =    0.0                 !
 ! R13   R(11,12)                1.4958         -DE/DX =    0.0                 !
 ! R14   R(11,13)                1.4876         -DE/DX =    0.0                 !
 ! R15   R(11,14)                1.5639         -DE/DX =    0.0                 !
 ! R16   R(14,15)                1.024          -DE/DX =    0.0                 !
 ! A1    A(2,1,9)              120.8615         -DE/DX =    0.0                 !
 ! A2    A(2,1,11)             120.0579         -DE/DX =    0.0                 !
 ! A3    A(9,1,11)             118.9708         -DE/DX =    0.0                 !
 ! A4    A(1,2,3)              120.2255         -DE/DX =    0.0                 !
 ! A5    A(1,2,4)              119.8142         -DE/DX =    0.0                 !
 ! A6    A(3,2,4)              119.9589         -DE/DX =    0.0                 !
 ! A7    A(2,4,5)              121.7119         -DE/DX =    0.0                 !
 ! A8    A(2,4,6)              118.1421         -DE/DX =    0.0                 !
 ! A9    A(5,4,6)              120.1459         -DE/DX =    0.0                 !
 ! A10   A(4,6,7)              123.2207         -DE/DX =    0.0                 !
 ! A11   A(4,6,16)             118.4459         -DE/DX =    0.0                 !
 ! A12   A(7,6,16)             118.3332         -DE/DX =    0.0                 !
 ! A13   A(6,7,8)              120.1418         -DE/DX =    0.0                 !
 ! A14   A(6,7,9)              118.0907         -DE/DX =    0.0                 !
 ! A15   A(8,7,9)              121.7673         -DE/DX =    0.0                 !
 ! A16   A(1,9,7)              119.8695         -DE/DX =    0.0                 !
 ! A17   A(1,9,10)             120.454          -DE/DX =    0.0                 !
 ! A18   A(7,9,10)             119.6756         -DE/DX =    0.0                 !
 ! A19   A(1,11,12)            103.5268         -DE/DX =    0.0                 !
 ! A20   A(1,11,13)            105.0245         -DE/DX =    0.0                 !
 ! A21   A(1,11,14)            109.9653         -DE/DX =    0.0                 !
 ! A22   A(12,11,13)           113.8222         -DE/DX =    0.0                 !
 ! A23   A(12,11,14)           114.7941         -DE/DX =    0.0                 !
 ! A24   A(13,11,14)           109.0831         -DE/DX =    0.0                 !
 ! A25   A(11,14,15)           107.8124         -DE/DX =    0.0                 !
 ! D1    D(9,1,2,3)           -179.992          -DE/DX =    0.0                 !
 ! D2    D(9,1,2,4)             -0.4183         -DE/DX =    0.0                 !
 ! D3    D(11,1,2,3)             3.8562         -DE/DX =    0.0                 !
 ! D4    D(11,1,2,4)          -176.5701         -DE/DX =    0.0                 !
 ! D5    D(2,1,9,7)              0.3449         -DE/DX =    0.0                 !
 ! D6    D(2,1,9,10)          -179.9966         -DE/DX =    0.0                 !
 ! D7    D(11,1,9,7)           176.5379         -DE/DX =    0.0                 !
 ! D8    D(11,1,9,10)           -3.8036         -DE/DX =    0.0                 !
 ! D9    D(2,1,11,12)         -140.1215         -DE/DX =    0.0                 !
 ! D10   D(2,1,11,13)          -20.4716         -DE/DX =    0.0                 !
 ! D11   D(2,1,11,14)           96.7649         -DE/DX =    0.0                 !
 ! D12   D(9,1,11,12)           43.6542         -DE/DX =    0.0                 !
 ! D13   D(9,1,11,13)          163.3041         -DE/DX =    0.0                 !
 ! D14   D(9,1,11,14)          -79.4594         -DE/DX =    0.0                 !
 ! D15   D(1,2,4,5)           -179.5503         -DE/DX =    0.0                 !
 ! D16   D(1,2,4,6)              0.3018         -DE/DX =    0.0                 !
 ! D17   D(3,2,4,5)              0.0246         -DE/DX =    0.0                 !
 ! D18   D(3,2,4,6)            179.8767         -DE/DX =    0.0                 !
 ! D19   D(2,4,6,7)             -0.1235         -DE/DX =    0.0                 !
 ! D20   D(2,4,6,16)          -179.9645         -DE/DX =    0.0                 !
 ! D21   D(5,4,6,7)            179.731          -DE/DX =    0.0                 !
 ! D22   D(5,4,6,16)            -0.11           -DE/DX =    0.0                 !
 ! D23   D(4,6,7,8)           -179.8033         -DE/DX =    0.0                 !
 ! D24   D(4,6,7,9)              0.0515         -DE/DX =    0.0                 !
 ! D25   D(16,6,7,8)             0.0379         -DE/DX =    0.0                 !
 ! D26   D(16,6,7,9)           179.8927         -DE/DX =    0.0                 !
 ! D27   D(6,7,9,1)             -0.158          -DE/DX =    0.0                 !
 ! D28   D(6,7,9,10)          -179.8192         -DE/DX =    0.0                 !
 ! D29   D(8,7,9,1)            179.6942         -DE/DX =    0.0                 !
 ! D30   D(8,7,9,10)             0.0331         -DE/DX =    0.0                 !
 ! D31   D(1,11,14,15)          71.6981         -DE/DX =    0.0                 !
 ! D32   D(12,11,14,15)        -44.5298         -DE/DX =    0.0                 !
 ! D33   D(13,11,14,15)       -173.6236         -DE/DX =    0.0                 !
 --------------------------------------------------------------------------------
 GradGradGradGradGradGradGradGradGradGradGradGradGradGradGradGradGradGrad

                          Input orientation:                          
 ---------------------------------------------------------------------
 Center     Atomic      Atomic             Coordinates (Angstroms)
 Number     Number       Type             X           Y           Z
 ---------------------------------------------------------------------
      1          6           0       -1.382798    0.667205   -0.834951
      2          6           0       -2.577321    0.782482   -1.542615
      3          1           0       -3.526286    0.783194   -1.016170
      4          6           0       -2.551290    0.906201   -2.931169
      5          1           0       -3.462395    1.005118   -3.512185
      6          6           0       -1.319278    0.903394   -3.564373
      7          6           0       -0.115779    0.786315   -2.884708
      8          1           0        0.821559    0.793128   -3.431300
      9          6           0       -0.154954    0.664978   -1.498453
     10          1           0        0.772521    0.574667   -0.940026
     11         16           0       -1.411350    0.414420    0.947957
     12          8           0       -0.289653    1.272379    1.440971
     13          8           0       -2.757034    0.877102    1.381544
     14          7           0       -1.264611   -1.108067    1.273840
     15          1           0       -0.299360   -1.380835    1.068012
     16          9           0       -1.286799    1.023890   -4.912364
 ---------------------------------------------------------------------
                    Distance matrix (angstroms):
                    1          2          3          4          5
     1  C    0.000000
     2  C    1.393184   0.000000
     3  H    2.154260   1.085209   0.000000
     4  C    2.411768   1.394298   2.152433   0.000000
     5  H    3.406830   2.170744   2.506676   1.085116   0.000000
     6  C    2.740358   2.384281   3.373229   1.385211   2.146164
     7  C    2.412681   2.803644   3.888830   2.438902   3.411956
     8  H    3.408236   3.888397   4.973601   3.411602   4.289959
     9  C    1.395651   2.425617   3.407705   2.802372   3.887155
    10  H    2.159862   3.409948   4.304535   3.888738   4.973510
    11  S    1.800965   2.774510   2.909767   4.072951   4.944550
    12  O    2.596348   3.791465   4.092999   4.936061   5.888249
    13  O    2.616378   2.931204   2.519841   4.317716   4.945959
    14  N    2.759087   3.637279   3.733120   4.836829   5.674667
    15  H    2.998262   4.084657   4.409069   5.127882   6.056052
    16  F    4.094110   3.616481   4.500396   2.353279   2.587290
                    6          7          8          9         10
     6  C    0.000000
     7  C    1.387106   0.000000
     8  H    2.147801   1.085086   0.000000
     9  C    2.383384   1.392106   2.169308   0.000000
    10  H    3.372074   2.148409   2.501315   1.086373   0.000000
    11  S    4.539680   4.062774   4.930233   2.761563   2.891272
    12  O    5.123451   4.356373   5.020309   3.004545   2.698919
    13  O    5.150721   5.018503   5.998070   3.887184   4.235435
    14  N    5.239968   4.711902   5.486801   3.472843   3.447130
    15  H    5.264687   4.511567   5.121170   3.285262   3.000855
    16  F    1.353755   2.353533   2.586885   3.614510   4.496896
                   11         12         13         14         15
    11  S    0.000000
    12  O    1.495781   0.000000
    13  O    1.487595   2.499549   0.000000
    14  N    1.563873   2.577790   2.485925   0.000000
    15  H    2.115154   2.679317   3.352125   1.023952   0.000000
    16  F    5.893244   6.435908   6.465015   6.543306   6.520938
                   16
    16  F    0.000000
 Stoichiometry    C6H5FNO2S(1-)
 Framework group  C1[X(C6H5FNO2S)]
 Deg. of freedom    42
 Full point group                 C1      NOp   1
 Largest Abelian subgroup         C1      NOp   1
 Largest concise Abelian subgroup C1      NOp   1
                         Standard orientation:                         
 ---------------------------------------------------------------------
 Center     Atomic      Atomic             Coordinates (Angstroms)
 Number     Number       Type             X           Y           Z
 ---------------------------------------------------------------------
      1          6           0        0.113463    0.017193   -0.057868
      2          6           0       -0.581720    1.223798   -0.015607
      3          1           0       -0.042253    2.165422   -0.016641
      4          6           0       -1.975579    1.219938    0.019140
      5          1           0       -2.548051    2.141389    0.045203
      6          6           0       -2.625808   -0.003175    0.016592
      7          6           0       -1.958390   -1.218570   -0.021243
      8          1           0       -2.518522   -2.147899   -0.024627
      9          6           0       -0.566856   -1.201416   -0.057257
     10          1           0       -0.018088   -2.138415   -0.090299
     11         16           0        1.913773    0.011204   -0.009669
     12          8           0        2.286392   -1.057506   -0.987613
     13          8           0        2.315431    1.379562   -0.432995
     14          7           0        2.407965   -0.237156    1.453133
     15          1           0        2.217624   -1.215910    1.686132
     16          9           0       -3.979120   -0.014091    0.049481
 ---------------------------------------------------------------------
 Rotational constants (GHZ):           2.6413412           0.5486231           0.5002454
 Unable to Open any file for archive entry.
 1\1\GINC-GADI-CPU-CLX-1656\FOpt\RM062X\Gen\C6H5F1N1O2S1(1-)\YJ5695\19-
 May-2022\0\\#m062X/gen 6D OPT Freq=noraman SCRF=(SMD,Solvent=h2o)\\a1 
 b1\\-1,1\C,-1.382798,0.667205,-0.834951\C,-2.577321,0.782482,-1.542615
 \H,-3.526286,0.783194,-1.01617\C,-2.55129,0.906201,-2.931169\H,-3.4623
 95,1.005118,-3.512185\C,-1.319278,0.903394,-3.564373\C,-0.115779,0.786
 315,-2.884708\H,0.821559,0.793128,-3.4313\C,-0.154954,0.664978,-1.4984
 53\H,0.772521,0.574667,-0.940026\S,-1.41135,0.41442,0.947957\O,-0.2896
 53,1.272379,1.440971\O,-2.757034,0.877102,1.381544\N,-1.264611,-1.1080
 67,1.27384\H,-0.29936,-1.380835,1.068012\F,-1.286799,1.02389,-4.912364
 \\Version=ES64L-G16RevC.01\State=1-A\HF=-934.734169\RMSD=2.691e-09\RMS
 F=5.457e-06\Dipole=0.890364,0.2095766,-5.111016\Quadrupole=14.3970684,
 4.8696737,-19.2667421,-4.0096509,3.5905075,1.8102323\PG=C01 [X(C6H5F1N
 1O2S1)]\\@
 The archive entry for this job was punched.


 THERE IS AN OLD, OLD RECIPE IN MAINE FOR STEWING COOT. PLACE THE
 BIRD IN A KETTLE OF WATER WITH A RED BUILDING BRICK FREE OF MORTAR AND
 BLEMISHES. PARBOIL THE COOT AND BRICK TOGETHER FOR THREE HOURS.
 POUR OFF THE WATER, REFILL THE KETTLE, AND AGAIN PARBOIL FOR THREE HOURS.
 ONCE AGAIN POUR OFF THE WATER, FOR THE LAST TIME ADD FRESH WATER,
 AND LET THE COOT AND BRICK SIMMER TOGETHER OVERNIGHT. IN THE MORNING,
 THROW AWAY THE COOT AND EAT THE BRICK.
 Job cpu time:       0 days  0 hours  7 minutes 48.5 seconds.
 Elapsed time:       0 days  0 hours  0 minutes 29.6 seconds.
 File lengths (MBytes):  RWF=     66 Int=      0 D2E=      0 Chk=      6 Scr=      1
 Normal termination of Gaussian 16 at Thu May 19 14:59:51 2022.
 Link1:  Proceeding to internal job step number  2.
 ------------------------------------------------------------------
 #N Geom=AllCheck Guess=TCheck SCRF=Check GenChk RM062X/ChkBas Freq
 ------------------------------------------------------------------
 1/10=4,29=7,30=1,38=1,40=1/1,3;
 2/12=2,40=1/2;
 3/5=7,6=2,8=2,11=2,14=-4,25=1,30=1,67=1,70=2,71=2,74=-55,82=7,116=1,140=1/1,2,3;
 4/5=101/1;
 5/5=2,38=6,98=1/2;
 8/6=4,10=90,11=11/1;
 11/6=1,8=1,9=11,15=111,16=1/1,2,10;
 10/6=1/2;
 6/7=2,8=2,9=2,10=2,28=1/1;
 7/8=1,10=1,25=1/1,2,3,16;
 1/10=4,30=1/3;
 99//99;
 Structure from the checkpoint file:  "/jobfs/40645255.gadi-pbs/Gau-1110712.chk"
 -----
 a1 b1
 -----
 Charge = -1 Multiplicity = 1
 Redundant internal coordinates found in file.  (old form).
 C,0,-1.382798,0.667205,-0.834951
 C,0,-2.577321,0.782482,-1.542615
 H,0,-3.526286,0.783194,-1.01617
 C,0,-2.55129,0.906201,-2.931169
 H,0,-3.462395,1.005118,-3.512185
 C,0,-1.319278,0.903394,-3.564373
 C,0,-0.115779,0.786315,-2.884708
 H,0,0.821559,0.793128,-3.4313
 C,0,-0.154954,0.664978,-1.498453
 H,0,0.772521,0.574667,-0.940026
 S,0,-1.41135,0.41442,0.947957
 O,0,-0.289653,1.272379,1.440971
 O,0,-2.757034,0.877102,1.381544
 N,0,-1.264611,-1.108067,1.27384
 H,0,-0.29936,-1.380835,1.068012
 F,0,-1.286799,1.02389,-4.912364
 Recover connectivity data from disk.

 GradGradGradGradGradGradGradGradGradGradGradGradGradGradGradGradGradGrad
 Berny optimization.
 Initialization pass.
                           ----------------------------
                           !    Initial Parameters    !
                           ! (Angstroms and Degrees)  !
 --------------------------                            --------------------------
 ! Name  Definition              Value          Derivative Info.                !
 --------------------------------------------------------------------------------
 ! R1    R(1,2)                  1.3932         calculate D2E/DX2 analytically  !
 ! R2    R(1,9)                  1.3957         calculate D2E/DX2 analytically  !
 ! R3    R(1,11)                 1.801          calculate D2E/DX2 analytically  !
 ! R4    R(2,3)                  1.0852         calculate D2E/DX2 analytically  !
 ! R5    R(2,4)                  1.3943         calculate D2E/DX2 analytically  !
 ! R6    R(4,5)                  1.0851         calculate D2E/DX2 analytically  !
 ! R7    R(4,6)                  1.3852         calculate D2E/DX2 analytically  !
 ! R8    R(6,7)                  1.3871         calculate D2E/DX2 analytically  !
 ! R9    R(6,16)                 1.3538         calculate D2E/DX2 analytically  !
 ! R10   R(7,8)                  1.0851         calculate D2E/DX2 analytically  !
 ! R11   R(7,9)                  1.3921         calculate D2E/DX2 analytically  !
 ! R12   R(9,10)                 1.0864         calculate D2E/DX2 analytically  !
 ! R13   R(11,12)                1.4958         calculate D2E/DX2 analytically  !
 ! R14   R(11,13)                1.4876         calculate D2E/DX2 analytically  !
 ! R15   R(11,14)                1.5639         calculate D2E/DX2 analytically  !
 ! R16   R(14,15)                1.024          calculate D2E/DX2 analytically  !
 ! A1    A(2,1,9)              120.8615         calculate D2E/DX2 analytically  !
 ! A2    A(2,1,11)             120.0579         calculate D2E/DX2 analytically  !
 ! A3    A(9,1,11)             118.9708         calculate D2E/DX2 analytically  !
 ! A4    A(1,2,3)              120.2255         calculate D2E/DX2 analytically  !
 ! A5    A(1,2,4)              119.8142         calculate D2E/DX2 analytically  !
 ! A6    A(3,2,4)              119.9589         calculate D2E/DX2 analytically  !
 ! A7    A(2,4,5)              121.7119         calculate D2E/DX2 analytically  !
 ! A8    A(2,4,6)              118.1421         calculate D2E/DX2 analytically  !
 ! A9    A(5,4,6)              120.1459         calculate D2E/DX2 analytically  !
 ! A10   A(4,6,7)              123.2207         calculate D2E/DX2 analytically  !
 ! A11   A(4,6,16)             118.4459         calculate D2E/DX2 analytically  !
 ! A12   A(7,6,16)             118.3332         calculate D2E/DX2 analytically  !
 ! A13   A(6,7,8)              120.1418         calculate D2E/DX2 analytically  !
 ! A14   A(6,7,9)              118.0907         calculate D2E/DX2 analytically  !
 ! A15   A(8,7,9)              121.7673         calculate D2E/DX2 analytically  !
 ! A16   A(1,9,7)              119.8695         calculate D2E/DX2 analytically  !
 ! A17   A(1,9,10)             120.454          calculate D2E/DX2 analytically  !
 ! A18   A(7,9,10)             119.6756         calculate D2E/DX2 analytically  !
 ! A19   A(1,11,12)            103.5268         calculate D2E/DX2 analytically  !
 ! A20   A(1,11,13)            105.0245         calculate D2E/DX2 analytically  !
 ! A21   A(1,11,14)            109.9653         calculate D2E/DX2 analytically  !
 ! A22   A(12,11,13)           113.8222         calculate D2E/DX2 analytically  !
 ! A23   A(12,11,14)           114.7941         calculate D2E/DX2 analytically  !
 ! A24   A(13,11,14)           109.0831         calculate D2E/DX2 analytically  !
 ! A25   A(11,14,15)           107.8124         calculate D2E/DX2 analytically  !
 ! D1    D(9,1,2,3)           -179.992          calculate D2E/DX2 analytically  !
 ! D2    D(9,1,2,4)             -0.4183         calculate D2E/DX2 analytically  !
 ! D3    D(11,1,2,3)             3.8562         calculate D2E/DX2 analytically  !
 ! D4    D(11,1,2,4)          -176.5701         calculate D2E/DX2 analytically  !
 ! D5    D(2,1,9,7)              0.3449         calculate D2E/DX2 analytically  !
 ! D6    D(2,1,9,10)          -179.9966         calculate D2E/DX2 analytically  !
 ! D7    D(11,1,9,7)           176.5379         calculate D2E/DX2 analytically  !
 ! D8    D(11,1,9,10)           -3.8036         calculate D2E/DX2 analytically  !
 ! D9    D(2,1,11,12)         -140.1215         calculate D2E/DX2 analytically  !
 ! D10   D(2,1,11,13)          -20.4716         calculate D2E/DX2 analytically  !
 ! D11   D(2,1,11,14)           96.7649         calculate D2E/DX2 analytically  !
 ! D12   D(9,1,11,12)           43.6542         calculate D2E/DX2 analytically  !
 ! D13   D(9,1,11,13)          163.3041         calculate D2E/DX2 analytically  !
 ! D14   D(9,1,11,14)          -79.4594         calculate D2E/DX2 analytically  !
 ! D15   D(1,2,4,5)           -179.5503         calculate D2E/DX2 analytically  !
 ! D16   D(1,2,4,6)              0.3018         calculate D2E/DX2 analytically  !
 ! D17   D(3,2,4,5)              0.0246         calculate D2E/DX2 analytically  !
 ! D18   D(3,2,4,6)            179.8767         calculate D2E/DX2 analytically  !
 ! D19   D(2,4,6,7)             -0.1235         calculate D2E/DX2 analytically  !
 ! D20   D(2,4,6,16)          -179.9645         calculate D2E/DX2 analytically  !
 ! D21   D(5,4,6,7)            179.731          calculate D2E/DX2 analytically  !
 ! D22   D(5,4,6,16)            -0.11           calculate D2E/DX2 analytically  !
 ! D23   D(4,6,7,8)           -179.8033         calculate D2E/DX2 analytically  !
 ! D24   D(4,6,7,9)              0.0515         calculate D2E/DX2 analytically  !
 ! D25   D(16,6,7,8)             0.0379         calculate D2E/DX2 analytically  !
 ! D26   D(16,6,7,9)           179.8927         calculate D2E/DX2 analytically  !
 ! D27   D(6,7,9,1)             -0.158          calculate D2E/DX2 analytically  !
 ! D28   D(6,7,9,10)          -179.8192         calculate D2E/DX2 analytically  !
 ! D29   D(8,7,9,1)            179.6942         calculate D2E/DX2 analytically  !
 ! D30   D(8,7,9,10)             0.0331         calculate D2E/DX2 analytically  !
 ! D31   D(1,11,14,15)          71.6981         calculate D2E/DX2 analytically  !
 ! D32   D(12,11,14,15)        -44.5298         calculate D2E/DX2 analytically  !
 ! D33   D(13,11,14,15)       -173.6236         calculate D2E/DX2 analytically  !
 --------------------------------------------------------------------------------
 Trust Radius=3.00D-01 FncErr=1.00D-07 GrdErr=1.00D-07 EigMax=2.50D+02 EigMin=1.00D-04
 Number of steps in this run=      2 maximum allowed number of steps=      2.
 GradGradGradGradGradGradGradGradGradGradGradGradGradGradGradGradGradGrad

                          Input orientation:                          
 ---------------------------------------------------------------------
 Center     Atomic      Atomic             Coordinates (Angstroms)
 Number     Number       Type             X           Y           Z
 ---------------------------------------------------------------------
      1          6           0       -1.382798    0.667205   -0.834951
      2          6           0       -2.577321    0.782482   -1.542615
      3          1           0       -3.526286    0.783194   -1.016170
      4          6           0       -2.551290    0.906201   -2.931169
      5          1           0       -3.462395    1.005118   -3.512185
      6          6           0       -1.319278    0.903394   -3.564373
      7          6           0       -0.115779    0.786315   -2.884708
      8          1           0        0.821559    0.793128   -3.431300
      9          6           0       -0.154954    0.664978   -1.498453
     10          1           0        0.772521    0.574667   -0.940026
     11         16           0       -1.411350    0.414420    0.947957
     12          8           0       -0.289653    1.272379    1.440971
     13          8           0       -2.757034    0.877102    1.381544
     14          7           0       -1.264611   -1.108067    1.273840
     15          1           0       -0.299360   -1.380835    1.068012
     16          9           0       -1.286799    1.023890   -4.912364
 ---------------------------------------------------------------------
                    Distance matrix (angstroms):
                    1          2          3          4          5
     1  C    0.000000
     2  C    1.393184   0.000000
     3  H    2.154260   1.085209   0.000000
     4  C    2.411768   1.394298   2.152433   0.000000
     5  H    3.406830   2.170744   2.506676   1.085116   0.000000
     6  C    2.740358   2.384281   3.373229   1.385211   2.146164
     7  C    2.412681   2.803644   3.888830   2.438902   3.411956
     8  H    3.408236   3.888397   4.973601   3.411602   4.289959
     9  C    1.395651   2.425617   3.407705   2.802372   3.887155
    10  H    2.159862   3.409948   4.304535   3.888738   4.973510
    11  S    1.800965   2.774510   2.909767   4.072951   4.944550
    12  O    2.596348   3.791465   4.092999   4.936061   5.888249
    13  O    2.616378   2.931204   2.519841   4.317716   4.945959
    14  N    2.759087   3.637279   3.733120   4.836829   5.674667
    15  H    2.998262   4.084657   4.409069   5.127882   6.056052
    16  F    4.094110   3.616481   4.500396   2.353279   2.587290
                    6          7          8          9         10
     6  C    0.000000
     7  C    1.387106   0.000000
     8  H    2.147801   1.085086   0.000000
     9  C    2.383384   1.392106   2.169308   0.000000
    10  H    3.372074   2.148409   2.501315   1.086373   0.000000
    11  S    4.539680   4.062774   4.930233   2.761563   2.891272
    12  O    5.123451   4.356373   5.020309   3.004545   2.698919
    13  O    5.150721   5.018503   5.998070   3.887184   4.235435
    14  N    5.239968   4.711902   5.486801   3.472843   3.447130
    15  H    5.264687   4.511567   5.121170   3.285262   3.000855
    16  F    1.353755   2.353533   2.586885   3.614510   4.496896
                   11         12         13         14         15
    11  S    0.000000
    12  O    1.495781   0.000000
    13  O    1.487595   2.499549   0.000000
    14  N    1.563873   2.577790   2.485925   0.000000
    15  H    2.115154   2.679317   3.352125   1.023952   0.000000
    16  F    5.893244   6.435908   6.465015   6.543306   6.520938
                   16
    16  F    0.000000
 Stoichiometry    C6H5FNO2S(1-)
 Framework group  C1[X(C6H5FNO2S)]
 Deg. of freedom    42
 Full point group                 C1      NOp   1
 Largest Abelian subgroup         C1      NOp   1
 Largest concise Abelian subgroup C1      NOp   1
                         Standard orientation:                         
 ---------------------------------------------------------------------
 Center     Atomic      Atomic             Coordinates (Angstroms)
 Number     Number       Type             X           Y           Z
 ---------------------------------------------------------------------
      1          6           0        0.113463    0.017193   -0.057868
      2          6           0       -0.581720    1.223798   -0.015607
      3          1           0       -0.042253    2.165422   -0.016641
      4          6           0       -1.975579    1.219938    0.019140
      5          1           0       -2.548051    2.141389    0.045203
      6          6           0       -2.625808   -0.003175    0.016592
      7          6           0       -1.958390   -1.218570   -0.021243
      8          1           0       -2.518522   -2.147899   -0.024627
      9          6           0       -0.566856   -1.201416   -0.057257
     10          1           0       -0.018088   -2.138415   -0.090299
     11         16           0        1.913773    0.011204   -0.009669
     12          8           0        2.286392   -1.057506   -0.987613
     13          8           0        2.315431    1.379562   -0.432995
     14          7           0        2.407965   -0.237156    1.453133
     15          1           0        2.217624   -1.215910    1.686132
     16          9           0       -3.979120   -0.014091    0.049481
 ---------------------------------------------------------------------
 Rotational constants (GHZ):           2.6413412           0.5486231           0.5002454
 Basis read from chk: "/jobfs/40645255.gadi-pbs/Gau-1110712.chk" (6D, 7F)
 There are   223 symmetry adapted cartesian basis functions of A   symmetry.
 There are   223 symmetry adapted basis functions of A   symmetry.
   223 basis functions,   396 primitive gaussians,   223 cartesian basis functions
    45 alpha electrons       45 beta electrons
       nuclear repulsion energy       709.0767946032 Hartrees.
 NAtoms=   16 NActive=   16 NUniq=   16 SFac= 1.00D+00 NAtFMM=   60 NAOKFM=F Big=F
 Integral buffers will be    131072 words long.
 Raffenetti 2 integral format.
 Two-electron integral symmetry is turned on.
 Force inversion solution in PCM.
 ------------------------------------------------------------------------------
 Polarizable Continuum Model (PCM)
 =================================
 Model                : PCM.
 Atomic radii         : SMD-Coulomb.
 Polarization charges : Total charges.
 Charge compensation  : None.
 Solution method      : Matrix inversion.
 Cavity type          : VdW (van der Waals Surface) (Alpha=1.000).
 Cavity algorithm     : GePol (No added spheres)
                        Default sphere list used, NSphG=   16.
                        Lebedev-Laikov grids with approx.  5.0 points / Ang**2.
                        Smoothing algorithm: York/Karplus (Gamma=1.0000).
                        Polarization charges: spherical gaussians, with
                                              point-specific exponents (IZeta= 3).
                        Self-potential: point-specific (ISelfS= 7).
                        Self-field    : sphere-specific E.n sum rule (ISelfD= 2).
 1st derivatives      : Analytical E(r).r(x)/FMM algorithm (CHGder, D1EAlg=3).
                        Cavity 1st derivative terms included.
 2nd derivatives      : Analytical E(r).r(xy)/FMM algorithm (CHGder, D2EAlg=3).
                        Cavity 2nd derivative terms included.
 Solvent              : Water, Eps=  78.355300 Eps(inf)=   1.777849
 ------------------------------------------------------------------------------
 Spheres list:
 ISph  on   Nord     Re0    Alpha      Xe            Ye            Ze
    1   C      1    1.8500  1.000      0.113463      0.017193     -0.057868
    2   C      2    1.8500  1.000     -0.581720      1.223798     -0.015607
    3   H      3    1.2000  1.000     -0.042253      2.165422     -0.016641
    4   C      4    1.8500  1.000     -1.975579      1.219938      0.019140
    5   H      5    1.2000  1.000     -2.548051      2.141389      0.045203
    6   C      6    1.8500  1.000     -2.625808     -0.003175      0.016592
    7   C      7    1.8500  1.000     -1.958390     -1.218570     -0.021243
    8   H      8    1.2000  1.000     -2.518522     -2.147899     -0.024627
    9   C      9    1.8500  1.000     -0.566856     -1.201416     -0.057257
   10   H     10    1.2000  1.000     -0.018088     -2.138415     -0.090299
   11   S     11    2.4900  1.000      1.913773      0.011204     -0.009669
   12   O     12    1.5200  1.000      2.286392     -1.057506     -0.987613
   13   O     13    1.5200  1.000      2.315431      1.379562     -0.432995
   14   N     14    1.8900  1.000      2.407965     -0.237156      1.453133
   15   H     15    1.2000  1.000      2.217624     -1.215910      1.686132
   16   F     16    1.7300  1.000     -3.979120     -0.014091      0.049481
 ------------------------------------------------------------------------------
 ------------------------------------------------------------------------------
 Atomic radii for non-electrostatic terms: SMD-CDS.
 ------------------------------------------------------------------------------
 Nuclear repulsion after PCM non-electrostatic terms =      709.0825035247 Hartrees.
 One-electron integrals computed using PRISM.
 NBasis=   223 RedAO= T EigKep=  3.50D-06  NBF=   223
 NBsUse=   223 1.00D-06 EigRej= -1.00D+00 NBFU=   223
 Initial guess from the checkpoint file:  "/jobfs/40645255.gadi-pbs/Gau-1110712.chk"
 B after Tr=     0.000000    0.000000    0.000000
         Rot=    1.000000    0.000000   -0.000000    0.000000 Ang=   0.00 deg.
 Requested convergence on RMS density matrix=1.00D-08 within 128 cycles.
 Requested convergence on MAX density matrix=1.00D-06.
 Requested convergence on             energy=1.00D-06.
 No special actions if energy rises.
 Inv3:  Mode=1 IEnd=     5964300.
 Iteration    1 A*A^-1 deviation from unit magnitude is 3.55D-15 for   1404.
 Iteration    1 A*A^-1 deviation from orthogonality  is 3.07D-15 for   1404    185.
 Iteration    1 A^-1*A deviation from unit magnitude is 3.55D-15 for   1404.
 Iteration    1 A^-1*A deviation from orthogonality  is 3.66D-14 for    514    473.
 Error on total polarization charges =  0.04582
 SCF Done:  E(RM062X) =  -934.734169018     A.U. after    1 cycles
            NFock=  1  Conv=0.19D-08     -V/T= 2.0063
 SMD-CDS (non-electrostatic) energy       (kcal/mol) =       3.58
 (included in total energy above)
 DoSCS=F DFT=T ScalE2(SS,OS)=  1.000000  1.000000
 Range of M.O.s used for correlation:     1   223
 NBasis=   223 NAE=    45 NBE=    45 NFC=     0 NFV=     0
 NROrb=    223 NOA=    45 NOB=    45 NVA=   178 NVB=   178

 **** Warning!!: The largest alpha MO coefficient is  0.12668440D+03

 Symmetrizing basis deriv contribution to polar:
 IMax=3 JMax=2 DiffMx= 0.00D+00
 G2DrvN: will do    17 centers at a time, making    1 passes.
 Calling FoFCou, ICntrl=  3107 FMM=F I1Cent=   0 AccDes= 0.00D+00.
 NEqPCM:  Using equilibrium solvation (IEInf=0, Eps=  78.3553, EpsInf=   1.7778)
 G2PCM: DoFxE=T DoFxN=T DoGrad=T DoDP/DQ/DG/TGxP=FFFF NFrqRd=   0 IEInf=0 SqF1=F DoCFld=F IF1Alg=4.
 End of G2Drv F.D. properties file   721 does not exist.
 End of G2Drv F.D. properties file   722 does not exist.
 End of G2Drv F.D. properties file   788 does not exist.
          IDoAtm=1111111111111111
 NEqPCM:  Using equilibrium solvation (IEInf=0, Eps=  78.3553, EpsInf=   1.7778)
          Differentiating once with respect to electric field.
                with respect to dipole field.
          Differentiating once with respect to nuclear coordinates.
 Keep R1 ints in memory in canonical form, NReq=328705512.
          There are    51 degrees of freedom in the 1st order CPHF.  IDoFFX=6 NUNeed=     3.
     48 vectors produced by pass  0 Test12= 1.57D-14 1.96D-09 XBig12= 8.26D+01 4.30D+00.
 AX will form    48 AO Fock derivatives at one time.
     48 vectors produced by pass  1 Test12= 1.57D-14 1.96D-09 XBig12= 8.41D+00 4.72D-01.
     48 vectors produced by pass  2 Test12= 1.57D-14 1.96D-09 XBig12= 2.07D-01 6.22D-02.
     48 vectors produced by pass  3 Test12= 1.57D-14 1.96D-09 XBig12= 1.84D-03 6.17D-03.
     48 vectors produced by pass  4 Test12= 1.57D-14 1.96D-09 XBig12= 1.27D-05 3.97D-04.
     48 vectors produced by pass  5 Test12= 1.57D-14 1.96D-09 XBig12= 7.43D-08 2.63D-05.
     46 vectors produced by pass  6 Test12= 1.57D-14 1.96D-09 XBig12= 3.52D-10 2.16D-06.
     13 vectors produced by pass  7 Test12= 1.57D-14 1.96D-09 XBig12= 1.53D-12 1.16D-07.
      3 vectors produced by pass  8 Test12= 1.57D-14 1.96D-09 XBig12= 5.63D-15 1.05D-08.
 InvSVY:  IOpt=1 It=  1 EMax= 5.33D-15
 Solved reduced A of dimension   350 with    51 vectors.
 Isotropic polarizability for W=    0.000000      149.15 Bohr**3.
 End of Minotr F.D. properties file   721 does not exist.
 End of Minotr F.D. properties file   722 does not exist.
 End of Minotr F.D. properties file   788 does not exist.

 **********************************************************************

            Population analysis using the SCF Density.

 **********************************************************************

 Orbital symmetries:
       Occupied  (A) (A) (A) (A) (A) (A) (A) (A) (A) (A) (A) (A)
                 (A) (A) (A) (A) (A) (A) (A) (A) (A) (A) (A) (A)
                 (A) (A) (A) (A) (A) (A) (A) (A) (A) (A) (A) (A)
                 (A) (A) (A) (A) (A) (A) (A) (A) (A)
       Virtual   (A) (A) (A) (A) (A) (A) (A) (A) (A) (A) (A) (A)
                 (A) (A) (A) (A) (A) (A) (A) (A) (A) (A) (A) (A)
                 (A) (A) (A) (A) (A) (A) (A) (A) (A) (A) (A) (A)
                 (A) (A) (A) (A) (A) (A) (A) (A) (A) (A) (A) (A)
                 (A) (A) (A) (A) (A) (A) (A) (A) (A) (A) (A) (A)
                 (A) (A) (A) (A) (A) (A) (A) (A) (A) (A) (A) (A)
                 (A) (A) (A) (A) (A) (A) (A) (A) (A) (A) (A) (A)
                 (A) (A) (A) (A) (A) (A) (A) (A) (A) (A) (A) (A)
                 (A) (A) (A) (A) (A) (A) (A) (A) (A) (A) (A) (A)
                 (A) (A) (A) (A) (A) (A) (A) (A) (A) (A) (A) (A)
                 (A) (A) (A) (A) (A) (A) (A) (A) (A) (A) (A) (A)
                 (A) (A) (A) (A) (A) (A) (A) (A) (A) (A) (A) (A)
                 (A) (A) (A) (A) (A) (A) (A) (A) (A) (A) (A) (A)
                 (A) (A) (A) (A) (A) (A) (A) (A) (A) (A) (A) (A)
                 (A) (A) (A) (A) (A) (A) (A) (A) (A) (A)
 The electronic state is 1-A.
 Alpha  occ. eigenvalues --  -90.13447 -25.28534 -19.62022 -19.61902 -14.71778
 Alpha  occ. eigenvalues --  -10.64722 -10.57878 -10.57245 -10.57137 -10.56672
 Alpha  occ. eigenvalues --  -10.56625  -8.44336  -6.36581  -6.36485  -6.36404
 Alpha  occ. eigenvalues --   -1.37766  -1.20707  -1.09129  -0.98205  -0.95837
 Alpha  occ. eigenvalues --   -0.86382  -0.86345  -0.73539  -0.71908  -0.66765
 Alpha  occ. eigenvalues --   -0.63394  -0.59462  -0.58324  -0.57203  -0.55287
 Alpha  occ. eigenvalues --   -0.52684  -0.52237  -0.50545  -0.48715  -0.47968
[...]
   zy        -0.122513D+02     -0.181546D+01     -0.201997D+01
   zz         0.179090D+03      0.265385D+02      0.295280D+02

 ----------------------------------------------------------------------

 Dipole orientation:
     6         -2.84935131         -1.20522740          1.15594679
     6         -5.30330123         -1.37678632          2.09402972
     1         -6.89942085         -1.42454095          0.80729307
     6         -5.70561645         -1.50430433          4.69485038
     1         -7.59077234         -1.65276478          5.48794031
     6         -3.61712328         -1.44258512          6.27173892
     6         -1.15552376         -1.26542889          5.38851017
     1          0.41237135         -1.23042268          6.70952993
     6         -0.77843972         -1.14231979          2.78788840
     1          1.12981586         -1.00827807          2.04277903
    16         -2.32308796         -0.86410666         -2.18910150
     8         -0.08069247         -2.51429460         -2.67726331
     8         -4.69092423         -1.77967342         -3.39642625
     7         -1.93426248          1.98672477         -2.86387820
     1         -0.20213335          2.52382057         -2.18901802
     9         -3.99426839         -1.56706902          8.79894909

 Electric dipole moment (dipole orientation):
 (Debye = 10**-18 statcoulomb cm , SI units = C m)
                  (au)            (Debye)         (10**-30 SI)
   Tot        0.519222D+01      0.131973D+02      0.440215D+02
   x          0.000000D+00      0.000000D+00      0.000000D+00
   y          0.000000D+00      0.000000D+00      0.000000D+00
   z          0.519222D+01      0.131973D+02      0.440215D+02

 Dipole polarizability, Alpha (dipole orientation).
 (esu units = cm**3 , SI units = C**2 m**2 J**-1)
 Alpha(0;0):
               (au)            (10**-24 esu)      (10**-40 SI)
   iso        0.149145D+03      0.221011D+02      0.245907D+02
   aniso      0.660757D+02      0.979140D+01      0.108944D+02
   xx         0.160102D+03      0.237246D+02      0.263972D+02
   yx         0.400891D+01      0.594059D+00      0.660979D+00
   yy         0.108279D+03      0.160454D+02      0.178529D+02
   zx        -0.434231D+01     -0.643464D+00     -0.715950D+00
   zy        -0.883674D+01     -0.130947D+01     -0.145698D+01
   zz         0.179055D+03      0.265332D+02      0.295221D+02

 ----------------------------------------------------------------------
 Unable to Open any file for archive entry.
 1\1\GINC-GADI-CPU-CLX-1656\Freq\RM062X\Gen\C6H5F1N1O2S1(1-)\YJ5695\19-
 May-2022\0\\#N Geom=AllCheck Guess=TCheck SCRF=Check GenChk RM062X/Chk
 Bas Freq\\a1 b1\\-1,1\C,-1.382798,0.667205,-0.834951\C,-2.577321,0.782
 482,-1.542615\H,-3.526286,0.783194,-1.01617\C,-2.55129,0.906201,-2.931
 169\H,-3.462395,1.005118,-3.512185\C,-1.319278,0.903394,-3.564373\C,-0
 .115779,0.786315,-2.884708\H,0.821559,0.793128,-3.4313\C,-0.154954,0.6
 64978,-1.498453\H,0.772521,0.574667,-0.940026\S,-1.41135,0.41442,0.947
 957\O,-0.289653,1.272379,1.440971\O,-2.757034,0.877102,1.381544\N,-1.2
 64611,-1.108067,1.27384\H,-0.29936,-1.380835,1.068012\F,-1.286799,1.02
 389,-4.912364\\Version=ES64L-G16RevC.01\State=1-A\HF=-934.734169\RMSD=
 1.862e-09\RMSF=5.458e-06\ZeroPoint=0.1070389\Thermal=0.1163999\ETot=-9
 34.6177691\HTot=-934.6168249\GTot=-934.6630161\Dipole=0.890364,0.20957
 66,-5.111016\DipoleDeriv=-0.3965236,0.0290729,-0.0189966,0.0561561,-0.
 4258236,0.0476658,0.0097842,-0.0670334,-0.3447886,0.0700779,-0.0200313
 ,0.1064355,-0.0218512,-0.1268496,0.0203777,-0.0440936,0.0334455,-0.033
 2128,0.0406126,-0.0000162,0.0389628,-0.0009171,0.1757739,0.0136715,0.0
 510841,0.0045329,0.1305952,-0.1195471,-0.0231542,0.2203313,-0.0084033,
 -0.1792276,-0.01629,0.0266469,0.014104,-0.2920175,0.0528773,0.0149513,
 -0.0699759,0.0170585,0.2167984,0.015135,-0.060884,0.0210748,0.0516409,
 0.4550404,-0.0037698,-0.043863,-0.0119176,0.1927163,-0.1621436,-0.0379
 315,-0.1763828,1.9904318,-0.1069074,0.0134104,-0.207887,-0.0015561,-0.
 1853687,0.0045136,-0.0161311,0.0079767,-0.2861081,0.0472784,0.0007162,
 0.0704008,0.0005657,0.217349,0.0090438,0.0613064,0.014017,0.0596043,0.
 0927209,-0.0058243,-0.0868835,-0.0105025,-0.1236849,0.0243144,0.034474
 3,0.0311162,-0.0322255,0.040886,0.0133119,-0.0486954,0.0184822,0.17596
 84,0.0155298,-0.0723321,0.0142771,0.1033216,3.1853967,-0.048009,0.0220
 798,0.0338794,3.5207856,-0.0965501,0.0016381,-0.053227,3.2923704,-1.53
 90956,-0.5113567,-0.5112603,-0.5090999,-1.5248925,-0.3701798,-0.304554
 5,-0.1890779,-1.3690787,-1.7508715,0.3056018,0.5267598,0.2853161,-1.06
 93084,-0.1265993,0.3259579,-0.0564273,-1.2818937,-0.8344042,0.2347372,
 -0.1581066,0.1811937,-1.9675653,0.4608894,-0.1185527,0.2051553,-1.4422
 035,0.0739093,-0.0005727,0.1212583,-0.0308307,0.3151109,0.0007207,0.10
 79337,0.0153126,0.3837705,-0.31145,0.0009324,0.03944,0.0024266,-0.2117
 82,0.1599011,0.0356539,0.1811363,-1.9302063\Polar=159.208155,-2.291747
 6,109.1373358,0.8258993,-12.251341,179.0903476\Quadrupole=14.3970685,4
 .8696738,-19.2667422,-4.0096509,3.5905075,1.8102323\PG=C01 [X(C6H5F1N1
 O2S1)]\NImag=0\\0.69410583,-0.02426825,0.15543898,0.00551837,-0.043271
 09,0.54984312,-0.28764566,0.02007579,-0.12172914,0.73586416,0.01653467
 ,-0.06519196,0.01668415,-0.02502227,0.14555629,-0.06072441,0.01470608,
 -0.17149174,-0.04076527,-0.05022443,0.69648288,-0.01784592,0.00010932,
 0.01200346,-0.28515393,0.00093232,0.12475991,0.29921230,0.00223317,0.0
 0396431,-0.00168127,0.00185436,-0.03955037,0.00182909,-0.00208870,0.02
 690437,-0.01266476,-0.00021693,0.01229167,0.12504335,0.00155256,-0.124
 95740,-0.13352700,-0.00266033,0.12998610,0.04211001,0.00214702,-0.0251
 6916,-0.13062602,0.00529497,-0.03367728,0.00522217,-0.00259920,0.02685
 729,0.75343938,0.00552341,0.00692639,0.00427415,-0.00085235,-0.0641667
 9,0.02837507,0.00020214,0.00464699,0.00009446,-0.03436349,0.13554565,-
 0.08265439,0.00704045,-0.02959706,0.04236223,0.02560261,-0.35287527,-0
 .00203714,0.00139516,-0.01045172,0.03590033,-0.05497434,0.71909851,0.0
 0154265,0.00016084,0.00116682,0.00682751,-0.00045738,0.00265584,0.0004
 3997,-0.00020406,-0.00036292,-0.27039502,0.02405029,-0.13168897,0.2806
 8056,0.00014457,0.00695068,0.00088315,0.00232542,0.00315567,0.00100897
 ,-0.00029526,-0.00441702,-0.00048615,0.02421272,-0.03861922,0.01605754
 ,-0.02602590,0.02790680,0.00106325,0.00129086,-0.00506319,-0.02589011,
 0.00257286,-0.01044818,0.00020302,-0.00056183,0.00162387,-0.13292359,0
 .01602289,-0.14033215,0.14198844,-0.01782254,0.14326403,-0.09204505,0.
 00388859,-0.00091687,0.04650187,-0.00932518,0.09646761,0.00141639,0.00
 043303,-0.00170048,-0.32203038,0.00965577,0.03450192,-0.01748284,-0.00
 022304,0.01341594,0.73406469,0.00425104,-0.00646392,-0.00042484,-0.004
 83048,0.00198468,-0.00256905,0.00046838,0.00772941,0.00105277,0.001260
 82,-0.06711348,0.00640094,0.00265272,0.00514714,-0.00114551,-0.0276130
 8,0.15649166,-0.00185516,-0.00063827,0.00381398,0.02712161,0.00108866,
 -0.02550633,-0.00105866,0.00107316,-0.00329463,0.12236198,0.00166170,-
 0.15295463,-0.01658479,0.00044285,0.01037721,-0.00288586,-0.04556074,0
 .65971445,0.03790915,-0.00505306,0.02718668,-0.02113302,0.00341154,-0.
 03388462,0.00032647,0.00001824,-0.00042555,-0.05308263,0.00056195,0.02
 602486,-0.00316234,0.00015401,0.00310270,-0.31096518,0.02286247,-0.125
 81337,0.75398092,-0.00901154,0.00834229,0.00178299,0.00393525,-0.00357
 891,0.00657844,-0.00002297,-0.00117594,0.00001436,0.00568471,0.0090340
 3,-0.00675076,0.00011148,0.00539527,0.00046046,0.01471480,-0.06856861,
 0.01394489,-0.02498017,0.13469180,0.08539447,-0.00099308,-0.02686568,-
 0.03465596,0.00559249,-0.05839192,-0.00070378,0.00003880,-0.00081916,-
 0.03110528,-0.00418396,0.06929445,0.00352907,0.00048257,-0.00135525,-0
 .03781970,0.01030023,-0.15761478,-0.04238099,-0.05101491,0.71957545,0.
 00158955,0.00034480,-0.00080587,0.00017118,0.00003006,-0.00103761,-0.0
 0000672,-0.00003725,0.00010890,-0.00286555,0.00069086,-0.00351549,-0.0
 0075466,-0.00002484,0.00071063,-0.01752087,-0.00037637,0.01549876,-0.2
 8258678,-0.00034341,0.12745961,0.29367180,0.00037463,0.00716489,0.0010
 0229,0.00006367,-0.00101284,0.00001703,-0.00004736,-0.00063153,-0.0000
 7236,0.00064583,0.00519132,0.00080376,0.00010511,0.00004346,-0.0000748
 2,0.00244783,0.00504524,-0.00112026,-0.00048124,-0.03616519,0.00272944
 ,0.00022767,0.02526398,-0.00080100,0.00132993,-0.00512257,-0.00052198,
 0.00002008,-0.00085503,0.00010793,-0.00007154,0.00009531,-0.00310813,0
 .00076005,-0.00161683,-0.00076330,-0.00000755,0.00052817,-0.01448075,0
 .00018818,0.01045557,0.12858317,0.00255500,-0.13056693,-0.13756975,-0.
 00341340,0.13272521,-0.29203749,0.00196321,0.11536092,-0.05873551,0.00
 558679,-0.03111825,-0.00284253,0.00070136,-0.00328874,-0.02453199,-0.0
 0234129,0.03658826,0.00008737,-0.00019946,0.00055314,0.05225080,0.0001
 1363,-0.02388788,-0.13074838,0.00640564,-0.03090804,0.00571412,-0.0026
 8267,0.02663528,0.72610333,0.00561927,-0.06634389,0.00343743,0.0013592
 4,0.00895887,-0.00288194,0.00081901,0.00607986,0.00077249,-0.00162770,
 -0.00308964,0.00197395,-0.00015609,-0.00108994,-0.00004797,0.00469699,
 0.00148198,0.00390977,0.00005960,-0.06426901,0.02913046,0.00010790,0.0
 0342146,0.00001746,-0.03088562,0.14832590,0.05448927,0.00751008,-0.162
 92835,0.02501225,-0.00552605,0.06953308,-0.00356439,0.00079237,-0.0017
 5974,0.03552773,0.00309670,-0.05549136,0.00105272,-0.00012234,-0.00078
 419,-0.09296788,0.00685274,-0.03020304,0.04487762,0.02488357,-0.358230
 42,-0.00196683,0.00112972,-0.00954732,0.03709646,-0.05347773,0.7043819
 8,-0.01753520,0.00205506,-0.01354234,-0.00314773,0.00005021,0.00365770
 ,-0.00075583,0.00011497,-0.00081088,0.00028742,-0.00012003,0.00072659,
 0.00000030,-0.00001035,-0.00011813,0.00130774,0.00012233,0.00129220,0.
 00600582,-0.00031962,0.00262626,0.00046499,-0.00016858,-0.00025833,-0.
 27226760,0.02205013,-0.12792096,0.28541358,-0.00017111,0.00391043,-0.0
 0035796,0.00025222,0.00611794,0.00044278,-0.00002252,0.00014314,0.0000
 4141,-0.00013612,-0.00111423,-0.00008219,-0.00002467,-0.00068127,-0.00
 006183,0.00008443,0.00787578,0.00097709,0.00260008,0.00460199,0.001358
 88,-0.00026497,-0.00451613,-0.00054149,0.02083729,-0.04169645,0.014321
 74,-0.02303680,0.02860482,0.01215662,-0.00147883,0.01245917,0.00319112
 ,0.00038967,-0.00144231,0.00073592,-0.00004386,0.00066450,0.00044711,-
 0.00002717,-0.00078065,-0.00012427,-0.00006026,0.00010062,0.00206350,0
 .00084651,-0.00321728,-0.02685431,0.00271246,-0.01158918,0.00027075,-0
 .00050437,0.00162198,-0.12708465,0.01442002,-0.13382483,0.13608493,-0.
 01620989,0.13922421,-0.06750207,0.00231707,0.00184801,0.00816205,0.002
 60108,-0.01682653,-0.00286601,0.00017766,-0.00108837,-0.00359175,0.000
 84723,-0.00370919,0.00028624,-0.00002401,-0.00107266,-0.00424630,0.000
 25069,0.00000211,-0.00382361,-0.00029436,0.00380460,0.00024125,0.00004
 968,0.00105795,0.00634873,-0.00397770,0.01940679,-0.00211616,-0.000340
 70,0.00120228,0.79801742,0.00389941,-0.05223226,0.01238937,0.00077947,
 -0.00060828,0.00187203,0.00025897,-0.00281768,-0.00021012,0.00051712,0
 .00570598,-0.00074195,-0.00005796,0.00032849,-0.00019755,0.00034931,-0
 .00000681,0.00114475,0.00056501,0.00533450,-0.00139805,0.00004427,0.00
 034143,-0.00037578,-0.00215884,-0.00114820,-0.00097493,-0.00048963,-0.
 00243021,-0.00029434,-0.00542807,0.65332526,0.00028244,0.02088843,-0.1
 5886709,-0.01338919,0.00192175,-0.01388666,0.00184023,-0.00028061,-0.0
 0061457,0.00009990,-0.00022551,0.00604161,0.00033326,-0.00000533,0.001
 73624,-0.00057193,0.00077005,-0.00878138,0.00030006,-0.00040985,0.0072
 3929,-0.00037609,0.00001801,0.00176844,0.01425303,0.00122586,-0.013715
 25,-0.00153727,-0.00014206,-0.00129099,-0.01519706,0.03161740,0.479634
 30,-0.00626671,-0.01209986,-0.00063256,0.00196395,0.00024268,-0.004192
 38,0.00046053,-0.00060786,0.00032445,-0.00061965,0.00092265,-0.0004495
 5,0.00002287,0.00008960,-0.00049156,0.00023463,-0.00013693,0.00160323,
 0.00102145,0.00075820,-0.00094051,0.00002016,0.00005151,-0.00038609,-0
 .00259969,0.00148303,0.00007460,0.00143807,-0.00059356,0.00012895,-0.2
 6117911,-0.14571498,-0.08876007,0.30108908,-0.00792698,0.00349225,0.00
 358872,0.00136245,0.00075495,-0.00404030,0.00017870,0.00008459,0.00002
 472,-0.00115725,-0.00025319,0.00010848,0.00004235,0.00000286,-0.000356
 91,0.00044286,-0.00018332,0.00066606,-0.00002459,-0.00015267,-0.000577
 29,0.00002000,0.00001838,-0.00017396,-0.00053963,0.00083550,0.00033423
 ,-0.00000497,-0.00010429,0.00022467,-0.14868211,-0.18113738,-0.0677010
 5,0.18460487,0.19760514,-0.02870166,-0.01832354,-0.00733178,0.00554536
 ,-0.00137611,-0.00569730,-0.00022604,-0.00065628,0.00030067,-0.0014268
 5,0.00190874,-0.00241180,0.00009384,0.00029538,-0.00091659,-0.00132842
 ,-0.00023541,0.00237984,-0.00024829,0.00054670,-0.00008966,0.00010897,
 -0.00001669,-0.00039033,-0.00102723,-0.00080442,-0.00206518,-0.0010221
 7,-0.00024885,-0.00046017,-0.08871836,-0.06727171,-0.11858219,0.110036
 37,0.07993226,0.11025774,-0.01292426,0.00843944,-0.00091201,-0.0031422
 0,-0.00041889,-0.00151324,0.00193356,0.00026387,-0.00028750,0.00127056
 ,-0.00057205,0.00083197,0.00000562,-0.00003606,0.00039740,0.00018044,0
 .00015036,-0.00174263,-0.00136830,-0.00040971,0.00046703,0.00003646,-0
 .00013737,0.00066037,0.00280802,-0.00042426,0.00593711,0.00048517,0.00
 027599,-0.00038389,-0.37150636,0.10259391,0.10191708,-0.03950159,0.005
 60440,0.00683909,0.43813504,0.00228607,0.00519523,0.00338302,0.0004577
 4,0.00045678,0.00098230,-0.00014474,-0.00010509,0.00018804,-0.00000450
 ,-0.00021933,-0.00050192,0.00001003,0.00002443,-0.00006725,-0.00058571
 ,-0.00000399,0.00016681,0.00063185,-0.00047063,0.00049907,-0.00002213,
 -0.00014987,-0.00013524,-0.00013627,0.00137551,-0.00188188,-0.00006472
 ,0.00014227,-0.00002333,0.10108464,-0.10211349,-0.03452005,-0.02078211
 ,0.00950379,0.00112616,-0.13145134,0.11531986,0.03167908,-0.01073209,-
 0.00445838,0.00021610,-0.00016730,-0.00210732,0.00190373,-0.00014169,-
 0.00138880,0.00088897,0.00025457,-0.00039155,-0.00009842,-0.00001111,-
 0.00032263,0.00076622,-0.00028961,0.00207300,0.00242531,0.00087428,-0.
 00192055,-0.00006775,0.00018218,-0.00095541,-0.00523131,0.00011738,-0.
 00716419,0.00018733,-0.00029952,0.00039571,0.10131178,-0.03385911,-0.1
 1317058,-0.00997479,-0.00104266,0.01398618,-0.12151310,0.04104168,0.10
 578345,0.01065567,0.00105704,0.00062686,-0.00086118,-0.00023372,0.0000
 6311,0.00018153,-0.00000265,0.00019444,-0.00006740,-0.00028311,0.00101
 989,-0.00003914,0.00009329,0.00006901,0.00137404,-0.00014462,0.0002542
 5,-0.00004075,-0.00012952,-0.00132068,-0.00002995,-0.00007440,-0.00018
 249,-0.00113970,0.00046475,-0.00077076,0.00011573,0.00030688,-0.000121
 06,-0.08527942,0.05522432,-0.00374287,0.00310490,-0.03128748,0.0003333
 2,-0.01913166,0.04735583,-0.00302747,0.46941996,0.00260802,-0.01020454
 ,-0.00232051,-0.00239291,-0.00061678,0.00340600,-0.00031878,-0.0006235
 1,-0.00013319,0.00048970,0.00095654,0.00148817,0.00000325,0.00003409,0
 .00055636,0.00021895,0.00013328,-0.00199082,-0.00035329,0.00089779,0.0
 0115283,-0.00004397,0.00000217,0.00047972,0.00205733,-0.00008792,0.002
 45463,0.00008131,-0.00052516,-0.00025488,0.01144120,-0.29499730,0.0554
 6433,-0.00698324,-0.03719435,0.00278923,0.01217075,-0.02320104,0.00196
 392,-0.14585191,0.41671743,-0.00625280,0.02422415,0.00007852,0.0036402
 8,0.00157149,-0.00165811,-0.00013353,0.00085705,0.00012830,0.00014511,
 -0.00174660,-0.00191800,-0.00003674,-0.00010494,-0.00052908,-0.0009410
 7,-0.00023142,0.00223549,-0.00017768,-0.00122652,-0.00034612,0.0000952
 6,0.00001672,-0.00034241,-0.00225498,0.00132839,-0.00100334,0.00024505
 ,0.00040117,0.00021372,0.00495360,0.05136954,-0.07388942,-0.00322898,-
 0.01178856,0.01497062,0.00696781,-0.01109808,0.00655781,-0.07588894,-0
 .04333978,0.08330196,0.00103913,-0.00085157,-0.00019992,-0.00036049,-0
 .00026178,0.00008186,0.00001106,-0.00007118,0.00001308,-0.00006905,0.0
 0015982,0.00030753,0.00000220,0.00002022,0.00004504,0.00030550,-0.0000
 2025,-0.00016543,-0.00004773,0.00004820,-0.00023968,-0.00001048,-0.000
 00432,0.00002215,0.00017191,-0.00013851,0.00023791,0.00000975,0.000092
 07,-0.00012860,-0.01107297,-0.01033889,0.00475598,0.00065035,-0.002674
 35,-0.00040160,0.00258821,0.00135233,0.00046693,-0.37820481,0.12697733
 ,0.07270516,0.38501305,-0.00181294,-0.00021444,0.00020189,0.00024170,0
 .00021132,-0.00020344,-0.00001719,-0.00002237,-0.00000162,-0.00005859,
 0.00000385,-0.00026113,0.00000399,-0.00002448,-0.00005510,-0.00018000,
 -0.00000135,0.00015634,-0.00006551,-0.00001197,0.00006139,0.00001374,0
 .00000772,-0.00000868,0.00011248,-0.00003226,0.00029806,-0.00021541,-0
 .00008685,0.00008970,0.03998897,-0.02679694,-0.00750884,-0.00123876,0.
 00659395,0.00212066,0.00406649,-0.00582152,0.00186859,0.07340693,-0.05
 082260,-0.01077170,-0.11425296,0.07699631,0.00266605,-0.00122874,-0.00
 013707,-0.00044581,0.00000314,0.00009221,-0.00004594,-0.00012270,0.000
 05275,-0.00014712,0.00016725,0.00051942,-0.00000338,0.00002965,0.00005
 273,0.00054146,0.00001661,-0.00010690,-0.00003395,-0.00006575,-0.00049
 530,-0.00001609,-0.00003074,-0.00001702,-0.00004234,0.00013518,-0.0001
 4761,0.00009947,0.00017671,-0.00004213,-0.00672176,0.00820141,-0.00534
 065,-0.00106297,0.00182917,-0.00046301,0.00022597,0.00109302,0.0060312
 3,0.08281871,-0.02446625,-0.02429533,-0.07779421,0.01428431,0.02404620
 ,0.00485037,-0.00028542,0.00019674,-0.00868497,0.00103489,-0.00394643,
 0.00026697,-0.00018575,0.00161471,0.00554992,-0.00408179,0.04579115,0.
 00193873,-0.00020089,-0.00105253,-0.07334547,0.00098929,0.00585965,0.0
 0771491,0.00385300,-0.04320643,0.00186548,-0.00036998,0.00100496,-0.00
 858140,0.00054996,0.00347834,0.00029394,0.00014147,-0.00158440,0.00012
 807,-0.00004342,-0.00020753,0.00016075,0.00004174,0.00014368,0.0001313
 0,0.00001302,0.00006741,-0.00005783,-0.00010372,0.00016247,-0.00002564
 ,0.00000705,-0.00003810,0.06779488,-0.00028344,-0.00073444,0.00042850,
 0.00039071,0.00752943,0.00070138,-0.00001131,-0.00020917,0.00003988,-0
 .00030604,0.00656512,0.00244123,-0.00021400,-0.00415696,-0.00051211,0.
 00099443,-0.04354770,0.02407800,0.00009312,0.00609526,0.00682113,-0.00
 036639,-0.00402448,-0.00062280,0.00116605,0.00727824,0.00030908,-0.000
 04388,-0.00024180,0.00021388,-0.00001126,-0.00074710,-0.00111253,0.000
 00477,0.00013377,0.00021388,-0.00011553,0.00006708,0.00024048,0.000098
 38,-0.00046810,0.00053909,-0.00003617,0.00002163,-0.00002228,-0.001359
 46,0.02643922,0.00040464,-0.00010742,-0.00662354,0.00526518,0.00029441
 ,0.00320940,-0.00025774,0.00023449,-0.00185715,0.00532899,0.00454198,-
 0.04613296,-0.00115720,-0.00057991,0.00206840,0.00585631,0.02402857,-0
 .30937057,-0.00268164,0.00511464,-0.04782425,0.00110259,-0.00066650,0.
 00221917,-0.00564368,0.00074368,0.00294975,0.00029055,0.00022401,-0.00
 203237,-0.00025319,-0.00127097,0.01171891,-0.00204814,-0.00102761,-0.0
 0348703,0.00210853,-0.00025235,-0.00294797,-0.00032532,0.00275023,-0.0
 0350460,0.00029379,-0.00027043,0.00025047,-0.00828368,-0.03375681,0.40
 136433\\0.00000882,-0.00000033,-0.00000087,-0.00000531,0.00000306,-0.0
 0000467,0.00000194,0.00000423,0.00000205,-0.00000347,-0.00000214,0.000
 00460,-0.00000069,-0.00000179,-0.00000003,0.00000520,-0.00000784,0.000
 00921,-0.00000379,-0.00000398,-0.00001047,-0.00000073,-0.00000820,-0.0
 0000114,-0.00000518,-0.00000113,0.00000433,0.00000116,-0.00000242,-0.0
 0000245,-0.00001547,0.00000161,0.00000014,0.00000995,0.00000936,0.0000
 0158,0.00001156,0.00000575,-0.00000176,0.00000077,0.00000591,0.0000023
 1,-0.00000191,0.00000478,0.00000384,-0.00000284,-0.00000686,-0.0000066
 7\\\@
 The archive entry for this job was punched.


 ... IT IS NO ONE DREAME THAT
     CAN PLEASE THESE ALL ...

                -- BEN JONSON
 Job cpu time:       0 days  0 hours 39 minutes  4.5 seconds.
 Elapsed time:       0 days  0 hours  2 minutes 27.1 seconds.
 File lengths (MBytes):  RWF=    135 Int=      0 D2E=      0 Chk=     10 Scr=      1
 Normal termination of Gaussian 16 at Thu May 19 15:02:19 2022.
