 Entering Gaussian System, Link 0=g16
 AtFile(1): //home/561/yj5695//Basis/6-31pGd.gbs
 Initial command:
 /apps/gaussian/g16c01/g16/l1.exe "/jobfs/40645527.gadi-pbs/Gau-1050983.inp" -scrdir="/jobfs/40645527.gadi-pbs/"
 Entering Link 1 = /apps/gaussian/g16c01/g16/l1.exe PID=   1050984.
  
 Copyright (c) 1988-2019, Gaussian, Inc.  All Rights Reserved.
  
 This is part of the Gaussian(R) 16 program.  It is based on
 the Gaussian(R) 09 system (copyright 2009, Gaussian, Inc.),
 the Gaussian(R) 03 system (copyright 2003, Gaussian, Inc.),
 the Gaussian(R) 98 system (copyright 1998, Gaussian, Inc.),
 the Gaussian(R) 94 system (copyright 1995, Gaussian, Inc.),
 the Gaussian 92(TM) system (copyright 1992, Gaussian, Inc.),
 the Gaussian 90(TM) system (copyright 1990, Gaussian, Inc.),
 the Gaussian 88(TM) system (copyright 1988, Gaussian, Inc.),
 the Gaussian 86(TM) system (copyright 1986, Carnegie Mellon
 University), and the Gaussian 82(TM) system (copyright 1983,
 Carnegie Mellon University). Gaussian is a federally registered
 trademark of Gaussian, Inc.
  
 This software contains proprietary and confidential information,
 including trade secrets, belonging to Gaussian, Inc.
  
 This software is provided under written license and may be
 used, copied, transmitted, or stored only in accord with that
 written license.
  
 The following legend is applicable only to US Government
 contracts under FAR:
  
                    RESTRICTED RIGHTS LEGEND
  
 Use, reproduction and disclosure by the US Government is
 subject to restrictions as set forth in subparagraphs (a)
 and (c) of the Commercial Computer Software - Restricted
 Rights clause in FAR 52.227-19.
  
 Gaussian, Inc.
 340 Quinnipiac St., Bldg. 40, Wallingford CT 06492
  
  
 ---------------------------------------------------------------
 Warning -- This program may not be used in any manner that
 competes with the business of Gaussian, Inc. or will provide
 assistance to any competitor of Gaussian, Inc.  The licensee
 of this program is prohibited from giving any competitor of
 Gaussian, Inc. access to this program.  By using this program,
 the user acknowledges that Gaussian, Inc. is engaged in the
 business of creating and licensing software in the field of
 computational chemistry and represents and warrants to the
 licensee that it is not a competitor of Gaussian, Inc. and that
 it will not use this program in any manner prohibited above.
 ---------------------------------------------------------------
  

 Cite this work as:
 Gaussian 16, Revision C.01,
 M. J. Frisch, G. W. Trucks, H. B. Schlegel, G. E. Scuseria, 
 M. A. Robb, J. R. Cheeseman, G. Scalmani, V. Barone, 
 G. A. Petersson, H. Nakatsuji, X. Li, M. Caricato, A. V. Marenich, 
 J. Bloino, B. G. Janesko, R. Gomperts, B. Mennucci, H. P. Hratchian, 
 J. V. Ortiz, A. F. Izmaylov, J. L. Sonnenberg, D. Williams-Young, 
 F. Ding, F. Lipparini, F. Egidi, J. Goings, B. Peng, A. Petrone, 
 T. Henderson, D. Ranasinghe, V. G. Zakrzewski, J. Gao, N. Rega, 
 G. Zheng, W. Liang, M. Hada, M. Ehara, K. Toyota, R. Fukuda, 
 J. Hasegawa, M. Ishida, T. Nakajima, Y. Honda, O. Kitao, H. Nakai, 
 T. Vreven, K. Throssell, J. A. Montgomery, Jr., J. E. Peralta, 
 F. Ogliaro, M. J. Bearpark, J. J. Heyd, E. N. Brothers, K. N. Kudin, 
 V. N. Staroverov, T. A. Keith, R. Kobayashi, J. Normand, 
 K. Raghavachari, A. P. Rendell, J. C. Burant, S. S. Iyengar, 
 J. Tomasi, M. Cossi, J. M. Millam, M. Klene, C. Adamo, R. Cammi, 
 J. W. Ochterski, R. L. Martin, K. Morokuma, O. Farkas, 
 J. B. Foresman, and D. J. Fox, Gaussian, Inc., Wallingford CT, 2019.
 
 ******************************************
 Gaussian 16:  ES64L-G16RevC.01  3-Jul-2019
                19-May-2022 
 ******************************************
 %nproc=16
 Will use up to   16 processors via shared memory.
 %mem=20gb
 -----------------------------------------------------
 #m062X/gen 6D OPT Freq=noraman SCRF=(SMD,Solvent=h2o)
 -----------------------------------------------------
 1/18=20,19=15,26=3,38=1/1,3;
 2/9=110,12=2,17=6,18=5,40=1/2;
 3/5=7,8=2,11=2,25=1,30=1,70=32201,71=1,72=1,74=-55/1,2,3;
 4//1;
 5/5=2,38=5,53=1/2;
 6/7=2,8=2,9=2,10=2,28=1/1;
 7//1,2,3,16;
 1/18=20,19=15,26=3/3(2);
 2/9=110/2;
 99//99;
 2/9=110/2;
 3/5=7,6=1,8=2,11=2,25=1,30=1,70=32205,71=1,72=1,74=-55,82=7/1,2,3;
 4/5=5,16=3,69=1/1;
 5/5=2,38=5,53=1/2;
 7//1,2,3,16;
 1/18=20,19=15,26=3/3(-5);
 2/9=110/2;
 6/7=2,8=2,9=2,10=2,19=2,28=1/1;
 99/9=1/99;
 -----
 a1 b1
 -----
 Symbolic Z-matrix:
 Charge = -1 Multiplicity = 1
 C                    -1.47356   0.60814  -0.82458 
 C                    -2.5974    0.87787  -1.60246 
 F                    -3.80666   1.00033  -1.02486 
 C                    -2.5393    1.03771  -2.98098 
 H                    -3.45383   1.24735  -3.52554 
 C                    -1.31018   0.92751  -3.62219 
 C                    -0.15249   0.66049  -2.89195 
 H                     0.82099   0.56879  -3.36143 
 C                    -0.26989   0.51097  -1.52364 
 F                     0.84856   0.24693  -0.81218 
 S                    -1.43909   0.3681    0.97973 
 O                    -0.60211   1.51759   1.42841 
 O                    -2.85199   0.44551   1.4114 
 N                    -0.86827  -1.04295   1.29865 
 H                     0.14208  -1.02219   1.14291 
 H                    -1.25113   1.05064  -4.69851 
 

 GradGradGradGradGradGradGradGradGradGradGradGradGradGradGradGradGradGrad
 Berny optimization.
 Initialization pass.
                           ----------------------------
                           !    Initial Parameters    !
                           ! (Angstroms and Degrees)  !
 --------------------------                            --------------------------
 ! Name  Definition              Value          Derivative Info.                !
 --------------------------------------------------------------------------------
 ! R1    R(1,2)                  1.3931         estimate D2E/DX2                !
 ! R2    R(1,9)                  1.3953         estimate D2E/DX2                !
 ! R3    R(1,11)                 1.8205         estimate D2E/DX2                !
 ! R4    R(2,3)                  1.3457         estimate D2E/DX2                !
 ! R5    R(2,4)                  1.389          estimate D2E/DX2                !
 ! R6    R(4,5)                  1.0848         estimate D2E/DX2                !
 ! R7    R(4,6)                  1.3907         estimate D2E/DX2                !
 ! R8    R(6,7)                  1.3946         estimate D2E/DX2                !
 ! R9    R(6,16)                 1.0849         estimate D2E/DX2                !
 ! R10   R(7,8)                  1.0847         estimate D2E/DX2                !
 ! R11   R(7,9)                  1.3815         estimate D2E/DX2                !
 ! R12   R(9,10)                 1.3516         estimate D2E/DX2                !
 ! R13   R(11,12)                1.491          estimate D2E/DX2                !
 ! R14   R(11,13)                1.4794         estimate D2E/DX2                !
 ! R15   R(11,14)                1.5552         estimate D2E/DX2                !
 ! R16   R(14,15)                1.0225         estimate D2E/DX2                !
 ! A1    A(2,1,9)              115.4441         estimate D2E/DX2                !
 ! A2    A(2,1,11)             126.4547         estimate D2E/DX2                !
 ! A3    A(9,1,11)             118.1003         estimate D2E/DX2                !
 ! A4    A(1,2,3)              120.1895         estimate D2E/DX2                !
 ! A5    A(1,2,4)              122.8675         estimate D2E/DX2                !
 ! A6    A(3,2,4)              116.9425         estimate D2E/DX2                !
 ! A7    A(2,4,5)              119.0245         estimate D2E/DX2                !
 ! A8    A(2,4,6)              119.0422         estimate D2E/DX2                !
 ! A9    A(5,4,6)              121.9331         estimate D2E/DX2                !
 ! A10   A(4,6,7)              120.4928         estimate D2E/DX2                !
 ! A11   A(4,6,16)             119.77           estimate D2E/DX2                !
 ! A12   A(7,6,16)             119.7372         estimate D2E/DX2                !
 ! A13   A(6,7,8)              122.3163         estimate D2E/DX2                !
 ! A14   A(6,7,9)              117.9586         estimate D2E/DX2                !
 ! A15   A(8,7,9)              119.7251         estimate D2E/DX2                !
 ! A16   A(1,9,7)              124.1945         estimate D2E/DX2                !
 ! A17   A(1,9,10)             117.6277         estimate D2E/DX2                !
 ! A18   A(7,9,10)             118.1769         estimate D2E/DX2                !
 ! A19   A(1,11,12)            101.9592         estimate D2E/DX2                !
 ! A20   A(1,11,13)            105.3196         estimate D2E/DX2                !
 ! A21   A(1,11,14)            109.2582         estimate D2E/DX2                !
 ! A22   A(12,11,13)           114.077          estimate D2E/DX2                !
 ! A23   A(12,11,14)           115.578          estimate D2E/DX2                !
 ! A24   A(13,11,14)           109.7664         estimate D2E/DX2                !
 ! A25   A(11,14,15)           108.2421         estimate D2E/DX2                !
 ! D1    D(9,1,2,3)           -179.5542         estimate D2E/DX2                !
 ! D2    D(9,1,2,4)              0.18           estimate D2E/DX2                !
 ! D3    D(11,1,2,3)             0.7911         estimate D2E/DX2                !
 ! D4    D(11,1,2,4)          -179.4747         estimate D2E/DX2                !
 ! D5    D(2,1,9,7)             -0.1811         estimate D2E/DX2                !
 ! D6    D(2,1,9,10)          -179.8381         estimate D2E/DX2                !
 ! D7    D(11,1,9,7)           179.5041         estimate D2E/DX2                !
 ! D8    D(11,1,9,10)           -0.153          estimate D2E/DX2                !
 ! D9    D(2,1,11,12)         -116.2857         estimate D2E/DX2                !
 ! D10   D(2,1,11,13)            3.0813         estimate D2E/DX2                !
 ! D11   D(2,1,11,14)          120.9299         estimate D2E/DX2                !
 ! D12   D(9,1,11,12)           64.0678         estimate D2E/DX2                !
 ! D13   D(9,1,11,13)         -176.5652         estimate D2E/DX2                !
 ! D14   D(9,1,11,14)          -58.7166         estimate D2E/DX2                !
 ! D15   D(1,2,4,5)           -179.9417         estimate D2E/DX2                !
 ! D16   D(1,2,4,6)             -0.0945         estimate D2E/DX2                !
 ! D17   D(3,2,4,5)             -0.1994         estimate D2E/DX2                !
 ! D18   D(3,2,4,6)            179.6478         estimate D2E/DX2                !
 ! D19   D(2,4,6,7)             -0.0051         estimate D2E/DX2                !
 ! D20   D(2,4,6,16)          -179.9739         estimate D2E/DX2                !
 ! D21   D(5,4,6,7)            179.8375         estimate D2E/DX2                !
 ! D22   D(5,4,6,16)            -0.1312         estimate D2E/DX2                !
 ! D23   D(4,6,7,8)           -179.9827         estimate D2E/DX2                !
 ! D24   D(4,6,7,9)              0.0065         estimate D2E/DX2                !
 ! D25   D(16,6,7,8)            -0.0139         estimate D2E/DX2                !
 ! D26   D(16,6,7,9)           179.9753         estimate D2E/DX2                !
 ! D27   D(6,7,9,1)              0.0927         estimate D2E/DX2                !
 ! D28   D(6,7,9,10)           179.7479         estimate D2E/DX2                !
 ! D29   D(8,7,9,1)           -179.9178         estimate D2E/DX2                !
 ! D30   D(8,7,9,10)            -0.2625         estimate D2E/DX2                !
 ! D31   D(1,11,14,15)          74.5955         estimate D2E/DX2                !
 ! D32   D(12,11,14,15)        -39.6454         estimate D2E/DX2                !
 ! D33   D(13,11,14,15)       -170.3843         estimate D2E/DX2                !
 --------------------------------------------------------------------------------
 Trust Radius=3.00D-01 FncErr=1.00D-07 GrdErr=1.00D-06 EigMax=2.50D+02 EigMin=1.00D-04
 Number of steps in this run=     84 maximum allowed number of steps=    100.
 GradGradGradGradGradGradGradGradGradGradGradGradGradGradGradGradGradGrad

                          Input orientation:                          
 ---------------------------------------------------------------------
 Center     Atomic      Atomic             Coordinates (Angstroms)
 Number     Number       Type             X           Y           Z
 ---------------------------------------------------------------------
      1          6           0       -1.473560    0.608144   -0.824580
      2          6           0       -2.597396    0.877873   -1.602456
      3          9           0       -3.806659    1.000332   -1.024863
      4          6           0       -2.539301    1.037710   -2.980977
      5          1           0       -3.453825    1.247354   -3.525541
      6          6           0       -1.310182    0.927506   -3.622194
      7          6           0       -0.152491    0.660485   -2.891946
      8          1           0        0.820993    0.568789   -3.361426
      9          6           0       -0.269890    0.510968   -1.523638
     10          9           0        0.848558    0.246927   -0.812180
     11         16           0       -1.439087    0.368098    0.979728
     12          8           0       -0.602108    1.517592    1.428410
     13          8           0       -2.851987    0.445511    1.411397
     14          7           0       -0.868268   -1.042946    1.298646
     15          1           0        0.142075   -1.022190    1.142911
     16          1           0       -1.251131    1.050639   -4.698512
 ---------------------------------------------------------------------
                    Distance matrix (angstroms):
                    1          2          3          4          5
     1  C    0.000000
     2  C    1.393145   0.000000
     3  F    2.374295   1.345707   0.000000
     4  C    2.443436   1.388972   2.331089   0.000000
     5  H    3.409579   2.137345   2.537499   1.084829   0.000000
     6  C    2.820519   2.395564   3.603308   1.390697   2.169528
     7  C    2.453969   2.772653   4.117577   2.418075   3.412428
     8  H    3.420835   3.856798   5.202011   3.414118   4.331449
     9  C    1.395330   2.357566   3.605134   2.748003   3.832404
    10  F    2.350077   3.591271   4.720582   4.099586   5.183983
    11  S    1.820532   2.875626   3.165991   4.164857   5.012954
    12  O    2.581180   3.684639   4.068815   4.840010   5.722495
    13  O    2.631749   3.055334   2.674806   4.443132   5.037710
    14  N    2.756912   3.885334   4.267062   5.043476   5.933242
    15  H    3.023125   4.318794   4.937848   5.332862   6.314727
    16  H    3.905461   3.380509   4.475372   2.146969   2.503282
                    6          7          8          9         10
     6  C    0.000000
     7  C    1.394565   0.000000
     8  H    2.176829   1.084662   0.000000
     9  C    2.379002   1.381450   2.137951   0.000000
    10  F    3.608258   2.344900   2.569632   1.351598   0.000000
    11  S    4.637590   4.090315   4.898352   2.766636   2.908425
    12  O    5.134021   4.427444   5.086057   3.136598   2.956225
    13  O    5.286447   5.084511   6.023771   3.909724   4.321778
    14  N    5.319082   4.579855   5.212251   3.276888   3.011121
    15  H    5.349448   4.381579   4.825059   3.103349   2.435602
    16  H    1.084947   2.150096   2.512703   3.366586   4.489791
                   11         12         13         14         15
    11  S    0.000000
    12  O    1.491035   0.000000
    13  O    1.479398   2.492309   0.000000
    14  N    1.555181   2.577603   2.482611   0.000000
    15  H    2.111777   2.661919   3.345241   1.022486   0.000000
    16  H    5.722202   6.178871   6.345070   6.363614   6.352941
                   16
    16  H    0.000000
 Stoichiometry    C6H4F2NO2S(1-)
 Framework group  C1[X(C6H4F2NO2S)]
 Deg. of freedom    42
 Full point group                 C1      NOp   1
 Largest Abelian subgroup         C1      NOp   1
 Largest concise Abelian subgroup C1      NOp   1
                         Standard orientation:                         
 ---------------------------------------------------------------------
 Center     Atomic      Atomic             Coordinates (Angstroms)
 Number     Number       Type             X           Y           Z
 ---------------------------------------------------------------------
      1          6           0        0.209585    0.054447    0.002983
      2          6           0        1.050634    1.164946   -0.013783
      3          9           0        0.532032    2.406706   -0.010516
      4          6           0        2.435659    1.061402   -0.028888
      5          1           0        3.031157    1.968099   -0.040573
      6          6           0        3.018339   -0.201337   -0.025347
      7          6           0        2.223797   -1.347273   -0.006793
      8          1           0        2.646690   -2.346092   -0.003275
      9          6           0        0.852087   -1.184147    0.007641
     10          9           0        0.077739   -2.291864    0.020408
     11         16           0       -1.610804    0.076185    0.010149
     12          8           0       -1.922092   -0.550298    1.326889
     13          8           0       -1.985003    1.504494   -0.082178
     14          7           0       -2.137813   -0.687321   -1.238013
     15          1           0       -2.011180   -1.689151   -1.077459
     16          1           0        4.099094   -0.295949   -0.036592
 ---------------------------------------------------------------------
 Rotational constants (GHZ):           1.2960910           0.8087345           0.5535380
 General basis read from cards:  (6D, 7F)
 There are   240 symmetry adapted cartesian basis functions of A   symmetry.
 There are   240 symmetry adapted basis functions of A   symmetry.
   240 basis functions,   424 primitive gaussians,   240 cartesian basis functions
    49 alpha electrons       49 beta electrons
       nuclear repulsion energy       854.6478067834 Hartrees.
 NAtoms=   16 NActive=   16 NUniq=   16 SFac= 1.00D+00 NAtFMM=   60 NAOKFM=F Big=F
 Integral buffers will be    131072 words long.
 Raffenetti 2 integral format.
 Two-electron integral symmetry is turned on.
 ------------------------------------------------------------------------------
 Polarizable Continuum Model (PCM)
 =================================
 Model                : PCM.
 Atomic radii         : SMD-Coulomb.
 Polarization charges : Total charges.
 Charge compensation  : None.
 Solution method      : On-the-fly selection.
 Cavity type          : VdW (van der Waals Surface) (Alpha=1.000).
 Cavity algorithm     : GePol (No added spheres)
                        Default sphere list used, NSphG=   16.
                        Lebedev-Laikov grids with approx.  5.0 points / Ang**2.
                        Smoothing algorithm: York/Karplus (Gamma=1.0000).
                        Polarization charges: spherical gaussians, with
                                              point-specific exponents (IZeta= 3).
                        Self-potential: point-specific (ISelfS= 7).
                        Self-field    : sphere-specific E.n sum rule (ISelfD= 2).
 1st derivatives      : Analytical E(r).r(x)/FMM algorithm (CHGder, D1EAlg=3).
                        Cavity 1st derivative terms included.
 Solvent              : Water, Eps=  78.355300 Eps(inf)=   1.777849
 ------------------------------------------------------------------------------
 Spheres list:
 ISph  on   Nord     Re0    Alpha      Xe            Ye            Ze
    1   C      1    1.8500  1.000      0.209585      0.054447      0.002983
    2   C      2    1.8500  1.000      1.050634      1.164946     -0.013783
    3   F      3    1.7300  1.000      0.532032      2.406706     -0.010516
    4   C      4    1.8500  1.000      2.435659      1.061402     -0.028888
    5   H      5    1.2000  1.000      3.031157      1.968099     -0.040573
    6   C      6    1.8500  1.000      3.018339     -0.201337     -0.025347
    7   C      7    1.8500  1.000      2.223797     -1.347273     -0.006793
    8   H      8    1.2000  1.000      2.646690     -2.346092     -0.003275
    9   C      9    1.8500  1.000      0.852087     -1.184147      0.007641
   10   F     10    1.7300  1.000      0.077739     -2.291864      0.020408
   11   S     11    2.4900  1.000     -1.610804      0.076185      0.010149
   12   O     12    1.5200  1.000     -1.922092     -0.550298      1.326889
   13   O     13    1.5200  1.000     -1.985003      1.504494     -0.082178
   14   N     14    1.8900  1.000     -2.137813     -0.687321     -1.238013
   15   H     15    1.2000  1.000     -2.011180     -1.689151     -1.077459
   16   H     16    1.2000  1.000      4.099094     -0.295949     -0.036592
 ------------------------------------------------------------------------------
 ------------------------------------------------------------------------------
 Atomic radii for non-electrostatic terms: SMD-CDS.
 ------------------------------------------------------------------------------
 Nuclear repulsion after PCM non-electrostatic terms =      854.6539669762 Hartrees.
 One-electron integrals computed using PRISM.
 NBasis=   240 RedAO= T EigKep=  2.37D-06  NBF=   240
 NBsUse=   240 1.00D-06 EigRej= -1.00D+00 NBFU=   240
 ExpMin= 4.05D-02 ExpMax= 2.19D+04 ExpMxC= 3.30D+03 IAcc=3 IRadAn=         5 AccDes= 0.00D+00
 Harris functional with IExCor= 1009 and IRadAn=       5 diagonalized for initial guess.
 HarFok:  IExCor= 1009 AccDes= 0.00D+00 IRadAn=         5 IDoV= 1 UseB2=F ITyADJ=14
 ICtDFT=  3500011 ScaDFX=  1.000000  1.000000  1.000000  1.000000
 FoFCou: FMM=F IPFlag=           0 FMFlag=      100000 FMFlg1=           0
         NFxFlg=           0 DoJE=T BraDBF=F KetDBF=T FulRan=T
         wScrn=  0.000000 ICntrl=       500 IOpCl=  0 I1Cent=   200000004 NGrid=           0
         NMat0=    1 NMatS0=      1 NMatT0=    0 NMatD0=    1 NMtDS0=    0 NMtDT0=    0
 Petite list used in FoFCou.
 Requested convergence on RMS density matrix=1.00D-08 within 128 cycles.
 Requested convergence on MAX density matrix=1.00D-06.
 Requested convergence on             energy=1.00D-06.
 No special actions if energy rises.
 Inv3:  Mode=1 IEnd=     5863212.
 Iteration    1 A*A^-1 deviation from unit magnitude is 3.22D-15 for   1374.
 Iteration    1 A*A^-1 deviation from orthogonality  is 1.82D-15 for   1244    203.
 Iteration    1 A^-1*A deviation from unit magnitude is 3.55D-15 for   1370.
 Iteration    1 A^-1*A deviation from orthogonality  is 1.68D-15 for    907    878.
 Error on total polarization charges =  0.04246
 SCF Done:  E(RM062X) =  -1033.93663162     A.U. after   15 cycles
            NFock= 15  Conv=0.59D-08     -V/T= 2.0063
 SMD-CDS (non-electrostatic) energy       (kcal/mol) =       3.87
 (included in total energy above)

 **********************************************************************

            Population analysis using the SCF Density.

 **********************************************************************

 Orbital symmetries:
       Occupied  (A) (A) (A) (A) (A) (A) (A) (A) (A) (A) (A) (A)
                 (A) (A) (A) (A) (A) (A) (A) (A) (A) (A) (A) (A)
                 (A) (A) (A) (A) (A) (A) (A) (A) (A) (A) (A) (A)
                 (A) (A) (A) (A) (A) (A) (A) (A) (A) (A) (A) (A)
                 (A)
       Virtual   (A) (A) (A) (A) (A) (A) (A) (A) (A) (A) (A) (A)
                 (A) (A) (A) (A) (A) (A) (A) (A) (A) (A) (A) (A)
                 (A) (A) (A) (A) (A) (A) (A) (A) (A) (A) (A) (A)
                 (A) (A) (A) (A) (A) (A) (A) (A) (A) (A) (A) (A)
                 (A) (A) (A) (A) (A) (A) (A) (A) (A) (A) (A) (A)
                 (A) (A) (A) (A) (A) (A) (A) (A) (A) (A) (A) (A)
                 (A) (A) (A) (A) (A) (A) (A) (A) (A) (A) (A) (A)
                 (A) (A) (A) (A) (A) (A) (A) (A) (A) (A) (A) (A)
                 (A) (A) (A) (A) (A) (A) (A) (A) (A) (A) (A) (A)
                 (A) (A) (A) (A) (A) (A) (A) (A) (A) (A) (A) (A)
                 (A) (A) (A) (A) (A) (A) (A) (A) (A) (A) (A) (A)
                 (A) (A) (A) (A) (A) (A) (A) (A) (A) (A) (A) (A)
                 (A) (A) (A) (A) (A) (A) (A) (A) (A) (A) (A) (A)
                 (A) (A) (A) (A) (A) (A) (A) (A) (A) (A) (A) (A)
                 (A) (A) (A) (A) (A) (A) (A) (A) (A) (A) (A) (A)
                 (A) (A) (A) (A) (A) (A) (A) (A) (A) (A) (A)
 The electronic state is 1-A.
 Alpha  occ. eigenvalues --  -90.14538 -25.29320 -25.28744 -19.62376 -19.62328
 Alpha  occ. eigenvalues --  -14.72196 -10.66025 -10.65885 -10.58991 -10.57413
 Alpha  occ. eigenvalues --  -10.56610 -10.56538  -8.45287  -6.37524  -6.37456
 Alpha  occ. eigenvalues --   -6.37377  -1.38724  -1.38306  -1.21457  -1.09753
 Alpha  occ. eigenvalues --   -0.98945  -0.96625  -0.87606  -0.86305  -0.74727
 Alpha  occ. eigenvalues --   -0.72744  -0.69023  -0.65233  -0.61982  -0.59837
 Alpha  occ. eigenvalues --   -0.58475  -0.57351  -0.57299  -0.55930  -0.54480
 Alpha  occ. eigenvalues --   -0.54069  -0.52386  -0.47532  -0.45575  -0.45021
 Alpha  occ. eigenvalues --   -0.44320  -0.42265  -0.39862  -0.37846  -0.36504
 Alpha  occ. eigenvalues --   -0.33640  -0.32996  -0.31156  -0.29523
 Alpha virt. eigenvalues --    0.00092   0.01808   0.01943   0.03664   0.03750
 Alpha virt. eigenvalues --    0.04531   0.04625   0.05593   0.06690   0.08219
 Alpha virt. eigenvalues --    0.08370   0.08437   0.09177   0.09681   0.11920
 Alpha virt. eigenvalues --    0.12119   0.12315   0.13026   0.13476   0.14158
 Alpha virt. eigenvalues --    0.15264   0.16283   0.16591   0.16961   0.17958
 Alpha virt. eigenvalues --    0.18512   0.18877   0.19181   0.20033   0.21095
 Alpha virt. eigenvalues --    0.21581   0.22342   0.22878   0.23407   0.24049
 Alpha virt. eigenvalues --    0.24756   0.25722   0.26195   0.26741   0.26834
 Alpha virt. eigenvalues --    0.27412   0.28109   0.29869   0.30228   0.31142
 Alpha virt. eigenvalues --    0.31508   0.32615   0.32686   0.32882   0.33955
 Alpha virt. eigenvalues --    0.34371   0.36318   0.37620   0.38234   0.38760
 Alpha virt. eigenvalues --    0.39536   0.40504   0.42928   0.44086   0.45228
 Alpha virt. eigenvalues --    0.45697   0.47000   0.47456   0.49811   0.51897
 Alpha virt. eigenvalues --    0.58136   0.60675   0.64443   0.67115   0.69827
 Alpha virt. eigenvalues --    0.70352   0.71713   0.73100   0.74204   0.74790
 Alpha virt. eigenvalues --    0.75613   0.78193   0.78851   0.80091   0.80619
 Alpha virt. eigenvalues --    0.82200   0.87642   0.90944   0.95225   0.97017
 Alpha virt. eigenvalues --    0.98275   0.99484   1.00418   1.02395   1.06641
 Alpha virt. eigenvalues --    1.08037   1.09078   1.09391   1.11490   1.13595
 Alpha virt. eigenvalues --    1.15850   1.18062   1.19231   1.21746   1.22996
 Alpha virt. eigenvalues --    1.25479   1.27242   1.28400   1.30232   1.33844
 Alpha virt. eigenvalues --    1.35630   1.37803   1.39035   1.39527   1.40128
 Alpha virt. eigenvalues --    1.40263   1.40651   1.43060   1.45226   1.47832
 Alpha virt. eigenvalues --    1.50469   1.51043   1.51260   1.56169   1.65872
 Alpha virt. eigenvalues --    1.69599   1.70989   1.71742   1.73373   1.76625
 Alpha virt. eigenvalues --    1.79582   1.80469   1.81955   1.82628   1.83662
 Alpha virt. eigenvalues --    1.84817   1.85415   1.87811   1.88475   1.90786
 Alpha virt. eigenvalues --    1.90857   1.92163   1.93935   1.96771   1.98521
 Alpha virt. eigenvalues --    1.98705   2.01227   2.01952   2.02927   2.04711
 Alpha virt. eigenvalues --    2.06051   2.07134   2.08632   2.12051   2.18236
 Alpha virt. eigenvalues --    2.20102   2.21217   2.23657   2.26029   2.29723
 Alpha virt. eigenvalues --    2.30735   2.32563   2.33709   2.35709   2.40297
 Alpha virt. eigenvalues --    2.41997   2.46335   2.50192   2.60090   2.60429
 Alpha virt. eigenvalues --    2.63566   2.65478   2.66661   2.69695   2.71320
 Alpha virt. eigenvalues --    2.83771   2.85136   2.89064   2.96409   3.05499
 Alpha virt. eigenvalues --    3.20345   3.23683   3.32703   3.44477   4.00775
 Alpha virt. eigenvalues --    4.08575   4.23853   4.26746   4.27767   4.32425
 Alpha virt. eigenvalues --    4.35051   4.45462   4.49095   4.78690   6.11834
 Alpha virt. eigenvalues --    6.33186
          Condensed to atoms (all electrons):
               1          2          3          4          5          6
     1  C   28.851346 -10.305249   0.003894  -2.468479   0.033869  -2.568693
     2  C  -10.305249  30.961720   0.184267   0.406618  -0.086497   1.560102
     3  F    0.003894   0.184267   9.385482  -0.157111  -0.004263  -0.038358
     4  C   -2.468479   0.406618  -0.157111   8.982429   0.377076   0.268833
     5  H    0.033869  -0.086497  -0.004263   0.377076   0.418484  -0.007234
     6  C   -2.568693   1.560102  -0.038358   0.268833  -0.007234   6.136941
     7  C   -0.341883  -2.355016  -0.009026   0.993823   0.019832   0.109967
     8  H    0.052650   0.002750   0.000021   0.006566  -0.000082  -0.019515
     9  C   -5.146448 -15.267077   0.017349  -2.396237  -0.024508   0.386245
    10  F    0.031083   0.122399  -0.001093  -0.005377   0.000033  -0.010448
    11  S   -0.870479   0.827786  -0.033819  -0.050242   0.000289   0.093858
    12  O    0.061688   0.058943  -0.000533   0.029177   0.000009   0.001447
    13  O   -0.355912  -0.210059  -0.013256   0.067042   0.000218   0.009264
    14  N    0.023722   0.025713  -0.002723   0.015342   0.000046   0.006248
    15  H   -0.121805  -0.033533   0.000005   0.000603   0.000000   0.000578
    16  H   -0.024524   0.021666  -0.000404  -0.027549  -0.002648   0.348740
               7          8          9         10         11         12
     1  C   -0.341883   0.052650  -5.146448   0.031083  -0.870479   0.061688
     2  C   -2.355016   0.002750 -15.267077   0.122399   0.827786   0.058943
     3  F   -0.009026   0.000021   0.017349  -0.001093  -0.033819  -0.000533
     4  C    0.993823   0.006566  -2.396237  -0.005377  -0.050242   0.029177
     5  H    0.019832  -0.000082  -0.024508   0.000033   0.000289   0.000009
     6  C    0.109967  -0.019515   0.386245  -0.010448   0.093858   0.001447
     7  C   10.099135   0.345550  -2.565158  -0.099286  -0.113612  -0.048788
     8  H    0.345550   0.415669  -0.076642  -0.003720   0.000978   0.000004
     9  C   -2.565158  -0.076642  30.562109  -0.035803  -0.210881  -0.142229
    10  F   -0.099286  -0.003720  -0.035803   9.386556  -0.022687  -0.003981
    11  S   -0.113612   0.000978  -0.210881  -0.022687  14.457799   0.109665
    12  O   -0.048788   0.000004  -0.142229  -0.003981   0.109665   8.936258
    13  O    0.044142   0.000026   0.268290   0.000043   0.188257  -0.111587
    14  N   -0.050873  -0.000010  -0.063941  -0.003184   0.120030  -0.174218
    15  H    0.033172  -0.000001   0.068511   0.000470   0.077359  -0.009001
    16  H   -0.029152  -0.002614   0.028904  -0.000406  -0.000216  -0.000000
              13         14         15         16
     1  C   -0.355912   0.023722  -0.121805  -0.024524
     2  C   -0.210059   0.025713  -0.033533   0.021666
     3  F   -0.013256  -0.002723   0.000005  -0.000404
     4  C    0.067042   0.015342   0.000603  -0.027549
     5  H    0.000218   0.000046   0.000000  -0.002648
     6  C    0.009264   0.006248   0.000578   0.348740
     7  C    0.044142  -0.050873   0.033172  -0.029152
     8  H    0.000026  -0.000010  -0.000001  -0.002614
     9  C    0.268290  -0.063941   0.068511   0.028904
    10  F    0.000043  -0.003184   0.000470  -0.000406
    11  S    0.188257   0.120030   0.077359  -0.000216
    12  O   -0.111587  -0.174218  -0.009001  -0.000000
    13  O    9.042492  -0.171697   0.017316  -0.000001
    14  N   -0.171697   8.041485   0.201874   0.000000
    15  H    0.017316   0.201874   0.354698   0.000000
    16  H   -0.000001   0.000000   0.000000   0.418225
 Mulliken charges:
               1
     1  C   -0.854781
     2  C    0.085468
     3  F   -0.330432
     4  C   -0.042514
     5  H    0.275377
     6  C   -0.277976
     7  C   -0.032825
     8  H    0.278368
     9  C    0.597515
    10  F   -0.354600
    11  S    1.425915
    12  O   -0.706853
    13  O   -0.774579
    14  N   -0.967815
    15  H    0.409753
    16  H    0.269979
 Sum of Mulliken charges =  -1.00000
 Mulliken charges with hydrogens summed into heavy atoms:
               1
     1  C   -0.854781
     2  C    0.085468
     3  F   -0.330432
     4  C    0.232863
     6  C   -0.007997
     7  C    0.245543
     9  C    0.597515
    10  F   -0.354600
    11  S    1.425915
    12  O   -0.706853
    13  O   -0.774579
    14  N   -0.558062
 Electronic spatial extent (au):  <R**2>=           1987.3273
 Charge=             -1.0000 electrons
 Dipole moment (field-independent basis, Debye):
    X=             14.8004    Y=             -2.8829    Z=             -0.2643  Tot=             15.0809
 Quadrupole moment (field-independent basis, Debye-Ang):
   XX=            -90.2957   YY=            -83.8847   ZZ=            -89.7178
   XY=              3.5667   XZ=             -0.7862   YZ=              2.3758
 Traceless Quadrupole moment (field-independent basis, Debye-Ang):
   XX=             -2.3296   YY=              4.0814   ZZ=             -1.7518
   XY=              3.5667   XZ=             -0.7862   YZ=              2.3758
 Octapole moment (field-independent basis, Debye-Ang**2):
  XXX=            108.6944  YYY=            -19.5708  ZZZ=              7.2509  XYY=             21.9625
  XXY=             -9.5168  XXZ=              5.8526  XZZ=             16.8994  YZZ=              6.0016
  YYZ=             -2.5069  XYZ=             -4.3956
 Hexadecapole moment (field-independent basis, Debye-Ang**3):
 XXXX=          -1545.2438 YYYY=           -781.5366 ZZZZ=           -252.3693 XXXY=             14.0799
 XXXZ=            -32.1022 YYYX=             25.1421 YYYZ=              7.5093 ZZZX=            -16.1588
 ZZZY=             -1.4242 XXYY=           -368.0488 XXZZ=           -370.4698 YYZZ=           -164.0238
 XXYZ=              5.6251 YYXZ=              4.1649 ZZXY=             -6.7478
 N-N= 8.546539669762D+02 E-N=-4.163236643184D+03  KE= 1.027414094439D+03
 D1PCM: PCM CHGder 1st derivatives, ID1Alg=3 FixD1E=F DoIter=F DoCFld=F I1PDM=0.
 Calling FoFJK, ICntrl=      2127 FMM=F ISym2X=0 I1Cent= 0 IOpClX= 0 NMat=1 NMatS=1 NMatT=0.
 ***** Axes restored to original set *****
 -------------------------------------------------------------------
 Center     Atomic                   Forces (Hartrees/Bohr)
 Number     Number              X              Y              Z
 -------------------------------------------------------------------
      1        6           0.000013403   -0.000010352    0.000021935
      2        6          -0.000022026    0.000000361   -0.000021534
      3        9           0.000018995    0.000000551    0.000010536
      4        6          -0.000019836    0.000001631    0.000032406
      5        1          -0.000007119    0.000004716    0.000004896
      6        6           0.000014903   -0.000000430    0.000002982
      7        6          -0.000015159    0.000000062   -0.000025100
      8        1          -0.000008179   -0.000000948   -0.000009987
      9        6           0.000002244   -0.000000898    0.000020761
     10        9          -0.000006877    0.000008795   -0.000024280
     11       16           0.000007452   -0.000005528   -0.000016547
     12        8           0.000027282    0.000018803    0.000009600
     13        8          -0.000011603    0.000002084    0.000013234
     14        7           0.000012772   -0.000016418   -0.000008537
     15        1           0.000011795   -0.000001456   -0.000008686
     16        1          -0.000018048   -0.000000973   -0.000001680
 -------------------------------------------------------------------
 Cartesian Forces:  Max     0.000032406 RMS     0.000013737

 GradGradGradGradGradGradGradGradGradGradGradGradGradGradGradGradGradGrad
 Berny optimization.
 FormGI is forming the generalized inverse of G from B-inverse, IUseBI=4.
 Internal  Forces:  Max     0.000028027 RMS     0.000008009
 Search for a local minimum.
 Step number   1 out of a maximum of   84
 All quantities printed in internal units (Hartrees-Bohrs-Radians)
 Mixed Optimization -- En-DIIS/RFO-DIIS
 Second derivative matrix not updated -- first step.
 ITU=  0
     Eigenvalues ---    0.00230   0.01341   0.02169   0.02184   0.02204
     Eigenvalues ---    0.02207   0.02223   0.02236   0.02239   0.02271
     Eigenvalues ---    0.03212   0.10546   0.11910   0.16000   0.16000
     Eigenvalues ---    0.16000   0.16000   0.16830   0.21529   0.22083
     Eigenvalues ---    0.23517   0.24564   0.24902   0.24999   0.25000
     Eigenvalues ---    0.25000   0.25000   0.35403   0.35417   0.35437
     Eigenvalues ---    0.42697   0.43091   0.43944   0.46639   0.46747
     Eigenvalues ---    0.47219   0.48404   0.54683   0.55945   0.60962
     Eigenvalues ---    0.79724   0.83925
 RFO step:  Lambda=-2.61175343D-08 EMin= 2.30000000D-03
 Linear search not attempted -- first point.
 Iteration  1 RMS(Cart)=  0.00042095 RMS(Int)=  0.00000007
 Iteration  2 RMS(Cart)=  0.00000009 RMS(Int)=  0.00000000
 Variable       Old X    -DE/DX   Delta X   Delta X   Delta X     New X
                                 (Linear)    (Quad)   (Total)
    R1        2.63266   0.00001   0.00000   0.00002   0.00002   2.63268
    R2        2.63679   0.00000   0.00000   0.00000   0.00000   2.63680
    R3        3.44031  -0.00001   0.00000  -0.00003  -0.00003   3.44028
    R4        2.54302  -0.00002   0.00000  -0.00003  -0.00003   2.54299
    R5        2.62478  -0.00002   0.00000  -0.00003  -0.00003   2.62474
    R6        2.05003   0.00000   0.00000   0.00000   0.00000   2.05003
    R7        2.62804   0.00001   0.00000   0.00002   0.00002   2.62806
    R8        2.63535  -0.00001   0.00000  -0.00003  -0.00003   2.63531
    R9        2.05025   0.00000   0.00000   0.00000   0.00000   2.05026
   R10        2.04971   0.00000   0.00000   0.00000   0.00000   2.04972
   R11        2.61056   0.00001   0.00000   0.00003   0.00003   2.61059
   R12        2.55415  -0.00002   0.00000  -0.00003  -0.00003   2.55412
   R13        2.81765   0.00003   0.00000   0.00004   0.00004   2.81768
   R14        2.79566   0.00002   0.00000   0.00003   0.00003   2.79569
   R15        2.93887   0.00001   0.00000   0.00002   0.00002   2.93889
   R16        1.93222   0.00000   0.00000   0.00000   0.00000   1.93222
    A1        2.01488  -0.00001   0.00000  -0.00003  -0.00003   2.01485
    A2        2.20705  -0.00000   0.00000  -0.00002  -0.00002   2.20703
    A3        2.06124   0.00001   0.00000   0.00004   0.00004   2.06128
    A4        2.09770  -0.00001   0.00000  -0.00004  -0.00004   2.09766
    A5        2.14444   0.00001   0.00000   0.00002   0.00002   2.14446
    A6        2.04103   0.00001   0.00000   0.00002   0.00002   2.04106
    A7        2.07737   0.00001   0.00000   0.00003   0.00003   2.07740
    A8        2.07768   0.00000   0.00000  -0.00000  -0.00000   2.07768
    A9        2.12813  -0.00001   0.00000  -0.00003  -0.00003   2.12810
   A10        2.10300   0.00000   0.00000  -0.00000  -0.00000   2.10300
   A11        2.09038  -0.00000   0.00000  -0.00002  -0.00002   2.09036
   A12        2.08981   0.00000   0.00000   0.00002   0.00002   2.08983
   A13        2.13482   0.00000   0.00000  -0.00000  -0.00000   2.13482
   A14        2.05877  -0.00000   0.00000  -0.00000  -0.00000   2.05876
   A15        2.08960   0.00000   0.00000   0.00000   0.00000   2.08960
   A16        2.16760   0.00000   0.00000   0.00001   0.00001   2.16761
   A17        2.05299   0.00001   0.00000   0.00004   0.00004   2.05303
   A18        2.06258  -0.00001   0.00000  -0.00004  -0.00004   2.06253
   A19        1.77952   0.00001   0.00000   0.00005   0.00005   1.77958
   A20        1.83817   0.00000   0.00000   0.00001   0.00001   1.83818
   A21        1.90691  -0.00002   0.00000  -0.00011  -0.00011   1.90681
   A22        1.99102  -0.00000   0.00000   0.00000   0.00000   1.99102
   A23        2.01722   0.00000   0.00000   0.00002   0.00002   2.01724
   A24        1.91579   0.00001   0.00000   0.00001   0.00001   1.91580
   A25        1.88918  -0.00000   0.00000  -0.00001  -0.00001   1.88917
    D1       -3.13381   0.00000   0.00000   0.00009   0.00009  -3.13372
    D2        0.00314   0.00000   0.00000   0.00005   0.00005   0.00319
    D3        0.01381   0.00000   0.00000   0.00020   0.00020   0.01401
    D4       -3.13242   0.00000   0.00000   0.00015   0.00015  -3.13227
    D5       -0.00316  -0.00000   0.00000  -0.00016  -0.00016  -0.00332
    D6       -3.13877  -0.00000   0.00000  -0.00016  -0.00016  -3.13893
    D7        3.13294  -0.00001   0.00000  -0.00026  -0.00026   3.13268
    D8       -0.00267  -0.00001   0.00000  -0.00026  -0.00026  -0.00293
    D9       -2.02957  -0.00000   0.00000  -0.00073  -0.00073  -2.03030
   D10        0.05378  -0.00000   0.00000  -0.00070  -0.00070   0.05308
   D11        2.11063  -0.00000   0.00000  -0.00073  -0.00073   2.10989
   D12        1.11819  -0.00000   0.00000  -0.00062  -0.00062   1.11757
   D13       -3.08164   0.00000   0.00000  -0.00060  -0.00060  -3.08224
   D14       -1.02480  -0.00000   0.00000  -0.00063  -0.00063  -1.02543
   D15       -3.14058   0.00000   0.00000   0.00004   0.00004  -3.14053
   D16       -0.00165   0.00000   0.00000   0.00009   0.00009  -0.00156
   D17       -0.00348  -0.00000   0.00000  -0.00000  -0.00000  -0.00349
   D18        3.13545   0.00000   0.00000   0.00005   0.00005   3.13549
   D19       -0.00009  -0.00000   0.00000  -0.00013  -0.00013  -0.00021
   D20       -3.14114  -0.00000   0.00000  -0.00013  -0.00013  -3.14127
   D21        3.13876  -0.00000   0.00000  -0.00007  -0.00007   3.13868
   D22       -0.00229  -0.00000   0.00000  -0.00008  -0.00008  -0.00237
   D23       -3.14129   0.00000   0.00000   0.00005   0.00005  -3.14124
   D24        0.00011   0.00000   0.00000   0.00002   0.00002   0.00013
   D25       -0.00024   0.00000   0.00000   0.00006   0.00006  -0.00019
   D26        3.14116   0.00000   0.00000   0.00002   0.00002   3.14119
   D27        0.00162   0.00000   0.00000   0.00013   0.00013   0.00175
   D28        3.13719   0.00000   0.00000   0.00013   0.00013   3.13733
   D29       -3.14016   0.00000   0.00000   0.00010   0.00010  -3.14006
   D30       -0.00458   0.00000   0.00000   0.00010   0.00010  -0.00448
   D31        1.30194   0.00000   0.00000  -0.00000  -0.00000   1.30193
   D32       -0.69194   0.00000   0.00000  -0.00001  -0.00001  -0.69195
   D33       -2.97377  -0.00000   0.00000  -0.00005  -0.00005  -2.97382
         Item               Value     Threshold  Converged?
 Maximum Force            0.000028     0.000450     YES
 RMS     Force            0.000008     0.000300     YES
 Maximum Displacement     0.001570     0.001800     YES
 RMS     Displacement     0.000421     0.001200     YES
 Predicted change in Energy=-1.305877D-08
 Optimization completed.
    -- Stationary point found.
                           ----------------------------
                           !   Optimized Parameters   !
                           ! (Angstroms and Degrees)  !
 --------------------------                            --------------------------
 ! Name  Definition              Value          Derivative Info.                !
 --------------------------------------------------------------------------------
 ! R1    R(1,2)                  1.3931         -DE/DX =    0.0                 !
 ! R2    R(1,9)                  1.3953         -DE/DX =    0.0                 !
 ! R3    R(1,11)                 1.8205         -DE/DX =    0.0                 !
 ! R4    R(2,3)                  1.3457         -DE/DX =    0.0                 !
 ! R5    R(2,4)                  1.389          -DE/DX =    0.0                 !
 ! R6    R(4,5)                  1.0848         -DE/DX =    0.0                 !
 ! R7    R(4,6)                  1.3907         -DE/DX =    0.0                 !
 ! R8    R(6,7)                  1.3946         -DE/DX =    0.0                 !
 ! R9    R(6,16)                 1.0849         -DE/DX =    0.0                 !
 ! R10   R(7,8)                  1.0847         -DE/DX =    0.0                 !
 ! R11   R(7,9)                  1.3815         -DE/DX =    0.0                 !
 ! R12   R(9,10)                 1.3516         -DE/DX =    0.0                 !
 ! R13   R(11,12)                1.491          -DE/DX =    0.0                 !
 ! R14   R(11,13)                1.4794         -DE/DX =    0.0                 !
 ! R15   R(11,14)                1.5552         -DE/DX =    0.0                 !
 ! R16   R(14,15)                1.0225         -DE/DX =    0.0                 !
 ! A1    A(2,1,9)              115.4441         -DE/DX =    0.0                 !
 ! A2    A(2,1,11)             126.4547         -DE/DX =    0.0                 !
 ! A3    A(9,1,11)             118.1003         -DE/DX =    0.0                 !
 ! A4    A(1,2,3)              120.1895         -DE/DX =    0.0                 !
 ! A5    A(1,2,4)              122.8675         -DE/DX =    0.0                 !
 ! A6    A(3,2,4)              116.9425         -DE/DX =    0.0                 !
 ! A7    A(2,4,5)              119.0245         -DE/DX =    0.0                 !
 ! A8    A(2,4,6)              119.0422         -DE/DX =    0.0                 !
 ! A9    A(5,4,6)              121.9331         -DE/DX =    0.0                 !
 ! A10   A(4,6,7)              120.4928         -DE/DX =    0.0                 !
 ! A11   A(4,6,16)             119.77           -DE/DX =    0.0                 !
 ! A12   A(7,6,16)             119.7372         -DE/DX =    0.0                 !
 ! A13   A(6,7,8)              122.3163         -DE/DX =    0.0                 !
 ! A14   A(6,7,9)              117.9586         -DE/DX =    0.0                 !
 ! A15   A(8,7,9)              119.7251         -DE/DX =    0.0                 !
 ! A16   A(1,9,7)              124.1945         -DE/DX =    0.0                 !
 ! A17   A(1,9,10)             117.6277         -DE/DX =    0.0                 !
 ! A18   A(7,9,10)             118.1769         -DE/DX =    0.0                 !
 ! A19   A(1,11,12)            101.9592         -DE/DX =    0.0                 !
 ! A20   A(1,11,13)            105.3196         -DE/DX =    0.0                 !
 ! A21   A(1,11,14)            109.2582         -DE/DX =    0.0                 !
 ! A22   A(12,11,13)           114.077          -DE/DX =    0.0                 !
 ! A23   A(12,11,14)           115.578          -DE/DX =    0.0                 !
 ! A24   A(13,11,14)           109.7664         -DE/DX =    0.0                 !
 ! A25   A(11,14,15)           108.2421         -DE/DX =    0.0                 !
 ! D1    D(9,1,2,3)           -179.5542         -DE/DX =    0.0                 !
 ! D2    D(9,1,2,4)              0.18           -DE/DX =    0.0                 !
 ! D3    D(11,1,2,3)             0.7911         -DE/DX =    0.0                 !
 ! D4    D(11,1,2,4)          -179.4747         -DE/DX =    0.0                 !
 ! D5    D(2,1,9,7)             -0.1811         -DE/DX =    0.0                 !
 ! D6    D(2,1,9,10)          -179.8381         -DE/DX =    0.0                 !
 ! D7    D(11,1,9,7)           179.5041         -DE/DX =    0.0                 !
 ! D8    D(11,1,9,10)           -0.153          -DE/DX =    0.0                 !
 ! D9    D(2,1,11,12)         -116.2857         -DE/DX =    0.0                 !
 ! D10   D(2,1,11,13)            3.0813         -DE/DX =    0.0                 !
 ! D11   D(2,1,11,14)          120.9299         -DE/DX =    0.0                 !
 ! D12   D(9,1,11,12)           64.0678         -DE/DX =    0.0                 !
 ! D13   D(9,1,11,13)         -176.5652         -DE/DX =    0.0                 !
 ! D14   D(9,1,11,14)          -58.7166         -DE/DX =    0.0                 !
 ! D15   D(1,2,4,5)           -179.9417         -DE/DX =    0.0                 !
 ! D16   D(1,2,4,6)             -0.0945         -DE/DX =    0.0                 !
 ! D17   D(3,2,4,5)             -0.1994         -DE/DX =    0.0                 !
 ! D18   D(3,2,4,6)            179.6478         -DE/DX =    0.0                 !
 ! D19   D(2,4,6,7)             -0.0051         -DE/DX =    0.0                 !
 ! D20   D(2,4,6,16)          -179.9739         -DE/DX =    0.0                 !
 ! D21   D(5,4,6,7)            179.8375         -DE/DX =    0.0                 !
 ! D22   D(5,4,6,16)            -0.1312         -DE/DX =    0.0                 !
 ! D23   D(4,6,7,8)           -179.9827         -DE/DX =    0.0                 !
 ! D24   D(4,6,7,9)              0.0065         -DE/DX =    0.0                 !
 ! D25   D(16,6,7,8)            -0.0139         -DE/DX =    0.0                 !
 ! D26   D(16,6,7,9)           179.9753         -DE/DX =    0.0                 !
 ! D27   D(6,7,9,1)              0.0927         -DE/DX =    0.0                 !
 ! D28   D(6,7,9,10)           179.7479         -DE/DX =    0.0                 !
 ! D29   D(8,7,9,1)           -179.9178         -DE/DX =    0.0                 !
 ! D30   D(8,7,9,10)            -0.2625         -DE/DX =    0.0                 !
 ! D31   D(1,11,14,15)          74.5955         -DE/DX =    0.0                 !
 ! D32   D(12,11,14,15)        -39.6454         -DE/DX =    0.0                 !
 ! D33   D(13,11,14,15)       -170.3843         -DE/DX =    0.0                 !
 --------------------------------------------------------------------------------
 GradGradGradGradGradGradGradGradGradGradGradGradGradGradGradGradGradGrad

                          Input orientation:                          
 ---------------------------------------------------------------------
 Center     Atomic      Atomic             Coordinates (Angstroms)
 Number     Number       Type             X           Y           Z
 ---------------------------------------------------------------------
      1          6           0       -1.473560    0.608144   -0.824580
      2          6           0       -2.597396    0.877873   -1.602456
      3          9           0       -3.806659    1.000332   -1.024863
      4          6           0       -2.539301    1.037710   -2.980977
      5          1           0       -3.453825    1.247354   -3.525541
      6          6           0       -1.310182    0.927506   -3.622194
      7          6           0       -0.152491    0.660485   -2.891946
      8          1           0        0.820993    0.568789   -3.361426
      9          6           0       -0.269890    0.510968   -1.523638
     10          9           0        0.848558    0.246927   -0.812180
     11         16           0       -1.439087    0.368098    0.979728
     12          8           0       -0.602108    1.517592    1.428410
     13          8           0       -2.851987    0.445511    1.411397
     14          7           0       -0.868268   -1.042946    1.298646
     15          1           0        0.142075   -1.022190    1.142911
     16          1           0       -1.251131    1.050639   -4.698512
 ---------------------------------------------------------------------
                    Distance matrix (angstroms):
                    1          2          3          4          5
     1  C    0.000000
     2  C    1.393145   0.000000
     3  F    2.374295   1.345707   0.000000
     4  C    2.443436   1.388972   2.331089   0.000000
     5  H    3.409579   2.137345   2.537499   1.084829   0.000000
     6  C    2.820519   2.395564   3.603308   1.390697   2.169528
     7  C    2.453969   2.772653   4.117577   2.418075   3.412428
     8  H    3.420835   3.856798   5.202011   3.414118   4.331449
     9  C    1.395330   2.357566   3.605134   2.748003   3.832404
    10  F    2.350077   3.591271   4.720582   4.099586   5.183983
    11  S    1.820532   2.875626   3.165991   4.164857   5.012954
    12  O    2.581180   3.684639   4.068815   4.840010   5.722495
    13  O    2.631749   3.055334   2.674806   4.443132   5.037710
    14  N    2.756912   3.885334   4.267062   5.043476   5.933242
    15  H    3.023125   4.318794   4.937848   5.332862   6.314727
    16  H    3.905461   3.380509   4.475372   2.146969   2.503282
                    6          7          8          9         10
     6  C    0.000000
     7  C    1.394565   0.000000
     8  H    2.176829   1.084662   0.000000
     9  C    2.379002   1.381450   2.137951   0.000000
    10  F    3.608258   2.344900   2.569632   1.351598   0.000000
    11  S    4.637590   4.090315   4.898352   2.766636   2.908425
    12  O    5.134021   4.427444   5.086057   3.136598   2.956225
    13  O    5.286447   5.084511   6.023771   3.909724   4.321778
    14  N    5.319082   4.579855   5.212251   3.276888   3.011121
    15  H    5.349448   4.381579   4.825059   3.103349   2.435602
    16  H    1.084947   2.150096   2.512703   3.366586   4.489791
                   11         12         13         14         15
    11  S    0.000000
    12  O    1.491035   0.000000
    13  O    1.479398   2.492309   0.000000
    14  N    1.555181   2.577603   2.482611   0.000000
    15  H    2.111777   2.661919   3.345241   1.022486   0.000000
    16  H    5.722202   6.178871   6.345070   6.363614   6.352941
                   16
    16  H    0.000000
 Stoichiometry    C6H4F2NO2S(1-)
 Framework group  C1[X(C6H4F2NO2S)]
 Deg. of freedom    42
 Full point group                 C1      NOp   1
 Largest Abelian subgroup         C1      NOp   1
 Largest concise Abelian subgroup C1      NOp   1
                         Standard orientation:                         
 ---------------------------------------------------------------------
 Center     Atomic      Atomic             Coordinates (Angstroms)
 Number     Number       Type             X           Y           Z
 ---------------------------------------------------------------------
      1          6           0        0.209585    0.054447    0.002983
      2          6           0        1.050634    1.164946   -0.013783
      3          9           0        0.532032    2.406706   -0.010516
      4          6           0        2.435659    1.061402   -0.028888
      5          1           0        3.031157    1.968099   -0.040573
      6          6           0        3.018339   -0.201337   -0.025347
      7          6           0        2.223797   -1.347273   -0.006793
      8          1           0        2.646690   -2.346092   -0.003275
      9          6           0        0.852087   -1.184147    0.007641
     10          9           0        0.077739   -2.291864    0.020408
     11         16           0       -1.610804    0.076185    0.010149
     12          8           0       -1.922092   -0.550298    1.326889
     13          8           0       -1.985003    1.504494   -0.082178
     14          7           0       -2.137813   -0.687321   -1.238013
     15          1           0       -2.011180   -1.689151   -1.077459
     16          1           0        4.099094   -0.295949   -0.036592
 ---------------------------------------------------------------------
 Rotational constants (GHZ):           1.2960910           0.8087345           0.5535380
 Unable to Open any file for archive entry.
 1\1\GINC-GADI-CPU-CLX-0668\FOpt\RM062X\Gen\C6H4F2N1O2S1(1-)\YJ5695\19-
 May-2022\0\\#m062X/gen 6D OPT Freq=noraman SCRF=(SMD,Solvent=h2o)\\a1 
 b1\\-1,1\C,-1.47356,0.608144,-0.82458\C,-2.597396,0.877873,-1.602456\F
 ,-3.806659,1.000332,-1.024863\C,-2.539301,1.03771,-2.980977\H,-3.45382
 5,1.247354,-3.525541\C,-1.310182,0.927506,-3.622194\C,-0.152491,0.6604
 85,-2.891946\H,0.820993,0.568789,-3.361426\C,-0.26989,0.510968,-1.5236
 38\F,0.848558,0.246927,-0.81218\S,-1.439087,0.368098,0.979728\O,-0.602
 108,1.517592,1.42841\O,-2.851987,0.445511,1.411397\N,-0.868268,-1.0429
 46,1.298646\H,0.142075,-1.02219,1.142911\H,-1.251131,1.050639,-4.69851
 2\\Version=ES64L-G16RevC.01\State=1-A\HF=-1033.9366316\RMSD=5.859e-09\
 RMSF=1.374e-05\Dipole=0.9275092,0.5251151,-5.8367515\Quadrupole=2.5291
 596,-0.7231305,-1.8060291,-2.6854113,2.2343533,0.3884345\PG=C01 [X(C6H
 4F2N1O2S1)]\\@
 The archive entry for this job was punched.


 LIFE IS A CONTINUAL STRUGGLE AGAINST THE TENDENCY TO PRODUCE ENTROPY.
 Job cpu time:       0 days  0 hours  8 minutes 19.0 seconds.
 Elapsed time:       0 days  0 hours  0 minutes 32.2 seconds.
 File lengths (MBytes):  RWF=     69 Int=      0 D2E=      0 Chk=      6 Scr=      1
 Normal termination of Gaussian 16 at Thu May 19 15:05:14 2022.
 Link1:  Proceeding to internal job step number  2.
 ------------------------------------------------------------------
 #N Geom=AllCheck Guess=TCheck SCRF=Check GenChk RM062X/ChkBas Freq
 ------------------------------------------------------------------
 1/10=4,29=7,30=1,38=1,40=1/1,3;
 2/12=2,40=1/2;
 3/5=7,6=2,8=2,11=2,14=-4,25=1,30=1,67=1,70=2,71=2,74=-55,82=7,116=1,140=1/1,2,3;
 4/5=101/1;
 5/5=2,38=6,98=1/2;
 8/6=4,10=90,11=11/1;
 11/6=1,8=1,9=11,15=111,16=1/1,2,10;
 10/6=1/2;
 6/7=2,8=2,9=2,10=2,28=1/1;
 7/8=1,10=1,25=1/1,2,3,16;
 1/10=4,30=1/3;
 99//99;
 Structure from the checkpoint file:  "/jobfs/40645527.gadi-pbs/Gau-1050984.chk"
 -----
 a1 b1
 -----
 Charge = -1 Multiplicity = 1
 Redundant internal coordinates found in file.  (old form).
 C,0,-1.47356,0.608144,-0.82458
 C,0,-2.597396,0.877873,-1.602456
 F,0,-3.806659,1.000332,-1.024863
 C,0,-2.539301,1.03771,-2.980977
 H,0,-3.453825,1.247354,-3.525541
 C,0,-1.310182,0.927506,-3.622194
 C,0,-0.152491,0.660485,-2.891946
 H,0,0.820993,0.568789,-3.361426
 C,0,-0.26989,0.510968,-1.523638
 F,0,0.848558,0.246927,-0.81218
 S,0,-1.439087,0.368098,0.979728
 O,0,-0.602108,1.517592,1.42841
 O,0,-2.851987,0.445511,1.411397
 N,0,-0.868268,-1.042946,1.298646
 H,0,0.142075,-1.02219,1.142911
 H,0,-1.251131,1.050639,-4.698512
 Recover connectivity data from disk.

 GradGradGradGradGradGradGradGradGradGradGradGradGradGradGradGradGradGrad
 Berny optimization.
 Initialization pass.
                           ----------------------------
                           !    Initial Parameters    !
                           ! (Angstroms and Degrees)  !
 --------------------------                            --------------------------
 ! Name  Definition              Value          Derivative Info.                !
 --------------------------------------------------------------------------------
 ! R1    R(1,2)                  1.3931         calculate D2E/DX2 analytically  !
 ! R2    R(1,9)                  1.3953         calculate D2E/DX2 analytically  !
 ! R3    R(1,11)                 1.8205         calculate D2E/DX2 analytically  !
 ! R4    R(2,3)                  1.3457         calculate D2E/DX2 analytically  !
 ! R5    R(2,4)                  1.389          calculate D2E/DX2 analytically  !
 ! R6    R(4,5)                  1.0848         calculate D2E/DX2 analytically  !
 ! R7    R(4,6)                  1.3907         calculate D2E/DX2 analytically  !
 ! R8    R(6,7)                  1.3946         calculate D2E/DX2 analytically  !
 ! R9    R(6,16)                 1.0849         calculate D2E/DX2 analytically  !
 ! R10   R(7,8)                  1.0847         calculate D2E/DX2 analytically  !
 ! R11   R(7,9)                  1.3815         calculate D2E/DX2 analytically  !
 ! R12   R(9,10)                 1.3516         calculate D2E/DX2 analytically  !
 ! R13   R(11,12)                1.491          calculate D2E/DX2 analytically  !
 ! R14   R(11,13)                1.4794         calculate D2E/DX2 analytically  !
 ! R15   R(11,14)                1.5552         calculate D2E/DX2 analytically  !
 ! R16   R(14,15)                1.0225         calculate D2E/DX2 analytically  !
 ! A1    A(2,1,9)              115.4441         calculate D2E/DX2 analytically  !
 ! A2    A(2,1,11)             126.4547         calculate D2E/DX2 analytically  !
 ! A3    A(9,1,11)             118.1003         calculate D2E/DX2 analytically  !
 ! A4    A(1,2,3)              120.1895         calculate D2E/DX2 analytically  !
 ! A5    A(1,2,4)              122.8675         calculate D2E/DX2 analytically  !
 ! A6    A(3,2,4)              116.9425         calculate D2E/DX2 analytically  !
 ! A7    A(2,4,5)              119.0245         calculate D2E/DX2 analytically  !
 ! A8    A(2,4,6)              119.0422         calculate D2E/DX2 analytically  !
 ! A9    A(5,4,6)              121.9331         calculate D2E/DX2 analytically  !
 ! A10   A(4,6,7)              120.4928         calculate D2E/DX2 analytically  !
 ! A11   A(4,6,16)             119.77           calculate D2E/DX2 analytically  !
 ! A12   A(7,6,16)             119.7372         calculate D2E/DX2 analytically  !
 ! A13   A(6,7,8)              122.3163         calculate D2E/DX2 analytically  !
 ! A14   A(6,7,9)              117.9586         calculate D2E/DX2 analytically  !
 ! A15   A(8,7,9)              119.7251         calculate D2E/DX2 analytically  !
 ! A16   A(1,9,7)              124.1945         calculate D2E/DX2 analytically  !
 ! A17   A(1,9,10)             117.6277         calculate D2E/DX2 analytically  !
 ! A18   A(7,9,10)             118.1769         calculate D2E/DX2 analytically  !
 ! A19   A(1,11,12)            101.9592         calculate D2E/DX2 analytically  !
 ! A20   A(1,11,13)            105.3196         calculate D2E/DX2 analytically  !
 ! A21   A(1,11,14)            109.2582         calculate D2E/DX2 analytically  !
 ! A22   A(12,11,13)           114.077          calculate D2E/DX2 analytically  !
 ! A23   A(12,11,14)           115.578          calculate D2E/DX2 analytically  !
 ! A24   A(13,11,14)           109.7664         calculate D2E/DX2 analytically  !
 ! A25   A(11,14,15)           108.2421         calculate D2E/DX2 analytically  !
 ! D1    D(9,1,2,3)           -179.5542         calculate D2E/DX2 analytically  !
 ! D2    D(9,1,2,4)              0.18           calculate D2E/DX2 analytically  !
 ! D3    D(11,1,2,3)             0.7911         calculate D2E/DX2 analytically  !
 ! D4    D(11,1,2,4)          -179.4747         calculate D2E/DX2 analytically  !
 ! D5    D(2,1,9,7)             -0.1811         calculate D2E/DX2 analytically  !
 ! D6    D(2,1,9,10)          -179.8381         calculate D2E/DX2 analytically  !
 ! D7    D(11,1,9,7)           179.5041         calculate D2E/DX2 analytically  !
 ! D8    D(11,1,9,10)           -0.153          calculate D2E/DX2 analytically  !
 ! D9    D(2,1,11,12)         -116.2857         calculate D2E/DX2 analytically  !
 ! D10   D(2,1,11,13)            3.0813         calculate D2E/DX2 analytically  !
 ! D11   D(2,1,11,14)          120.9299         calculate D2E/DX2 analytically  !
 ! D12   D(9,1,11,12)           64.0678         calculate D2E/DX2 analytically  !
 ! D13   D(9,1,11,13)         -176.5652         calculate D2E/DX2 analytically  !
 ! D14   D(9,1,11,14)          -58.7166         calculate D2E/DX2 analytically  !
 ! D15   D(1,2,4,5)           -179.9417         calculate D2E/DX2 analytically  !
 ! D16   D(1,2,4,6)             -0.0945         calculate D2E/DX2 analytically  !
 ! D17   D(3,2,4,5)             -0.1994         calculate D2E/DX2 analytically  !
 ! D18   D(3,2,4,6)            179.6478         calculate D2E/DX2 analytically  !
 ! D19   D(2,4,6,7)             -0.0051         calculate D2E/DX2 analytically  !
 ! D20   D(2,4,6,16)          -179.9739         calculate D2E/DX2 analytically  !
 ! D21   D(5,4,6,7)            179.8375         calculate D2E/DX2 analytically  !
 ! D22   D(5,4,6,16)            -0.1312         calculate D2E/DX2 analytically  !
 ! D23   D(4,6,7,8)           -179.9827         calculate D2E/DX2 analytically  !
 ! D24   D(4,6,7,9)              0.0065         calculate D2E/DX2 analytically  !
 ! D25   D(16,6,7,8)            -0.0139         calculate D2E/DX2 analytically  !
 ! D26   D(16,6,7,9)           179.9753         calculate D2E/DX2 analytically  !
 ! D27   D(6,7,9,1)              0.0927         calculate D2E/DX2 analytically  !
 ! D28   D(6,7,9,10)           179.7479         calculate D2E/DX2 analytically  !
 ! D29   D(8,7,9,1)           -179.9178         calculate D2E/DX2 analytically  !
 ! D30   D(8,7,9,10)            -0.2625         calculate D2E/DX2 analytically  !
 ! D31   D(1,11,14,15)          74.5955         calculate D2E/DX2 analytically  !
 ! D32   D(12,11,14,15)        -39.6454         calculate D2E/DX2 analytically  !
 ! D33   D(13,11,14,15)       -170.3843         calculate D2E/DX2 analytically  !
 --------------------------------------------------------------------------------
 Trust Radius=3.00D-01 FncErr=1.00D-07 GrdErr=1.00D-07 EigMax=2.50D+02 EigMin=1.00D-04
 Number of steps in this run=      2 maximum allowed number of steps=      2.
 GradGradGradGradGradGradGradGradGradGradGradGradGradGradGradGradGradGrad

                          Input orientation:                          
 ---------------------------------------------------------------------
 Center     Atomic      Atomic             Coordinates (Angstroms)
 Number     Number       Type             X           Y           Z
 ---------------------------------------------------------------------
      1          6           0       -1.473560    0.608144   -0.824580
      2          6           0       -2.597396    0.877873   -1.602456
      3          9           0       -3.806659    1.000332   -1.024863
      4          6           0       -2.539301    1.037710   -2.980977
      5          1           0       -3.453825    1.247354   -3.525541
      6          6           0       -1.310182    0.927506   -3.622194
      7          6           0       -0.152491    0.660485   -2.891946
      8          1           0        0.820993    0.568789   -3.361426
      9          6           0       -0.269890    0.510968   -1.523638
     10          9           0        0.848558    0.246927   -0.812180
     11         16           0       -1.439087    0.368098    0.979728
     12          8           0       -0.602108    1.517592    1.428410
     13          8           0       -2.851987    0.445511    1.411397
     14          7           0       -0.868268   -1.042946    1.298646
     15          1           0        0.142075   -1.022190    1.142911
     16          1           0       -1.251131    1.050639   -4.698512
 ---------------------------------------------------------------------
                    Distance matrix (angstroms):
                    1          2          3          4          5
     1  C    0.000000
     2  C    1.393145   0.000000
     3  F    2.374295   1.345707   0.000000
     4  C    2.443436   1.388972   2.331089   0.000000
     5  H    3.409579   2.137345   2.537499   1.084829   0.000000
     6  C    2.820519   2.395564   3.603308   1.390697   2.169528
     7  C    2.453969   2.772653   4.117577   2.418075   3.412428
     8  H    3.420835   3.856798   5.202011   3.414118   4.331449
     9  C    1.395330   2.357566   3.605134   2.748003   3.832404
    10  F    2.350077   3.591271   4.720582   4.099586   5.183983
    11  S    1.820532   2.875626   3.165991   4.164857   5.012954
    12  O    2.581180   3.684639   4.068815   4.840010   5.722495
    13  O    2.631749   3.055334   2.674806   4.443132   5.037710
    14  N    2.756912   3.885334   4.267062   5.043476   5.933242
    15  H    3.023125   4.318794   4.937848   5.332862   6.314727
    16  H    3.905461   3.380509   4.475372   2.146969   2.503282
                    6          7          8          9         10
     6  C    0.000000
     7  C    1.394565   0.000000
     8  H    2.176829   1.084662   0.000000
     9  C    2.379002   1.381450   2.137951   0.000000
    10  F    3.608258   2.344900   2.569632   1.351598   0.000000
    11  S    4.637590   4.090315   4.898352   2.766636   2.908425
    12  O    5.134021   4.427444   5.086057   3.136598   2.956225
    13  O    5.286447   5.084511   6.023771   3.909724   4.321778
    14  N    5.319082   4.579855   5.212251   3.276888   3.011121
    15  H    5.349448   4.381579   4.825059   3.103349   2.435602
    16  H    1.084947   2.150096   2.512703   3.366586   4.489791
                   11         12         13         14         15
    11  S    0.000000
    12  O    1.491035   0.000000
    13  O    1.479398   2.492309   0.000000
    14  N    1.555181   2.577603   2.482611   0.000000
    15  H    2.111777   2.661919   3.345241   1.022486   0.000000
    16  H    5.722202   6.178871   6.345070   6.363614   6.352941
                   16
    16  H    0.000000
 Stoichiometry    C6H4F2NO2S(1-)
 Framework group  C1[X(C6H4F2NO2S)]
 Deg. of freedom    42
 Full point group                 C1      NOp   1
 Largest Abelian subgroup         C1      NOp   1
 Largest concise Abelian subgroup C1      NOp   1
                         Standard orientation:                         
 ---------------------------------------------------------------------
 Center     Atomic      Atomic             Coordinates (Angstroms)
 Number     Number       Type             X           Y           Z
 ---------------------------------------------------------------------
      1          6           0        0.209585    0.054447    0.002983
      2          6           0        1.050634    1.164946   -0.013783
      3          9           0        0.532032    2.406706   -0.010516
      4          6           0        2.435659    1.061402   -0.028888
      5          1           0        3.031157    1.968099   -0.040573
      6          6           0        3.018339   -0.201337   -0.025347
      7          6           0        2.223797   -1.347273   -0.006793
      8          1           0        2.646690   -2.346092   -0.003275
      9          6           0        0.852087   -1.184147    0.007641
     10          9           0        0.077739   -2.291864    0.020408
     11         16           0       -1.610804    0.076185    0.010149
     12          8           0       -1.922092   -0.550298    1.326889
     13          8           0       -1.985003    1.504494   -0.082178
     14          7           0       -2.137813   -0.687321   -1.238013
     15          1           0       -2.011180   -1.689151   -1.077459
     16          1           0        4.099094   -0.295949   -0.036592
 ---------------------------------------------------------------------
 Rotational constants (GHZ):           1.2960910           0.8087345           0.5535380
 Basis read from chk: "/jobfs/40645527.gadi-pbs/Gau-1050984.chk" (6D, 7F)
 There are   240 symmetry adapted cartesian basis functions of A   symmetry.
 There are   240 symmetry adapted basis functions of A   symmetry.
   240 basis functions,   424 primitive gaussians,   240 cartesian basis functions
    49 alpha electrons       49 beta electrons
       nuclear repulsion energy       854.6478067834 Hartrees.
 NAtoms=   16 NActive=   16 NUniq=   16 SFac= 1.00D+00 NAtFMM=   60 NAOKFM=F Big=F
 Integral buffers will be    131072 words long.
 Raffenetti 2 integral format.
 Two-electron integral symmetry is turned on.
 Force inversion solution in PCM.
 ------------------------------------------------------------------------------
 Polarizable Continuum Model (PCM)
 =================================
 Model                : PCM.
 Atomic radii         : SMD-Coulomb.
 Polarization charges : Total charges.
 Charge compensation  : None.
 Solution method      : Matrix inversion.
 Cavity type          : VdW (van der Waals Surface) (Alpha=1.000).
 Cavity algorithm     : GePol (No added spheres)
                        Default sphere list used, NSphG=   16.
                        Lebedev-Laikov grids with approx.  5.0 points / Ang**2.
                        Smoothing algorithm: York/Karplus (Gamma=1.0000).
                        Polarization charges: spherical gaussians, with
                                              point-specific exponents (IZeta= 3).
                        Self-potential: point-specific (ISelfS= 7).
                        Self-field    : sphere-specific E.n sum rule (ISelfD= 2).
 1st derivatives      : Analytical E(r).r(x)/FMM algorithm (CHGder, D1EAlg=3).
                        Cavity 1st derivative terms included.
 2nd derivatives      : Analytical E(r).r(xy)/FMM algorithm (CHGder, D2EAlg=3).
                        Cavity 2nd derivative terms included.
 Solvent              : Water, Eps=  78.355300 Eps(inf)=   1.777849
 ------------------------------------------------------------------------------
 Spheres list:
 ISph  on   Nord     Re0    Alpha      Xe            Ye            Ze
    1   C      1    1.8500  1.000      0.209585      0.054447      0.002983
    2   C      2    1.8500  1.000      1.050634      1.164946     -0.013783
    3   F      3    1.7300  1.000      0.532032      2.406706     -0.010516
    4   C      4    1.8500  1.000      2.435659      1.061402     -0.028888
    5   H      5    1.2000  1.000      3.031157      1.968099     -0.040573
    6   C      6    1.8500  1.000      3.018339     -0.201337     -0.025347
    7   C      7    1.8500  1.000      2.223797     -1.347273     -0.006793
    8   H      8    1.2000  1.000      2.646690     -2.346092     -0.003275
    9   C      9    1.8500  1.000      0.852087     -1.184147      0.007641
   10   F     10    1.7300  1.000      0.077739     -2.291864      0.020408
   11   S     11    2.4900  1.000     -1.610804      0.076185      0.010149
   12   O     12    1.5200  1.000     -1.922092     -0.550298      1.326889
   13   O     13    1.5200  1.000     -1.985003      1.504494     -0.082178
   14   N     14    1.8900  1.000     -2.137813     -0.687321     -1.238013
   15   H     15    1.2000  1.000     -2.011180     -1.689151     -1.077459
   16   H     16    1.2000  1.000      4.099094     -0.295949     -0.036592
 ------------------------------------------------------------------------------
 ------------------------------------------------------------------------------
 Atomic radii for non-electrostatic terms: SMD-CDS.
 ------------------------------------------------------------------------------
 Nuclear repulsion after PCM non-electrostatic terms =      854.6539669762 Hartrees.
 One-electron integrals computed using PRISM.
 NBasis=   240 RedAO= T EigKep=  2.37D-06  NBF=   240
 NBsUse=   240 1.00D-06 EigRej= -1.00D+00 NBFU=   240
 Initial guess from the checkpoint file:  "/jobfs/40645527.gadi-pbs/Gau-1050984.chk"
 B after Tr=    -0.000000    0.000000    0.000000
         Rot=    1.000000    0.000000   -0.000000   -0.000000 Ang=   0.00 deg.
 Requested convergence on RMS density matrix=1.00D-08 within 128 cycles.
 Requested convergence on MAX density matrix=1.00D-06.
 Requested convergence on             energy=1.00D-06.
 No special actions if energy rises.
 Inv3:  Mode=1 IEnd=     5863212.
 Iteration    1 A*A^-1 deviation from unit magnitude is 3.77D-15 for   1364.
 Iteration    1 A*A^-1 deviation from orthogonality  is 1.69D-15 for    920    420.
 Iteration    1 A^-1*A deviation from unit magnitude is 3.55D-15 for   1370.
 Iteration    1 A^-1*A deviation from orthogonality  is 1.33D-15 for    652    603.
 Error on total polarization charges =  0.04246
 SCF Done:  E(RM062X) =  -1033.93663162     A.U. after    1 cycles
            NFock=  1  Conv=0.26D-08     -V/T= 2.0063
 SMD-CDS (non-electrostatic) energy       (kcal/mol) =       3.87
 (included in total energy above)
 DoSCS=F DFT=T ScalE2(SS,OS)=  1.000000  1.000000
 Range of M.O.s used for correlation:     1   240
 NBasis=   240 NAE=    49 NBE=    49 NFC=     0 NFV=     0
 NROrb=    240 NOA=    49 NOB=    49 NVA=   191 NVB=   191

 **** Warning!!: The largest alpha MO coefficient is  0.15044201D+03

 Symmetrizing basis deriv contribution to polar:
 IMax=3 JMax=2 DiffMx= 0.00D+00
 G2DrvN: will do    17 centers at a time, making    1 passes.
 Calling FoFCou, ICntrl=  3107 FMM=F I1Cent=   0 AccDes= 0.00D+00.
 NEqPCM:  Using equilibrium solvation (IEInf=0, Eps=  78.3553, EpsInf=   1.7778)
 G2PCM: DoFxE=T DoFxN=T DoGrad=T DoDP/DQ/DG/TGxP=FFFF NFrqRd=   0 IEInf=0 SqF1=F DoCFld=F IF1Alg=4.
 End of G2Drv F.D. properties file   721 does not exist.
 End of G2Drv F.D. properties file   722 does not exist.
 End of G2Drv F.D. properties file   788 does not exist.
          IDoAtm=1111111111111111
 NEqPCM:  Using equilibrium solvation (IEInf=0, Eps=  78.3553, EpsInf=   1.7778)
          Differentiating once with respect to electric field.
                with respect to dipole field.
          Differentiating once with respect to nuclear coordinates.
 Keep R1 ints in memory in canonical form, NReq=435318866.
          There are    51 degrees of freedom in the 1st order CPHF.  IDoFFX=6 NUNeed=     3.
     48 vectors produced by pass  0 Test12= 1.84D-14 1.96D-09 XBig12= 8.16D+01 4.38D+00.
 AX will form    48 AO Fock derivatives at one time.
     48 vectors produced by pass  1 Test12= 1.84D-14 1.96D-09 XBig12= 9.90D+00 5.55D-01.
     48 vectors produced by pass  2 Test12= 1.84D-14 1.96D-09 XBig12= 1.99D-01 5.57D-02.
     48 vectors produced by pass  3 Test12= 1.84D-14 1.96D-09 XBig12= 1.95D-03 4.97D-03.
     48 vectors produced by pass  4 Test12= 1.84D-14 1.96D-09 XBig12= 1.55D-05 4.64D-04.
     48 vectors produced by pass  5 Test12= 1.84D-14 1.96D-09 XBig12= 1.12D-07 3.78D-05.
     47 vectors produced by pass  6 Test12= 1.84D-14 1.96D-09 XBig12= 6.08D-10 2.45D-06.
     15 vectors produced by pass  7 Test12= 1.84D-14 1.96D-09 XBig12= 2.75D-12 1.47D-07.
      3 vectors produced by pass  8 Test12= 1.84D-14 1.96D-09 XBig12= 1.06D-14 1.04D-08.
 InvSVY:  IOpt=1 It=  1 EMax= 7.11D-15
 Solved reduced A of dimension   353 with    51 vectors.
 Isotropic polarizability for W=    0.000000      148.80 Bohr**3.
 End of Minotr F.D. properties file   721 does not exist.
 End of Minotr F.D. properties file   722 does not exist.
 End of Minotr F.D. properties file   788 does not exist.

 **********************************************************************

            Population analysis using the SCF Density.

 **********************************************************************

 Orbital symmetries:
       Occupied  (A) (A) (A) (A) (A) (A) (A) (A) (A) (A) (A) (A)
                 (A) (A) (A) (A) (A) (A) (A) (A) (A) (A) (A) (A)
                 (A) (A) (A) (A) (A) (A) (A) (A) (A) (A) (A) (A)
                 (A) (A) (A) (A) (A) (A) (A) (A) (A) (A) (A) (A)
                 (A)
       Virtual   (A) (A) (A) (A) (A) (A) (A) (A) (A) (A) (A) (A)
                 (A) (A) (A) (A) (A) (A) (A) (A) (A) (A) (A) (A)
                 (A) (A) (A) (A) (A) (A) (A) (A) (A) (A) (A) (A)
                 (A) (A) (A) (A) (A) (A) (A) (A) (A) (A) (A) (A)
                 (A) (A) (A) (A) (A) (A) (A) (A) (A) (A) (A) (A)
                 (A) (A) (A) (A) (A) (A) (A) (A) (A) (A) (A) (A)
                 (A) (A) (A) (A) (A) (A) (A) (A) (A) (A) (A) (A)
                 (A) (A) (A) (A) (A) (A) (A) (A) (A) (A) (A) (A)
                 (A) (A) (A) (A) (A) (A) (A) (A) (A) (A) (A) (A)
                 (A) (A) (A) (A) (A) (A) (A) (A) (A) (A) (A) (A)
                 (A) (A) (A) (A) (A) (A) (A) (A) (A) (A) (A) (A)
                 (A) (A) (A) (A) (A) (A) (A) (A) (A) (A) (A) (A)
                 (A) (A) (A) (A) (A) (A) (A) (A) (A) (A) (A) (A)
                 (A) (A) (A) (A) (A) (A) (A) (A) (A) (A) (A) (A)
                 (A) (A) (A) (A) (A) (A) (A) (A) (A) (A) (A) (A)
                 (A) (A) (A) (A) (A) (A) (A) (A) (A) (A) (A)
 The electronic state is 1-A.
 Alpha  occ. eigenvalues --  -90.14538 -25.29320 -25.28744 -19.62376 -19.62328
 Alpha  occ. eigenvalues --  -14.72196 -10.66025 -10.65885 -10.58991 -10.57413
 Alpha  occ. eigenvalues --  -10.56610 -10.56538  -8.45287  -6.37524  -6.37456
 Alpha  occ. eigenvalues --   -6.37377  -1.38724  -1.38306  -1.21457  -1.09753
 Alpha  occ. eigenvalues --   -0.98945  -0.96625  -0.87606  -0.86305  -0.74727
[...]
   zz         0.180893D+03      0.268056D+02      0.298253D+02

 ----------------------------------------------------------------------

 Dipole orientation:
     6         -3.00192484         -1.02619982          1.19929061
     6         -5.33285141         -1.41861505          2.35847157
     9         -7.42086497         -1.76165372          0.94798897
     6         -5.63375354         -1.48815085          4.96501615
     1         -7.50429609         -1.80373240          5.74225697
     6         -3.52763639         -1.15727669          6.50169008
     6         -1.14762666         -0.76154679          5.44150284
     1          0.53184991         -0.49760129          6.58649885
     6         -0.96056533         -0.71050945          2.83815117
     9          1.34060941         -0.31776333          1.80179994
    16         -2.40141123         -0.87568123         -2.18485519
     8         -0.72183949         -3.10334281         -2.57944795
     8         -4.91201598         -1.11220985         -3.39175711
     7         -1.22319974          1.73446165         -2.84508776
     1          0.61627308          1.73475550         -2.25364338
     1         -3.73699713         -1.20825592          8.54058744

 Electric dipole moment (dipole orientation):
 (Debye = 10**-18 statcoulomb cm , SI units = C m)
                  (au)            (Debye)         (10**-30 SI)
   Tot        0.593327D+01      0.150809D+02      0.503044D+02
   x          0.000000D+00      0.000000D+00      0.000000D+00
   y          0.000000D+00      0.000000D+00      0.000000D+00
   z          0.593327D+01      0.150809D+02      0.503044D+02

 Dipole polarizability, Alpha (dipole orientation).
 (esu units = cm**3 , SI units = C**2 m**2 J**-1)
 Alpha(0;0):
               (au)            (10**-24 esu)      (10**-40 SI)
   iso        0.148796D+03      0.220493D+02      0.245332D+02
   aniso      0.689880D+02      0.102230D+02      0.113746D+02
   xx         0.156816D+03      0.232378D+02      0.258555D+02
   yx         0.108556D+02      0.160863D+01      0.178985D+01
   yy         0.108047D+03      0.160109D+02      0.178145D+02
   zx        -0.605360D+01     -0.897051D+00     -0.998104D+00
   zy        -0.582577D+01     -0.863291D+00     -0.960541D+00
   zz         0.181526D+03      0.268993D+02      0.299295D+02

 ----------------------------------------------------------------------
 Unable to Open any file for archive entry.
 1\1\GINC-GADI-CPU-CLX-0668\Freq\RM062X\Gen\C6H4F2N1O2S1(1-)\YJ5695\19-
 May-2022\0\\#N Geom=AllCheck Guess=TCheck SCRF=Check GenChk RM062X/Chk
 Bas Freq\\a1 b1\\-1,1\C,-1.47356,0.608144,-0.82458\C,-2.597396,0.87787
 3,-1.602456\F,-3.806659,1.000332,-1.024863\C,-2.539301,1.03771,-2.9809
 77\H,-3.453825,1.247354,-3.525541\C,-1.310182,0.927506,-3.622194\C,-0.
 152491,0.660485,-2.891946\H,0.820993,0.568789,-3.361426\C,-0.26989,0.5
 10968,-1.523638\F,0.848558,0.246927,-0.81218\S,-1.439087,0.368098,0.97
 9728\O,-0.602108,1.517592,1.42841\O,-2.851987,0.445511,1.411397\N,-0.8
 68268,-1.042946,1.298646\H,0.142075,-1.02219,1.142911\H,-1.251131,1.05
 0639,-4.698512\\Version=ES64L-G16RevC.01\State=1-A\HF=-1033.9366316\RM
 SD=2.598e-09\RMSF=1.373e-05\ZeroPoint=0.0989723\Thermal=0.1091717\ETot
 =-1033.8274599\HTot=-1033.8265157\GTot=-1033.8743231\Dipole=0.9275091,
 0.5251152,-5.8367517\DipoleDeriv=-0.6510817,0.0922065,-0.0482284,0.109
 3804,-0.4717975,0.1964504,-0.0004541,0.0699278,-0.7910617,1.6290535,-0
 .2482589,-0.1112426,-0.1531729,0.2524887,-0.0421864,-0.6532627,0.06680
 69,0.7002801,-1.4655478,0.1614138,0.4424548,0.1486891,-0.2065663,-0.01
 89173,0.5104129,-0.041218,-0.5131621,-0.2418578,0.0207543,-0.0560146,-
 0.0420294,-0.2060737,0.0111316,0.3508037,-0.0332712,-0.3664966,0.03055
 42,0.0341146,-0.0337892,0.0368685,0.2162685,0.0227159,-0.0473884,0.028
 5379,0.0803565,0.3373054,-0.0765573,0.0096292,-0.0771046,-0.1488569,-0
 .0312529,-0.0040299,-0.0271564,0.1111373,-0.1982656,-0.0125497,0.05563
 01,0.0384687,-0.2204457,-0.0005817,-0.3184895,0.0699068,-0.3873517,0.0
 281824,0.0262242,0.032466,0.025663,0.2221037,0.0113135,0.0406174,0.011
 2277,0.097183,1.3517159,-0.1869247,0.2322626,-0.2692594,0.2523247,-0.1
 037257,0.6112282,-0.1593527,0.8235083,-1.2440319,0.2195892,-0.5170864,
 0.240762,-0.240225,0.1625667,-0.5498874,0.1485068,-0.682049,3.202952,-
 0.0914465,-0.0136175,-0.0167663,3.5426401,-0.1442131,-0.0387307,-0.184
 9991,3.6130447,-1.2211581,-0.446521,-0.3998515,-0.4352597,-1.7799133,-
 0.5220432,-0.1988769,-0.1907621,-1.4016553,-1.795947,0.0655505,0.59466
 93,0.0347886,-0.9440217,-0.001273,0.3457674,0.0280552,-1.2554309,-1.02
 97022,0.5017698,-0.2861344,0.4517029,-1.7555435,0.4198489,-0.1424555,0
 .1612335,-1.3948705,0.1396996,-0.0681791,0.0907529,-0.1007261,0.299767
 ,0.012734,0.0857287,0.0265419,0.3929888,0.1281291,0.0088144,0.0080997,
 0.0079952,0.1878508,0.0274324,0.0090167,0.0260151,-0.0264208\Polar=155
 .6851967,-9.6184597,109.8103425,1.1475949,-13.9221102,180.8932977\Quad
 rupole=2.5291586,-0.723131,-1.8060276,-2.6854112,2.2343532,0.3884342\P
 G=C01 [X(C6H4F2N1O2S1)]\NImag=0\\0.67337017,-0.08076316,0.15808720,0.0
 0789365,-0.05138170,0.56173491,-0.24054384,0.04209754,-0.12580932,0.66
 579479,0.03568340,-0.07013950,0.03727828,-0.08085856,0.17329468,-0.066
 45171,0.02830718,-0.20395212,0.00465140,-0.06522263,0.68410548,-0.0488
 9143,0.00709974,0.01629118,-0.27480330,0.02439436,0.10255786,0.3436846
 5,0.01011517,0.00423847,-0.00379479,0.02474200,-0.04421114,-0.00675605
 ,-0.03406579,0.02543647,-0.01331137,0.00048770,0.01733458,0.10050158,-
 0.00632113,-0.12032395,-0.13934735,0.00664005,0.14800103,0.03873956,-0
 .00166159,-0.02220181,-0.11753839,0.01453214,-0.05561296,-0.02110425,-
 0.00237865,0.05839951,0.75868855,0.00487883,0.00798078,0.00762414,0.00
 375117,-0.07464549,0.04091797,0.00226564,0.00888310,-0.00488018,-0.099
 95351,0.15129674,-0.07681152,0.01589511,-0.02412059,0.03139347,0.02758
 846,-0.33258668,0.02043779,0.00111235,-0.02719376,0.01468687,-0.072439
 01,0.69808254,0.00065788,0.00043863,0.00083889,0.00380094,-0.00025976,
 0.00352918,0.00131240,-0.00083452,-0.00038259,-0.26720642,0.05205977,-
 0.12769637,0.27904748,0.00045541,0.00416069,0.00104468,0.00334644,0.00
 403468,0.00160073,-0.00073698,-0.00407575,-0.00082345,0.05202277,-0.04
 632616,0.03207598,-0.05628871,0.03770207,0.00093691,0.00114939,-0.0054
 8714,-0.02563692,0.00604642,-0.01202086,-0.00137382,-0.00064377,0.0029
 4647,-0.12646346,0.03201015,-0.13474045,0.13496383,-0.03474388,0.13633
 177,-0.07513935,0.01142442,-0.00126094,0.03156252,-0.01680472,0.100155
 85,0.00471294,0.00147330,-0.00936698,-0.31159071,0.03133245,0.05843558
 ,-0.01587026,0.00101304,0.01408716,0.67844117,0.01169761,-0.00315051,0
 .00022465,-0.00841454,0.00503587,-0.01302025,0.00030962,0.00665527,0.0
 0310483,0.02223590,-0.06621058,0.00584992,0.00471504,0.00261577,-0.003
 43295,-0.08008123,0.16318070,-0.00247617,0.00056614,-0.00103326,0.0310
 5870,-0.00241312,-0.01822442,0.00083040,0.00155387,-0.00648807,0.13108
 860,-0.00557243,-0.18113551,-0.01452179,0.00106157,0.01291125,-0.01781
 868,-0.07284901,0.75858495,0.02888163,-0.00594030,0.02584067,-0.012253
 12,0.00558093,-0.03338224,-0.00441131,0.00003442,0.00388978,-0.0531086
 2,0.00694654,0.01921529,-0.00251586,0.00109001,0.00335411,-0.28579414,
 0.05027371,-0.13097396,0.75906598,-0.01268993,0.01279097,-0.00025223,0
 .00551235,-0.00476299,0.01361924,0.00031170,-0.00114333,-0.00123891,0.
 01313635,0.00649760,-0.01100534,0.00107818,0.00679525,0.00045667,0.041
 44787,-0.07281482,0.03590014,-0.09193003,0.14853279,0.08125955,-0.0087
 8830,-0.01842035,-0.03230508,0.01363429,-0.07208256,0.00136022,-0.0008
 2447,0.00404838,-0.03203012,-0.00318028,0.07287474,0.00330234,0.000514
 63,-0.00075752,-0.05828606,0.02471473,-0.19176476,-0.04173891,-0.06467
 200,0.70522347,0.00083620,0.00064845,-0.00014351,0.00025975,-0.0000407
 5,-0.00079117,-0.00009573,-0.00009949,0.00019884,-0.00175416,0.0016839
 2,-0.00310367,-0.00065269,0.00005892,0.00067115,-0.01528672,0.00129332
 ,0.01193575,-0.29579747,0.02553090,0.11866115,0.30903944,0.00066680,0.
 00475416,0.00133224,0.00000089,-0.00073894,0.00020987,-0.00008349,-0.0
 0056317,-0.00015238,0.00171897,0.00636492,0.00143894,0.00023375,0.0002
 4822,-0.00012998,0.00476246,0.00236177,-0.00308279,0.02565312,-0.03731
 035,-0.00821147,-0.02817800,0.02798197,-0.00047477,0.00138557,-0.00535
 291,-0.00104210,0.00023630,-0.00127163,-0.00002315,-0.00010789,0.00032
 835,-0.00313482,0.00147827,-0.00132638,-0.00077667,0.00008637,0.000528
 77,-0.01647537,0.00128562,0.01288166,0.11760266,-0.00811566,-0.1153145
 1,-0.12576522,0.00816567,0.11522551,-0.25609992,0.01388380,0.12696417,
 -0.06144357,0.01499990,-0.04390964,0.00374671,0.00052213,0.00034938,-0
 .02258823,-0.00165169,0.03917602,0.00007359,-0.00031254,0.00112069,0.0
 4665995,-0.00368675,-0.02564522,-0.12592127,0.00889959,0.00090676,0.00
 127489,-0.00283296,0.02754795,0.64944264,0.02121506,-0.07009011,-0.005
 31000,0.00600488,-0.00067232,-0.00454543,0.00132922,0.00664418,0.00184
 503,-0.00170869,-0.00200610,0.00177378,-0.00027328,-0.00091812,-0.0001
 5829,0.00471916,0.00081494,0.00790037,-0.00175004,-0.07160038,0.034249
 46,0.00072555,0.00487759,-0.00243646,-0.07251862,0.17337896,0.06370326
 ,0.00535784,-0.18419748,0.02658609,-0.01558827,0.09084583,-0.00503332,
 0.00260887,-0.00821938,0.03984827,0.00169114,-0.06580784,0.00097654,-0
 .00015784,-0.00113767,-0.09451910,0.01843579,-0.02925073,0.08716841,0.
 02059972,-0.34656676,-0.00172100,0.00199171,-0.00975561,-0.03355638,-0
 .06511109,0.71485078,-0.05044804,0.01122939,-0.02332249,0.00194002,-0.
 00015992,0.00676852,-0.00578309,0.00095234,-0.00048713,-0.00333382,0.0
 0052488,-0.00186444,-0.00008273,-0.00001100,-0.00000082,0.00344850,0.0
 0053037,0.00065366,-0.00935166,0.00456280,-0.01662212,0.00086134,-0.00
 093442,0.00062804,-0.23786561,0.04384901,-0.10570816,0.30217164,0.0080
 5680,0.00435035,0.00263593,0.00042737,0.00649428,0.00064908,0.00099741
 ,-0.00010837,-0.00012080,0.00088917,-0.00155660,-0.00017104,-0.0000153
 8,-0.00041039,-0.00009491,-0.00064200,0.00720815,0.00153859,0.00951963
 ,0.00514166,0.00741603,-0.00083471,-0.00419318,-0.00102757,0.04299948,
 -0.05156728,0.02846461,-0.06025740,0.03942845,0.00642596,-0.00239962,0
 .01507969,0.00121984,0.00162576,-0.00710194,-0.00043950,-0.00009854,0.
 00135641,-0.00455145,0.00011505,0.00313916,-0.00028723,-0.00005155,0.0
 0034625,0.01048591,0.00004346,-0.00584982,-0.05481934,0.01348900,-0.03
 203146,0.00020558,-0.00097532,0.00307843,-0.10403560,0.02842063,-0.139
 49721,0.14407938,-0.04118624,0.16864202,-0.06895153,0.00500589,-0.0001
 9405,0.01172737,0.00088610,-0.02316411,-0.00073055,-0.00124286,0.00853
 185,-0.00286448,0.00139043,-0.00212124,0.00015338,0.00012717,-0.000811
 20,-0.00238882,0.00024167,-0.00054770,-0.00449863,0.00082932,0.0031623
 9,0.00012806,-0.00007230,0.00118773,0.01264805,-0.00533190,0.02757368,
 -0.00280879,0.00013284,-0.00518810,0.81340952,0.00488525,-0.04880347,0
 .00692017,0.00253643,0.00018835,0.00527239,-0.00220881,-0.00243984,-0.
 00062142,0.00089961,0.00460031,0.00019623,-0.00000754,0.00032740,-0.00
 006189,0.00043818,-0.00085749,-0.00019483,0.00170166,0.00373409,-0.000
 98875,0.00009249,0.00044965,-0.00037682,-0.00677040,0.00305657,-0.0020
 2379,0.00190217,-0.00501293,0.00121515,0.02487439,0.68124852,-0.000630
 45,0.01310843,-0.12529412,-0.03426684,0.00652552,-0.00706321,0.0148776
 0,-0.00168938,-0.00589072,0.00360651,-0.00084397,0.00511766,0.00026900
 ,-0.00023062,0.00209740,-0.00069455,-0.00037913,0.00282480,-0.00328742
 ,0.00015785,0.00606945,-0.00042608,-0.00011851,0.00191493,0.03347427,-
 0.00251502,-0.01298659,-0.01275788,0.00271856,-0.00676974,-0.03469695,
 0.02659563,0.42545179,0.00161021,-0.01223835,-0.00617189,0.00361185,-0
 .00001263,-0.00044383,-0.00138289,-0.00015721,-0.00062815,-0.00056184,
 0.00062401,-0.00012611,0.00004102,0.00006781,-0.00030856,0.00029128,-0
 .00003092,-0.00041052,0.00116150,0.00033507,-0.00066907,0.00003177,0.0
 0008738,-0.00038809,-0.00692621,0.00194611,-0.00394445,0.00240785,0.00
 016101,0.00397564,-0.18213085,-0.15155293,-0.05909792,0.20041852,-0.00
 944875,-0.00053277,-0.00104219,0.00514334,-0.00098280,-0.00311005,-0.0
 0145466,0.00013286,0.00009773,-0.00147675,0.00044471,-0.00052219,0.000
 09405,0.00012551,-0.00047186,-0.00004466,-0.00005253,-0.00043708,0.000
 63625,0.00010806,-0.00033721,0.00003172,0.00001113,-0.00026623,-0.0025
 2526,0.00091191,-0.00026485,0.00151553,-0.00007750,-0.00017148,-0.1547
 1841,-0.28047356,-0.08040828,0.19061564,0.31825941,-0.02189009,-0.0226
 8201,-0.01521395,0.01107613,-0.00302374,-0.00354035,-0.00398963,-0.000
 44897,0.00170725,-0.00114672,0.00225735,-0.00170071,0.00007453,0.00029
 002,-0.00073986,-0.00080677,-0.00006776,-0.00116406,0.00082628,0.00103
 736,-0.00000788,0.00009504,0.00006515,-0.00038995,-0.00596288,0.000876
 72,-0.00016505,0.00294048,-0.00181457,-0.00014439,-0.06517634,-0.08730
 370,-0.10508642,0.07770787,0.10154733,0.09785101,-0.01169364,0.0025881
 2,0.00320247,-0.00952433,0.00100748,0.00376892,0.00520530,0.00056467,-
 0.00920107,0.00147139,-0.00030567,0.00016270,0.00004052,-0.00005462,0.
 00041938,-0.00006794,-0.00003888,0.00045532,-0.00188567,0.00016660,0.0
 0032934,0.00006694,-0.00008929,0.00062869,0.00531859,-0.00134160,0.003
 77283,-0.00114999,0.00020508,0.00057484,-0.43007686,0.01680116,0.10880
 061,-0.03095118,-0.00574725,0.00757044,0.50720779,-0.00239801,0.005909
 18,0.00198403,0.00062281,-0.00037087,-0.00095702,0.00007381,0.00145424
 ,0.00207524,-0.00020728,-0.00049186,0.00005464,0.00000003,-0.00000772,
 0.00000095,0.00003390,0.00014440,0.00004010,-0.00040410,-0.00047629,0.
 00000217,-0.00003087,-0.00014406,0.00005934,0.00117123,0.00104438,0.00
 102862,-0.00029153,0.00060048,-0.00031373,0.01605056,-0.06737784,-0.00
 638715,-0.03416207,0.00122695,0.00315698,-0.02806732,0.06950694,0.0339
 2009,-0.00283476,-0.00672691,0.00209463,-0.00117220,0.00454896,-0.0039
 9219,0.00160538,-0.00852564,-0.00038226,0.00012672,-0.00065134,-0.0000
 2317,0.00003911,-0.00029465,0.00028167,0.00002980,-0.00034101,0.003455
 24,-0.00047993,-0.00126147,-0.00003766,0.00007454,-0.00098474,-0.00922
 352,0.00267914,-0.00791129,0.00203776,-0.00050247,0.00166999,0.1139613
 2,-0.00579419,-0.10775405,-0.00811859,-0.00432223,0.01449022,-0.130428
 32,0.00637991,0.10132956,0.00699024,0.00691872,-0.00174204,0.00169942,
 -0.00060449,0.00074069,-0.00076796,0.00057970,-0.00103825,-0.00025801,
 -0.00036581,-0.00019345,0.00001983,-0.00000360,-0.00016012,0.00018268,
 0.00009727,-0.00024530,0.00078386,-0.00037086,-0.00058076,-0.00000553,
 -0.00000648,-0.00029398,-0.00486864,0.00093061,-0.00291776,0.00159611,
 -0.00063631,0.00222992,-0.12437811,0.11352943,-0.02026886,0.01037287,-
 0.01807526,-0.00057569,-0.03507417,0.04507827,-0.00341413,0.56123108,0
 .00911578,-0.00760428,0.00267770,-0.00678317,0.00017388,0.00277647,0.0
 0202371,-0.00059149,-0.00007795,0.00166198,0.00003417,0.00090356,-0.00
 008211,0.00004611,0.00061309,-0.00003480,-0.00022579,0.00049257,-0.000
 72827,0.00038817,0.00067215,-0.00004821,-0.00003895,0.00035308,0.00479
 006,-0.00016836,0.00045796,-0.00297841,0.00025451,0.00015413,0.0695299
 9,-0.27057260,0.04776026,0.00692849,-0.04447342,0.00452429,0.00863500,
 -0.00710963,0.00234025,-0.10984087,0.35269613,-0.01478796,0.02196460,-
 0.00378085,0.00927512,0.00041670,-0.00312162,-0.00286223,0.00083861,0.
 00168322,-0.00138770,-0.00096751,-0.00183946,0.00001114,-0.00013247,-0
 .00066907,-0.00083089,0.00044672,-0.00095607,0.00021726,-0.00084806,0.
 00017660,0.00009000,0.00002056,-0.00022661,-0.00323144,0.00004861,0.00
 076472,0.00255467,0.00133024,-0.00123971,-0.01293620,0.05134314,-0.068
 95416,-0.00007495,-0.01100262,0.01544482,0.00894025,-0.00761799,0.0065
 2688,-0.03937336,-0.06502650,0.07393933,0.00162607,-0.00067317,-0.0001
 5609,-0.00080554,0.00008255,0.00043546,0.00029187,-0.00005839,-0.00017
 768,0.00018092,0.00000997,0.00014823,-0.00000195,-0.00000345,0.0000685
 7,0.00006198,-0.00003825,0.00009831,0.00000651,0.00005851,0.00001780,-
 0.00000384,-0.00000700,0.00001084,-0.00027254,0.00044956,-0.00096951,-
 0.00097268,-0.00134749,0.00228566,-0.01922670,-0.00707070,0.00512104,0
 .00197632,-0.00456126,-0.00072755,0.00103848,0.00252995,-0.00011730,-0
 .41755305,0.01784128,0.05438126,0.43365037,-0.00146408,-0.00075990,0.0
 0024232,0.00035454,0.00003492,-0.00026399,-0.00026840,-0.00000465,0.00
 022070,-0.00011746,0.00008108,-0.00005872,-0.00000062,0.00000544,-0.00
 003233,0.00004207,-0.00002323,-0.00010427,-0.00021094,0.00006163,-0.00
 012875,0.00000552,0.00000675,0.00001011,0.00124285,-0.00047944,0.00156
 570,-0.00057698,-0.00026369,-0.00029669,0.04233791,-0.01768766,-0.0042
 0880,-0.00256304,0.00537879,0.00169983,0.00569905,-0.00395934,0.001801
 13,-0.03725519,-0.02277032,0.00906190,-0.00720792,0.04037428,0.0027727
 2,0.00001623,-0.00074202,-0.00043376,-0.00009341,0.00024573,0.00014857
 ,0.00002717,0.00008795,0.00021645,-0.00009173,0.00023225,-0.00000413,0
 .00001777,0.00005006,0.00010163,0.00000563,0.00003578,0.00021768,-0.00
 009845,0.00004238,-0.00000751,0.00000381,-0.00003208,-0.00211480,0.001
 26708,-0.00224494,0.00155786,-0.00002221,0.00038917,-0.00959437,0.0059
 2059,-0.00415524,-0.00123905,0.00080084,-0.00118382,0.00092231,0.00047
 428,0.00604467,0.06786971,0.00127441,-0.01764551,-0.06043414,-0.009490
 37,0.01884891,-0.00094421,-0.00005813,-0.00002890,-0.00348456,0.001573
 96,0.00114778,-0.00098336,-0.00014683,0.00206963,0.00282852,-0.0031909
 4,0.02826086,0.00118286,-0.00077066,-0.00086690,-0.05922308,0.00089607
 ,0.01651859,0.00563827,0.00312158,-0.02676742,0.00109775,-0.00091945,0
 .00076826,-0.00317844,0.00175496,-0.00125939,-0.00062906,0.00034452,-0
 .00216150,-0.00001106,-0.00005039,-0.00002208,0.00002977,0.00001573,-0
 .00001510,0.00007477,0.00000062,-0.00001358,0.00002938,-0.00003044,0.0
 0001504,0.00000376,-0.00001733,0.00002083,0.05756870,-0.00000618,-0.00
 119126,-0.00018322,0.00151650,0.00726741,0.00052249,0.00001292,-0.0003
 0684,-0.00023506,0.00040703,0.00505338,-0.00269269,-0.00085753,-0.0043
 2299,-0.00050680,0.00092056,-0.04468191,0.03560017,-0.00047257,0.00405
 794,0.00592776,-0.00083876,-0.00406751,-0.00072968,0.00178918,0.006773
 58,0.00094388,0.00014315,-0.00028793,0.00043000,-0.00004082,-0.0003794
 8,-0.00008539,-0.00004838,-0.00000673,-0.00011427,-0.00002252,0.000051
 05,0.00002980,0.00002488,-0.00003810,0.00012407,-0.00000420,0.00000534
 ,-0.00001165,-0.00252326,0.03207405,-0.00007809,-0.00015182,0.00017251
 ,0.00163706,0.00048277,0.00154334,0.00055757,-0.00002245,-0.00085212,-
 0.00093493,0.00175434,-0.00834364,-0.00027350,-0.00059105,0.00063524,0
 .01651155,0.03560797,-0.35103075,0.00241448,0.00145059,-0.01022775,0.0
 0013831,-0.00063205,0.00069677,-0.00185976,0.00101548,0.00127922,-0.00
 045732,0.00018676,-0.00106685,0.00001330,-0.00009791,0.00047820,-0.000
 06232,-0.00008962,-0.00015686,0.00008128,0.00001962,-0.00015917,-0.000
 03660,0.00010454,-0.00010251,0.00001512,-0.00001777,0.00002670,-0.0176
 6614,-0.03901941,0.36710765\\-0.00001339,0.00001036,-0.00002197,0.0000
 2202,-0.00000037,0.00002156,-0.00001899,-0.00000055,-0.00001054,0.0000
 1982,-0.00000163,-0.00003239,0.00000712,-0.00000472,-0.00000490,-0.000
 01489,0.00000043,-0.00000300,0.00001516,-0.00000006,0.00002510,0.00000
 818,0.00000095,0.00000998,-0.00000224,0.00000089,-0.00002072,0.0000068
 6,-0.00000879,0.00002427,-0.00000744,0.00000553,0.00001654,-0.00002728
 ,-0.00001879,-0.00000960,0.00001159,-0.00000208,-0.00001323,-0.0000127
 7,0.00001641,0.00000854,-0.00001180,0.00000146,0.00000869,0.00001805,0
 .00000097,0.00000168\\\@
 The archive entry for this job was punched.


 SCIENCE IS LONG AND LIFE IS SHORT.

                     DON MOSER IN THE FEBRUARY 1979 SMITHSONIAN
 Job cpu time:       0 days  0 hours 44 minutes 28.1 seconds.
 Elapsed time:       0 days  0 hours  2 minutes 54.0 seconds.
 File lengths (MBytes):  RWF=    150 Int=      0 D2E=      0 Chk=     10 Scr=      1
 Normal termination of Gaussian 16 at Thu May 19 15:08:09 2022.
