 Entering Gaussian System, Link 0=g16
 AtFile(1): //home/561/yj5695//Basis/6-31pGd.gbs
 Initial command:
 /apps/gaussian/g16c01/g16/l1.exe "/jobfs/40645836.gadi-pbs/Gau-1051898.inp" -scrdir="/jobfs/40645836.gadi-pbs/"
 Entering Link 1 = /apps/gaussian/g16c01/g16/l1.exe PID=   1051899.
  
 Copyright (c) 1988-2019, Gaussian, Inc.  All Rights Reserved.
  
 This is part of the Gaussian(R) 16 program.  It is based on
 the Gaussian(R) 09 system (copyright 2009, Gaussian, Inc.),
 the Gaussian(R) 03 system (copyright 2003, Gaussian, Inc.),
 the Gaussian(R) 98 system (copyright 1998, Gaussian, Inc.),
 the Gaussian(R) 94 system (copyright 1995, Gaussian, Inc.),
 the Gaussian 92(TM) system (copyright 1992, Gaussian, Inc.),
 the Gaussian 90(TM) system (copyright 1990, Gaussian, Inc.),
 the Gaussian 88(TM) system (copyright 1988, Gaussian, Inc.),
 the Gaussian 86(TM) system (copyright 1986, Carnegie Mellon
 University), and the Gaussian 82(TM) system (copyright 1983,
 Carnegie Mellon University). Gaussian is a federally registered
 trademark of Gaussian, Inc.
  
 This software contains proprietary and confidential information,
 including trade secrets, belonging to Gaussian, Inc.
  
 This software is provided under written license and may be
 used, copied, transmitted, or stored only in accord with that
 written license.
  
 The following legend is applicable only to US Government
 contracts under FAR:
  
                    RESTRICTED RIGHTS LEGEND
  
 Use, reproduction and disclosure by the US Government is
 subject to restrictions as set forth in subparagraphs (a)
 and (c) of the Commercial Computer Software - Restricted
 Rights clause in FAR 52.227-19.
  
 Gaussian, Inc.
 340 Quinnipiac St., Bldg. 40, Wallingford CT 06492
  
  
 ---------------------------------------------------------------
 Warning -- This program may not be used in any manner that
 competes with the business of Gaussian, Inc. or will provide
 assistance to any competitor of Gaussian, Inc.  The licensee
 of this program is prohibited from giving any competitor of
 Gaussian, Inc. access to this program.  By using this program,
 the user acknowledges that Gaussian, Inc. is engaged in the
 business of creating and licensing software in the field of
 computational chemistry and represents and warrants to the
 licensee that it is not a competitor of Gaussian, Inc. and that
 it will not use this program in any manner prohibited above.
 ---------------------------------------------------------------
  

 Cite this work as:
 Gaussian 16, Revision C.01,
 M. J. Frisch, G. W. Trucks, H. B. Schlegel, G. E. Scuseria, 
 M. A. Robb, J. R. Cheeseman, G. Scalmani, V. Barone, 
 G. A. Petersson, H. Nakatsuji, X. Li, M. Caricato, A. V. Marenich, 
 J. Bloino, B. G. Janesko, R. Gomperts, B. Mennucci, H. P. Hratchian, 
 J. V. Ortiz, A. F. Izmaylov, J. L. Sonnenberg, D. Williams-Young, 
 F. Ding, F. Lipparini, F. Egidi, J. Goings, B. Peng, A. Petrone, 
 T. Henderson, D. Ranasinghe, V. G. Zakrzewski, J. Gao, N. Rega, 
 G. Zheng, W. Liang, M. Hada, M. Ehara, K. Toyota, R. Fukuda, 
 J. Hasegawa, M. Ishida, T. Nakajima, Y. Honda, O. Kitao, H. Nakai, 
 T. Vreven, K. Throssell, J. A. Montgomery, Jr., J. E. Peralta, 
 F. Ogliaro, M. J. Bearpark, J. J. Heyd, E. N. Brothers, K. N. Kudin, 
 V. N. Staroverov, T. A. Keith, R. Kobayashi, J. Normand, 
 K. Raghavachari, A. P. Rendell, J. C. Burant, S. S. Iyengar, 
 J. Tomasi, M. Cossi, J. M. Millam, M. Klene, C. Adamo, R. Cammi, 
 J. W. Ochterski, R. L. Martin, K. Morokuma, O. Farkas, 
 J. B. Foresman, and D. J. Fox, Gaussian, Inc., Wallingford CT, 2019.
 
 ******************************************
 Gaussian 16:  ES64L-G16RevC.01  3-Jul-2019
                19-May-2022 
 ******************************************
 %nproc=16
 Will use up to   16 processors via shared memory.
 %mem=20gb
 -----------------------------------------------------
 #m062X/gen 6D OPT Freq=noraman SCRF=(SMD,Solvent=h2o)
 -----------------------------------------------------
 1/18=20,19=15,26=3,38=1/1,3;
 2/9=110,12=2,17=6,18=5,40=1/2;
 3/5=7,8=2,11=2,25=1,30=1,70=32201,71=1,72=1,74=-55/1,2,3;
 4//1;
 5/5=2,38=5,53=1/2;
 6/7=2,8=2,9=2,10=2,28=1/1;
 7//1,2,3,16;
 1/18=20,19=15,26=3/3(2);
 2/9=110/2;
 99//99;
 2/9=110/2;
 3/5=7,6=1,8=2,11=2,25=1,30=1,70=32205,71=1,72=1,74=-55,82=7/1,2,3;
 4/5=5,16=3,69=1/1;
 5/5=2,38=5,53=1/2;
 7//1,2,3,16;
 1/18=20,19=15,26=3/3(-5);
 2/9=110/2;
 6/7=2,8=2,9=2,10=2,19=2,28=1/1;
 99/9=1/99;
 -----
 a3 b2
 -----
 Symbolic Z-matrix:
 Charge = -1 Multiplicity = 1
 C                    -1.47036   0.61165  -0.78847 
 C                    -2.60741   0.85813  -1.54892 
 F                    -3.82443   0.9631   -1.0096 
 C                    -2.53662   1.01643  -2.92888 
 F                    -3.64603   1.25433  -3.63155 
 C                    -1.31794   0.93082  -3.57862 
 C                    -0.16703   0.68424  -2.84444 
 F                     1.0126    0.59765  -3.46088 
 C                    -0.26082   0.52963  -1.47317 
 F                     0.87144   0.28222  -0.8014 
 S                    -1.43113   0.36436   1.02825 
 O                    -2.87397   0.47349   1.36973 
 O                    -0.8561   -0.98465   1.19892 
 N                    -0.5008    1.43199   1.65847 
 H                     0.33675   1.51586   1.0776 
 F                    -1.24912   1.08252  -4.89868 
 

 GradGradGradGradGradGradGradGradGradGradGradGradGradGradGradGradGradGrad
 Berny optimization.
 Initialization pass.
                           ----------------------------
                           !    Initial Parameters    !
                           ! (Angstroms and Degrees)  !
 --------------------------                            --------------------------
 ! Name  Definition              Value          Derivative Info.                !
 --------------------------------------------------------------------------------
 ! R1    R(1,2)                  1.3899         estimate D2E/DX2                !
 ! R2    R(1,9)                  1.3923         estimate D2E/DX2                !
 ! R3    R(1,11)                 1.8339         estimate D2E/DX2                !
 ! R4    R(2,3)                  1.3353         estimate D2E/DX2                !
 ! R5    R(2,4)                  1.3908         estimate D2E/DX2                !
 ! R6    R(4,5)                  1.3346         estimate D2E/DX2                !
 ! R7    R(4,6)                  1.3837         estimate D2E/DX2                !
 ! R8    R(6,7)                  1.3872         estimate D2E/DX2                !
 ! R9    R(6,16)                 1.3305         estimate D2E/DX2                !
 ! R10   R(7,8)                  1.3338         estimate D2E/DX2                !
 ! R11   R(7,9)                  1.3831         estimate D2E/DX2                !
 ! R12   R(9,10)                 1.3396         estimate D2E/DX2                !
 ! R13   R(11,12)                1.4867         estimate D2E/DX2                !
 ! R14   R(11,13)                1.4764         estimate D2E/DX2                !
 ! R15   R(11,14)                1.55           estimate D2E/DX2                !
 ! R16   R(14,15)                1.0227         estimate D2E/DX2                !
 ! A1    A(2,1,9)              116.8766         estimate D2E/DX2                !
 ! A2    A(2,1,11)             125.6898         estimate D2E/DX2                !
 ! A3    A(9,1,11)             117.4283         estimate D2E/DX2                !
 ! A4    A(1,2,3)              122.5859         estimate D2E/DX2                !
 ! A5    A(1,2,4)              121.425          estimate D2E/DX2                !
 ! A6    A(3,2,4)              115.9885         estimate D2E/DX2                !
 ! A7    A(2,4,5)              120.0247         estimate D2E/DX2                !
 ! A8    A(2,4,6)              120.244          estimate D2E/DX2                !
 ! A9    A(5,4,6)              119.7312         estimate D2E/DX2                !
 ! A10   A(4,6,7)              119.5499         estimate D2E/DX2                !
 ! A11   A(4,6,16)             120.2889         estimate D2E/DX2                !
 ! A12   A(7,6,16)             120.1611         estimate D2E/DX2                !
 ! A13   A(6,7,8)              120.0459         estimate D2E/DX2                !
 ! A14   A(6,7,9)              119.2294         estimate D2E/DX2                !
 ! A15   A(8,7,9)              120.7247         estimate D2E/DX2                !
 ! A16   A(1,9,7)              122.675          estimate D2E/DX2                !
 ! A17   A(1,9,10)             119.9039         estimate D2E/DX2                !
 ! A18   A(7,9,10)             117.4193         estimate D2E/DX2                !
 ! A19   A(1,11,12)            101.3543         estimate D2E/DX2                !
 ! A20   A(1,11,13)            104.2445         estimate D2E/DX2                !
 ! A21   A(1,11,14)            108.829          estimate D2E/DX2                !
 ! A22   A(12,11,13)           114.7414         estimate D2E/DX2                !
 ! A23   A(12,11,14)           116.0117         estimate D2E/DX2                !
 ! A24   A(13,11,14)           110.4015         estimate D2E/DX2                !
 ! A25   A(11,14,15)           108.4876         estimate D2E/DX2                !
 ! D1    D(9,1,2,3)           -179.7802         estimate D2E/DX2                !
 ! D2    D(9,1,2,4)             -0.0694         estimate D2E/DX2                !
 ! D3    D(11,1,2,3)             1.0826         estimate D2E/DX2                !
 ! D4    D(11,1,2,4)          -179.2066         estimate D2E/DX2                !
 ! D5    D(2,1,9,7)              0.0948         estimate D2E/DX2                !
 ! D6    D(2,1,9,10)          -179.4041         estimate D2E/DX2                !
 ! D7    D(11,1,9,7)           179.3053         estimate D2E/DX2                !
 ! D8    D(11,1,9,10)           -0.1937         estimate D2E/DX2                !
 ! D9    D(2,1,11,12)            1.1371         estimate D2E/DX2                !
 ! D10   D(2,1,11,13)          120.5695         estimate D2E/DX2                !
 ! D11   D(2,1,11,14)         -121.6195         estimate D2E/DX2                !
 ! D12   D(9,1,11,12)         -177.9958         estimate D2E/DX2                !
 ! D13   D(9,1,11,13)          -58.5634         estimate D2E/DX2                !
 ! D14   D(9,1,11,14)           59.2476         estimate D2E/DX2                !
 ! D15   D(1,2,4,5)           -179.8931         estimate D2E/DX2                !
 ! D16   D(1,2,4,6)             -0.0177         estimate D2E/DX2                !
 ! D17   D(3,2,4,5)             -0.1643         estimate D2E/DX2                !
 ! D18   D(3,2,4,6)            179.7112         estimate D2E/DX2                !
 ! D19   D(2,4,6,7)              0.0836         estimate D2E/DX2                !
 ! D20   D(2,4,6,16)          -179.9791         estimate D2E/DX2                !
 ! D21   D(5,4,6,7)            179.9595         estimate D2E/DX2                !
 ! D22   D(5,4,6,16)            -0.1033         estimate D2E/DX2                !
 ! D23   D(4,6,7,8)            179.8931         estimate D2E/DX2                !
 ! D24   D(4,6,7,9)             -0.0595         estimate D2E/DX2                !
 ! D25   D(16,6,7,8)            -0.0443         estimate D2E/DX2                !
 ! D26   D(16,6,7,9)          -179.9968         estimate D2E/DX2                !
 ! D27   D(6,7,9,1)             -0.0316         estimate D2E/DX2                !
 ! D28   D(6,7,9,10)           179.479          estimate D2E/DX2                !
 ! D29   D(8,7,9,1)           -179.9838         estimate D2E/DX2                !
 ! D30   D(8,7,9,10)            -0.4732         estimate D2E/DX2                !
 ! D31   D(1,11,14,15)         -42.8085         estimate D2E/DX2                !
 ! D32   D(12,11,14,15)       -156.2523         estimate D2E/DX2                !
 ! D33   D(13,11,14,15)         71.0323         estimate D2E/DX2                !
 --------------------------------------------------------------------------------
 Trust Radius=3.00D-01 FncErr=1.00D-07 GrdErr=1.00D-06 EigMax=2.50D+02 EigMin=1.00D-04
 Number of steps in this run=     84 maximum allowed number of steps=    100.
 GradGradGradGradGradGradGradGradGradGradGradGradGradGradGradGradGradGrad

                          Input orientation:                          
 ---------------------------------------------------------------------
 Center     Atomic      Atomic             Coordinates (Angstroms)
 Number     Number       Type             X           Y           Z
 ---------------------------------------------------------------------
      1          6           0       -1.470363    0.611651   -0.788474
      2          6           0       -2.607414    0.858134   -1.548916
      3          9           0       -3.824428    0.963097   -1.009595
      4          6           0       -2.536621    1.016426   -2.928883
      5          9           0       -3.646025    1.254327   -3.631548
      6          6           0       -1.317937    0.930817   -3.578621
      7          6           0       -0.167030    0.684238   -2.844444
      8          9           0        1.012604    0.597647   -3.460880
      9          6           0       -0.260822    0.529629   -1.473171
     10          9           0        0.871438    0.282220   -0.801402
     11         16           0       -1.431132    0.364363    1.028253
     12          8           0       -2.873968    0.473490    1.369725
     13          8           0       -0.856097   -0.984648    1.198918
     14          7           0       -0.500804    1.431990    1.658470
     15          1           0        0.336746    1.515864    1.077600
     16          9           0       -1.249124    1.082515   -4.898678
 ---------------------------------------------------------------------
                    Distance matrix (angstroms):
                    1          2          3          4          5
     1  C    0.000000
     2  C    1.389932   0.000000
     3  F    2.390404   1.335293   0.000000
     4  C    2.425304   1.390819   2.311916   0.000000
     5  F    3.637253   2.360728   2.644103   1.334583   0.000000
     6  C    2.812476   2.405771   3.589350   1.383719   2.351054
     7  C    2.435356   2.768412   4.101340   2.394252   3.612193
     8  F    3.647886   4.102193   5.435000   3.613225   4.707779
     9  C    1.392310   2.370685   3.619680   2.745056   4.079630
    10  F    2.364894   3.604562   4.749536   4.084128   5.418689
    11  S    1.833900   2.875630   3.199871   4.160074   5.235602
    12  O    2.578181   2.955921   2.608496   4.345873   5.120401
    13  O    2.622064   3.743467   4.181176   4.885407   6.010833
    14  N    2.756907   3.880005   4.287763   5.035976   6.156969
    15  H    2.750541   3.999909   4.687996   4.955561   6.173082
    16  F    4.142998   3.621630   4.665985   2.354168   2.716666
                    6          7          8          9         10
     6  C    0.000000
     7  C    1.387229   0.000000
     8  F    2.357178   1.333802   0.000000
     9  C    2.389846   1.383145   2.361615   0.000000
    10  F    3.595412   2.326812   2.681836   1.339589   0.000000
    11  S    4.642949   4.086325   5.116501   2.766597   2.942144
    12  O    5.207351   5.013098   6.201258   3.861831   4.333410
    13  O    5.167899   4.428179   5.263974   3.128490   2.930975
    14  N    5.324096   4.576764   5.403173   3.267877   3.042366
    15  H    4.976007   4.040770   4.679499   2.799318   2.310502
    16  F    1.330525   2.355723   2.723559   3.607842   4.682406
                   11         12         13         14         15
    11  S    0.000000
    12  O    1.486704   0.000000
    13  O    1.476354   2.495425   0.000000
    14  N    1.550004   2.575656   2.485470   0.000000
    15  H    2.110399   3.388298   2.773112   1.022710   0.000000
    16  F    5.973055   6.504145   6.450450   6.608956   6.198280
                   16
    16  F    0.000000
 Stoichiometry    C6HF5NO2S(1-)
 Framework group  C1[X(C6HF5NO2S)]
 Deg. of freedom    42
 Full point group                 C1      NOp   1
 Largest Abelian subgroup         C1      NOp   1
 Largest concise Abelian subgroup C1      NOp   1
                         Standard orientation:                         
 ---------------------------------------------------------------------
 Center     Atomic      Atomic             Coordinates (Angstroms)
 Number     Number       Type             X           Y           Z
 ---------------------------------------------------------------------
      1          6           0       -0.480359    0.092148    0.010077
      2          6           0        0.316225    1.231155    0.015537
      3          9           0       -0.193588    2.465196    0.031010
      4          6           0        1.704381    1.145245    0.011036
      5          9           0        2.442295    2.257242    0.018634
      6          6           0        2.326142   -0.090877    0.001281
      7          6           0        1.555466   -1.244312   -0.005743
      8          9           0        2.144454   -2.440968   -0.017321
      9          6           0        0.176625   -1.135354   -0.001593
     10          9           0       -0.532053   -2.271996   -0.019448
     11         16           0       -2.314046    0.069054   -0.005526
     12          8           0       -2.624797    1.522538   -0.038800
     13          8           0       -2.657618   -0.664664   -1.239722
     14          7           0       -2.815215   -0.704868    1.240421
     15          1           0       -2.236804   -1.540104    1.357715
     16          9           0        3.654056   -0.174107   -0.002614
 ---------------------------------------------------------------------
 Rotational constants (GHZ):           0.8508969           0.4388207           0.3063730
 General basis read from cards:  (6D, 7F)
 There are   291 symmetry adapted cartesian basis functions of A   symmetry.
 There are   291 symmetry adapted basis functions of A   symmetry.
   291 basis functions,   508 primitive gaussians,   291 cartesian basis functions
    61 alpha electrons       61 beta electrons
       nuclear repulsion energy      1223.0374787171 Hartrees.
 NAtoms=   16 NActive=   16 NUniq=   16 SFac= 1.00D+00 NAtFMM=   60 NAOKFM=F Big=F
 Integral buffers will be    131072 words long.
 Raffenetti 2 integral format.
 Two-electron integral symmetry is turned on.
 ------------------------------------------------------------------------------
 Polarizable Continuum Model (PCM)
 =================================
 Model                : PCM.
 Atomic radii         : SMD-Coulomb.
 Polarization charges : Total charges.
 Charge compensation  : None.
 Solution method      : On-the-fly selection.
 Cavity type          : VdW (van der Waals Surface) (Alpha=1.000).
 Cavity algorithm     : GePol (No added spheres)
                        Default sphere list used, NSphG=   16.
                        Lebedev-Laikov grids with approx.  5.0 points / Ang**2.
                        Smoothing algorithm: York/Karplus (Gamma=1.0000).
                        Polarization charges: spherical gaussians, with
                                              point-specific exponents (IZeta= 3).
                        Self-potential: point-specific (ISelfS= 7).
                        Self-field    : sphere-specific E.n sum rule (ISelfD= 2).
 1st derivatives      : Analytical E(r).r(x)/FMM algorithm (CHGder, D1EAlg=3).
                        Cavity 1st derivative terms included.
 Solvent              : Water, Eps=  78.355300 Eps(inf)=   1.777849
 ------------------------------------------------------------------------------
 Spheres list:
 ISph  on   Nord     Re0    Alpha      Xe            Ye            Ze
    1   C      1    1.8500  1.000     -0.480359      0.092148      0.010077
    2   C      2    1.8500  1.000      0.316225      1.231155      0.015537
    3   F      3    1.7300  1.000     -0.193588      2.465196      0.031010
    4   C      4    1.8500  1.000      1.704381      1.145245      0.011036
    5   F      5    1.7300  1.000      2.442295      2.257242      0.018634
    6   C      6    1.8500  1.000      2.326142     -0.090877      0.001281
    7   C      7    1.8500  1.000      1.555466     -1.244312     -0.005743
    8   F      8    1.7300  1.000      2.144454     -2.440968     -0.017321
    9   C      9    1.8500  1.000      0.176625     -1.135354     -0.001593
   10   F     10    1.7300  1.000     -0.532053     -2.271996     -0.019448
   11   S     11    2.4900  1.000     -2.314046      0.069054     -0.005526
   12   O     12    1.5200  1.000     -2.624797      1.522538     -0.038800
   13   O     13    1.5200  1.000     -2.657618     -0.664664     -1.239722
   14   N     14    1.8900  1.000     -2.815215     -0.704868      1.240421
   15   H     15    1.2000  1.000     -2.236804     -1.540104      1.357715
   16   F     16    1.7300  1.000      3.654056     -0.174107     -0.002614
 ------------------------------------------------------------------------------
 ------------------------------------------------------------------------------
 Atomic radii for non-electrostatic terms: SMD-CDS.
 ------------------------------------------------------------------------------
 Nuclear repulsion after PCM non-electrostatic terms =     1223.0465393463 Hartrees.
 One-electron integrals computed using PRISM.
 NBasis=   291 RedAO= T EigKep=  1.44D-06  NBF=   291
 NBsUse=   291 1.00D-06 EigRej= -1.00D+00 NBFU=   291
 ExpMin= 4.05D-02 ExpMax= 2.19D+04 ExpMxC= 3.30D+03 IAcc=3 IRadAn=         5 AccDes= 0.00D+00
 Harris functional with IExCor= 1009 and IRadAn=       5 diagonalized for initial guess.
 HarFok:  IExCor= 1009 AccDes= 0.00D+00 IRadAn=         5 IDoV= 1 UseB2=F ITyADJ=14
 ICtDFT=  3500011 ScaDFX=  1.000000  1.000000  1.000000  1.000000
 FoFCou: FMM=F IPFlag=           0 FMFlag=      100000 FMFlg1=           0
         NFxFlg=           0 DoJE=T BraDBF=F KetDBF=T FulRan=T
         wScrn=  0.000000 ICntrl=       500 IOpCl=  0 I1Cent=   200000004 NGrid=           0
         NMat0=    1 NMatS0=      1 NMatT0=    0 NMatD0=    1 NMtDS0=    0 NMtDT0=    0
 Petite list used in FoFCou.
 Requested convergence on RMS density matrix=1.00D-08 within 128 cycles.
 Requested convergence on MAX density matrix=1.00D-06.
 Requested convergence on             energy=1.00D-06.
 No special actions if energy rises.
 Inv3:  Mode=1 IEnd=     6491523.
 Iteration    1 A*A^-1 deviation from unit magnitude is 3.55D-15 for   1468.
 Iteration    1 A*A^-1 deviation from orthogonality  is 1.75D-15 for    870    618.
 Iteration    1 A^-1*A deviation from unit magnitude is 3.44D-15 for   1451.
 Iteration    1 A^-1*A deviation from orthogonality  is 1.54D-15 for   1453   1229.
 Error on total polarization charges =  0.03042
 SCF Done:  E(RM062X) =  -1331.52701372     A.U. after   15 cycles
            NFock= 15  Conv=0.87D-08     -V/T= 2.0064
 SMD-CDS (non-electrostatic) energy       (kcal/mol) =       5.69
 (included in total energy above)

 **********************************************************************

            Population analysis using the SCF Density.

 **********************************************************************

 Orbital symmetries:
       Occupied  (A) (A) (A) (A) (A) (A) (A) (A) (A) (A) (A) (A)
                 (A) (A) (A) (A) (A) (A) (A) (A) (A) (A) (A) (A)
                 (A) (A) (A) (A) (A) (A) (A) (A) (A) (A) (A) (A)
                 (A) (A) (A) (A) (A) (A) (A) (A) (A) (A) (A) (A)
                 (A) (A) (A) (A) (A) (A) (A) (A) (A) (A) (A) (A)
                 (A)
       Virtual   (A) (A) (A) (A) (A) (A) (A) (A) (A) (A) (A) (A)
                 (A) (A) (A) (A) (A) (A) (A) (A) (A) (A) (A) (A)
                 (A) (A) (A) (A) (A) (A) (A) (A) (A) (A) (A) (A)
                 (A) (A) (A) (A) (A) (A) (A) (A) (A) (A) (A) (A)
                 (A) (A) (A) (A) (A) (A) (A) (A) (A) (A) (A) (A)
                 (A) (A) (A) (A) (A) (A) (A) (A) (A) (A) (A) (A)
                 (A) (A) (A) (A) (A) (A) (A) (A) (A) (A) (A) (A)
                 (A) (A) (A) (A) (A) (A) (A) (A) (A) (A) (A) (A)
                 (A) (A) (A) (A) (A) (A) (A) (A) (A) (A) (A) (A)
                 (A) (A) (A) (A) (A) (A) (A) (A) (A) (A) (A) (A)
                 (A) (A) (A) (A) (A) (A) (A) (A) (A) (A) (A) (A)
                 (A) (A) (A) (A) (A) (A) (A) (A) (A) (A) (A) (A)
                 (A) (A) (A) (A) (A) (A) (A) (A) (A) (A) (A) (A)
                 (A) (A) (A) (A) (A) (A) (A) (A) (A) (A) (A) (A)
                 (A) (A) (A) (A) (A) (A) (A) (A) (A) (A) (A) (A)
                 (A) (A) (A) (A) (A) (A) (A) (A) (A) (A) (A) (A)
                 (A) (A) (A) (A) (A) (A) (A) (A) (A) (A) (A) (A)
                 (A) (A) (A) (A) (A) (A) (A) (A) (A) (A) (A) (A)
                 (A) (A) (A) (A) (A) (A) (A) (A) (A) (A) (A) (A)
                 (A) (A)
 The electronic state is 1-A.
 Alpha  occ. eigenvalues --  -90.15373 -25.31951 -25.31547 -25.31450 -25.31383
 Alpha  occ. eigenvalues --  -25.30587 -19.63311 -19.62488 -14.72421 -10.68429
 Alpha  occ. eigenvalues --  -10.68261 -10.68083 -10.67717 -10.67639 -10.60850
 Alpha  occ. eigenvalues --   -8.46097  -6.38347  -6.38262  -6.38179  -1.42444
 Alpha  occ. eigenvalues --   -1.41639  -1.41029  -1.40172  -1.39710  -1.22218
 Alpha  occ. eigenvalues --   -1.10505  -1.02250  -0.97461  -0.90257  -0.89310
 Alpha  occ. eigenvalues --   -0.78620  -0.77073  -0.71325  -0.69520  -0.69434
 Alpha  occ. eigenvalues --   -0.67030  -0.64245  -0.64086  -0.63170  -0.61776
 Alpha  occ. eigenvalues --   -0.60717  -0.60183  -0.59613  -0.57932  -0.57513
 Alpha  occ. eigenvalues --   -0.55681  -0.55438  -0.55165  -0.53493  -0.51162
 Alpha  occ. eigenvalues --   -0.50884  -0.47731  -0.44703  -0.42280  -0.40162
 Alpha  occ. eigenvalues --   -0.38647  -0.37995  -0.35131  -0.33147  -0.32082
 Alpha  occ. eigenvalues --   -0.29290
 Alpha virt. eigenvalues --   -0.01029  -0.00741   0.01237   0.02557   0.02707
 Alpha virt. eigenvalues --    0.04352   0.04426   0.05301   0.06283   0.07033
 Alpha virt. eigenvalues --    0.07736   0.07847   0.08038   0.08984   0.10706
 Alpha virt. eigenvalues --    0.10987   0.11521   0.11847   0.12708   0.13155
 Alpha virt. eigenvalues --    0.14011   0.14564   0.15413   0.15736   0.16329
 Alpha virt. eigenvalues --    0.16503   0.17480   0.17781   0.18278   0.19167
 Alpha virt. eigenvalues --    0.19878   0.20203   0.21104   0.21581   0.22616
 Alpha virt. eigenvalues --    0.22834   0.23704   0.24687   0.25382   0.25846
 Alpha virt. eigenvalues --    0.26987   0.27496   0.28540   0.29303   0.29533
 Alpha virt. eigenvalues --    0.31020   0.31168   0.31731   0.32367   0.33049
 Alpha virt. eigenvalues --    0.33567   0.33795   0.34683   0.35249   0.35963
 Alpha virt. eigenvalues --    0.36256   0.37185   0.37595   0.39286   0.39415
 Alpha virt. eigenvalues --    0.40811   0.40995   0.41452   0.42399   0.42687
 Alpha virt. eigenvalues --    0.43034   0.43372   0.45057   0.45606   0.46823
 Alpha virt. eigenvalues --    0.48006   0.51594   0.52011   0.54238   0.54771
 Alpha virt. eigenvalues --    0.55855   0.57440   0.59437   0.62891   0.64681
 Alpha virt. eigenvalues --    0.66593   0.70168   0.70378   0.71277   0.72657
 Alpha virt. eigenvalues --    0.73539   0.73892   0.76643   0.78909   0.80203
 Alpha virt. eigenvalues --    0.81334   0.84741   0.89058   0.94088   0.97783
 Alpha virt. eigenvalues --    0.99832   1.00547   1.01339   1.04987   1.06329
 Alpha virt. eigenvalues --    1.07879   1.09616   1.12963   1.14928   1.17499
 Alpha virt. eigenvalues --    1.19213   1.21605   1.22368   1.22679   1.23754
 Alpha virt. eigenvalues --    1.25368   1.27513   1.29553   1.30255   1.31179
 Alpha virt. eigenvalues --    1.31609   1.33843   1.35188   1.36420   1.37771
 Alpha virt. eigenvalues --    1.38883   1.39775   1.41789   1.42469   1.45771
 Alpha virt. eigenvalues --    1.47350   1.49038   1.53830   1.61951   1.65352
 Alpha virt. eigenvalues --    1.66196   1.66707   1.68115   1.68156   1.69840
 Alpha virt. eigenvalues --    1.70858   1.71965   1.73205   1.73426   1.74665
 Alpha virt. eigenvalues --    1.75652   1.77159   1.78334   1.79581   1.79946
 Alpha virt. eigenvalues --    1.81178   1.81455   1.81910   1.82149   1.82522
 Alpha virt. eigenvalues --    1.82869   1.84307   1.84661   1.85161   1.86466
 Alpha virt. eigenvalues --    1.87382   1.88023   1.88258   1.89316   1.90144
 Alpha virt. eigenvalues --    1.90625   1.91185   1.92396   1.93372   1.93815
 Alpha virt. eigenvalues --    1.96025   1.97150   1.99440   2.01261   2.03453
 Alpha virt. eigenvalues --    2.04124   2.07420   2.09138   2.11306   2.13942
 Alpha virt. eigenvalues --    2.17853   2.18230   2.20886   2.23398   2.26262
 Alpha virt. eigenvalues --    2.27543   2.28600   2.30194   2.30969   2.32157
 Alpha virt. eigenvalues --    2.36726   2.37056   2.37208   2.38076   2.40818
 Alpha virt. eigenvalues --    2.41600   2.43278   2.45506   2.48219   2.52336
 Alpha virt. eigenvalues --    2.59160   2.60302   2.64933   2.66112   2.66320
 Alpha virt. eigenvalues --    2.76331   2.77116   2.85175   2.89683   2.94921
 Alpha virt. eigenvalues --    3.03958   3.05842   3.09832   3.19301   3.21763
 Alpha virt. eigenvalues --    3.27455   3.34879   3.37276   3.41413   3.59544
 Alpha virt. eigenvalues --    4.01125   4.07686   4.23906   4.27314   4.28880
 Alpha virt. eigenvalues --    4.32731   4.38023   4.50868   4.54216   4.90347
 Alpha virt. eigenvalues --    5.32431   5.88457   6.37928   6.91554   7.90182
          Condensed to atoms (all electrons):
               1          2          3          4          5          6
     1  C   35.137806 -11.680810  -0.004977  -2.591885  -0.145579  -5.406513
     2  C  -11.680810  40.433433   0.146833  -2.102395   0.025844   1.523387
     3  F   -0.004977   0.146833   9.372049  -0.011822  -0.008767  -0.060663
     4  C   -2.591885  -2.102395  -0.011822  14.521002   0.058423  -1.642977
     5  F   -0.145579   0.025844  -0.008767   0.058423   9.408320   0.055556
     6  C   -5.406513   1.523387  -0.060663  -1.642977   0.055556  12.435617
     7  C   -0.691753  -3.283654   0.013342   1.037588  -0.088429  -1.679977
     8  F   -0.084317   0.062807   0.000088  -0.093903  -0.000126   0.039212
     9  C   -6.390137 -18.976145  -0.084784  -3.754662   0.031335   0.063655
    10  F    0.055083   0.064993  -0.000696   0.014658   0.000102  -0.040584
    11  S   -0.931100   0.683371  -0.024108  -0.087547   0.001556   0.128257
    12  O   -0.329899  -0.285150  -0.021087   0.114166   0.000641   0.019092
    13  O    0.002814  -0.035707   0.000260   0.003086   0.000077   0.014298
    14  N   -0.149622  -0.116173  -0.002889  -0.004160   0.000109   0.019046
    15  H   -0.003883   0.041391  -0.000002   0.004766   0.000001   0.001130
    16  F    0.032168  -0.113397  -0.000197   0.038174  -0.008455   0.025862
               7          8          9         10         11         12
     1  C   -0.691753  -0.084317  -6.390137   0.055083  -0.931100  -0.329899
     2  C   -3.283654   0.062807 -18.976145   0.064993   0.683371  -0.285150
     3  F    0.013342   0.000088  -0.084784  -0.000696  -0.024108  -0.021087
     4  C    1.037588  -0.093903  -3.754662   0.014658  -0.087547   0.114166
     5  F   -0.088429  -0.000126   0.031335   0.000102   0.001556   0.000641
     6  C   -1.679977   0.039212   0.063655  -0.040584   0.128257   0.019092
     7  C   15.161202   0.013169  -5.045892   0.033996   0.017556   0.058711
     8  F    0.013169   9.411501  -0.002038  -0.008021   0.000809   0.000046
     9  C   -5.045892  -0.002038  39.444768  -0.157726  -0.383503   0.256134
    10  F    0.033996  -0.008021  -0.157726   9.383310   0.006201   0.001753
    11  S    0.017556   0.000809  -0.383503   0.006201  14.701430   0.234576
    12  O    0.058711   0.000046   0.256134   0.001753   0.234576   8.986085
    13  O   -0.073985   0.000039   0.064907  -0.006890   0.037972  -0.154285
    14  N   -0.033662  -0.000226   0.288261  -0.006972   0.018275  -0.137113
    15  H    0.034901   0.000042  -0.101436   0.005665   0.064705   0.014003
    16  F    0.036496  -0.009258  -0.068646  -0.000349  -0.000091   0.000005
              13         14         15         16
     1  C    0.002814  -0.149622  -0.003883   0.032168
     2  C   -0.035707  -0.116173   0.041391  -0.113397
     3  F    0.000260  -0.002889  -0.000002  -0.000197
     4  C    0.003086  -0.004160   0.004766   0.038174
     5  F    0.000077   0.000109   0.000001  -0.008455
     6  C    0.014298   0.019046   0.001130   0.025862
     7  C   -0.073985  -0.033662   0.034901   0.036496
     8  F    0.000039  -0.000226   0.000042  -0.009258
     9  C    0.064907   0.288261  -0.101436  -0.068646
    10  F   -0.006890  -0.006972   0.005665  -0.000349
    11  S    0.037972   0.018275   0.064705  -0.000091
    12  O   -0.154285  -0.137113   0.014003   0.000005
    13  O    9.033624  -0.194359  -0.016339   0.000026
    14  N   -0.194359   8.111598   0.195342  -0.000008
    15  H   -0.016339   0.195342   0.329001   0.000000
    16  F    0.000026  -0.000008   0.000000   9.395189
 Mulliken charges:
               1
     1  C   -0.817395
     2  C   -0.388630
     3  F   -0.312579
     4  C    0.497487
     5  F   -0.330608
     6  C    0.505603
     7  C    0.490390
     8  F   -0.329824
     9  C    0.815909
    10  F   -0.344524
    11  S    1.531640
    12  O   -0.757676
    13  O   -0.675538
    14  N   -0.987448
    15  H    0.430711
    16  F   -0.327518
 Sum of Mulliken charges =  -1.00000
 Mulliken charges with hydrogens summed into heavy atoms:
               1
     1  C   -0.817395
     2  C   -0.388630
     3  F   -0.312579
     4  C    0.497487
     5  F   -0.330608
     6  C    0.505603
     7  C    0.490390
     8  F   -0.329824
     9  C    0.815909
    10  F   -0.344524
    11  S    1.531640
    12  O   -0.757676
    13  O   -0.675538
    14  N   -0.556737
    16  F   -0.327518
 Electronic spatial extent (au):  <R**2>=           3222.8995
 Charge=             -1.0000 electrons
 Dipole moment (field-independent basis, Debye):
    X=             14.0809    Y=             -1.8600    Z=              0.7323  Tot=             14.2221
 Quadrupole moment (field-independent basis, Debye-Ang):
   XX=           -143.0837   YY=           -105.5747   ZZ=            -97.5254
   XY=              2.7082   XZ=              0.0645   YZ=             -2.8449
 Traceless Quadrupole moment (field-independent basis, Debye-Ang):
   XX=            -27.6891   YY=              9.8199   ZZ=             17.8692
   XY=              2.7082   XZ=              0.0645   YZ=             -2.8449
 Octapole moment (field-independent basis, Debye-Ang**2):
  XXX=            155.7311  YYY=            -13.8657  ZZZ=             -5.9193  XYY=             23.1021
  XXY=             -2.6827  XXZ=             -7.8206  XZZ=             44.9974  YZZ=              2.8475
  YYZ=              3.8704  XYZ=              4.6501
 Hexadecapole moment (field-independent basis, Debye-Ang**3):
 XXXX=          -2966.3450 YYYY=          -1145.6482 ZZZZ=           -240.0169 XXXY=            -13.3822
 XXXZ=             49.8109 YYYX=             28.9000 YYYZ=             -6.5454 ZZZX=             21.2870
 ZZZY=             -2.3049 XXYY=           -672.2671 XXZZ=           -519.8893 YYZZ=           -206.3000
 XXYZ=             -5.0423 YYXZ=             -6.5998 ZZXY=            -11.1854
 N-N= 1.223046539346D+03 E-N=-5.609055519060D+03  KE= 1.323067367057D+03
 D1PCM: PCM CHGder 1st derivatives, ID1Alg=3 FixD1E=F DoIter=F DoCFld=F I1PDM=0.
 Calling FoFJK, ICntrl=      2127 FMM=F ISym2X=0 I1Cent= 0 IOpClX= 0 NMat=1 NMatS=1 NMatT=0.
 ***** Axes restored to original set *****
 -------------------------------------------------------------------
 Center     Atomic                   Forces (Hartrees/Bohr)
 Number     Number              X              Y              Z
 -------------------------------------------------------------------
      1        6           0.006390148   -0.002836727    0.000369615
      2        6          -0.001946314    0.001021976    0.001364269
      3        9           0.000368251   -0.000054685   -0.002195970
      4        6          -0.000188352    0.000300401    0.000168688
      5        9           0.000296324   -0.000101278    0.000334927
      6        6           0.000333569   -0.000235484   -0.000355431
      7        6           0.000495292    0.000356524   -0.000351577
      8        9          -0.000254417   -0.000097621    0.000021309
      9        6          -0.000888010   -0.001330296   -0.001966759
     10        9           0.000684010    0.000482981   -0.000276522
     11       16          -0.002388410    0.004119833   -0.007038054
     12        8           0.015636368    0.001920924    0.012098712
     13        8          -0.005625214   -0.018398645   -0.005977929
     14        7          -0.014726985    0.017879232   -0.001435053
     15        1           0.001875866   -0.003024658    0.004697555
     16        9          -0.000062127   -0.000002478    0.000542221
 -------------------------------------------------------------------
 Cartesian Forces:  Max     0.018398645 RMS     0.005618816

 GradGradGradGradGradGradGradGradGradGradGradGradGradGradGradGradGradGrad
 Berny optimization.
 FormGI is forming the generalized inverse of G from B-inverse, IUseBI=4.
 Internal  Forces:  Max     0.020821301 RMS     0.005467736
 Search for a local minimum.
 Step number   1 out of a maximum of   84
 All quantities printed in internal units (Hartrees-Bohrs-Radians)
 Mixed Optimization -- RFO/linear search
 Second derivative matrix not updated -- first step.
 ITU=  0
     Eigenvalues ---    0.00230   0.01380   0.02209   0.02216   0.02246
     Eigenvalues ---    0.02249   0.02255   0.02279   0.02283   0.02293
     Eigenvalues ---    0.03280   0.10734   0.12043   0.16000   0.16626
     Eigenvalues ---    0.21445   0.23618   0.24997   0.24999   0.24999
     Eigenvalues ---    0.25000   0.25000   0.25000   0.25000   0.25000
     Eigenvalues ---    0.25000   0.25000   0.43477   0.43643   0.43909
     Eigenvalues ---    0.47125   0.47591   0.47867   0.48357   0.57297
     Eigenvalues ---    0.58273   0.58436   0.58617   0.59382   0.62243
     Eigenvalues ---    0.81254   0.85072
 RFO step:  Lambda=-1.05472233D-02 EMin= 2.30000000D-03
 Linear search not attempted -- first point.
 Iteration  1 RMS(Cart)=  0.05052965 RMS(Int)=  0.00169877
 Iteration  2 RMS(Cart)=  0.00189210 RMS(Int)=  0.00034934
 Iteration  3 RMS(Cart)=  0.00000249 RMS(Int)=  0.00034934
 Iteration  4 RMS(Cart)=  0.00000000 RMS(Int)=  0.00034934
 Variable       Old X    -DE/DX   Delta X   Delta X   Delta X     New X
                                 (Linear)    (Quad)   (Total)
    R1        2.62659   0.00203   0.00000   0.00442   0.00442   2.63102
    R2        2.63108   0.00168   0.00000   0.00370   0.00371   2.63479
    R3        3.46557   0.00188   0.00000   0.00763   0.00763   3.47320
    R4        2.52334  -0.00123   0.00000  -0.00208  -0.00208   2.52126
    R5        2.62827  -0.00018   0.00000  -0.00035  -0.00035   2.62792
    R6        2.52200  -0.00045   0.00000  -0.00075  -0.00075   2.52125
    R7        2.61485  -0.00017   0.00000  -0.00054  -0.00054   2.61431
    R8        2.62148  -0.00083   0.00000  -0.00193  -0.00193   2.61955
    R9        2.51433  -0.00054   0.00000  -0.00089  -0.00089   2.51343
   R10        2.52052  -0.00022   0.00000  -0.00037  -0.00037   2.52015
   R11        2.61377  -0.00010   0.00000  -0.00022  -0.00022   2.61355
   R12        2.53146   0.00035   0.00000   0.00061   0.00061   2.53206
   R13        2.80946  -0.01224   0.00000  -0.01487  -0.01487   2.79459
   R14        2.78991   0.01393   0.00000   0.01618   0.01618   2.80608
   R15        2.92908   0.00382   0.00000   0.00603   0.00603   2.93512
   R16        1.93264  -0.00141   0.00000  -0.00313  -0.00313   1.92951
    A1        2.03988  -0.00145   0.00000  -0.00476  -0.00475   2.03513
    A2        2.19370   0.00015   0.00000   0.00017   0.00016   2.19386
    A3        2.04951   0.00131   0.00000   0.00462   0.00461   2.05412
    A4        2.13953   0.00246   0.00000   0.00920   0.00920   2.14872
    A5        2.11927  -0.00023   0.00000  -0.00041  -0.00041   2.11886
    A6        2.02438  -0.00223   0.00000  -0.00878  -0.00878   2.01560
    A7        2.09483  -0.00055   0.00000  -0.00196  -0.00195   2.09287
    A8        2.09865   0.00084   0.00000   0.00291   0.00291   2.10156
    A9        2.08970  -0.00029   0.00000  -0.00095  -0.00095   2.08875
   A10        2.08654   0.00003   0.00000  -0.00068  -0.00068   2.08585
   A11        2.09944  -0.00004   0.00000   0.00025   0.00025   2.09969
   A12        2.09721   0.00001   0.00000   0.00043   0.00043   2.09764
   A13        2.09520  -0.00002   0.00000   0.00018   0.00018   2.09538
   A14        2.08095  -0.00012   0.00000  -0.00094  -0.00094   2.08001
   A15        2.10704   0.00013   0.00000   0.00076   0.00076   2.10780
   A16        2.14108   0.00092   0.00000   0.00388   0.00387   2.14495
   A17        2.09272   0.00029   0.00000   0.00099   0.00096   2.09368
   A18        2.04935  -0.00121   0.00000  -0.00478  -0.00480   2.04455
   A19        1.76897   0.01953   0.00000   0.07325   0.07356   1.84253
   A20        1.81941  -0.01156   0.00000  -0.03247  -0.03344   1.78597
   A21        1.89942  -0.00062   0.00000   0.00809   0.00760   1.90703
   A22        2.00262  -0.00591   0.00000  -0.03993  -0.03847   1.96414
   A23        2.02479  -0.02082   0.00000  -0.11531  -0.11447   1.91031
   A24        1.92687   0.01993   0.00000   0.11194   0.11231   2.03918
   A25        1.89347   0.00283   0.00000   0.01662   0.01662   1.91009
    D1       -3.13776  -0.00016   0.00000  -0.00508  -0.00509   3.14034
    D2       -0.00121  -0.00007   0.00000  -0.00203  -0.00203  -0.00324
    D3        0.01890  -0.00022   0.00000  -0.00695  -0.00696   0.01194
    D4       -3.12775  -0.00013   0.00000  -0.00390  -0.00390  -3.13164
    D5        0.00165   0.00011   0.00000   0.00306   0.00306   0.00471
    D6       -3.13119  -0.00031   0.00000  -0.00966  -0.00968  -3.14087
    D7        3.12947   0.00015   0.00000   0.00474   0.00474   3.13421
    D8       -0.00338  -0.00027   0.00000  -0.00798  -0.00800  -0.01138
    D9        0.01985  -0.00327   0.00000   0.00711   0.00726   0.02711
   D10        2.10434  -0.00617   0.00000  -0.01919  -0.01921   2.08512
   D11       -2.12266   0.01055   0.00000   0.09703   0.09691  -2.02575
   D12       -3.10661  -0.00331   0.00000   0.00530   0.00545  -3.10116
   D13       -1.02212  -0.00621   0.00000  -0.02100  -0.02103  -1.04315
   D14        1.03407   0.01052   0.00000   0.09522   0.09510   1.12917
   D15       -3.13973  -0.00002   0.00000  -0.00052  -0.00051  -3.14024
   D16       -0.00031   0.00004   0.00000   0.00117   0.00118   0.00087
   D17       -0.00287   0.00008   0.00000   0.00238   0.00237  -0.00049
   D18        3.13655   0.00014   0.00000   0.00407   0.00406   3.14062
   D19        0.00146  -0.00004   0.00000  -0.00116  -0.00117   0.00029
   D20       -3.14123   0.00004   0.00000   0.00107   0.00106  -3.14016
   D21        3.14089   0.00002   0.00000   0.00052   0.00052   3.14140
   D22       -0.00180   0.00009   0.00000   0.00275   0.00275   0.00095
   D23        3.13973   0.00005   0.00000   0.00149   0.00148   3.14121
   D24       -0.00104   0.00007   0.00000   0.00211   0.00210   0.00106
   D25       -0.00077  -0.00003   0.00000  -0.00074  -0.00074  -0.00152
   D26       -3.14154  -0.00000   0.00000  -0.00012  -0.00013   3.14152
   D27       -0.00055  -0.00011   0.00000  -0.00315  -0.00315  -0.00370
   D28        3.13250   0.00031   0.00000   0.00930   0.00928  -3.14141
   D29       -3.14131  -0.00009   0.00000  -0.00253  -0.00253   3.13935
   D30       -0.00826   0.00033   0.00000   0.00992   0.00990   0.00164
   D31       -0.74715   0.00176   0.00000  -0.07659  -0.07772  -0.82486
   D32       -2.72712  -0.01021   0.00000  -0.10685  -0.10748  -2.83460
   D33        1.23975  -0.00170   0.00000  -0.05073  -0.04898   1.19077
         Item               Value     Threshold  Converged?
 Maximum Force            0.020821     0.000450     NO 
 RMS     Force            0.005468     0.000300     NO 
 Maximum Displacement     0.194946     0.001800     NO 
 RMS     Displacement     0.051042     0.001200     NO 
 Predicted change in Energy=-5.678545D-03
 GradGradGradGradGradGradGradGradGradGradGradGradGradGradGradGradGradGrad

                          Input orientation:                          
 ---------------------------------------------------------------------
 Center     Atomic      Atomic             Coordinates (Angstroms)
 Number     Number       Type             X           Y           Z
 ---------------------------------------------------------------------
      1          6           0       -1.457621    0.599724   -0.796686
      2          6           0       -2.596767    0.862698   -1.552739
      3          9           0       -3.814531    0.978067   -1.019997
      4          6           0       -2.529223    1.025557   -2.932151
      5          9           0       -3.639534    1.278249   -3.627429
      6          6           0       -1.316290    0.927821   -3.590279
      7          6           0       -0.164811    0.665394   -2.864473
      8          9           0        1.010134    0.568494   -3.487863
      9          6           0       -0.253753    0.505130   -1.493641
     10          9           0        0.884132    0.253127   -0.832527
     11         16           0       -1.412643    0.349874    1.023637
     12          8           0       -2.818015    0.450133    1.472886
     13          8           0       -0.874551   -1.029114    1.141196
     14          7           0       -0.578633    1.485998    1.676377
     15          1           0        0.295034    1.605037    1.161511
     16          9           0       -1.253906    1.085570   -4.909469
 ---------------------------------------------------------------------
                    Distance matrix (angstroms):
                    1          2          3          4          5
     1  C    0.000000
     2  C    1.392273   0.000000
     3  F    2.397506   1.334194   0.000000
     4  C    2.426907   1.390634   2.304475   0.000000
     5  F    3.637890   2.358895   2.630482   1.334187   0.000000
     6  C    2.816342   2.407370   3.584701   1.383434   2.349817
     7  C    2.439552   2.770195   4.101257   2.392643   3.609902
     8  F    3.651469   4.103778   5.434658   3.611755   4.705597
     9  C    1.394272   2.370878   3.623141   2.741883   4.076062
    10  F    2.367535   3.606514   4.757953   4.081184   5.415340
    11  S    1.837940   2.881467   3.215607   4.165520   5.239593
    12  O    2.650284   3.061628   2.736096   4.451839   5.232006
    13  O    2.597782   3.715140   4.164494   4.853017   5.975687
    14  N    2.770225   3.858570   4.242577   5.025469   6.127205
    15  H    2.813714   4.034939   4.694740   5.007024   6.206574
    16  F    4.146388   3.622235   4.657934   2.353683   2.715138
                    6          7          8          9         10
     6  C    0.000000
     7  C    1.386206   0.000000
     8  F    2.356238   1.333605   0.000000
     9  C    2.388209   1.383031   2.361852   0.000000
    10  F    3.591972   2.323586   2.676965   1.339910   0.000000
    11  S    4.650970   4.095612   5.125551   2.775575   2.954637
    12  O    5.302735   5.089058   6.267198   3.921575   4.365734
    13  O    5.139220   4.406867   5.247150   3.111537   2.938144
    14  N    5.347276   4.632921   5.480453   3.334167   3.155036
    15  H    5.063051   4.159679   4.816893   2.925883   2.480098
    16  F    1.330053   2.354715   2.722904   3.606258   4.678207
                   11         12         13         14         15
    11  S    0.000000
    12  O    1.478833   0.000000
    13  O    1.484915   2.464801   0.000000
    14  N    1.553197   2.475734   2.588393   0.000000
    15  H    2.123818   3.334941   2.882203   1.021054   0.000000
    16  F    5.980651   6.601869   6.420775   6.632474   6.286959
                   16
    16  F    0.000000
 Stoichiometry    C6HF5NO2S(1-)
 Framework group  C1[X(C6HF5NO2S)]
 Deg. of freedom    42
 Full point group                 C1      NOp   1
 Largest Abelian subgroup         C1      NOp   1
 Largest concise Abelian subgroup C1      NOp   1
                         Standard orientation:                         
 ---------------------------------------------------------------------
 Center     Atomic      Atomic             Coordinates (Angstroms)
 Number     Number       Type             X           Y           Z
 ---------------------------------------------------------------------
      1          6           0       -0.478521    0.078334    0.003619
      2          6           0        0.305844    1.228618    0.010162
      3          9           0       -0.206836    2.460354    0.017815
      4          6           0        1.694712    1.158555    0.011436
      5          9           0        2.417455    2.279998    0.019327
      6          6           0        2.334002   -0.068294    0.005141
      7          6           0        1.579703   -1.231280   -0.002824
      8          9           0        2.184679   -2.419751   -0.009386
      9          6           0        0.199701   -1.139830   -0.005594
     10          9           0       -0.489094   -2.289119   -0.013110
     11         16           0       -2.315824    0.033152   -0.013592
     12          8           0       -2.747243    1.446983   -0.057262
     13          8           0       -2.603384   -0.688979   -1.278823
     14          7           0       -2.824623   -0.622599    1.299243
     15          1           0       -2.300267   -1.480739    1.475869
     16          9           0        3.662484   -0.132832    0.008014
 ---------------------------------------------------------------------
 Rotational constants (GHZ):           0.8510788           0.4336710           0.3053506
 Basis read from rwf:  (6D, 7F)
 There are   291 symmetry adapted cartesian basis functions of A   symmetry.
 There are   291 symmetry adapted basis functions of A   symmetry.
   291 basis functions,   508 primitive gaussians,   291 cartesian basis functions
    61 alpha electrons       61 beta electrons
       nuclear repulsion energy      1220.1525084070 Hartrees.
 NAtoms=   16 NActive=   16 NUniq=   16 SFac= 1.00D+00 NAtFMM=   60 NAOKFM=F Big=F
 Integral buffers will be    131072 words long.
 Raffenetti 2 integral format.
 Two-electron integral symmetry is turned on.
 ------------------------------------------------------------------------------
 Polarizable Continuum Model (PCM)
 =================================
 Model                : PCM.
 Atomic radii         : SMD-Coulomb.
 Polarization charges : Total charges.
 Charge compensation  : None.
 Solution method      : On-the-fly selection.
 Cavity type          : VdW (van der Waals Surface) (Alpha=1.000).
 Cavity algorithm     : GePol (No added spheres)
                        Default sphere list used, NSphG=   16.
                        Lebedev-Laikov grids with approx.  5.0 points / Ang**2.
                        Smoothing algorithm: York/Karplus (Gamma=1.0000).
                        Polarization charges: spherical gaussians, with
                                              point-specific exponents (IZeta= 3).
                        Self-potential: point-specific (ISelfS= 7).
                        Self-field    : sphere-specific E.n sum rule (ISelfD= 2).
 1st derivatives      : Analytical E(r).r(x)/FMM algorithm (CHGder, D1EAlg=3).
                        Cavity 1st derivative terms included.
 Solvent              : Water, Eps=  78.355300 Eps(inf)=   1.777849
 ------------------------------------------------------------------------------
 Spheres list:
 ISph  on   Nord     Re0    Alpha      Xe            Ye            Ze
    1   C      1    1.8500  1.000     -0.478521      0.078334      0.003619
    2   C      2    1.8500  1.000      0.305844      1.228618      0.010162
    3   F      3    1.7300  1.000     -0.206836      2.460354      0.017815
    4   C      4    1.8500  1.000      1.694712      1.158555      0.011436
    5   F      5    1.7300  1.000      2.417455      2.279998      0.019327
    6   C      6    1.8500  1.000      2.334002     -0.068294      0.005141
    7   C      7    1.8500  1.000      1.579703     -1.231280     -0.002824
    8   F      8    1.7300  1.000      2.184679     -2.419751     -0.009386
    9   C      9    1.8500  1.000      0.199701     -1.139830     -0.005594
   10   F     10    1.7300  1.000     -0.489094     -2.289119     -0.013110
   11   S     11    2.4900  1.000     -2.315824      0.033152     -0.013592
   12   O     12    1.5200  1.000     -2.747243      1.446983     -0.057262
   13   O     13    1.5200  1.000     -2.603384     -0.688979     -1.278823
   14   N     14    1.8900  1.000     -2.824623     -0.622599      1.299243
   15   H     15    1.2000  1.000     -2.300267     -1.480739      1.475869
   16   F     16    1.7300  1.000      3.662484     -0.132832      0.008014
 ------------------------------------------------------------------------------
 ------------------------------------------------------------------------------
 Atomic radii for non-electrostatic terms: SMD-CDS.
 ------------------------------------------------------------------------------
 Nuclear repulsion after PCM non-electrostatic terms =     1220.1616921514 Hartrees.
 One-electron integrals computed using PRISM.
 NBasis=   291 RedAO= T EigKep=  1.44D-06  NBF=   291
 NBsUse=   291 1.00D-06 EigRej= -1.00D+00 NBFU=   291
 Initial guess from the checkpoint file:  "/jobfs/40645836.gadi-pbs/Gau-1051899.chk"
 B after Tr=     0.000000   -0.000000   -0.000000
         Rot=    0.999975    0.003817    0.001214   -0.005786 Ang=   0.81 deg.
 ExpMin= 4.05D-02 ExpMax= 2.19D+04 ExpMxC= 3.30D+03 IAcc=3 IRadAn=         5 AccDes= 0.00D+00
 Harris functional with IExCor= 1009 and IRadAn=       5 diagonalized for initial guess.
 HarFok:  IExCor= 1009 AccDes= 0.00D+00 IRadAn=         5 IDoV= 1 UseB2=F ITyADJ=14
 ICtDFT=  3500011 ScaDFX=  1.000000  1.000000  1.000000  1.000000
 FoFCou: FMM=F IPFlag=           0 FMFlag=      100000 FMFlg1=           0
         NFxFlg=           0 DoJE=T BraDBF=F KetDBF=T FulRan=T
         wScrn=  0.000000 ICntrl=       500 IOpCl=  0 I1Cent=   200000004 NGrid=           0
         NMat0=    1 NMatS0=      1 NMatT0=    0 NMatD0=    1 NMtDS0=    0 NMtDT0=    0
 Petite list used in FoFCou.
 Requested convergence on RMS density matrix=1.00D-08 within 128 cycles.
 Requested convergence on MAX density matrix=1.00D-06.
 Requested convergence on             energy=1.00D-06.
 No special actions if energy rises.
 Inv3:  Mode=1 IEnd=     6615675.
 Iteration    1 A*A^-1 deviation from unit magnitude is 4.66D-15 for   1453.
 Iteration    1 A*A^-1 deviation from orthogonality  is 1.75D-15 for   1355    323.
 Iteration    1 A^-1*A deviation from unit magnitude is 4.22D-15 for   1453.
 Iteration    1 A^-1*A deviation from orthogonality  is 2.91D-15 for   1457   1348.
 Error on total polarization charges =  0.03040
 SCF Done:  E(RM062X) =  -1331.53223245     A.U. after   14 cycles
            NFock= 14  Conv=0.23D-08     -V/T= 2.0064
 SMD-CDS (non-electrostatic) energy       (kcal/mol) =       5.76
 (included in total energy above)
 D1PCM: PCM CHGder 1st derivatives, ID1Alg=3 FixD1E=F DoIter=F DoCFld=F I1PDM=0.
 Calling FoFJK, ICntrl=      2127 FMM=F ISym2X=0 I1Cent= 0 IOpClX= 0 NMat=1 NMatS=1 NMatT=0.
 ***** Axes restored to original set *****
 -------------------------------------------------------------------
 Center     Atomic                   Forces (Hartrees/Bohr)
 Number     Number              X              Y              Z
 -------------------------------------------------------------------
      1        6           0.001341405   -0.001000622   -0.000100451
      2        6           0.000593258    0.000646966    0.000056138
      3        9           0.000312792   -0.000440578    0.002448344
      4        6           0.000213070    0.000142599   -0.000219086
      5        9          -0.000003673   -0.000073375    0.000175367
      6        6          -0.000138331    0.000031265   -0.000637293
      7        6           0.000026881    0.000022085   -0.000216610
      8        9          -0.000283437   -0.000029319    0.000390233
      9        6          -0.000089109   -0.000509858    0.001083073
     10        9          -0.000277022    0.000402477    0.000671871
     11       16          -0.004800265    0.003256166    0.004129588
     12        8          -0.001403349   -0.000978291   -0.000239197
     13        8           0.003080418   -0.001586795   -0.003633080
     14        7          -0.002887671    0.002642939   -0.006916886
     15        1           0.004419627   -0.002517633    0.002853797
     16        9          -0.000104593   -0.000008027    0.000154191
 -------------------------------------------------------------------
 Cartesian Forces:  Max     0.006916886 RMS     0.001984133

 GradGradGradGradGradGradGradGradGradGradGradGradGradGradGradGradGradGrad
 Berny optimization.
 Using GEDIIS/GDIIS optimizer.
 FormGI is forming the generalized inverse of G from B-inverse, IUseBI=4.
 Internal  Forces:  Max     0.006983148 RMS     0.001519583
 Search for a local minimum.
 Step number   2 out of a maximum of   84
 All quantities printed in internal units (Hartrees-Bohrs-Radians)
 Mixed Optimization -- RFO/linear search
 Update second derivatives using D2CorX and points    1    2
 DE= -5.22D-03 DEPred=-5.68D-03 R= 9.19D-01
 TightC=F SS=  1.41D+00  RLast= 2.73D-01 DXNew= 5.0454D-01 8.2048D-01
 Trust test= 9.19D-01 RLast= 2.73D-01 DXMaxT set to 5.05D-01
 ITU=  1  0
 Use linear search instead of GDIIS.
     Eigenvalues ---    0.00231   0.01377   0.02209   0.02217   0.02244
     Eigenvalues ---    0.02248   0.02255   0.02279   0.02283   0.02293
     Eigenvalues ---    0.02906   0.11302   0.12412   0.15783   0.16913
     Eigenvalues ---    0.20858   0.23977   0.24982   0.24999   0.24999
     Eigenvalues ---    0.25000   0.25000   0.25000   0.25000   0.25000
     Eigenvalues ---    0.25000   0.27473   0.43470   0.43825   0.44307
     Eigenvalues ---    0.47128   0.47637   0.47887   0.48362   0.57297
     Eigenvalues ---    0.58295   0.58435   0.58617   0.59380   0.62317
     Eigenvalues ---    0.81524   0.84466
 RFO step:  Lambda=-1.64041050D-03 EMin= 2.31138078D-03
 Quartic linear search produced a step of  0.00234.
 Iteration  1 RMS(Cart)=  0.02205185 RMS(Int)=  0.00085947
 Iteration  2 RMS(Cart)=  0.00098155 RMS(Int)=  0.00006980
 Iteration  3 RMS(Cart)=  0.00000260 RMS(Int)=  0.00006977
 Iteration  4 RMS(Cart)=  0.00000000 RMS(Int)=  0.00006977
 Variable       Old X    -DE/DX   Delta X   Delta X   Delta X     New X
                                 (Linear)    (Quad)   (Total)
    R1        2.63102  -0.00276   0.00001  -0.00551  -0.00550   2.62552
    R2        2.63479  -0.00198   0.00001  -0.00397  -0.00396   2.63083
    R3        3.47320  -0.00391   0.00002  -0.01536  -0.01534   3.45786
    R4        2.52126   0.00064  -0.00000   0.00082   0.00082   2.52208
    R5        2.62792   0.00013  -0.00000   0.00018   0.00017   2.62809
    R6        2.52125  -0.00011  -0.00000  -0.00029  -0.00029   2.52096
    R7        2.61431   0.00059  -0.00000   0.00141   0.00141   2.61572
    R8        2.61955   0.00097  -0.00000   0.00208   0.00207   2.62162
    R9        2.51343  -0.00016  -0.00000  -0.00038  -0.00038   2.51305
   R10        2.52015  -0.00042  -0.00000  -0.00076  -0.00076   2.51939
   R11        2.61355   0.00021  -0.00000   0.00045   0.00045   2.61400
   R12        2.53206   0.00003   0.00000   0.00013   0.00013   2.53220
   R13        2.79459   0.00123  -0.00003  -0.00049  -0.00052   2.79407
   R14        2.80608   0.00229   0.00004   0.00483   0.00487   2.81095
   R15        2.93512  -0.00082   0.00001  -0.00051  -0.00049   2.93462
   R16        1.92951   0.00202  -0.00001   0.00414   0.00413   1.93365
    A1        2.03513   0.00208  -0.00001   0.00648   0.00646   2.04159
    A2        2.19386  -0.00313   0.00000  -0.01176  -0.01178   2.18208
    A3        2.05412   0.00105   0.00001   0.00541   0.00539   2.05952
    A4        2.14872  -0.00292   0.00002  -0.01000  -0.00998   2.13875
    A5        2.11886  -0.00017  -0.00000  -0.00140  -0.00140   2.11745
    A6        2.01560   0.00309  -0.00002   0.01141   0.01138   2.02698
    A7        2.09287   0.00018  -0.00000   0.00024   0.00024   2.09311
    A8        2.10156  -0.00063   0.00001  -0.00168  -0.00167   2.09989
    A9        2.08875   0.00045  -0.00000   0.00144   0.00144   2.09019
   A10        2.08585  -0.00018  -0.00000   0.00034   0.00033   2.08618
   A11        2.09969   0.00003   0.00000  -0.00042  -0.00042   2.09927
   A12        2.09764   0.00015   0.00000   0.00008   0.00008   2.09772
   A13        2.09538   0.00036   0.00000   0.00108   0.00108   2.09646
   A14        2.08001  -0.00005  -0.00000   0.00037   0.00037   2.08038
   A15        2.10780  -0.00030   0.00000  -0.00145  -0.00145   2.10635
   A16        2.14495  -0.00105   0.00001  -0.00408  -0.00408   2.14088
   A17        2.09368  -0.00041   0.00000  -0.00128  -0.00130   2.09238
   A18        2.04455   0.00146  -0.00001   0.00533   0.00531   2.04986
   A19        1.84253  -0.00051   0.00017   0.00871   0.00895   1.85148
   A20        1.78597  -0.00297  -0.00008  -0.02631  -0.02640   1.75958
   A21        1.90703  -0.00296   0.00002  -0.01594  -0.01595   1.89108
   A22        1.96414   0.00150  -0.00009   0.00895   0.00877   1.97291
   A23        1.91031   0.00303  -0.00027   0.00649   0.00616   1.91648
   A24        2.03918   0.00104   0.00026   0.01426   0.01415   2.05333
   A25        1.91009   0.00214   0.00004   0.01540   0.01544   1.92552
    D1        3.14034   0.00004  -0.00001   0.00293   0.00295  -3.13990
    D2       -0.00324   0.00013  -0.00000   0.00703   0.00705   0.00381
    D3        0.01194  -0.00015  -0.00002  -0.00913  -0.00910   0.00284
    D4       -3.13164  -0.00006  -0.00001  -0.00504  -0.00500  -3.13664
    D5        0.00471  -0.00014   0.00001  -0.00750  -0.00751  -0.00280
    D6       -3.14087  -0.00032  -0.00002  -0.01664  -0.01669   3.12563
    D7        3.13421   0.00000   0.00001   0.00343   0.00353   3.13773
    D8       -0.01138  -0.00018  -0.00002  -0.00571  -0.00565  -0.01703
    D9        0.02711   0.00076   0.00002   0.04005   0.04006   0.06717
   D10        2.08512   0.00094  -0.00004   0.04209   0.04185   2.12697
   D11       -2.02575  -0.00104   0.00023   0.03568   0.03605  -1.98970
   D12       -3.10116   0.00056   0.00001   0.02786   0.02790  -3.07327
   D13       -1.04315   0.00074  -0.00005   0.02990   0.02969  -1.01346
   D14        1.12917  -0.00124   0.00022   0.02348   0.02388   1.15305
   D15       -3.14024  -0.00007  -0.00000  -0.00348  -0.00348   3.13946
   D16        0.00087  -0.00003   0.00000  -0.00171  -0.00169  -0.00082
   D17       -0.00049   0.00000   0.00001   0.00030   0.00034  -0.00015
   D18        3.14062   0.00004   0.00001   0.00207   0.00214  -3.14043
   D19        0.00029  -0.00007  -0.00000  -0.00364  -0.00364  -0.00335
   D20       -3.14016  -0.00001   0.00000  -0.00003  -0.00004  -3.14020
   D21        3.14140  -0.00003   0.00000  -0.00187  -0.00185   3.13955
   D22        0.00095   0.00004   0.00001   0.00173   0.00175   0.00270
   D23        3.14121   0.00010   0.00000   0.00504   0.00505  -3.13693
   D24        0.00106   0.00006   0.00000   0.00327   0.00326   0.00432
   D25       -0.00152   0.00003  -0.00000   0.00144   0.00145  -0.00007
   D26        3.14152  -0.00000  -0.00000  -0.00033  -0.00034   3.14119
   D27       -0.00370   0.00005  -0.00001   0.00247   0.00247  -0.00124
   D28       -3.14141   0.00023   0.00002   0.01139   0.01144  -3.12996
   D29        3.13935   0.00001  -0.00001   0.00068   0.00067   3.14001
   D30        0.00164   0.00020   0.00002   0.00960   0.00965   0.01129
   D31       -0.82486  -0.00167  -0.00018  -0.09013  -0.09023  -0.91510
   D32       -2.83460  -0.00109  -0.00025  -0.09529  -0.09541  -2.93001
   D33        1.19077  -0.00698  -0.00011  -0.12656  -0.12687   1.06390
         Item               Value     Threshold  Converged?
 Maximum Force            0.006983     0.000450     NO 
 RMS     Force            0.001520     0.000300     NO 
 Maximum Displacement     0.069132     0.001800     NO 
 RMS     Displacement     0.022324     0.001200     NO 
 Predicted change in Energy=-8.554692D-04
 GradGradGradGradGradGradGradGradGradGradGradGradGradGradGradGradGradGrad

                          Input orientation:                          
 ---------------------------------------------------------------------
 Center     Atomic      Atomic             Coordinates (Angstroms)
 Number     Number       Type             X           Y           Z
 ---------------------------------------------------------------------
      1          6           0       -1.453698    0.593777   -0.799186
      2          6           0       -2.591908    0.868677   -1.547010
      3          9           0       -3.801305    0.989445   -0.995650
      4          6           0       -2.528523    1.031732   -2.926690
      5          9           0       -3.639382    1.292643   -3.617747
      6          6           0       -1.317481    0.923100   -3.588146
      7          6           0       -0.164852    0.654066   -2.864492
      8          9           0        1.008643    0.552273   -3.488973
      9          6           0       -0.250928    0.494359   -1.493173
     10          9           0        0.885777    0.249175   -0.827338
     11         16           0       -1.421457    0.353477    1.014502
     12          8           0       -2.829391    0.418269    1.461333
     13          8           0       -0.844459   -1.014583    1.104613
     14          7           0       -0.614222    1.519168    1.647860
     15          1           0        0.299635    1.605470    1.195707
     16          9           0       -1.257426    1.080712   -4.907256
 ---------------------------------------------------------------------
                    Distance matrix (angstroms):
                    1          2          3          4          5
     1  C    0.000000
     2  C    1.389365   0.000000
     3  F    2.388810   1.334625   0.000000
     4  C    2.423495   1.390726   2.313153   0.000000
     5  F    3.634546   2.359004   2.644530   1.334033   0.000000
     6  C    2.811638   2.406940   3.590936   1.384178   2.351311
     7  C    2.435210   2.769912   4.102297   2.394461   3.612137
     8  F    3.646889   4.103084   5.435382   3.613528   4.708383
     9  C    1.392177   2.371329   3.619091   2.744300   4.078321
    10  F    2.364886   3.604997   4.748165   4.083763   5.417774
    11  S    1.829821   2.862993   3.179441   4.149532   5.221011
    12  O    2.652033   3.051131   2.703262   4.440901   5.217056
    13  O    2.565627   3.692066   4.143691   4.824405   5.952779
    14  N    2.747563   3.813342   4.174477   4.982836   6.076968
    15  H    2.842058   4.052947   4.690335   5.032078   6.227605
    16  F    4.141482   3.621747   4.666938   2.353875   2.716885
                    6          7          8          9         10
     6  C    0.000000
     7  C    1.387302   0.000000
     8  F    2.357583   1.333203   0.000000
     9  C    2.389616   1.383268   2.360739   0.000000
    10  F    3.595912   2.327607   2.681654   1.339981   0.000000
    11  S    4.638928   4.088521   5.121152   2.770997   2.954079
    12  O    5.295089   5.086072   6.265301   3.922164   4.366816
    13  O    5.099054   4.358905   5.195196   3.062300   2.885002
    14  N    5.316543   4.616455   5.473174   3.323900   3.160615
    15  H    5.095679   4.195966   4.853673   2.961041   2.505156
    16  F    1.329849   2.355553   2.725040   3.607327   4.683002
                   11         12         13         14         15
    11  S    0.000000
    12  O    1.478558   0.000000
    13  O    1.487492   2.473918   0.000000
    14  N    1.552936   2.480674   2.601542   0.000000
    15  H    2.135996   3.357202   2.860406   1.023242   0.000000
    16  F    5.968500   6.593090   6.379920   6.601175   6.320282
                   16
    16  F    0.000000
 Stoichiometry    C6HF5NO2S(1-)
 Framework group  C1[X(C6HF5NO2S)]
 Deg. of freedom    42
 Full point group                 C1      NOp   1
 Largest Abelian subgroup         C1      NOp   1
 Largest concise Abelian subgroup C1      NOp   1
                         Standard orientation:                         
 ---------------------------------------------------------------------
 Center     Atomic      Atomic             Coordinates (Angstroms)
 Number     Number       Type             X           Y           Z
 ---------------------------------------------------------------------
      1          6           0       -0.479323    0.070736   -0.002768
      2          6           0        0.293089    1.225526    0.010454
      3          9           0       -0.242987    2.447726    0.019065
      4          6           0        1.682535    1.165931    0.012952
      5          9           0        2.396979    2.292477    0.023299
      6          6           0        2.329370   -0.057776    0.003182
      7          6           0        1.581706   -1.226338   -0.005096
      8          9           0        2.192565   -2.411354   -0.009163
      9          6           0        0.200899   -1.143933   -0.008632
     10          9           0       -0.486518   -2.294138   -0.002812
     11         16           0       -2.308674    0.030984   -0.014652
     12          8           0       -2.748400    1.439895   -0.102642
     13          8           0       -2.563084   -0.737296   -1.262713
     14          7           0       -2.792946   -0.588734    1.324392
     15          1           0       -2.330976   -1.486990    1.487924
     16          9           0        3.658026   -0.113965    0.007175
 ---------------------------------------------------------------------
 Rotational constants (GHZ):           0.8508313           0.4368714           0.3070593
 Basis read from rwf:  (6D, 7F)
 There are   291 symmetry adapted cartesian basis functions of A   symmetry.
 There are   291 symmetry adapted basis functions of A   symmetry.
   291 basis functions,   508 primitive gaussians,   291 cartesian basis functions
    61 alpha electrons       61 beta electrons
       nuclear repulsion energy      1221.9623521722 Hartrees.
 NAtoms=   16 NActive=   16 NUniq=   16 SFac= 1.00D+00 NAtFMM=   60 NAOKFM=F Big=F
 Integral buffers will be    131072 words long.
 Raffenetti 2 integral format.
 Two-electron integral symmetry is turned on.
 ------------------------------------------------------------------------------
 Polarizable Continuum Model (PCM)
 =================================
 Model                : PCM.
 Atomic radii         : SMD-Coulomb.
 Polarization charges : Total charges.
 Charge compensation  : None.
 Solution method      : On-the-fly selection.
 Cavity type          : VdW (van der Waals Surface) (Alpha=1.000).
 Cavity algorithm     : GePol (No added spheres)
                        Default sphere list used, NSphG=   16.
                        Lebedev-Laikov grids with approx.  5.0 points / Ang**2.
                        Smoothing algorithm: York/Karplus (Gamma=1.0000).
                        Polarization charges: spherical gaussians, with
                                              point-specific exponents (IZeta= 3).
                        Self-potential: point-specific (ISelfS= 7).
                        Self-field    : sphere-specific E.n sum rule (ISelfD= 2).
 1st derivatives      : Analytical E(r).r(x)/FMM algorithm (CHGder, D1EAlg=3).
                        Cavity 1st derivative terms included.
 Solvent              : Water, Eps=  78.355300 Eps(inf)=   1.777849
 ------------------------------------------------------------------------------
 Spheres list:
 ISph  on   Nord     Re0    Alpha      Xe            Ye            Ze
    1   C      1    1.8500  1.000     -0.479323      0.070736     -0.002768
    2   C      2    1.8500  1.000      0.293089      1.225526      0.010454
    3   F      3    1.7300  1.000     -0.242987      2.447726      0.019065
    4   C      4    1.8500  1.000      1.682535      1.165931      0.012952
    5   F      5    1.7300  1.000      2.396979      2.292477      0.023299
    6   C      6    1.8500  1.000      2.329370     -0.057776      0.003182
    7   C      7    1.8500  1.000      1.581706     -1.226338     -0.005096
    8   F      8    1.7300  1.000      2.192565     -2.411354     -0.009163
    9   C      9    1.8500  1.000      0.200899     -1.143933     -0.008632
   10   F     10    1.7300  1.000     -0.486518     -2.294138     -0.002812
   11   S     11    2.4900  1.000     -2.308674      0.030984     -0.014652
   12   O     12    1.5200  1.000     -2.748400      1.439895     -0.102642
   13   O     13    1.5200  1.000     -2.563084     -0.737296     -1.262713
   14   N     14    1.8900  1.000     -2.792946     -0.588734      1.324392
   15   H     15    1.2000  1.000     -2.330976     -1.486990      1.487924
   16   F     16    1.7300  1.000      3.658026     -0.113965      0.007175
 ------------------------------------------------------------------------------
 ------------------------------------------------------------------------------
 Atomic radii for non-electrostatic terms: SMD-CDS.
 ------------------------------------------------------------------------------
 Nuclear repulsion after PCM non-electrostatic terms =     1221.9715417218 Hartrees.
 One-electron integrals computed using PRISM.
 NBasis=   291 RedAO= T EigKep=  1.45D-06  NBF=   291
 NBsUse=   291 1.00D-06 EigRej= -1.00D+00 NBFU=   291
 Initial guess from the checkpoint file:  "/jobfs/40645836.gadi-pbs/Gau-1051899.chk"
 B after Tr=     0.000000   -0.000000    0.000000
         Rot=    0.999993    0.002777    0.000311   -0.002442 Ang=   0.43 deg.
 ExpMin= 4.05D-02 ExpMax= 2.19D+04 ExpMxC= 3.30D+03 IAcc=3 IRadAn=         5 AccDes= 0.00D+00
 Harris functional with IExCor= 1009 and IRadAn=       5 diagonalized for initial guess.
 HarFok:  IExCor= 1009 AccDes= 0.00D+00 IRadAn=         5 IDoV= 1 UseB2=F ITyADJ=14
 ICtDFT=  3500011 ScaDFX=  1.000000  1.000000  1.000000  1.000000
 FoFCou: FMM=F IPFlag=           0 FMFlag=      100000 FMFlg1=           0
         NFxFlg=           0 DoJE=T BraDBF=F KetDBF=T FulRan=T
         wScrn=  0.000000 ICntrl=       500 IOpCl=  0 I1Cent=   200000004 NGrid=           0
         NMat0=    1 NMatS0=      1 NMatT0=    0 NMatD0=    1 NMtDS0=    0 NMtDT0=    0
 Petite list used in FoFCou.
 Requested convergence on RMS density matrix=1.00D-08 within 128 cycles.
 Requested convergence on MAX density matrix=1.00D-06.
 Requested convergence on             energy=1.00D-06.
 No special actions if energy rises.
 Inv3:  Mode=1 IEnd=     6615675.
 Iteration    1 A*A^-1 deviation from unit magnitude is 4.44D-15 for   1476.
 Iteration    1 A*A^-1 deviation from orthogonality  is 1.89D-15 for   1315     38.
 Iteration    1 A^-1*A deviation from unit magnitude is 4.00D-15 for   1476.
 Iteration    1 A^-1*A deviation from orthogonality  is 3.05D-15 for   1455   1200.
 Error on total polarization charges =  0.03012
 SCF Done:  E(RM062X) =  -1331.53340165     A.U. after   14 cycles
            NFock= 14  Conv=0.25D-08     -V/T= 2.0064
 SMD-CDS (non-electrostatic) energy       (kcal/mol) =       5.77
 (included in total energy above)
 D1PCM: PCM CHGder 1st derivatives, ID1Alg=3 FixD1E=F DoIter=F DoCFld=F I1PDM=0.
 Calling FoFJK, ICntrl=      2127 FMM=F ISym2X=0 I1Cent= 0 IOpClX= 0 NMat=1 NMatS=1 NMatT=0.
 ***** Axes restored to original set *****
 -------------------------------------------------------------------
 Center     Atomic                   Forces (Hartrees/Bohr)
 Number     Number              X              Y              Z
 -------------------------------------------------------------------
      1        6          -0.001470301    0.000055903   -0.000346659
      2        6           0.000300310    0.000359857   -0.000965784
      3        9          -0.000090820    0.000046138    0.000304617
      4        6          -0.000142648   -0.000007523    0.000153555
      5        9          -0.000186618    0.000016670   -0.000252810
      6        6          -0.000140571    0.000119120    0.000477449
      7        6          -0.000441323   -0.000131212    0.000152081
      8        9           0.000071496    0.000033303   -0.000129110
      9        6           0.000615585    0.000123147    0.000748426
     10        9          -0.000090589    0.000174386   -0.000436104
     11       16          -0.000279114    0.001381489    0.000016732
     12        8           0.001094028   -0.000442103    0.000368252
     13        8           0.002125985    0.000760991    0.000835174
     14        7          -0.002561857    0.001088008   -0.003041779
     15        1           0.001235468   -0.003583167    0.002441207
     16        9          -0.000039032    0.000004994   -0.000325250
 -------------------------------------------------------------------
 Cartesian Forces:  Max     0.003583167 RMS     0.001042126

 GradGradGradGradGradGradGradGradGradGradGradGradGradGradGradGradGradGrad
 Berny optimization.
 Using GEDIIS/GDIIS optimizer.
 FormGI is forming the generalized inverse of G from B-inverse, IUseBI=4.
 Internal  Forces:  Max     0.003385171 RMS     0.000909517
 Search for a local minimum.
 Step number   3 out of a maximum of   84
 All quantities printed in internal units (Hartrees-Bohrs-Radians)
 Mixed Optimization -- En-DIIS/RFO-DIIS
 Update second derivatives using D2CorX and points    1    2    3
 DE= -1.17D-03 DEPred=-8.55D-04 R= 1.37D+00
 TightC=F SS=  1.41D+00  RLast= 2.09D-01 DXNew= 8.4853D-01 6.2566D-01
 Trust test= 1.37D+00 RLast= 2.09D-01 DXMaxT set to 6.26D-01
 ITU=  1  1  0
 Use linear search instead of GDIIS.
     Eigenvalues ---    0.00226   0.01038   0.01417   0.02213   0.02218
     Eigenvalues ---    0.02248   0.02256   0.02257   0.02280   0.02284
     Eigenvalues ---    0.02293   0.11339   0.12491   0.16129   0.19554
     Eigenvalues ---    0.23897   0.24389   0.24975   0.24995   0.24999
     Eigenvalues ---    0.25000   0.25000   0.25000   0.25000   0.25000
     Eigenvalues ---    0.26240   0.31960   0.43485   0.43834   0.45603
     Eigenvalues ---    0.47197   0.47841   0.48165   0.48372   0.57317
     Eigenvalues ---    0.58287   0.58455   0.58642   0.59411   0.63432
     Eigenvalues ---    0.81640   0.84943
 RFO step:  Lambda=-1.12971429D-03 EMin= 2.26467413D-03
 Quartic linear search produced a step of  0.53381.
 Iteration  1 RMS(Cart)=  0.03268821 RMS(Int)=  0.00327930
 Iteration  2 RMS(Cart)=  0.00329087 RMS(Int)=  0.00005625
 Iteration  3 RMS(Cart)=  0.00002586 RMS(Int)=  0.00005372
 Iteration  4 RMS(Cart)=  0.00000000 RMS(Int)=  0.00005372
 Variable       Old X    -DE/DX   Delta X   Delta X   Delta X     New X
                                 (Linear)    (Quad)   (Total)
    R1        2.62552   0.00056  -0.00293   0.00121  -0.00171   2.62381
    R2        2.63083   0.00005  -0.00211  -0.00013  -0.00224   2.62860
    R3        3.45786   0.00076  -0.00819   0.00263  -0.00556   3.45230
    R4        2.52208   0.00020   0.00044   0.00041   0.00085   2.52292
    R5        2.62809  -0.00016   0.00009  -0.00051  -0.00041   2.62768
    R6        2.52096   0.00028  -0.00016   0.00055   0.00039   2.52135
    R7        2.61572  -0.00026   0.00075  -0.00063   0.00011   2.61583
    R8        2.62162   0.00006   0.00111   0.00031   0.00141   2.62303
    R9        2.51305   0.00032  -0.00020   0.00061   0.00040   2.51345
   R10        2.51939   0.00013  -0.00041   0.00013  -0.00028   2.51911
[...]

 Dipole orientation:
     6         -3.01417016         -1.00582409          1.15881539
     6         -5.38915012         -1.30297839          2.24050928
     9         -7.48370126         -1.58962772          0.86285391
     6         -5.71646068         -1.30656566          4.84832952
     9         -8.02179457         -1.59188523          5.83042042
     6         -3.65879785         -1.01015427          6.43437422
     6         -1.26590434         -0.71263480          5.40586776
     9          0.73112733         -0.42957551          6.91739900
     6         -0.98416817         -0.71583397          2.80734623
     9          1.35892251         -0.44388290          1.88847222
    16         -2.32513163         -1.00564790         -2.23758022
     8         -4.80940898         -1.40714468         -3.44206031
     8         -1.25254712          1.56776040         -2.58416976
     7         -0.52670282         -3.23842043         -2.83745785
     1          1.25999023         -2.75197920         -2.28408476
     9         -3.97005762         -1.01253307          8.92936476

 Electric dipole moment (dipole orientation):
 (Debye = 10**-18 statcoulomb cm , SI units = C m)
                  (au)            (Debye)         (10**-30 SI)
   Tot        0.520274D+01      0.132241D+02      0.441107D+02
   x          0.000000D+00      0.000000D+00      0.000000D+00
   y          0.000000D+00      0.000000D+00      0.000000D+00
   z          0.520274D+01      0.132241D+02      0.441107D+02

 Dipole polarizability, Alpha (dipole orientation).
 (esu units = cm**3 , SI units = C**2 m**2 J**-1)
 Alpha(0;0):
               (au)            (10**-24 esu)      (10**-40 SI)
   iso        0.145735D+03      0.215957D+02      0.240284D+02
   aniso      0.689640D+02      0.102194D+02      0.113706D+02
   xx         0.156140D+03      0.231376D+02      0.257441D+02
   yx         0.420679D+01      0.623383D+00      0.693607D+00
   yy         0.103109D+03      0.152793D+02      0.170005D+02
   zx        -0.800787D+01     -0.118664D+01     -0.132032D+01
   zy         0.467537D+01      0.692818D+00      0.770864D+00
   zz         0.177955D+03      0.263702D+02      0.293408D+02

 ----------------------------------------------------------------------
 Unable to Open any file for archive entry.
 1\1\GINC-GADI-CPU-CLX-0668\Freq\RM062X\Gen\C6H1F5N1O2S1(1-)\YJ5695\19-
 May-2022\0\\#N Geom=AllCheck Guess=TCheck SCRF=Check GenChk RM062X/Chk
 Bas Freq\\a3 b2\\-1,1\C,-1.4718447939,0.6103379044,-0.8152415379\C,-2.
 6138909732,0.8403103955,-1.5733508601\F,-3.831819138,0.9225691882,-1.0
 321529868\C,-2.5490074405,0.9931167956,-2.9542351273\F,-3.6636794336,1
 .2108173107,-3.6551109999\C,-1.3314409805,0.9178355555,-3.6073234255\C
 ,-0.1752488255,0.6906276219,-2.8751817571\F,1.0039087834,0.6184035176,
 -3.4943650348\C,-0.2630878653,0.5421485901,-1.5028446904\F,0.876914254
 1,0.334913442,-0.8305556587\S,-1.4193744072,0.4123923173,1.0071976453\
 O,-2.8254256302,0.5669051918,1.4300183942\O,-0.8787429701,-0.966482158
 6,1.1363709004\N,-0.546904646,1.5437139664,1.608367208\H,0.4370414455,
 1.3106831042,1.4551140528\F,-1.268374379,1.0634672575,-4.9283521222\\V
 ersion=ES64L-G16RevC.01\State=1-A\HF=-1331.5353268\RMSD=7.202e-09\RMSF
 =1.804e-05\ZeroPoint=0.0744523\Thermal=0.0875178\ETot=-1331.447809\HTo
 t=-1331.4468648\GTot=-1331.5019023\Dipole=0.8880748,0.5628895,-5.09539
 2\DipoleDeriv=-0.5280666,-0.029331,-0.1052747,-0.0585922,-0.4022618,-0
 .0709541,-0.0332043,0.0243998,-0.9044824,1.5382425,-0.1149958,-0.03179
 56,-0.0575262,0.2055159,-0.0159434,-0.7763993,0.0372899,0.4333505,-1.4
 09916,0.0960081,0.3390396,0.0876211,-0.1612806,-0.0257441,0.4670458,-0
 .0237661,-0.4048986,1.1023265,-0.2057347,0.738332,-0.2183086,0.1556264
 ,-0.1233516,0.8751098,-0.1470399,0.5352548,-1.1862634,0.2013031,-0.693
 2933,0.2025109,-0.1635481,0.1553172,-0.6332985,0.1374423,-0.7397695,0.
 3359495,-0.0187987,-0.085408,-0.0207735,0.1601962,-0.1972881,-0.065134
 1,-0.1808247,1.8647637,1.2458969,-0.062392,-0.7146373,-0.0484724,0.108
 667,0.0567048,-0.7893781,0.0663622,0.4525876,-1.2765185,0.0720281,0.68
 21596,0.0747707,-0.128088,-0.0242722,0.5693231,-0.0165729,-0.6431404,1
 .2542569,-0.1700393,0.1779546,-0.1943053,0.2181775,-0.0654725,0.748680
 3,-0.1481602,0.5367533,-1.2033341,0.1856598,-0.4286216,0.1686079,-0.18
 339,0.074723,-0.5247276,0.1083286,-0.5492579,3.258617,0.148102,0.06389
 31,0.0873953,3.3916109,0.1042472,0.0525472,0.1623084,3.7236864,-1.7775
 799,-0.0039136,0.570652,0.0883478,-0.9078881,-0.0637537,0.3201706,-0.0
 376408,-1.239103,-1.0327228,0.322383,-0.1908829,0.2684116,-2.0679361,0
 .4178498,-0.0816438,0.0509829,-1.2079576,-1.2703766,-0.5104326,-0.4884
 021,-0.5029914,-1.362524,-0.3529449,-0.2813762,-0.1323084,-1.4804361,0
 .1943231,0.08246,0.0926856,0.1120827,0.2771023,-0.0532714,0.0933393,-0
 .065226,0.369459,-0.2448346,0.0076936,0.0735991,0.0112217,-0.1399793,0
 .184154,0.0589457,0.1644249,-1.7468096\Polar=154.1699559,-4.8555022,10
 3.0787124,3.3298238,-4.4485025,179.9559685\Quadrupole=7.8692228,10.478
 3922,-18.347615,1.9257514,4.3992277,2.5013521\PG=C01 [X(C6H1F5N1O2S1)]
 \NImag=0\\0.68425996,-0.07054881,0.15108860,0.00915176,-0.04961786,0.5
 4211061,-0.25549032,0.04046180,-0.12374730,0.71553165,0.03305341,-0.06
 271710,0.03234300,-0.07039248,0.14859341,-0.06649060,0.02516837,-0.204
 64795,-0.00521479,-0.06490204,0.69079836,-0.04497523,0.00399610,0.0119
 6670,-0.30613924,0.01903880,0.11541837,0.37786138,0.00759422,0.0034138
 4,-0.00349287,0.01952582,-0.03847828,-0.00376304,-0.02569019,0.0232801
 7,-0.01384372,-0.00008135,0.01964158,0.11019521,-0.00322043,-0.1216506
 6,-0.14767531,0.00315289,0.14684434,0.04528827,-0.00283916,-0.02140257
 ,-0.10558634,0.01094373,-0.04816102,-0.03331250,-0.00163776,0.05771554
 ,0.75842400,0.00490593,0.00049887,0.00499209,-0.00168583,-0.06369908,0
 .03690896,0.00302161,0.00898625,-0.00259901,-0.07772968,0.13109379,-0.
 08691736,0.01336449,-0.01860721,0.06180928,0.02337876,-0.32705675,0.01
 750345,0.00216772,-0.02761499,-0.00975432,-0.06999045,0.72611156,-0.00
 155465,0.00078122,-0.00075717,-0.01648628,0.00365152,-0.00836386,0.009
 84458,-0.00185351,0.00032660,-0.28533745,0.04637216,-0.13267383,0.3408
 1199,0.00027899,0.00498207,0.00166368,0.00837239,0.00451648,0.00478657
 ,-0.00173698,-0.00469640,-0.00125962,0.04625359,-0.04084658,0.03016475
 ,-0.05912066,0.03220394,0.00461023,0.00076205,-0.00789695,-0.04882135,
 0.00966331,-0.02623285,-0.00048979,-0.00112660,0.00447754,-0.13231489,
 0.02997336,-0.15110700,0.17233010,-0.03819891,0.16933032,-0.08447125,0
 .01149130,-0.00121061,0.04088302,-0.01800650,0.10740244,0.00340163,0.0
 0141349,-0.01005072,-0.30439349,0.02616665,0.04287623,-0.04837303,0.00
 594419,0.00770981,0.74289694,0.01154027,0.00537879,0.00024998,-0.00886
 774,-0.00169149,-0.01161130,0.00079791,0.00549202,0.00224974,0.0129886
 7,-0.05447093,0.00786414,0.01101904,0.00435582,-0.00090470,-0.07521786
 ,0.13922981,-0.00270020,0.00076162,0.00510333,0.02957049,-0.00194706,-
 0.01841484,-0.00484678,0.00157016,-0.00252231,0.15831018,-0.00612845,-
 0.16682082,-0.03856928,0.00477327,0.00491228,-0.01308593,-0.07230447,0
 .76010151,0.03601388,-0.00691879,0.02349841,-0.01993254,0.00777160,-0.
 03503050,0.00363797,-0.00072248,-0.00001708,-0.05661541,0.00303271,0.0
 2745985,0.00407759,-0.00012808,0.00288601,-0.28197924,0.04652974,-0.15
 892080,0.75446016,-0.01477160,0.00480274,-0.00095872,0.00740957,0.0076
 5606,0.01480773,-0.00030732,-0.00233415,-0.00093938,0.01115095,-0.0054
 4588,-0.01468186,-0.00025416,0.00618384,0.00119012,0.03277838,-0.06182
 234,0.03401295,-0.07570130,0.13312573,0.09115144,-0.00910568,-0.013742
 87,-0.03144157,0.01421176,-0.07887251,-0.00326929,-0.00049162,0.005181
 96,-0.04128722,-0.00616680,0.09186359,0.00455688,0.00088905,-0.0071568
 6,-0.04420917,0.02003301,-0.17879311,-0.01702998,-0.07053653,0.7438833
 9,-0.00057325,0.00088099,0.00150368,0.00424800,-0.00072003,-0.00073757
 ,-0.00798460,0.00060407,0.00344675,0.00444653,0.00056854,-0.00341900,-
 0.00547583,0.00081915,-0.00080293,-0.05011386,0.00270786,0.03438328,-0
 .31106128,0.01946271,0.12663451,0.37354368,0.00144077,0.00561327,0.001
 31730,-0.00075707,-0.00272336,-0.00071827,0.00050481,0.00036300,-0.000
 15549,0.00033332,0.00583019,0.00210445,0.00069865,0.00034284,-0.000030
 51,0.00822221,0.00467564,-0.00453127,0.01930397,-0.03398903,-0.0035114
 5,-0.02403423,0.02308585,-0.00479601,0.00196667,-0.00762187,-0.0014509
 0,-0.00059442,0.00325493,0.00434948,-0.00027961,-0.00169506,-0.0015550
 4,0.00179242,-0.00750959,0.00022902,-0.00012901,0.00144342,-0.01146917
 ,0.00110167,0.00700769,0.12661333,-0.00342263,-0.13561504,-0.16425808,
 0.00549454,0.14687188,-0.26713724,0.01006980,0.12330142,-0.05673673,0.
 01087872,-0.03849937,0.00269821,0.00046455,-0.00054614,-0.02823912,0.0
 0014165,0.03852538,0.00370022,-0.00091227,0.00095875,0.05476030,-0.004
 34923,-0.02448486,-0.10968948,0.01017740,-0.03527645,-0.02241582,-0.00
 255488,0.05125274,0.69545031,0.01759245,-0.06263880,-0.00040771,0.0038
 7095,-0.00339773,-0.00605191,0.00054630,0.00622784,0.00181539,-0.00017
 037,0.00980114,0.00503517,-0.00085132,-0.00305591,-0.00083059,0.004899
 97,-0.00558231,0.00569709,-0.00273648,-0.06222614,0.03743989,0.0023038
 4,0.00595560,-0.00317213,-0.06521563,0.14823767,0.06111478,0.00619181,
 -0.18487552,0.02300422,-0.01346533,0.09066514,-0.00181335,0.00201835,-
 0.00839246,0.04087210,0.00471467,-0.07379434,0.00108147,-0.00093285,0.
 00370576,-0.10185690,0.01542424,-0.02836759,0.07598628,0.02429110,-0.3
 4716170,0.00898192,0.00211857,-0.02066999,-0.01029478,-0.06574753,0.72
 943202,-0.04731013,0.00865606,-0.01895022,0.00130295,0.00011444,0.0032
 8415,-0.00517944,0.00076525,-0.00024511,0.00339810,-0.00104805,0.00300
 115,-0.00700338,0.00139848,-0.00454689,0.00174719,-0.00010678,0.005521
 48,-0.02245382,0.00510055,-0.01380945,0.00975315,-0.00163704,-0.000616
 40,-0.27072877,0.04120990,-0.12447137,0.33739475,0.00522277,0.00348473
 ,0.00053810,0.00053391,0.00597717,0.00109841,0.00065974,0.00040893,-0.
 00004150,-0.00070793,-0.00271084,-0.00125266,0.00126240,0.00040132,0.0
 0081496,-0.00069746,0.00610594,0.00028277,0.00979067,0.00604780,0.0062
 4732,-0.00179045,-0.00486505,-0.00115846,0.04124960,-0.04403230,0.0269
 0008,-0.05505731,0.03384078,0.00769001,-0.00246323,0.01822519,0.001866
 52,0.00133381,-0.00779214,-0.00053150,-0.00005614,0.00143246,0.0000908
 9,-0.00091014,0.00522527,-0.00427075,0.00088528,-0.00254593,0.01034709
 ,-0.00048138,-0.00113290,-0.05619875,0.01102657,-0.03164915,0.00091503
 ,-0.00127920,0.00483484,-0.11955829,0.02618485,-0.14514886,0.15939048,
 -0.03515180,0.16820358,-0.06647804,0.00073879,0.00062525,0.01032884,0.
 00208276,-0.02345212,-0.00013278,-0.00165727,0.00869616,-0.00183460,0.
 00091751,-0.00163152,-0.00038297,0.00019770,-0.00104903,-0.00260896,0.
 00030305,-0.00062412,-0.00302038,0.00050565,0.00210949,-0.00106301,-0.
 00006237,0.00190234,0.01254280,-0.00383899,0.02738638,-0.00263416,0.00
 078248,-0.00508261,0.81365109,0.00155340,-0.04554361,0.01029517,0.0030
 8407,0.00107809,0.00274281,-0.00219407,-0.00321848,-0.00058016,0.00123
 697,0.00394481,0.00122192,-0.00087548,0.00049561,-0.00080815,-0.000030
 70,-0.00158138,0.00108160,-0.00000425,0.00306816,0.00057710,0.00120398
 ,0.00036284,-0.00096769,-0.00427530,0.00321837,-0.00265974,0.00075666,
 -0.00508866,0.00176945,-0.04630889,0.71812342,-0.00177340,0.00366123,-
 0.10992198,-0.03623832,0.00503971,-0.00331030,0.01575568,-0.00161081,-
 0.00741074,-0.00417326,0.00164940,-0.00300934,0.00781895,-0.00188148,0
 .00794537,-0.00018477,0.00104352,-0.01049269,0.00572798,-0.00003461,-0
 .00136534,-0.00863038,0.00027983,0.00712496,0.03490076,-0.00368023,-0.
 01008111,-0.01434643,0.00190386,-0.00744929,-0.03783114,0.05117522,0.4
 0990601,-0.01174596,0.00073986,0.00440787,-0.00941803,0.00058401,0.004
 07293,0.00337045,0.00079483,-0.00899330,-0.00022517,0.00008357,-0.0008
 5235,0.00135592,-0.00031589,0.00128363,0.00006651,0.00017173,-0.001681
 58,-0.00010893,0.00019237,-0.00133436,-0.00136406,-0.00004630,0.001552
 94,0.00494639,-0.00075529,0.00433080,-0.00124687,0.00000945,0.00028708
 ,-0.43536097,0.04374564,0.10905243,0.51535359,-0.00144684,0.00627857,0
 .00013299,0.00116286,-0.00055872,-0.00129022,0.00006165,0.00113891,0.0
 0242966,-0.00017183,-0.00042542,-0.00006369,-0.00001324,0.00001297,-0.
 00001992,-0.00001438,0.00013063,0.00000428,-0.00008594,-0.00028425,0.0
 0003910,-0.00007976,-0.00016495,0.00002371,0.00015938,0.00096829,0.000
 43630,0.00022765,0.00053529,-0.00023194,0.04264192,-0.07331360,-0.0102
 5283,-0.04552979,0.07137723,0.03375617,-0.00204680,-0.00951605,0.00228
 476,-0.00067736,0.00401422,-0.00339009,0.00152004,-0.00857437,0.001533
 12,-0.00048960,0.00127219,-0.00179603,0.00041260,-0.00165333,0.0001561
 7,-0.00025749,0.00249056,0.00051546,-0.00031941,0.00119581,0.00246950,
 -0.00000090,-0.00258150,-0.00894593,0.00223938,-0.00886962,0.00228960,
 -0.00035856,0.00193522,0.11476827,-0.01253342,-0.10673893,-0.12999016,
 0.01714392,0.10387206,0.00647571,0.01123651,-0.00368233,0.00198738,-0.
 00108863,0.00007271,-0.00099057,0.00068684,-0.00054985,0.00028857,-0.0
 0039989,0.00056408,-0.00050608,0.00010134,-0.00060517,0.00025759,-0.00
 011683,0.00098926,-0.00009657,-0.00004707,-0.00007189,0.00075799,-0.00
 008658,-0.00073739,-0.00603270,0.00048156,-0.00403419,0.00156447,-0.00
 154765,0.00399306,-0.11871965,0.12388341,-0.01158850,-0.01960067,0.039
 90214,0.00139825,0.12052478,0.01075958,-0.01304194,0.00448596,-0.00804
 585,-0.00003622,0.00446855,0.00266700,-0.00065993,-0.00061639,-0.00019
 831,0.00055481,-0.00107410,0.00175469,-0.00028816,0.00209093,0.0002583
 7,-0.00002647,-0.00228207,0.00118810,0.00025180,-0.00099654,-0.0018499
 9,0.00008982,0.00151536,0.00549995,-0.00012899,0.00196383,-0.00280139,
 0.00039118,-0.00119450,0.12843573,-0.39212193,0.02683343,0.00784873,-0
 .00805546,0.00103574,-0.15628328,0.45156879,-0.01330918,0.02798611,-0.
 00929258,0.00949913,0.00038695,-0.00319969,-0.00333060,0.00113565,0.00
 201422,0.00103748,-0.00160389,-0.00015399,-0.00186654,0.00022495,-0.00
 194949,-0.00098740,0.00034191,0.00251508,-0.00167188,-0.00086924,0.001
 48623,0.00178891,-0.00007267,-0.00136237,-0.00455373,0.00057443,-0.000
 25927,0.00296938,0.00114080,-0.00016403,-0.01577146,0.03601263,-0.0740
 4213,0.00777623,-0.00914907,0.01382737,0.01842081,-0.03758305,0.061462
 81,0.00307991,-0.00812028,-0.00507450,0.00303402,-0.00000637,0.0000061
 1,-0.00148813,-0.00011631,-0.00101623,0.00044761,0.00014431,0.00080330
 ,-0.00080954,0.00025583,-0.00093114,0.00019289,-0.00031589,0.00131516,
 -0.00034839,0.00012195,0.00015958,0.00108919,0.00006247,-0.00099081,-0
 .00552417,0.00163883,-0.00304222,0.00240141,-0.00066934,0.00182055,-0.
 17703410,-0.13012288,-0.06424721,-0.04526400,-0.03402940,-0.01363710,0
 .00992991,0.00562540,-0.00054897,0.60612968,-0.00656991,0.00139158,-0.
 00197656,0.00366477,-0.00038110,-0.00243689,-0.00120347,0.00012663,0.0
 0001686,-0.00010682,-0.00022208,0.00068206,-0.00084468,0.00030636,-0.0
 0108280,0.00006609,-0.00023870,0.00104462,-0.00056100,0.00004800,0.000
 23826,0.00090157,-0.00000490,-0.00074194,-0.00244789,0.00089977,0.0000
 2744,0.00177674,-0.00019931,-0.00020826,-0.08731864,-0.20008329,-0.072
 30268,-0.00112495,0.00338453,-0.00252638,-0.01988838,-0.04197089,-0.01
 867672,0.04812307,0.27797302,-0.02078679,-0.01583056,-0.00978394,0.009
 63582,-0.00171812,-0.00458958,-0.00352005,-0.00056811,0.00170195,0.001
 31037,0.00092099,0.00041465,-0.00200749,0.00076592,-0.00218209,-0.0012
 2052,-0.00050431,0.00249414,-0.00157965,0.00067985,0.00188900,0.001935
 14,-0.00009046,-0.00142678,-0.00399203,0.00095748,-0.00004857,0.002481
 44,-0.00142551,-0.00066078,-0.04975504,-0.08131798,-0.09821577,0.00823
 935,0.00291237,0.00687966,-0.00256595,-0.00281215,0.01391590,0.0169162
 1,0.11819153,0.11196671,0.00173805,0.00001523,-0.00005523,-0.00081701,
 -0.00000719,0.00052732,0.00035720,0.00003116,-0.00022968,-0.00012520,-
 0.00000679,-0.00009997,0.00023668,-0.00005794,0.00023870,0.00009333,0.
 00001804,-0.00024015,0.00022696,-0.00002821,-0.00019873,-0.00020572,0.
 00001916,0.00014411,-0.00035376,-0.00008267,-0.00097977,-0.00070381,0.
 00063039,0.00175818,-0.02733913,0.00821821,0.00631158,-0.00075848,-0.0
 0277102,-0.00151726,0.00408710,0.00530442,0.00037421,-0.39594094,0.065
 46057,0.04468407,0.41952048,0.00013984,-0.00087353,-0.00023179,0.00001
 264,0.00004981,0.00011383,0.00013801,-0.00002266,-0.00018315,-0.000053
 83,0.00005243,-0.00006151,0.00005986,-0.00000639,0.00003663,-0.0000864
 3,0.00001057,-0.00002602,0.00019944,-0.00004141,0.00005320,-0.00004376
 ,0.00000528,0.00002661,-0.00055686,0.00022792,-0.00069719,0.00025322,-
 0.00026803,-0.00000554,-0.03747401,-0.00999035,-0.00049833,-0.00616833
 ,-0.00100188,-0.00344570,0.00311640,0.00371324,-0.00005544,0.11714682,
 -0.04119621,-0.02065552,-0.07669374,0.04935375,0.00266465,-0.00095443,
 -0.00118343,-0.00035220,0.00009149,0.00040722,0.00013120,-0.00007364,0
 .00001012,-0.00010357,0.00005941,0.00001970,0.00026062,-0.00007993,0.0
 0022647,0.00013717,-0.00005244,-0.00015618,0.00039970,0.00004197,-0.00
 013946,-0.00018126,0.00001500,0.00007860,-0.00231285,0.00000041,-0.002
 32694,0.00127650,-0.00028733,0.00061781,-0.02027484,-0.00445121,-0.005
 41470,-0.00025962,-0.00206515,0.00523751,-0.00038654,0.00123005,-0.001
 52540,0.07006336,-0.01900133,-0.01890355,-0.05107400,0.02553442,0.0228
 6820,0.00288029,-0.00064064,0.00042482,-0.00670937,0.00210219,-0.00483
 421,-0.00096893,-0.00020270,0.00278689,0.00337620,-0.00448440,0.042805
 62,0.00590224,-0.00134984,-0.00045607,-0.07235956,0.00289802,0.0150638
 5,0.00688948,0.00421013,-0.03668378,0.00641889,-0.00140690,-0.00017017
 ,-0.00724044,0.00110694,0.00373462,-0.00030163,0.00032871,-0.00251700,
 0.00008603,0.00012920,-0.00055397,0.00000028,-0.00001342,0.00010526,0.
 00007272,-0.00016313,0.00017360,0.00010464,0.00007296,0.00022514,-0.00
 001576,0.00001072,0.00001168,0.06186490,-0.00074446,-0.00211808,0.0006
 6725,0.00165019,0.00581205,0.00067845,-0.00029990,-0.00002771,0.000011
 95,0.00070846,0.00705852,0.00114082,-0.00178650,-0.00490780,-0.0015291
 8,0.00281266,-0.03996559,0.03799099,-0.00095793,0.00495907,0.01107995,
 -0.00093450,-0.00457704,-0.00145509,0.00167103,0.00552558,-0.00058377,
 0.00039159,-0.00002894,0.00078217,0.00005459,0.00065000,-0.00132524,-0
 .00022965,-0.00002215,0.00030394,0.00005010,-0.00023964,0.00020666,0.0
 0026178,0.00016657,0.00049457,-0.00004961,-0.00001254,-0.00000729,-0.0
 0259785,0.02772768,0.00047821,0.00023758,-0.00799035,-0.00059900,0.000
 07597,0.00662739,0.00374187,-0.00010237,-0.00344357,-0.00211780,0.0068
 7706,-0.04923293,0.00370130,-0.00208428,0.00868335,0.01564630,0.037807
 89,-0.37792417,0.00736161,0.00571208,-0.05100393,-0.00402950,-0.000939
 47,0.00786589,-0.00047461,-0.00005399,0.00619305,-0.00322831,0.0007494
 9,-0.00393131,-0.00001603,-0.00155754,0.01247597,0.00210812,-0.0000495
 0,-0.00279080,-0.00121638,0.00293496,-0.00327266,-0.00159610,-0.001247
 21,-0.00345096,0.00035660,0.00009550,0.00018405,-0.02011628,-0.0484561
 8,0.46101098\\-0.00000752,0.00000268,-0.00000508,0.00000520,0.00001344
 ,-0.00000768,-0.00000019,0.00002648,-0.00002592,0.00002234,0.00000814,
 -0.00001752,0.00002702,0.00001854,-0.00002459,0.00001674,-0.00000610,0
 .00000064,0.00002513,-0.00001573,0.00001589,0.00001671,-0.00002938,0.0
 0002270,-0.00000681,-0.00001057,0.00000081,-0.00000284,-0.00002168,0.0
 0002640,-0.00002149,0.00000799,0.00000508,-0.00002886,0.00002007,-0.00
 001523,-0.00004526,0.00000692,0.00000733,-0.00001867,-0.00000251,0.000
 00356,-0.00002078,-0.00000847,0.00001499,0.00003928,-0.00000981,-0.000
 00139\\\@
 The archive entry for this job was punched.


 AN AIRPLANE IS A COLLECTION OF SPARE PARTS
 FLYING IN CLOSE FORMATION.
 Job cpu time:       0 days  1 hours  1 minutes 47.8 seconds.
 Elapsed time:       0 days  0 hours  3 minutes 59.2 seconds.
 File lengths (MBytes):  RWF=    209 Int=      0 D2E=      0 Chk=     12 Scr=      1
 Normal termination of Gaussian 16 at Thu May 19 15:21:31 2022.
