 Entering Gaussian System, Link 0=g16
 AtFile(1): /home/561/yj5695/Basis/6-31pGd.gbs
 Initial command:
 /apps/gaussian/g16c01/g16/l1.exe "/jobfs/48670212.gadi-pbs/Gau-2811160.inp" -scrdir="/jobfs/48670212.gadi-pbs/"
 Entering Link 1 = /apps/gaussian/g16c01/g16/l1.exe PID=   2811161.
  
 Copyright (c) 1988-2019, Gaussian, Inc.  All Rights Reserved.
  
 This is part of the Gaussian(R) 16 program.  It is based on
 the Gaussian(R) 09 system (copyright 2009, Gaussian, Inc.),
 the Gaussian(R) 03 system (copyright 2003, Gaussian, Inc.),
 the Gaussian(R) 98 system (copyright 1998, Gaussian, Inc.),
 the Gaussian(R) 94 system (copyright 1995, Gaussian, Inc.),
 the Gaussian 92(TM) system (copyright 1992, Gaussian, Inc.),
 the Gaussian 90(TM) system (copyright 1990, Gaussian, Inc.),
 the Gaussian 88(TM) system (copyright 1988, Gaussian, Inc.),
 the Gaussian 86(TM) system (copyright 1986, Carnegie Mellon
 University), and the Gaussian 82(TM) system (copyright 1983,
 Carnegie Mellon University). Gaussian is a federally registered
 trademark of Gaussian, Inc.
  
 This software contains proprietary and confidential information,
 including trade secrets, belonging to Gaussian, Inc.
  
 This software is provided under written license and may be
 used, copied, transmitted, or stored only in accord with that
 written license.
  
 The following legend is applicable only to US Government
 contracts under FAR:
  
                    RESTRICTED RIGHTS LEGEND
  
 Use, reproduction and disclosure by the US Government is
 subject to restrictions as set forth in subparagraphs (a)
 and (c) of the Commercial Computer Software - Restricted
 Rights clause in FAR 52.227-19.
  
 Gaussian, Inc.
 340 Quinnipiac St., Bldg. 40, Wallingford CT 06492
  
  
 ---------------------------------------------------------------
 Warning -- This program may not be used in any manner that
 competes with the business of Gaussian, Inc. or will provide
 assistance to any competitor of Gaussian, Inc.  The licensee
 of this program is prohibited from giving any competitor of
 Gaussian, Inc. access to this program.  By using this program,
 the user acknowledges that Gaussian, Inc. is engaged in the
 business of creating and licensing software in the field of
 computational chemistry and represents and warrants to the
 licensee that it is not a competitor of Gaussian, Inc. and that
 it will not use this program in any manner prohibited above.
 ---------------------------------------------------------------
  

 Cite this work as:
 Gaussian 16, Revision C.01,
 M. J. Frisch, G. W. Trucks, H. B. Schlegel, G. E. Scuseria, 
 M. A. Robb, J. R. Cheeseman, G. Scalmani, V. Barone, 
 G. A. Petersson, H. Nakatsuji, X. Li, M. Caricato, A. V. Marenich, 
 J. Bloino, B. G. Janesko, R. Gomperts, B. Mennucci, H. P. Hratchian, 
 J. V. Ortiz, A. F. Izmaylov, J. L. Sonnenberg, D. Williams-Young, 
 F. Ding, F. Lipparini, F. Egidi, J. Goings, B. Peng, A. Petrone, 
 T. Henderson, D. Ranasinghe, V. G. Zakrzewski, J. Gao, N. Rega, 
 G. Zheng, W. Liang, M. Hada, M. Ehara, K. Toyota, R. Fukuda, 
 J. Hasegawa, M. Ishida, T. Nakajima, Y. Honda, O. Kitao, H. Nakai, 
 T. Vreven, K. Throssell, J. A. Montgomery, Jr., J. E. Peralta, 
 F. Ogliaro, M. J. Bearpark, J. J. Heyd, E. N. Brothers, K. N. Kudin, 
 V. N. Staroverov, T. A. Keith, R. Kobayashi, J. Normand, 
 K. Raghavachari, A. P. Rendell, J. C. Burant, S. S. Iyengar, 
 J. Tomasi, M. Cossi, J. M. Millam, M. Klene, C. Adamo, R. Cammi, 
 J. W. Ochterski, R. L. Martin, K. Morokuma, O. Farkas, 
 J. B. Foresman, and D. J. Fox, Gaussian, Inc., Wallingford CT, 2019.
 
 ******************************************
 Gaussian 16:  ES64L-G16RevC.01  3-Jul-2019
                29-Jun-2022 
 ******************************************
 %nproc=16
 Will use up to   16 processors via shared memory.
 %mem=50gb
 -----------------------------------------------------
 #m062X/gen 6D OPT Freq=noraman SCRF=(SMD,Solvent=h2o)
 -----------------------------------------------------
 1/18=20,19=15,26=3,38=1/1,3;
 2/9=110,12=2,17=6,18=5,40=1/2;
 3/5=7,8=2,11=2,25=1,30=1,70=32201,71=1,72=1,74=-55/1,2,3;
 4//1;
 5/5=2,38=5,53=1/2;
 6/7=2,8=2,9=2,10=2,28=1/1;
 7//1,2,3,16;
 1/18=20,19=15,26=3/3(2);
 2/9=110/2;
 99//99;
 2/9=110/2;
 3/5=7,6=1,8=2,11=2,25=1,30=1,70=32205,71=1,72=1,74=-55,82=7/1,2,3;
 4/5=5,16=3,69=1/1;
 5/5=2,38=5,53=1/2;
 7//1,2,3,16;
 1/18=20,19=15,26=3/3(-5);
 2/9=110/2;
 6/7=2,8=2,9=2,10=2,19=2,28=1/1;
 99/9=1/99;
 -------------------
 A.9.smd.a3b3c2.smd
 -------------------
 Symbolic Z-matrix:
 Charge = -1 Multiplicity = 1
 C                    -1.34762   0.77109  -0.95703 
 C                    -2.53874   0.95652  -1.64992 
 H                    -3.48512   0.97004  -1.117 
 C                    -2.53111   1.13831  -3.03417 
 H                    -3.46922   1.28774  -3.55599 
 C                    -1.31268   1.12793  -3.71788 
 O                    -1.19511   1.29997  -5.06586 
 C                    -0.1126    0.93615  -3.01958 
 H                     0.82317   0.93593  -3.57064 
 C                    -0.13111   0.7541   -1.64495 
 H                     0.79992   0.60661  -1.10565 
 S                    -1.37885   0.4395    0.80787 
 O                    -2.5493    1.2007    1.32726 
 O                    -1.54739  -1.04511   0.88894 
 N                    -0.08028   0.9921    1.48602 
 H                     0.04077   1.96305   1.1842 
 C                     0.11618   1.26952  -5.62199 
 H                    -0.01183   1.42414  -6.69287 
 H                     0.5915    0.2998   -5.4428 
 H                     0.73345   2.07119  -5.20406 
 

 GradGradGradGradGradGradGradGradGradGradGradGradGradGradGradGradGradGrad
 Berny optimization.
 Initialization pass.
                           ----------------------------
                           !    Initial Parameters    !
                           ! (Angstroms and Degrees)  !
 --------------------------                            --------------------------
 ! Name  Definition              Value          Derivative Info.                !
 --------------------------------------------------------------------------------
 ! R1    R(1,2)                  1.3904         estimate D2E/DX2                !
 ! R2    R(1,10)                 1.3976         estimate D2E/DX2                !
 ! R3    R(1,12)                 1.796          estimate D2E/DX2                !
 ! R4    R(2,3)                  1.0862         estimate D2E/DX2                !
 ! R5    R(2,4)                  1.3962         estimate D2E/DX2                !
 ! R6    R(4,5)                  1.0838         estimate D2E/DX2                !
 ! R7    R(4,6)                  1.3972         estimate D2E/DX2                !
 ! R8    R(6,7)                  1.364          estimate D2E/DX2                !
 ! R9    R(6,8)                  1.4016         estimate D2E/DX2                !
 ! R10   R(7,17)                 1.4247         estimate D2E/DX2                !
 ! R11   R(8,9)                  1.086          estimate D2E/DX2                !
 ! R12   R(8,10)                 1.3868         estimate D2E/DX2                !
 ! R13   R(10,11)                1.086          estimate D2E/DX2                !
 ! R14   R(12,13)                1.4897         estimate D2E/DX2                !
 ! R15   R(12,14)                1.4963         estimate D2E/DX2                !
 ! R16   R(12,15)                1.5657         estimate D2E/DX2                !
 ! R17   R(15,16)                1.024          estimate D2E/DX2                !
 ! R18   R(17,18)                1.0895         estimate D2E/DX2                !
 ! R19   R(17,19)                1.0947         estimate D2E/DX2                !
 ! R20   R(17,20)                1.0947         estimate D2E/DX2                !
 ! A1    A(2,1,10)             120.1314         estimate D2E/DX2                !
 ! A2    A(2,1,12)             119.9611         estimate D2E/DX2                !
 ! A3    A(10,1,12)            119.7723         estimate D2E/DX2                !
 ! A4    A(1,2,3)              120.2356         estimate D2E/DX2                !
 ! A5    A(1,2,4)              120.4486         estimate D2E/DX2                !
 ! A6    A(3,2,4)              119.3136         estimate D2E/DX2                !
 ! A7    A(2,4,5)              119.379          estimate D2E/DX2                !
 ! A8    A(2,4,6)              119.2728         estimate D2E/DX2                !
 ! A9    A(5,4,6)              121.3479         estimate D2E/DX2                !
 ! A10   A(4,6,7)              123.9058         estimate D2E/DX2                !
 ! A11   A(4,6,8)              120.2571         estimate D2E/DX2                !
 ! A12   A(7,6,8)              115.8369         estimate D2E/DX2                !
 ! A13   A(6,7,17)             117.5432         estimate D2E/DX2                !
 ! A14   A(6,8,9)              119.0127         estimate D2E/DX2                !
 ! A15   A(6,8,10)             120.0253         estimate D2E/DX2                !
 ! A16   A(9,8,10)             120.9617         estimate D2E/DX2                !
 ! A17   A(1,10,8)             119.862          estimate D2E/DX2                !
 ! A18   A(1,10,11)            120.2265         estimate D2E/DX2                !
 ! A19   A(8,10,11)            119.9099         estimate D2E/DX2                !
 ! A20   A(1,12,13)            105.1852         estimate D2E/DX2                !
 ! A21   A(1,12,14)            103.7905         estimate D2E/DX2                !
 ! A22   A(1,12,15)            110.2442         estimate D2E/DX2                !
 ! A23   A(13,12,14)           113.5527         estimate D2E/DX2                !
 ! A24   A(13,12,15)           108.6797         estimate D2E/DX2                !
 ! A25   A(14,12,15)           114.8419         estimate D2E/DX2                !
 ! A26   A(12,15,16)           107.7604         estimate D2E/DX2                !
 ! A27   A(7,17,18)            105.8135         estimate D2E/DX2                !
 ! A28   A(7,17,19)            110.7735         estimate D2E/DX2                !
 ! A29   A(7,17,20)            110.7515         estimate D2E/DX2                !
 ! A30   A(18,17,19)           109.7312         estimate D2E/DX2                !
 ! A31   A(18,17,20)           109.7286         estimate D2E/DX2                !
 ! A32   A(19,17,20)           109.9609         estimate D2E/DX2                !
 ! D1    D(10,1,2,3)          -179.9987         estimate D2E/DX2                !
 ! D2    D(10,1,2,4)            -0.5392         estimate D2E/DX2                !
 ! D3    D(12,1,2,3)             4.2373         estimate D2E/DX2                !
 ! D4    D(12,1,2,4)          -176.3032         estimate D2E/DX2                !
 ! D5    D(2,1,10,8)             0.6508         estimate D2E/DX2                !
 ! D6    D(2,1,10,11)         -179.8289         estimate D2E/DX2                !
 ! D7    D(12,1,10,8)          176.4229         estimate D2E/DX2                !
 ! D8    D(12,1,10,11)          -4.0569         estimate D2E/DX2                !
 ! D9    D(2,1,12,13)          -33.3665         estimate D2E/DX2                !
 ! D10   D(2,1,12,14)           86.1686         estimate D2E/DX2                !
 ! D11   D(2,1,12,15)         -150.3552         estimate D2E/DX2                !
 ! D12   D(10,1,12,13)         150.8541         estimate D2E/DX2                !
 ! D13   D(10,1,12,14)         -89.6107         estimate D2E/DX2                !
 ! D14   D(10,1,12,15)          33.8654         estimate D2E/DX2                !
 ! D15   D(1,2,4,5)           -179.6082         estimate D2E/DX2                !
 ! D16   D(1,2,4,6)              0.1951         estimate D2E/DX2                !
 ! D17   D(3,2,4,5)             -0.1438         estimate D2E/DX2                !
 ! D18   D(3,2,4,6)            179.6595         estimate D2E/DX2                !
 ! D19   D(2,4,6,7)           -179.7953         estimate D2E/DX2                !
 ! D20   D(2,4,6,8)              0.0357         estimate D2E/DX2                !
 ! D21   D(5,4,6,7)              0.004          estimate D2E/DX2                !
 ! D22   D(5,4,6,8)            179.835          estimate D2E/DX2                !
 ! D23   D(4,6,7,17)           179.7766         estimate D2E/DX2                !
 ! D24   D(8,6,7,17)            -0.0612         estimate D2E/DX2                !
 ! D25   D(4,6,8,9)           -179.7423         estimate D2E/DX2                !
 ! D26   D(4,6,8,10)             0.0785         estimate D2E/DX2                !
 ! D27   D(7,6,8,9)              0.1019         estimate D2E/DX2                !
 ! D28   D(7,6,8,10)           179.9226         estimate D2E/DX2                !
 ! D29   D(6,7,17,18)         -179.9916         estimate D2E/DX2                !
 ! D30   D(6,7,17,19)           61.1449         estimate D2E/DX2                !
 ! D31   D(6,7,17,20)          -61.143          estimate D2E/DX2                !
 ! D32   D(6,8,10,1)            -0.4202         estimate D2E/DX2                !
 ! D33   D(6,8,10,11)         -179.942          estimate D2E/DX2                !
 ! D34   D(9,8,10,1)           179.397          estimate D2E/DX2                !
 ! D35   D(9,8,10,11)           -0.1248         estimate D2E/DX2                !
 ! D36   D(1,12,15,16)          50.1686         estimate D2E/DX2                !
 ! D37   D(13,12,15,16)        -64.6281         estimate D2E/DX2                !
 ! D38   D(14,12,15,16)        166.958          estimate D2E/DX2                !
 --------------------------------------------------------------------------------
 Trust Radius=3.00D-01 FncErr=1.00D-07 GrdErr=1.00D-06 EigMax=2.50D+02 EigMin=1.00D-04
 Number of steps in this run=    100 maximum allowed number of steps=    120.
 GradGradGradGradGradGradGradGradGradGradGradGradGradGradGradGradGradGrad

                          Input orientation:                          
 ---------------------------------------------------------------------
 Center     Atomic      Atomic             Coordinates (Angstroms)
 Number     Number       Type             X           Y           Z
 ---------------------------------------------------------------------
      1          6           0       -1.347615    0.771090   -0.957027
      2          6           0       -2.538744    0.956517   -1.649919
      3          1           0       -3.485117    0.970036   -1.116998
      4          6           0       -2.531114    1.138315   -3.034165
      5          1           0       -3.469219    1.287741   -3.555991
      6          6           0       -1.312675    1.127925   -3.717876
      7          8           0       -1.195105    1.299969   -5.065857
      8          6           0       -0.112601    0.936154   -3.019581
      9          1           0        0.823172    0.935933   -3.570637
     10          6           0       -0.131105    0.754096   -1.644947
     11          1           0        0.799924    0.606609   -1.105647
     12         16           0       -1.378851    0.439496    0.807868
     13          8           0       -2.549296    1.200698    1.327264
     14          8           0       -1.547388   -1.045114    0.888936
     15          7           0       -0.080278    0.992102    1.486021
     16          1           0        0.040766    1.963047    1.184198
     17          6           0        0.116177    1.269521   -5.621988
     18          1           0       -0.011830    1.424138   -6.692873
     19          1           0        0.591497    0.299804   -5.442795
     20          1           0        0.733448    2.071190   -5.204058
 ---------------------------------------------------------------------
                    Distance matrix (angstroms):
                    1          2          3          4          5
     1  C    0.000000
     2  C    1.390421   0.000000
     3  H    2.152693   1.086190   0.000000
     4  C    2.418683   1.396154   2.148015   0.000000
     5  H    3.394517   2.146766   2.459650   1.083823   0.000000
     6  C    2.784033   2.410202   3.392492   1.397198   2.168509
     7  O    4.145534   3.686727   4.576734   2.436970   2.729732
     8  C    2.409696   2.786137   3.872316   2.426991   3.417343
     9  H    3.401536   3.871958   4.958111   3.402939   4.306809
    10  C    1.397648   2.416138   3.402169   2.799570   3.883281
    11  H    2.158950   3.400790   4.300440   3.885577   4.969276
    12  S    1.796047   2.766474   2.902230   4.071520   4.912476
    13  O    2.616598   2.987198   2.627429   4.361913   4.969911
    14  O    2.597323   3.381582   3.440842   4.596281   5.375223
    15  N    2.761064   3.984902   4.285922   5.143934   6.082286
    16  H    2.816595   3.962221   4.325902   5.008926   5.936786
    17  C    4.914568   4.787892   5.775287   3.704348   4.138084
    18  H    5.925430   5.659978   6.584855   4.451363   4.670350
    19  H    4.909621   4.961410   5.981681   4.031786   4.585353
    20  H    4.904932   4.957988   5.976026   4.029399   4.581738
                    6          7          8          9         10
     6  C    0.000000
     7  O    1.363992   0.000000
     8  C    1.401631   2.343378   0.000000
     9  H    2.149508   2.538040   1.085971   0.000000
    10  C    2.415138   3.623907   1.386761   2.156848   0.000000
    11  H    3.399792   4.488224   2.145797   2.487000   1.086007
    12  S    4.578283   5.939261   4.061948   4.926120   2.769864
    13  O    5.194994   6.535724   4.990243   5.952569   3.857608
    14  O    5.099010   6.409608   4.610916   5.425117   3.415198
    15  N    5.349560   6.653174   4.506065   5.137039   3.140413
    16  H    5.153597   6.405485   4.330103   4.927025   3.081422
    17  C    2.384808   1.424665   2.633628   2.195259   4.017918
    18  H    3.260452   2.015624   3.706934   3.268628   5.093598
    19  H    2.699445   2.081912   2.602434   1.990806   3.892581
    20  H    2.699093   2.081633   2.603084   1.991211   3.892231
                   11         12         13         14         15
    11  H    0.000000
    12  S    2.904570   0.000000
    13  O    4.182018   1.489679   0.000000
    14  O    3.495200   1.496343   2.497924   0.000000
    15  N    2.764074   1.565745   2.482895   2.580537   0.000000
    16  H    2.767605   2.116163   2.703713   3.414447   1.023955
    17  C    4.615658   6.653352   7.443224   7.107539   7.116133
    18  H    5.704769   7.687612   8.414942   8.120281   8.190583
    19  H    4.352979   6.555347   7.517306   6.817217   6.995645
    20  H    4.352745   6.577803   7.361544   7.213747   6.825228
                   16         17         18         19         20
    16  H    0.000000
    17  C    6.841844   0.000000
    18  H    7.895659   1.089535   0.000000
    19  H    6.854686   1.094710   1.786288   0.000000
    20  H    6.426610   1.094697   1.786249   1.793029   0.000000
 Stoichiometry    C7H8NO3S(1-)
 Framework group  C1[X(C7H8NO3S)]
 Deg. of freedom    54
 Full point group                 C1      NOp   1
 Largest Abelian subgroup         C1      NOp   1
 Largest concise Abelian subgroup C1      NOp   1
                         Standard orientation:                         
 ---------------------------------------------------------------------
 Center     Atomic      Atomic             Coordinates (Angstroms)
 Number     Number       Type             X           Y           Z
 ---------------------------------------------------------------------
      1          6           0        0.529169    0.085837   -0.041485
      2          6           0       -0.023174    1.361496   -0.071158
      3          1           0        0.620577    2.235484   -0.110380
      4          6           0       -1.408732    1.532948   -0.062274
      5          1           0       -1.820704    2.534972   -0.092258
      6          6           0       -2.236084    0.407878   -0.019047
      7          8           0       -3.598838    0.465416   -0.010923
      8          6           0       -1.678756   -0.877714    0.015721
      9          1           0       -2.340698   -1.738133    0.044790
     10          6           0       -0.301219   -1.037253    0.008946
     11          1           0        0.128592   -2.034247    0.034976
     12         16           0        2.311408   -0.118080    0.046999
     13          8           0        2.873921    1.029079   -0.718996
     14          8           0        2.604783   -0.059412    1.513127
     15          7           0        2.740004   -1.449423   -0.656840
     16          1           0        2.302108   -1.468501   -1.582241
     17          6           0       -4.310072   -0.768332    0.030109
     18          1           0       -5.366586   -0.502130    0.029803
     19          1           0       -4.069478   -1.325069    0.941454
     20          1           0       -4.082083   -1.376950   -0.850781
 ---------------------------------------------------------------------
 Rotational constants (GHZ):           2.3835851           0.4210958           0.3882640
 General basis read from cards:  (6D, 7F)
 There are   248 symmetry adapted cartesian basis functions of A   symmetry.
 There are   248 symmetry adapted basis functions of A   symmetry.
   248 basis functions,   440 primitive gaussians,   248 cartesian basis functions
    49 alpha electrons       49 beta electrons
       nuclear repulsion energy       809.3020988841 Hartrees.
 NAtoms=   20 NActive=   20 NUniq=   20 SFac= 1.00D+00 NAtFMM=   60 NAOKFM=F Big=F
 Integral buffers will be    131072 words long.
 Raffenetti 2 integral format.
 Two-electron integral symmetry is turned on.
 ------------------------------------------------------------------------------
 Polarizable Continuum Model (PCM)
 =================================
 Model                : PCM.
 Atomic radii         : SMD-Coulomb.
 Polarization charges : Total charges.
 Charge compensation  : None.
 Solution method      : On-the-fly selection.
 Cavity type          : VdW (van der Waals Surface) (Alpha=1.000).
 Cavity algorithm     : GePol (No added spheres)
                        Default sphere list used, NSphG=   20.
                        Lebedev-Laikov grids with approx.  5.0 points / Ang**2.
                        Smoothing algorithm: York/Karplus (Gamma=1.0000).
                        Polarization charges: spherical gaussians, with
                                              point-specific exponents (IZeta= 3).
                        Self-potential: point-specific (ISelfS= 7).
                        Self-field    : sphere-specific E.n sum rule (ISelfD= 2).
 1st derivatives      : Analytical E(r).r(x)/FMM algorithm (CHGder, D1EAlg=3).
                        Cavity 1st derivative terms included.
 Solvent              : Water, Eps=  78.355300 Eps(inf)=   1.777849
 ------------------------------------------------------------------------------
 Spheres list:
 ISph  on   Nord     Re0    Alpha      Xe            Ye            Ze
    1   C      1    1.8500  1.000      0.529169      0.085837     -0.041485
    2   C      2    1.8500  1.000     -0.023174      1.361496     -0.071158
    3   H      3    1.2000  1.000      0.620577      2.235484     -0.110380
    4   C      4    1.8500  1.000     -1.408732      1.532948     -0.062274
    5   H      5    1.2000  1.000     -1.820704      2.534972     -0.092258
    6   C      6    1.8500  1.000     -2.236084      0.407878     -0.019047
    7   O      7    1.5200  1.000     -3.598838      0.465416     -0.010923
    8   C      8    1.8500  1.000     -1.678756     -0.877714      0.015721
    9   H      9    1.2000  1.000     -2.340698     -1.738133      0.044790
   10   C     10    1.8500  1.000     -0.301219     -1.037253      0.008946
   11   H     11    1.2000  1.000      0.128592     -2.034247      0.034976
   12   S     12    2.4900  1.000      2.311408     -0.118080      0.046999
   13   O     13    1.5200  1.000      2.873921      1.029079     -0.718996
   14   O     14    1.5200  1.000      2.604783     -0.059412      1.513127
   15   N     15    1.8900  1.000      2.740004     -1.449423     -0.656840
   16   H     16    1.2000  1.000      2.302108     -1.468501     -1.582241
   17   C     17    1.8500  1.000     -4.310072     -0.768332      0.030109
   18   H     18    1.2000  1.000     -5.366586     -0.502130      0.029803
   19   H     19    1.2000  1.000     -4.069478     -1.325069      0.941454
   20   H     20    1.2000  1.000     -4.082083     -1.376950     -0.850781
 ------------------------------------------------------------------------------
 ------------------------------------------------------------------------------
 Atomic radii for non-electrostatic terms: SMD-CDS.
 ------------------------------------------------------------------------------
 Nuclear repulsion after PCM non-electrostatic terms =      809.3089684358 Hartrees.
 One-electron integrals computed using PRISM.
 NBasis=   248 RedAO= T EigKep=  1.83D-06  NBF=   248
 NBsUse=   248 1.00D-06 EigRej= -1.00D+00 NBFU=   248
 ExpMin= 4.05D-02 ExpMax= 2.19D+04 ExpMxC= 3.30D+03 IAcc=3 IRadAn=         5 AccDes= 0.00D+00
 Harris functional with IExCor= 1009 and IRadAn=       5 diagonalized for initial guess.
 HarFok:  IExCor= 1009 AccDes= 0.00D+00 IRadAn=         5 IDoV= 1 UseB2=F ITyADJ=14
 ICtDFT=  3500011 ScaDFX=  1.000000  1.000000  1.000000  1.000000
 FoFCou: FMM=F IPFlag=           0 FMFlag=      100000 FMFlg1=           0
         NFxFlg=           0 DoJE=T BraDBF=F KetDBF=T FulRan=T
         wScrn=  0.000000 ICntrl=       500 IOpCl=  0 I1Cent=   200000004 NGrid=           0
         NMat0=    1 NMatS0=      1 NMatT0=    0 NMatD0=    1 NMtDS0=    0 NMtDT0=    0
 Petite list used in FoFCou.
 Requested convergence on RMS density matrix=1.00D-08 within 128 cycles.
 Requested convergence on MAX density matrix=1.00D-06.
 Requested convergence on             energy=1.00D-06.
 No special actions if energy rises.
 Inv3:  Mode=1 IEnd=     7708827.
 Iteration    1 A*A^-1 deviation from unit magnitude is 3.22D-15 for   1582.
 Iteration    1 A*A^-1 deviation from orthogonality  is 2.40D-15 for   1370    154.
 Iteration    1 A^-1*A deviation from unit magnitude is 3.33D-15 for   1595.
 Iteration    1 A^-1*A deviation from orthogonality  is 3.41D-14 for    607    564.
 Error on total polarization charges =  0.05730
 SCF Done:  E(RM062X) =  -949.992705197     A.U. after   15 cycles
            NFock= 15  Conv=0.58D-08     -V/T= 2.0065
 SMD-CDS (non-electrostatic) energy       (kcal/mol) =       4.31
 (included in total energy above)

 **********************************************************************

            Population analysis using the SCF Density.

 **********************************************************************

 Orbital symmetries:
       Occupied  (A) (A) (A) (A) (A) (A) (A) (A) (A) (A) (A) (A)
                 (A) (A) (A) (A) (A) (A) (A) (A) (A) (A) (A) (A)
                 (A) (A) (A) (A) (A) (A) (A) (A) (A) (A) (A) (A)
                 (A) (A) (A) (A) (A) (A) (A) (A) (A) (A) (A) (A)
                 (A)
       Virtual   (A) (A) (A) (A) (A) (A) (A) (A) (A) (A) (A) (A)
                 (A) (A) (A) (A) (A) (A) (A) (A) (A) (A) (A) (A)
                 (A) (A) (A) (A) (A) (A) (A) (A) (A) (A) (A) (A)
                 (A) (A) (A) (A) (A) (A) (A) (A) (A) (A) (A) (A)
                 (A) (A) (A) (A) (A) (A) (A) (A) (A) (A) (A) (A)
                 (A) (A) (A) (A) (A) (A) (A) (A) (A) (A) (A) (A)
                 (A) (A) (A) (A) (A) (A) (A) (A) (A) (A) (A) (A)
                 (A) (A) (A) (A) (A) (A) (A) (A) (A) (A) (A) (A)
                 (A) (A) (A) (A) (A) (A) (A) (A) (A) (A) (A) (A)
                 (A) (A) (A) (A) (A) (A) (A) (A) (A) (A) (A) (A)
                 (A) (A) (A) (A) (A) (A) (A) (A) (A) (A) (A) (A)
                 (A) (A) (A) (A) (A) (A) (A) (A) (A) (A) (A) (A)
                 (A) (A) (A) (A) (A) (A) (A) (A) (A) (A) (A) (A)
                 (A) (A) (A) (A) (A) (A) (A) (A) (A) (A) (A) (A)
                 (A) (A) (A) (A) (A) (A) (A) (A) (A) (A) (A) (A)
                 (A) (A) (A) (A) (A) (A) (A) (A) (A) (A) (A) (A)
                 (A) (A) (A) (A) (A) (A) (A)
 The electronic state is 1-A.
 Alpha  occ. eigenvalues --  -90.13250 -19.68401 -19.62422 -19.61080 -14.71290
 Alpha  occ. eigenvalues --  -10.62435 -10.59109 -10.57137 -10.56727 -10.56535
 Alpha  occ. eigenvalues --  -10.56051 -10.55352  -8.44152  -6.36379  -6.36288
 Alpha  occ. eigenvalues --   -6.36247  -1.20437  -1.19806  -1.08828  -0.97251
 Alpha  occ. eigenvalues --   -0.95392  -0.86394  -0.85434  -0.79730  -0.71766
 Alpha  occ. eigenvalues --   -0.70097  -0.65392  -0.62014  -0.58735  -0.56677
 Alpha  occ. eigenvalues --   -0.54986  -0.53745  -0.52824  -0.52187  -0.50036
 Alpha  occ. eigenvalues --   -0.48344  -0.47073  -0.45644  -0.43640  -0.41179
 Alpha  occ. eigenvalues --   -0.40819  -0.39149  -0.38712  -0.37280  -0.35780
 Alpha  occ. eigenvalues --   -0.33196  -0.31768  -0.28797  -0.28214
 Alpha virt. eigenvalues --    0.01207   0.01662   0.02051   0.03454   0.03913
 Alpha virt. eigenvalues --    0.04636   0.04952   0.05352   0.06204   0.06706
 Alpha virt. eigenvalues --    0.07381   0.07920   0.09334   0.09812   0.10845
 Alpha virt. eigenvalues --    0.11555   0.11842   0.12727   0.13396   0.13997
 Alpha virt. eigenvalues --    0.14067   0.14585   0.15827   0.15998   0.16726
 Alpha virt. eigenvalues --    0.16969   0.17574   0.18117   0.18703   0.19788
 Alpha virt. eigenvalues --    0.19853   0.20607   0.21654   0.22212   0.22825
 Alpha virt. eigenvalues --    0.23471   0.23584   0.24325   0.24967   0.25417
 Alpha virt. eigenvalues --    0.26255   0.26904   0.27303   0.27835   0.28767
 Alpha virt. eigenvalues --    0.29026   0.29474   0.29854   0.30233   0.31065
 Alpha virt. eigenvalues --    0.31398   0.32154   0.32635   0.32908   0.33657
 Alpha virt. eigenvalues --    0.33843   0.34705   0.35894   0.36097   0.36923
 Alpha virt. eigenvalues --    0.37703   0.39937   0.40335   0.41670   0.43041
 Alpha virt. eigenvalues --    0.43812   0.44730   0.47031   0.50205   0.56799
 Alpha virt. eigenvalues --    0.58989   0.64758   0.67371   0.67946   0.70026
 Alpha virt. eigenvalues --    0.70673   0.72623   0.72991   0.73902   0.75307
 Alpha virt. eigenvalues --    0.76350   0.76604   0.77485   0.79264   0.80261
 Alpha virt. eigenvalues --    0.82207   0.83924   0.85118   0.91449   0.94008
 Alpha virt. eigenvalues --    0.95669   0.96696   0.98394   0.98868   1.00181
 Alpha virt. eigenvalues --    1.01579   1.01734   1.05966   1.06821   1.08203
 Alpha virt. eigenvalues --    1.10089   1.10922   1.12703   1.14834   1.15594
 Alpha virt. eigenvalues --    1.16484   1.17862   1.19526   1.21794   1.22795
 Alpha virt. eigenvalues --    1.23673   1.24730   1.27737   1.28647   1.29635
 Alpha virt. eigenvalues --    1.31423   1.34615   1.35662   1.36980   1.37933
 Alpha virt. eigenvalues --    1.38615   1.39404   1.41577   1.41979   1.42334
 Alpha virt. eigenvalues --    1.47048   1.48822   1.50321   1.51444   1.52285
 Alpha virt. eigenvalues --    1.54410   1.55709   1.56643   1.59869   1.61584
 Alpha virt. eigenvalues --    1.67019   1.77871   1.78289   1.81638   1.83277
 Alpha virt. eigenvalues --    1.83996   1.87462   1.88898   1.90079   1.91128
 Alpha virt. eigenvalues --    1.92180   1.95223   1.97622   1.98405   1.99264
 Alpha virt. eigenvalues --    2.02185   2.05375   2.06011   2.08143   2.11843
 Alpha virt. eigenvalues --    2.16295   2.16693   2.16854   2.19422   2.20945
 Alpha virt. eigenvalues --    2.21572   2.23687   2.26660   2.28254   2.32864
 Alpha virt. eigenvalues --    2.33567   2.34633   2.36213   2.40116   2.43323
 Alpha virt. eigenvalues --    2.45776   2.57734   2.58295   2.62208   2.66931
 Alpha virt. eigenvalues --    2.67356   2.70646   2.77595   2.80851   2.84023
 Alpha virt. eigenvalues --    2.86843   2.88754   2.94158   2.97102   3.06999
 Alpha virt. eigenvalues --    3.19258   3.41334   4.02293   4.09165   4.16180
 Alpha virt. eigenvalues --    4.26796   4.28423   4.30765   4.32741   4.39270
 Alpha virt. eigenvalues --    4.42969   4.48985   4.57276   4.80856
          Condensed to atoms (all electrons):
               1          2          3          4          5          6
     1  C   19.633345  -4.229561  -0.020516   0.331758   0.046514  -2.742249
     2  C   -4.229561  29.369846   0.366586  -5.375976  -0.053449   1.416404
     3  H   -0.020516   0.366586   0.429248  -0.077791  -0.003350   0.029432
     4  C    0.331758  -5.375976  -0.077791  15.484638   0.381467  -1.380918
     5  H    0.046514  -0.053449  -0.003350   0.381467   0.433174  -0.067305
     6  C   -2.742249   1.416404   0.029432  -1.380918  -0.067305   8.529830
     7  O   -0.024027  -0.012378  -0.000456  -0.461533   0.000279   0.386198
     8  C   -1.771047  -2.857919  -0.030531  -0.346764   0.028267   0.467293
     9  H    0.052243   0.004287   0.000011  -0.009279  -0.000099  -0.041963
    10  C   -3.507639 -12.501401   0.041237  -2.340664  -0.028874  -0.369435
    11  H    0.018434   0.046818  -0.000121  -0.024265   0.000012   0.007071
    12  S   -0.667637   0.564442  -0.005216   0.048534   0.000116  -0.024604
    13  O    0.107328  -0.546189   0.005086   0.069614   0.000099  -0.027857
    14  O    0.038343  -0.146885  -0.000376  -0.034321   0.000014   0.009585
    15  N   -0.062731   0.033661   0.000638   0.038598   0.000050   0.011091
    16  H    0.099962   0.082491   0.000004  -0.009518   0.000000   0.000757
    17  C   -0.012322   0.093637   0.000169  -0.033169   0.001280  -0.225385
    18  H    0.000224  -0.000629  -0.000000   0.012613  -0.000005   0.033497
    19  H   -0.002807   0.005051   0.000000  -0.015060   0.000004  -0.054189
    20  H   -0.001022  -0.000016   0.000000  -0.015029   0.000005  -0.078725
               7          8          9         10         11         12
     1  C   -0.024027  -1.771047   0.052243  -3.507639   0.018434  -0.667637
     2  C   -0.012378  -2.857919   0.004287 -12.501401   0.046818   0.564442
     3  H   -0.000456  -0.030531   0.000011   0.041237  -0.000121  -0.005216
     4  C   -0.461533  -0.346764  -0.009279  -2.340664  -0.024265   0.048534
     5  H    0.000279   0.028267  -0.000099  -0.028874   0.000012   0.000116
     6  C    0.386198   0.467293  -0.041963  -0.369435   0.007071  -0.024604
     7  O    8.564372   0.088950  -0.020342  -0.036749  -0.000605   0.000179
     8  C    0.088950  17.641217   0.252987  -7.488167  -0.011369  -0.943998
     9  H   -0.020342   0.252987   0.451007   0.063472  -0.003498   0.000303
    10  C   -0.036749  -7.488167   0.063472  31.931754   0.279013   0.481793
    11  H   -0.000605  -0.011369  -0.003498   0.279013   0.434291  -0.016773
    12  S    0.000179  -0.943998   0.000303   0.481793  -0.016773  14.580416
    13  O    0.000009   0.080399   0.000024   0.277179   0.000514   0.006135
    14  O    0.000014  -0.127783   0.000012   0.135249  -0.000895   0.333954
    15  N   -0.000122   0.121810   0.000183  -0.106125   0.005857   0.024419
    16  H   -0.000000  -0.105289   0.000000  -0.095668  -0.000816   0.077401
    17  C    0.087676   0.085298   0.000204  -0.145533   0.001450  -0.010936
    18  H   -0.055924  -0.025286   0.000644  -0.001519  -0.000000  -0.000011
    19  H   -0.029763   0.042494  -0.003022   0.000587   0.000008  -0.000109
    20  H   -0.029464   0.024312  -0.002808   0.054623   0.000007   0.000060
              13         14         15         16         17         18
     1  C    0.107328   0.038343  -0.062731   0.099962  -0.012322   0.000224
     2  C   -0.546189  -0.146885   0.033661   0.082491   0.093637  -0.000629
     3  H    0.005086  -0.000376   0.000638   0.000004   0.000169  -0.000000
     4  C    0.069614  -0.034321   0.038598  -0.009518  -0.033169   0.012613
     5  H    0.000099   0.000014   0.000050   0.000000   0.001280  -0.000005
     6  C   -0.027857   0.009585   0.011091   0.000757  -0.225385   0.033497
     7  O    0.000009   0.000014  -0.000122  -0.000000   0.087676  -0.055924
     8  C    0.080399  -0.127783   0.121810  -0.105289   0.085298  -0.025286
     9  H    0.000024   0.000012   0.000183   0.000000   0.000204   0.000644
    10  C    0.277179   0.135249  -0.106125  -0.095668  -0.145533  -0.001519
    11  H    0.000514  -0.000895   0.005857  -0.000816   0.001450  -0.000000
    12  S    0.006135   0.333954   0.024419   0.077401  -0.010936  -0.000011
    13  O    9.116678  -0.175989  -0.151603  -0.016564  -0.000354   0.000000
    14  O   -0.175989   8.853926  -0.187574   0.011916  -0.000500  -0.000000
    15  N   -0.151603  -0.187574   8.092760   0.195927   0.000273  -0.000000
    16  H   -0.016564   0.011916   0.195927   0.350525  -0.000078  -0.000000
    17  C   -0.000354  -0.000500   0.000273  -0.000078   5.356219   0.387824
    18  H    0.000000  -0.000000  -0.000000  -0.000000   0.387824   0.448143
    19  H   -0.000000   0.000001  -0.000008  -0.000000   0.398789  -0.022865
    20  H   -0.000000  -0.000000   0.000014  -0.000000   0.390532  -0.022826
              19         20
     1  C   -0.002807  -0.001022
     2  C    0.005051  -0.000016
     3  H    0.000000   0.000000
     4  C   -0.015060  -0.015029
     5  H    0.000004   0.000005
     6  C   -0.054189  -0.078725
     7  O   -0.029763  -0.029464
     8  C    0.042494   0.024312
     9  H   -0.003022  -0.002808
    10  C    0.000587   0.054623
    11  H    0.000008   0.000007
    12  S   -0.000109   0.000060
    13  O   -0.000000  -0.000000
    14  O    0.000001  -0.000000
    15  N   -0.000008   0.000014
    16  H   -0.000000  -0.000000
    17  C    0.398789   0.390532
    18  H   -0.022865  -0.022826
    19  H    0.480287  -0.039875
    20  H   -0.039875   0.478955
 Mulliken charges:
               1
     1  C   -1.286592
     2  C   -0.258820
     3  H    0.265945
     4  C   -0.242936
     5  H    0.261803
     6  C    0.121474
     7  O   -0.456312
     8  C    0.875126
     9  H    0.255633
    10  C   -0.643133
    11  H    0.264868
    12  S    1.551533
    13  O   -0.744510
    14  O   -0.708690
    15  N   -1.017117
    16  H    0.408948
    17  C   -0.375075
    18  H    0.246119
    19  H    0.240476
    20  H    0.241259
 Sum of Mulliken charges =  -1.00000
 Mulliken charges with hydrogens summed into heavy atoms:
               1
     1  C   -1.286592
     2  C    0.007125
     4  C    0.018867
     6  C    0.121474
     7  O   -0.456312
     8  C    1.130759
    10  C   -0.378265
    12  S    1.551533
    13  O   -0.744510
    14  O   -0.708690
    15  N   -0.608169
    17  C    0.352779
 Electronic spatial extent (au):  <R**2>=           2832.1121
 Charge=             -1.0000 electrons
 Dipole moment (field-independent basis, Debye):
    X=            -18.4269    Y=             -1.2496    Z=             -2.0241  Tot=             18.5798
 Quadrupole moment (field-independent basis, Debye-Ang):
   XX=           -123.9888   YY=            -82.7684   ZZ=            -89.2922
   XY=             11.6179   XZ=             -3.6135   YZ=              2.5216
 Traceless Quadrupole moment (field-independent basis, Debye-Ang):
   XX=            -25.3056   YY=             15.9147   ZZ=              9.3909
   XY=             11.6179   XZ=             -3.6135   YZ=              2.5216
 Octapole moment (field-independent basis, Debye-Ang**2):
  XXX=           -221.9373  YYY=             18.9358  ZZZ=            -13.6115  XYY=            -43.1347
  XXY=            -23.9272  XXZ=             -0.4782  XZZ=            -20.8879  YZZ=             -5.7920
  YYZ=              2.9351  XYZ=              6.3045
 Hexadecapole moment (field-independent basis, Debye-Ang**3):
 XXXX=          -3238.0382 YYYY=           -523.9694 ZZZZ=           -242.4746 XXXY=            202.5590
 XXXZ=             13.1670 YYYX=             46.2595 YYYZ=             -1.7380 ZZZX=            -32.9497
 ZZZY=             10.2517 XXYY=           -668.4569 XXZZ=           -603.2259 YYZZ=           -131.0253
 XXYZ=              9.4836 YYXZ=             12.5715 ZZXY=             -2.3100
 N-N= 8.093089684358D+02 E-N=-3.866696346848D+03  KE= 9.438994133775D+02
 D1PCM: PCM CHGder 1st derivatives, ID1Alg=3 FixD1E=F DoIter=F DoCFld=F I1PDM=0.
 Calling FoFJK, ICntrl=      2127 FMM=F ISym2X=0 I1Cent= 0 IOpClX= 0 NMat=1 NMatS=1 NMatT=0.
 ***** Axes restored to original set *****
 -------------------------------------------------------------------
 Center     Atomic                   Forces (Hartrees/Bohr)
 Number     Number              X              Y              Z
 -------------------------------------------------------------------
      1        6           0.004735293   -0.000606892   -0.000411249
      2        6          -0.001287689    0.001175476   -0.004690521
      3        1           0.000032148   -0.000113651   -0.000290999
      4        6          -0.001984827    0.000864754   -0.003983014
      5        1          -0.000026260    0.000402455   -0.002957270
      6        6           0.027289831   -0.002536139    0.001799126
      7        8          -0.020766377    0.002330598   -0.004544384
      8        6          -0.001088996   -0.000876084    0.009086312
      9        1          -0.001555735   -0.001425070    0.010981407
     10        6          -0.001835955   -0.000260547    0.004615688
     11        1           0.000060616   -0.000137410    0.000613975
     12       16           0.002447173    0.014985049   -0.000976787
     13        8          -0.019821847   -0.003095060   -0.003839131
     14        8           0.007987183    0.007739099    0.008914494
     15        7           0.012509724   -0.019381705   -0.005945379
     16        1          -0.002948584   -0.000779829    0.002062379
     17        6          -0.002126089    0.000938303   -0.005835253
     18        1          -0.001092014    0.000074723    0.000053175
     19        1          -0.000276226    0.000354705   -0.002347442
     20        1          -0.000251370    0.000347225   -0.002305127
 -------------------------------------------------------------------
 Cartesian Forces:  Max     0.027289831 RMS     0.007081399

 GradGradGradGradGradGradGradGradGradGradGradGradGradGradGradGradGradGrad
 Berny optimization.
 FormGI is forming the generalized inverse of G from B-inverse, IUseBI=4.
 Internal  Forces:  Max     0.055433384 RMS     0.010199322
 Search for a local minimum.
 Step number   1 out of a maximum of  100
 All quantities printed in internal units (Hartrees-Bohrs-Radians)
 Mixed Optimization -- RFO/linear search
 Second derivative matrix not updated -- first step.
 ITU=  0
     Eigenvalues ---    0.00423   0.01366   0.01483   0.02099   0.02118
     Eigenvalues ---    0.02133   0.02153   0.02168   0.02170   0.02174
     Eigenvalues ---    0.02189   0.02209   0.03072   0.10144   0.10283
     Eigenvalues ---    0.10686   0.11841   0.15999   0.15999   0.16000
     Eigenvalues ---    0.16000   0.16000   0.16000   0.16000   0.16000
     Eigenvalues ---    0.17196   0.21687   0.22000   0.22973   0.23982
     Eigenvalues ---    0.24932   0.25000   0.25000   0.25000   0.26431
     Eigenvalues ---    0.34274   0.34275   0.34866   0.35257   0.35278
     Eigenvalues ---    0.35282   0.35536   0.41766   0.42138   0.42263
     Eigenvalues ---    0.43713   0.45817   0.46051   0.46773   0.47484
     Eigenvalues ---    0.52149   0.58457   0.77900   0.80199
 RFO step:  Lambda=-3.48618556D-02 EMin= 4.22592828D-03
 Linear search not attempted -- first point.
 Maximum step size (   0.300) exceeded in Quadratic search.
    -- Step size scaled by   0.870
 Iteration  1 RMS(Cart)=  0.17900396 RMS(Int)=  0.00943975
 Iteration  2 RMS(Cart)=  0.02122410 RMS(Int)=  0.00033796
 Iteration  3 RMS(Cart)=  0.00030369 RMS(Int)=  0.00032472
 Iteration  4 RMS(Cart)=  0.00000005 RMS(Int)=  0.00032472
 Variable       Old X    -DE/DX   Delta X   Delta X   Delta X     New X
                                 (Linear)    (Quad)   (Total)
    R1        2.62752   0.00061   0.00000   0.00025   0.00024   2.62775
    R2        2.64117  -0.00495   0.00000  -0.00882  -0.00885   2.63232
    R3        3.39404   0.00031   0.00000   0.00090   0.00090   3.39493
    R4        2.05260  -0.00017   0.00000  -0.00039  -0.00039   2.05222
    R5        2.63835  -0.00387   0.00000  -0.00747  -0.00746   2.63089
    R6        2.04813   0.00150   0.00000   0.00335   0.00335   2.05148
    R7        2.64032  -0.00238   0.00000  -0.00406  -0.00403   2.63629
    R8        2.57757   0.01319   0.00000   0.02063   0.02063   2.59820
    R9        2.64870   0.01282   0.00000   0.02366   0.02367   2.67237
   R10        2.69223   0.00061   0.00000   0.00117   0.00117   2.69340
   R11        2.05219  -0.00691   0.00000  -0.01551  -0.01551   2.03668
   R12        2.62060   0.00395   0.00000   0.00736   0.00734   2.62794
   R13        2.05226   0.00037   0.00000   0.00084   0.00084   2.05310
   R14        2.81508   0.01266   0.00000   0.01316   0.01316   2.82825
   R15        2.82768  -0.00809   0.00000  -0.00865  -0.00865   2.81903
   R16        2.95883  -0.00087   0.00000  -0.00122  -0.00122   2.95761
   R17        1.93499  -0.00171   0.00000  -0.00316  -0.00316   1.93184
   R18        2.05892   0.00008   0.00000   0.00019   0.00019   2.05911
   R19        2.06870  -0.00081   0.00000  -0.00186  -0.00186   2.06684
   R20        2.06868  -0.00077   0.00000  -0.00177  -0.00177   2.06690
    A1        2.09669  -0.00082   0.00000  -0.00450  -0.00454   2.09215
    A2        2.09372   0.00025   0.00000   0.00191   0.00193   2.09564
    A3        2.09042   0.00058   0.00000   0.00292   0.00293   2.09335
    A4        2.09851  -0.00043   0.00000   0.00052   0.00051   2.09902
    A5        2.10223   0.00133   0.00000   0.00102   0.00103   2.10326
    A6        2.08242  -0.00090   0.00000  -0.00154  -0.00155   2.08087
    A7        2.08356  -0.00014   0.00000   0.00316   0.00314   2.08669
    A8        2.08170   0.00557   0.00000   0.01731   0.01736   2.09906
    A9        2.11792  -0.00543   0.00000  -0.02047  -0.02050   2.09742
   A10        2.16257  -0.04797   0.00000  -0.14710  -0.14712   2.01545
   A11        2.09888  -0.00746   0.00000  -0.02162  -0.02158   2.07730
   A12        2.02174   0.05543   0.00000   0.16872   0.16870   2.19044
   A13        2.05152   0.03690   0.00000   0.11271   0.11271   2.16422
   A14        2.07716   0.00886   0.00000   0.03851   0.03851   2.11567
   A15        2.09484   0.00032   0.00000   0.00356   0.00355   2.09839
   A16        2.11118  -0.00918   0.00000  -0.04206  -0.04206   2.06912
   A17        2.09199   0.00105   0.00000   0.00424   0.00419   2.09618
   A18        2.09835  -0.00105   0.00000  -0.00445  -0.00443   2.09392
   A19        2.09282  -0.00000   0.00000   0.00022   0.00024   2.09306
   A20        1.83583  -0.00898   0.00000  -0.01423  -0.01540   1.82043
   A21        1.81149   0.01161   0.00000   0.02244   0.02173   1.83322
   A22        1.92412  -0.00089   0.00000   0.00127   0.00037   1.92449
   A23        1.98187  -0.00474   0.00000  -0.02336  -0.02230   1.95957
   A24        1.89682   0.02231   0.00000   0.10350   0.10367   2.00049
   A25        2.00437  -0.01954   0.00000  -0.08894  -0.08845   1.91592
   A26        1.88077  -0.00264   0.00000  -0.01180  -0.01180   1.86897
   A27        1.84679  -0.00332   0.00000  -0.01749  -0.01749   1.82930
   A28        1.93336   0.00212   0.00000   0.01088   0.01078   1.94414
   A29        1.93298   0.00217   0.00000   0.01111   0.01101   1.94399
   A30        1.91517  -0.00111   0.00000  -0.00773  -0.00774   1.90743
   A31        1.91513  -0.00108   0.00000  -0.00752  -0.00752   1.90760
   A32        1.91918   0.00102   0.00000   0.00942   0.00924   1.92842
    D1       -3.14157   0.00005   0.00000   0.00093   0.00093  -3.14064
    D2       -0.00941   0.00002   0.00000   0.00044   0.00044  -0.00897
    D3        0.07396  -0.00028   0.00000  -0.00436  -0.00436   0.06960
    D4       -3.07707  -0.00031   0.00000  -0.00485  -0.00485  -3.08192
    D5        0.01136  -0.00005   0.00000  -0.00102  -0.00101   0.01034
    D6       -3.13861  -0.00005   0.00000  -0.00081  -0.00081  -3.13942
    D7        3.07916   0.00026   0.00000   0.00422   0.00422   3.08338
    D8       -0.07081   0.00027   0.00000   0.00442   0.00442  -0.06639
    D9       -0.58236   0.00858   0.00000   0.05190   0.05184  -0.53052
   D10        1.50393   0.00457   0.00000   0.02956   0.02965   1.53358
   D11       -2.62419  -0.01222   0.00000  -0.06238  -0.06238  -2.68658
   D12        2.63290   0.00831   0.00000   0.04695   0.04687   2.67977
   D13       -1.56400   0.00430   0.00000   0.02460   0.02468  -1.53932
   D14        0.59106  -0.01249   0.00000  -0.06734  -0.06735   0.52371
   D15       -3.13475  -0.00001   0.00000   0.00013   0.00013  -3.13462
   D16        0.00341   0.00002   0.00000   0.00049   0.00050   0.00391
   D17       -0.00251  -0.00003   0.00000  -0.00034  -0.00034  -0.00285
   D18        3.13565   0.00000   0.00000   0.00002   0.00003   3.13568
   D19       -3.13802  -0.00014   0.00000  -0.00123  -0.00123  -3.13925
   D20        0.00062  -0.00005   0.00000  -0.00084  -0.00083  -0.00021
   D21        0.00007  -0.00010   0.00000  -0.00081  -0.00081  -0.00074
   D22        3.13871  -0.00000   0.00000  -0.00042  -0.00042   3.13830
   D23        3.13769   0.00008   0.00000   0.00129   0.00128   3.13897
   D24       -0.00107   0.00008   0.00000   0.00118   0.00119   0.00012
   D25       -3.13710   0.00002   0.00000  -0.00008  -0.00010  -3.13719
   D26        0.00137   0.00002   0.00000   0.00025   0.00024   0.00161
   D27        0.00178  -0.00006   0.00000  -0.00021  -0.00021   0.00157
   D28        3.14024  -0.00006   0.00000   0.00012   0.00013   3.14037
   D29       -3.14145   0.00001   0.00000   0.00036   0.00036  -3.14108
   D30        1.06718   0.00216   0.00000   0.01411   0.01424   1.08142
   D31       -1.06715  -0.00209   0.00000  -0.01300  -0.01313  -1.08028
   D32       -0.00733   0.00002   0.00000   0.00064   0.00064  -0.00669
   D33       -3.14058   0.00002   0.00000   0.00046   0.00046  -3.14012
   D34        3.13107   0.00006   0.00000   0.00113   0.00112   3.13219
   D35       -0.00218   0.00006   0.00000   0.00095   0.00094  -0.00124
   D36        0.87561   0.00173   0.00000   0.04735   0.04766   0.92327
   D37       -1.12797   0.00041   0.00000   0.00547   0.00371  -1.12426
   D38        2.91397   0.00330   0.00000   0.01939   0.02084   2.93480
         Item               Value     Threshold  Converged?
 Maximum Force            0.055433     0.000450     NO 
 RMS     Force            0.010199     0.000300     NO 
 Maximum Displacement     0.707168     0.001800     NO 
 RMS     Displacement     0.191518     0.001200     NO 
 Predicted change in Energy=-1.902245D-02
 GradGradGradGradGradGradGradGradGradGradGradGradGradGradGradGradGradGrad

                          Input orientation:                          
 ---------------------------------------------------------------------
 Center     Atomic      Atomic             Coordinates (Angstroms)
 Number     Number       Type             X           Y           Z
 ---------------------------------------------------------------------
      1          6           0       -1.330052    0.775649   -0.890347
      2          6           0       -2.475042    0.961459   -1.657218
      3          1           0       -3.452362    0.986652   -1.184379
      4          6           0       -2.382591    1.128987   -3.036215
      5          1           0       -3.285941    1.279445   -3.619173
      6          6           0       -1.137581    1.107503   -3.665255
      7          8           0       -1.160562    1.285359   -5.028419
      8          6           0        0.023652    0.913791   -2.881768
      9          1           0        1.003460    0.895093   -3.330319
     10          6           0       -0.080502    0.745822   -1.505239
     11          1           0        0.815003    0.598723   -0.907903
     12         16           0       -1.468504    0.469078    0.874400
     13          8           0       -2.711528    1.197416    1.279811
     14          8           0       -1.613536   -1.010298    0.999989
     15          7           0       -0.168891    0.938010    1.609681
     16          1           0       -0.001494    1.908178    1.334331
     17          6           0        0.003867    1.298538   -5.850225
     18          1           0       -0.370281    1.459447   -6.860882
     19          1           0        0.532311    0.341850   -5.808666
     20          1           0        0.674619    2.118564   -5.578275
 ---------------------------------------------------------------------
                    Distance matrix (angstroms):
                    1          2          3          4          5
     1  C    0.000000
     2  C    1.390547   0.000000
     3  H    2.152947   1.085986   0.000000
     4  C    2.416078   1.392209   2.143354   0.000000
     5  H    3.394967   2.146611   2.457976   1.085596   0.000000
     6  C    2.801300   2.417094   3.395226   1.395063   2.155721
     7  O    4.172789   3.632873   4.485334   2.342367   2.550146
     8  C    2.411919   2.783032   3.868994   2.420778   3.410406
     9  H    3.378314   3.860525   4.946493   3.406838   4.316262
    10  C    1.392966   2.409029   3.395643   2.791114   3.876636
    11  H    2.152410   3.393737   4.293872   3.877563   4.963074
    12  S    1.796521   2.768510   2.905537   4.069882   4.914465
    13  O    2.606905   2.955967   2.581761   4.329083   4.933226
    14  O    2.615978   3.419177   3.484330   4.632378   5.420011
    15  N    2.761304   3.998939   4.311649   5.149882   6.097007
    16  H    2.827876   3.995508   4.370538   5.037701   5.976629
    17  C    5.162668   4.882614   5.814887   3.693587   3.975021
    18  H    6.085723   5.635258   6.476531   4.334360   4.363731
    19  H    5.276973   5.163585   6.138194   4.099113   4.500224
    20  H    5.272456   5.160809   6.133476   4.097300   4.497581
                    6          7          8          9         10
     6  C    0.000000
     7  O    1.374910   0.000000
     8  C    1.414156   2.479624   0.000000
     9  H    2.177466   2.778280   1.077762   0.000000
    10  C    2.431851   3.724302   1.390646   2.127951   0.000000
    11  H    3.416787   4.620928   2.149802   2.447745   1.086452
    12  S    4.596255   5.966944   4.066092   4.896097   2.768721
    13  O    5.190286   6.496691   4.988025   5.928392   3.857815
    14  O    5.145495   6.466601   4.631473   5.406547   3.422034
    15  N    5.365821   6.720747   4.495640   5.077387   3.122095
    16  H    5.189184   6.497379   4.331851   4.878036   3.069278
    17  C    2.472548   1.425284   2.993352   2.740781   4.380813
    18  H    3.305245   2.003190   4.035625   3.830213   5.410744
    19  H    2.822938   2.089214   3.025324   2.582685   4.365573
    20  H    2.822404   2.089130   3.024299   2.580373   4.363973
                   11         12         13         14         15
    11  H    0.000000
    12  S    2.899623   0.000000
    13  O    4.192964   1.496644   0.000000
    14  O    3.482356   1.491764   2.481509   0.000000
    15  N    2.724223   1.565097   2.577034   2.500926   0.000000
    16  H    2.721939   2.105864   2.802221   3.350816   1.022284
    17  C    5.057097   6.933719   7.630269   7.407574   7.470611
    18  H    6.130555   7.875374   8.474726   8.332984   8.488987
    19  H    4.915627   6.977308   7.842257   7.265725   7.475224
    20  H    4.913451   6.996485   7.703756   7.635378   7.332935
                   16         17         18         19         20
    16  H    0.000000
    17  C    7.210377   0.000000
    18  H    8.215770   1.089636   0.000000
    19  H    7.332172   1.093724   1.780689   0.000000
    20  H    6.948778   1.093758   1.780824   1.797233   0.000000
 Stoichiometry    C7H8NO3S(1-)
 Framework group  C1[X(C7H8NO3S)]
 Deg. of freedom    54
 Full point group                 C1      NOp   1
 Largest Abelian subgroup         C1      NOp   1
 Largest concise Abelian subgroup C1      NOp   1
                         Standard orientation:                         
 ---------------------------------------------------------------------
 Center     Atomic      Atomic             Coordinates (Angstroms)
 Number     Number       Type             X           Y           Z
 ---------------------------------------------------------------------
      1          6           0        0.558820    0.049529   -0.049154
      2          6           0       -0.056476    1.296490   -0.060075
      3          1           0        0.542228    2.202001   -0.091225
      4          6           0       -1.444746    1.399759   -0.043186
      5          1           0       -1.909008    2.380953   -0.058631
      6          6           0       -2.234988    0.250567   -0.010356
      7          8           0       -3.592768    0.466628    0.001040
      8          6           0       -1.604662   -1.015248    0.005145
      9          1           0       -2.180693   -1.925911    0.026412
     10          6           0       -0.217110   -1.106661   -0.010273
     11          1           0        0.261947   -2.081735    0.000357
     12         16           0        2.349971   -0.069889    0.021587
     13          8           0        2.830645    1.161730   -0.679847
     14          8           0        2.681473   -0.058083    1.476004
     15          7           0        2.829373   -1.414606   -0.619849
     16          1           0        2.412306   -1.468368   -1.551638
     17          6           0       -4.565330   -0.574850    0.030685
     18          1           0       -5.525389   -0.059494    0.031694
     19          1           0       -4.477522   -1.176908    0.939557
     20          1           0       -4.496855   -1.209794   -0.857271
 ---------------------------------------------------------------------
 Rotational constants (GHZ):           2.4747267           0.4058361           0.3754710
 Basis read from rwf:  (6D, 7F)
 There are   248 symmetry adapted cartesian basis functions of A   symmetry.
 There are   248 symmetry adapted basis functions of A   symmetry.
   248 basis functions,   440 primitive gaussians,   248 cartesian basis functions
    49 alpha electrons       49 beta electrons
       nuclear repulsion energy       804.1633004337 Hartrees.
 NAtoms=   20 NActive=   20 NUniq=   20 SFac= 1.00D+00 NAtFMM=   60 NAOKFM=F Big=F
 Integral buffers will be    131072 words long.
 Raffenetti 2 integral format.
 Two-electron integral symmetry is turned on.
 ------------------------------------------------------------------------------
 Polarizable Continuum Model (PCM)
 =================================
 Model                : PCM.
 Atomic radii         : SMD-Coulomb.
 Polarization charges : Total charges.
 Charge compensation  : None.
 Solution method      : On-the-fly selection.
 Cavity type          : VdW (van der Waals Surface) (Alpha=1.000).
 Cavity algorithm     : GePol (No added spheres)
                        Default sphere list used, NSphG=   20.
                        Lebedev-Laikov grids with approx.  5.0 points / Ang**2.
                        Smoothing algorithm: York/Karplus (Gamma=1.0000).
                        Polarization charges: spherical gaussians, with
                                              point-specific exponents (IZeta= 3).
                        Self-potential: point-specific (ISelfS= 7).
                        Self-field    : sphere-specific E.n sum rule (ISelfD= 2).
 1st derivatives      : Analytical E(r).r(x)/FMM algorithm (CHGder, D1EAlg=3).
                        Cavity 1st derivative terms included.
 Solvent              : Water, Eps=  78.355300 Eps(inf)=   1.777849
 ------------------------------------------------------------------------------
 Spheres list:
 ISph  on   Nord     Re0    Alpha      Xe            Ye            Ze
    1   C      1    1.8500  1.000      0.558820      0.049529     -0.049154
    2   C      2    1.8500  1.000     -0.056476      1.296490     -0.060075
    3   H      3    1.2000  1.000      0.542228      2.202001     -0.091225
    4   C      4    1.8500  1.000     -1.444746      1.399759     -0.043186
    5   H      5    1.2000  1.000     -1.909008      2.380953     -0.058631
    6   C      6    1.8500  1.000     -2.234988      0.250567     -0.010356
    7   O      7    1.5200  1.000     -3.592768      0.466628      0.001040
    8   C      8    1.8500  1.000     -1.604662     -1.015248      0.005145
    9   H      9    1.2000  1.000     -2.180693     -1.925911      0.026412
   10   C     10    1.8500  1.000     -0.217110     -1.106661     -0.010273
   11   H     11    1.2000  1.000      0.261947     -2.081735      0.000357
   12   S     12    2.4900  1.000      2.349971     -0.069889      0.021587
   13   O     13    1.5200  1.000      2.830645      1.161730     -0.679847
   14   O     14    1.5200  1.000      2.681473     -0.058083      1.476004
   15   N     15    1.8900  1.000      2.829373     -1.414606     -0.619849
   16   H     16    1.2000  1.000      2.412306     -1.468368     -1.551638
   17   C     17    1.8500  1.000     -4.565330     -0.574850      0.030685
   18   H     18    1.2000  1.000     -5.525389     -0.059494      0.031694
   19   H     19    1.2000  1.000     -4.477522     -1.176908      0.939557
   20   H     20    1.2000  1.000     -4.496855     -1.209794     -0.857271
 ------------------------------------------------------------------------------
 ------------------------------------------------------------------------------
 Atomic radii for non-electrostatic terms: SMD-CDS.
 ------------------------------------------------------------------------------
 Nuclear repulsion after PCM non-electrostatic terms =      804.1702222868 Hartrees.
 One-electron integrals computed using PRISM.
 NBasis=   248 RedAO= T EigKep=  2.16D-06  NBF=   248
 NBsUse=   248 1.00D-06 EigRej= -1.00D+00 NBFU=   248
 Initial guess from the checkpoint file:  "/jobfs/48670212.gadi-pbs/Gau-2811161.chk"
 B after Tr=     0.000000   -0.000000   -0.000000
         Rot=    0.999977   -0.006124   -0.000875   -0.002630 Ang=  -0.77 deg.
 ExpMin= 4.05D-02 ExpMax= 2.19D+04 ExpMxC= 3.30D+03 IAcc=3 IRadAn=         5 AccDes= 0.00D+00
 Harris functional with IExCor= 1009 and IRadAn=       5 diagonalized for initial guess.
 HarFok:  IExCor= 1009 AccDes= 0.00D+00 IRadAn=         5 IDoV= 1 UseB2=F ITyADJ=14
 ICtDFT=  3500011 ScaDFX=  1.000000  1.000000  1.000000  1.000000
 FoFCou: FMM=F IPFlag=           0 FMFlag=      100000 FMFlg1=           0
         NFxFlg=           0 DoJE=T BraDBF=F KetDBF=T FulRan=T
         wScrn=  0.000000 ICntrl=       500 IOpCl=  0 I1Cent=   200000004 NGrid=           0
         NMat0=    1 NMatS0=      1 NMatT0=    0 NMatD0=    1 NMtDS0=    0 NMtDT0=    0
 Petite list used in FoFCou.
 Requested convergence on RMS density matrix=1.00D-08 within 128 cycles.
 Requested convergence on MAX density matrix=1.00D-06.
 Requested convergence on             energy=1.00D-06.
 No special actions if energy rises.
 Inv3:  Mode=1 IEnd=     8009868.
 Iteration    1 A*A^-1 deviation from unit magnitude is 4.55D-15 for   1632.
 Iteration    1 A*A^-1 deviation from orthogonality  is 2.04D-15 for   1405    159.
 Iteration    1 A^-1*A deviation from unit magnitude is 4.11D-15 for   1632.
 Iteration    1 A^-1*A deviation from orthogonality  is 1.98D-15 for    996    930.
 Error on total polarization charges =  0.05758
 SCF Done:  E(RM062X) =  -950.001051794     A.U. after   15 cycles
            NFock= 15  Conv=0.24D-08     -V/T= 2.0066
 SMD-CDS (non-electrostatic) energy       (kcal/mol) =       4.34
 (included in total energy above)
 D1PCM: PCM CHGder 1st derivatives, ID1Alg=3 FixD1E=F DoIter=F DoCFld=F I1PDM=0.
 Calling FoFJK, ICntrl=      2127 FMM=F ISym2X=0 I1Cent= 0 IOpClX= 0 NMat=1 NMatS=1 NMatT=0.
 ***** Axes restored to original set *****
 -------------------------------------------------------------------
 Center     Atomic                   Forces (Hartrees/Bohr)
 Number     Number              X              Y              Z
 -------------------------------------------------------------------
      1        6           0.002896787    0.000281920    0.001243043
      2        6          -0.003820280    0.001145053   -0.003111457
      3        1           0.000202959   -0.000118186    0.000185447
      4        6          -0.004163143   -0.000162010    0.003908921
      5        1           0.000883538    0.000116262   -0.001739296
      6        6           0.015165928   -0.000921909   -0.002667629
      7        8          -0.008388653   -0.000233994    0.007319106
      8        6          -0.007569410    0.002195546   -0.011304759
      9        1           0.004263790    0.000263321   -0.005125311
     10        6          -0.002674436    0.000167347    0.001494495
     11        1           0.000266329    0.000021090   -0.000745324
     12       16           0.001241752    0.003077356    0.000337314
     13        8          -0.002255488   -0.000374819   -0.001591625
     14        8           0.000193248   -0.001693421    0.003555945
     15        7           0.000717964   -0.004610116   -0.005313428
     16        1          -0.000084397    0.002518086    0.002802576
     17        6           0.001806789   -0.001078062    0.007050817
     18        1           0.000295924    0.000005642   -0.000150386
     19        1           0.000495495   -0.000478173    0.001924656
     20        1           0.000525304   -0.000120934    0.001926896
 -------------------------------------------------------------------
 Cartesian Forces:  Max     0.015165928 RMS     0.003740901

 GradGradGradGradGradGradGradGradGradGradGradGradGradGradGradGradGradGrad
 Berny optimization.
 Using GEDIIS/GDIIS optimizer.
 FormGI is forming the generalized inverse of G from B-inverse, IUseBI=4.
 Internal  Forces:  Max     0.033727953 RMS     0.004964226
 Search for a local minimum.
 Step number   2 out of a maximum of  100
 All quantities printed in internal units (Hartrees-Bohrs-Radians)
 Mixed Optimization -- RFO/linear search
 Update second derivatives using D2CorX and points    1    2
 DE= -8.35D-03 DEPred=-1.90D-02 R= 4.39D-01
 Trust test= 4.39D-01 RLast= 3.28D-01 DXMaxT set to 3.00D-01
 ITU=  0  0
 Use linear search instead of GDIIS.
     Eigenvalues ---    0.00423   0.01366   0.01479   0.02097   0.02116
     Eigenvalues ---    0.02133   0.02152   0.02168   0.02170   0.02174
     Eigenvalues ---    0.02188   0.02209   0.03059   0.09944   0.10277
     Eigenvalues ---    0.10765   0.11786   0.15921   0.15999   0.16000
     Eigenvalues ---    0.16000   0.16000   0.16000   0.16000   0.16172
     Eigenvalues ---    0.17234   0.20203   0.21994   0.22974   0.23811
     Eigenvalues ---    0.24139   0.24940   0.25000   0.26431   0.34246
     Eigenvalues ---    0.34275   0.34696   0.34866   0.35257   0.35278
     Eigenvalues ---    0.35534   0.37957   0.41780   0.42207   0.43640
     Eigenvalues ---    0.44116   0.45997   0.46736   0.47363   0.47850
     Eigenvalues ---    0.58408   0.59633   0.78073   0.80102
 RFO step:  Lambda=-2.59115829D-03 EMin= 4.22642763D-03
 Quartic linear search produced a step of -0.29468.
 Iteration  1 RMS(Cart)=  0.07426886 RMS(Int)=  0.00196301
 Iteration  2 RMS(Cart)=  0.00400345 RMS(Int)=  0.00010021
 Iteration  3 RMS(Cart)=  0.00000913 RMS(Int)=  0.00010015
 Iteration  4 RMS(Cart)=  0.00000000 RMS(Int)=  0.00010015
 Variable       Old X    -DE/DX   Delta X   Delta X   Delta X     New X
                                 (Linear)    (Quad)   (Total)
    R1        2.62775   0.00383  -0.00007   0.00647   0.00639   2.63415
    R2        2.63232   0.00142   0.00261  -0.00086   0.00173   2.63405
    R3        3.39493  -0.00001  -0.00026   0.00029   0.00003   3.39496
    R4        2.05222  -0.00010   0.00011  -0.00035  -0.00023   2.05198
    R5        2.63089  -0.00230   0.00220  -0.00595  -0.00374   2.62715
    R6        2.05148   0.00022  -0.00099   0.00165   0.00066   2.05214
    R7        2.63629   0.00248   0.00119   0.00188   0.00309   2.63937
    R8        2.59820  -0.01808  -0.00608  -0.01632  -0.02240   2.57581
    R9        2.67237  -0.01469  -0.00697  -0.01442  -0.02139   2.65098
   R10        2.69340  -0.00364  -0.00034  -0.00567  -0.00601   2.68738
   R11        2.03668   0.00601   0.00457   0.00625   0.01082   2.04750
   R12        2.62794   0.00136  -0.00216   0.00445   0.00228   2.63022
   R13        2.05310  -0.00019  -0.00025  -0.00008  -0.00033   2.05277
   R14        2.82825   0.00126  -0.00388   0.00643   0.00255   2.83079
   R15        2.81903   0.00196   0.00255  -0.00172   0.00083   2.81985
   R16        2.95761  -0.00129   0.00036  -0.00203  -0.00167   2.95593
   R17        1.93184   0.00162   0.00093   0.00140   0.00233   1.93417
   R18        2.05911   0.00003  -0.00006   0.00014   0.00008   2.05920
   R19        2.06684   0.00073   0.00055   0.00082   0.00137   2.06821
   R20        2.06690   0.00072   0.00052   0.00082   0.00134   2.06825
    A1        2.09215   0.00038   0.00134   0.00199   0.00331   2.09546
    A2        2.09564   0.00028  -0.00057   0.00014  -0.00042   2.09522
    A3        2.09335  -0.00065  -0.00086  -0.00212  -0.00297   2.09038
    A4        2.09902   0.00125  -0.00015   0.00234   0.00218   2.10120
    A5        2.10326  -0.00304  -0.00030  -0.00642  -0.00672   2.09653
    A6        2.08087   0.00179   0.00046   0.00411   0.00456   2.08543
    A7        2.08669   0.00321  -0.00093   0.01267   0.01174   2.09843
    A8        2.09906  -0.00243  -0.00512  -0.00144  -0.00653   2.09253
    A9        2.09742  -0.00078   0.00604  -0.01123  -0.00520   2.09222
   A10        2.01545   0.00578   0.04335  -0.03242   0.01092   2.02637
   A11        2.07730   0.00774   0.00636   0.01292   0.01930   2.09660
   A12        2.19044  -0.01353  -0.04971   0.01950  -0.03023   2.16021
   A13        2.16422  -0.03373  -0.03321  -0.05631  -0.08952   2.07471
   A14        2.11567  -0.00128  -0.01135   0.00400  -0.00734   2.10833
   A15        2.09839  -0.00336  -0.00105  -0.01115  -0.01220   2.08618
   A16        2.06912   0.00463   0.01239   0.00715   0.01955   2.08867
   A17        2.09618   0.00070  -0.00124   0.00411   0.00285   2.09903
   A18        2.09392   0.00043   0.00131   0.00068   0.00200   2.09592
   A19        2.09306  -0.00113  -0.00007  -0.00479  -0.00485   2.08821
   A20        1.82043  -0.00167   0.00454  -0.01278  -0.00787   1.81256
   A21        1.83322   0.00458  -0.00640   0.02505   0.01888   1.85210
   A22        1.92449  -0.00208  -0.00011  -0.00550  -0.00533   1.91916
   A23        1.95957  -0.00123   0.00657  -0.01060  -0.00432   1.95525
   A24        2.00049   0.00376  -0.03055   0.03994   0.00933   2.00982
   A25        1.91592  -0.00317   0.02606  -0.03541  -0.00947   1.90645
   A26        1.86897   0.00307   0.00348   0.01000   0.01348   1.88245
   A27        1.82930   0.00192   0.00515   0.00698   0.01213   1.84143
   A28        1.94414  -0.00188  -0.00318  -0.00701  -0.01025   1.93390
   A29        1.94399  -0.00183  -0.00324  -0.00676  -0.01006   1.93393
   A30        1.90743   0.00126   0.00228   0.00692   0.00920   1.91663
   A31        1.90760   0.00123   0.00222   0.00678   0.00900   1.91660
   A32        1.92842  -0.00046  -0.00272  -0.00563  -0.00846   1.91996
    D1       -3.14064   0.00001  -0.00027  -0.00037  -0.00064  -3.14129
    D2       -0.00897   0.00008  -0.00013   0.00200   0.00187  -0.00711
    D3        0.06960  -0.00009   0.00128  -0.00052   0.00077   0.07036
    D4       -3.08192  -0.00002   0.00143   0.00185   0.00327  -3.07864
    D5        0.01034  -0.00005   0.00030  -0.00095  -0.00065   0.00970
    D6       -3.13942  -0.00003   0.00024  -0.00021   0.00004  -3.13938
    D7        3.08338   0.00009  -0.00124  -0.00071  -0.00195   3.08143
    D8       -0.06639   0.00011  -0.00130   0.00003  -0.00127  -0.06765
    D9       -0.53052   0.00095  -0.01528   0.00732  -0.00791  -0.53843
   D10        1.53358   0.00081  -0.00874   0.00064  -0.00813   1.52545
   D11       -2.68658  -0.00139   0.01838  -0.02976  -0.01139  -2.69797
   D12        2.67977   0.00081  -0.01381   0.00701  -0.00676   2.67301
   D13       -1.53932   0.00067  -0.00727   0.00033  -0.00697  -1.54629
   D14        0.52371  -0.00153   0.01985  -0.03007  -0.01024   0.51347
   D15       -3.13462  -0.00005  -0.00004  -0.00184  -0.00188  -3.13650
   D16        0.00391  -0.00004  -0.00015  -0.00159  -0.00174   0.00217
   D17       -0.00285   0.00002   0.00010   0.00049   0.00059  -0.00226
   D18        3.13568   0.00003  -0.00001   0.00074   0.00074   3.13642
   D19       -3.13925   0.00000   0.00036   0.00036   0.00073  -3.13852
   D20       -0.00021  -0.00002   0.00025   0.00017   0.00041   0.00021
   D21       -0.00074   0.00002   0.00024   0.00066   0.00091   0.00016
   D22        3.13830  -0.00000   0.00012   0.00047   0.00059   3.13889
   D23        3.13897   0.00004  -0.00038   0.00006  -0.00031   3.13866
   D24        0.00012   0.00003  -0.00035   0.00029  -0.00007   0.00005
   D25       -3.13719  -0.00002   0.00003  -0.00035  -0.00031  -3.13750
   D26        0.00161   0.00003  -0.00007   0.00080   0.00073   0.00234
   D27        0.00157  -0.00001   0.00006  -0.00065  -0.00058   0.00099
   D28        3.14037   0.00004  -0.00004   0.00050   0.00046   3.14084
   D29       -3.14108  -0.00000  -0.00011  -0.00092  -0.00103   3.14107
   D30        1.08142  -0.00167  -0.00420  -0.00966  -0.01378   1.06764
   D31       -1.08028   0.00165   0.00387   0.00778   0.01158  -1.06870
   D32       -0.00669   0.00001  -0.00019  -0.00041  -0.00060  -0.00729
   D33       -3.14012  -0.00002  -0.00014  -0.00117  -0.00131  -3.14143
   D34        3.13219   0.00005  -0.00033   0.00071   0.00039   3.13258
   D35       -0.00124   0.00002  -0.00028  -0.00006  -0.00033  -0.00156
   D36        0.92327   0.00063  -0.01405   0.03095   0.01679   0.94006
   D37       -1.12426   0.00178  -0.00109   0.02513   0.02458  -1.09968
   D38        2.93480   0.00315  -0.00614   0.03766   0.03109   2.96589
         Item               Value     Threshold  Converged?
 Maximum Force            0.033728     0.000450     NO 
 RMS     Force            0.004964     0.000300     NO 
 Maximum Displacement     0.334804     0.001800     NO 
 RMS     Displacement     0.076969     0.001200     NO 
 Predicted change in Energy=-2.345240D-03
 GradGradGradGradGradGradGradGradGradGradGradGradGradGradGradGradGradGrad

                          Input orientation:                          
 ---------------------------------------------------------------------
 Center     Atomic      Atomic             Coordinates (Angstroms)
 Number     Number       Type             X           Y           Z
 ---------------------------------------------------------------------
      1          6           0       -1.337734    0.780674   -0.923265
      2          6           0       -2.501879    0.962455   -1.668090
      3          1           0       -3.470498    0.981097   -1.177655
      4          6           0       -2.429324    1.130295   -3.046240
      5          1           0       -3.334759    1.276769   -3.627624
      6          6           0       -1.187373    1.113990   -3.685030
      7          8           0       -1.205815    1.289379   -5.036632
      8          6           0       -0.014120    0.928416   -2.938708
      9          1           0        0.955283    0.917678   -3.422541
     10          6           0       -0.097907    0.758242   -1.559841
     11          1           0        0.809408    0.614554   -0.980068
     12         16           0       -1.439485    0.467378    0.842813
     13          8           0       -2.675245    1.200437    1.266488
     14          8           0       -1.585705   -1.009958    0.993699
     15          7           0       -0.119482    0.928744    1.543880
     16          1           0        0.047943    1.905088    1.286376
     17          6           0        0.026563    1.286646   -5.746288
     18          1           0       -0.238974    1.440944   -6.791795
     19          1           0        0.539100    0.326466   -5.631496
     20          1           0        0.674049    2.099975   -5.404057
 ---------------------------------------------------------------------
                    Distance matrix (angstroms):
                    1          2          3          4          5
     1  C    0.000000
     2  C    1.393930   0.000000
     3  H    2.157212   1.085862   0.000000
     4  C    2.412639   1.390228   2.144275   0.000000
     5  H    3.398202   2.152268   2.471477   1.085944   0.000000
     6  C    2.785866   2.412247   3.393707   1.396696   2.154312
     7  O    4.146802   3.624050   4.485034   2.341781   2.553011
     8  C    2.415739   2.793668   3.879515   2.426011   3.409193
     9  H    3.394566   3.877122   4.962970   3.412092   4.309926
    10  C    1.393881   2.415058   3.401485   2.789859   3.875798
    11  H    2.154308   3.399858   4.300115   3.876138   4.962077
    12  S    1.796535   2.770995   2.910534   4.067428   4.922599
    13  O    2.600030   2.949312   2.579607   4.320304   4.938940
    14  O    2.634883   3.437282   3.497359   4.649031   5.444717
    15  N    2.755516   3.999213   4.317268   5.142489   6.099474
    16  H    2.840233   4.014850   4.393704   5.050616   5.998738
    17  C    5.037744   4.809348   5.761529   3.653230   3.973326
    18  H    6.006902   5.621570   6.494057   4.350093   4.429764
    19  H    5.088836   5.035933   6.028442   4.017615   4.463783
    20  H    5.085796   5.033679   6.024254   4.016279   4.461381
                    6          7          8          9         10
     6  C    0.000000
     7  O    1.363059   0.000000
     8  C    1.402839   2.439614   0.000000
     9  H    2.167582   2.722828   1.083490   0.000000
    10  C    2.414523   3.687498   1.391853   2.145759   0.000000
    11  H    3.399028   4.579544   2.147785   2.465530   1.086280
    12  S    4.580723   5.941225   4.067446   4.912324   2.767160
    13  O    5.170954   6.472747   4.983900   5.936976   3.850499
    14  O    5.153671   6.464995   4.657360   5.447530   3.443928
    15  N    5.340056   6.679319   4.483826   5.081395   3.108475
    16  H    5.183312   6.475449   4.336943   4.896136   3.072048
    17  C    2.398383   1.422103   2.830635   2.529518   4.221498
    18  H    3.264713   2.009565   3.893523   3.612745   5.278193
    19  H    2.718388   2.079854   2.814161   2.324268   4.143740
    20  H    2.718844   2.079893   2.814973   2.324505   4.144172
                   11         12         13         14         15
    11  H    0.000000
    12  S    2.898633   0.000000
    13  O    4.187253   1.497992   0.000000
    14  O    3.503051   1.492203   2.479386   0.000000
    15  N    2.707741   1.564213   2.585090   2.492203   0.000000
    16  H    2.716998   2.115704   2.812949   3.354394   1.023517
    17  C    4.876619   6.799761   7.515733   7.300770   7.300409
    18  H    5.963069   7.789498   8.421947   8.272516   8.352251
    19  H    4.668174   6.771360   7.660158   7.084775   7.230663
    20  H    4.668670   6.793804   7.518186   7.463877   7.090507
                   16         17         18         19         20
    16  H    0.000000
    17  C    7.059837   0.000000
    18  H    8.096579   1.089679   0.000000
    19  H    7.112682   1.094449   1.787107   0.000000
    20  H    6.722491   1.094470   1.787106   1.793119   0.000000
 Stoichiometry    C7H8NO3S(1-)
 Framework group  C1[X(C7H8NO3S)]
 Deg. of freedom    54
 Full point group                 C1      NOp   1
 Largest Abelian subgroup         C1      NOp   1
 Largest concise Abelian subgroup C1      NOp   1
                         Standard orientation:                         
 ---------------------------------------------------------------------
 Center     Atomic      Atomic             Coordinates (Angstroms)
 Number     Number       Type             X           Y           Z
 ---------------------------------------------------------------------
[...]
 0326519,0.00642917,0.00003956,-0.00095822,-0.00001573,0.00370080,0.007
 71325,-0.00669882,-0.00033097,0.00505695,0.00067105,0.00536697,-0.0672
 6556,0.01196632,0.00403049,0.00829212,0.00630804,0.00141166,0.13067430
 ,0.08529198,0.00230855,-0.02314870,-0.03384483,0.00575518,-0.05805216,
 -0.00047207,-0.00006129,-0.00088290,-0.03019167,-0.00623092,0.06516143
 ,0.00337948,0.00067946,-0.00105502,-0.04062374,0.01187701,-0.16958747,
 -0.03595517,0.00616629,-0.04649361,-0.03612632,-0.06350311,0.69473269,
 0.00190232,0.00006945,-0.00041878,0.00007506,0.00011157,-0.00107252,-0
 .00001915,-0.00001462,0.00010932,-0.00267352,0.00042282,-0.00346337,-0
 .00080330,-0.00007428,0.00069699,-0.01712131,-0.00132133,0.01261794,0.
 00081490,-0.00020129,0.00168796,-0.30206955,-0.01166249,0.11396206,0.3
 1406717,0.00013828,0.00655864,0.00122516,0.00011063,-0.00091292,-0.000
 01271,-0.00002633,-0.00080990,-0.00010085,0.00036698,0.00581373,0.0008
 9920,0.00010312,-0.00019040,-0.00007511,0.00180949,0.00373616,-0.00107
 318,-0.00024519,-0.00251635,-0.00039103,-0.01176685,-0.03476886,0.0080
 7040,0.01274016,0.02535013,-0.00050532,0.00140121,-0.00517644,-0.00061
 136,0.00001435,-0.00089287,0.00010202,-0.00010379,0.00010756,-0.002964
 54,0.00087604,-0.00194159,-0.00090647,-0.00006621,0.00044845,-0.015127
 31,-0.00097820,0.01304144,0.00203783,-0.00034308,0.00046528,0.11491202
 ,0.00798104,-0.11113855,-0.12454560,-0.01006718,0.11995050,-0.31169546
 ,-0.01114196,0.11907424,-0.05964452,0.00361279,-0.03354113,-0.00268214
 ,0.00033968,-0.00334198,-0.02503657,-0.00373468,0.03590224,-0.00005756
 ,-0.00008635,0.00062044,0.05229970,0.00282743,-0.02647681,-0.00886409,
 0.00029864,-0.00295148,-0.12748199,0.00293743,-0.02276783,0.00387027,-
 0.00320009,0.02822503,0.74057037,-0.00485323,-0.05929087,0.01155598,-0
 .00177301,0.00789433,-0.00577263,0.00053943,0.00588875,0.00083345,-0.0
 0314730,-0.00316319,0.00467519,-0.00012533,-0.00086044,-0.00002443,0.0
 0849813,-0.00050076,0.00373477,-0.00022599,0.00709573,0.00033283,-0.00
 480325,-0.06187287,0.03247303,0.00015571,0.00255319,0.00130769,-0.0072
 9815,0.14435427,0.06054341,0.01267199,-0.16084624,0.02184981,-0.006146
 30,0.06656946,-0.00393926,0.00087952,-0.00185018,0.03101945,0.00511960
 ,-0.05077554,0.00122351,-0.00002457,-0.00068833,-0.08560631,0.00393050
 ,-0.03302470,0.00349229,0.00028009,0.00561525,0.05036808,0.03156209,-0
 .34074596,-0.00117945,0.00137287,-0.00980138,0.02843824,-0.06356760,0.
 69173979,-0.01844643,0.00186098,-0.01447076,-0.00345740,-0.00036754,0.
 00359813,-0.00079848,0.00010013,-0.00084302,0.00027167,-0.00008596,0.0
 0077957,0.00001222,0.00001230,-0.00012831,0.00126224,-0.00018533,0.001
 81807,0.00037207,-0.00000101,0.00013977,0.00685284,-0.00044677,0.00331
 580,0.00061726,0.00000715,-0.00026013,-0.26469882,0.01635562,-0.131997
 00,0.27816856,-0.00093679,0.00423467,-0.00101019,-0.00031416,0.0062371
 0,0.00070586,-0.00008099,0.00020777,-0.00001097,-0.00013335,-0.0011499
 4,0.00001614,0.00000541,-0.00063993,-0.00007859,-0.00007514,0.00733321
 ,0.00125568,0.00014155,-0.00033294,0.00013092,0.00276106,0.00439033,0.
 00168203,-0.00004158,-0.00426630,-0.00067721,0.01630458,-0.04097345,0.
 01253567,-0.01760296,0.02882541,0.00972106,-0.00102582,0.01237437,0.00
 318863,0.00087668,-0.00126727,0.00072830,-0.00002242,0.00065060,0.0005
 5675,-0.00004624,-0.00074167,-0.00011918,-0.00008494,0.00005802,0.0019
 9864,0.00126102,-0.00377843,-0.00141476,0.00011600,-0.00144991,-0.0249
 7365,0.00198772,-0.01180180,0.00012319,-0.00065795,0.00157950,-0.13223
 544,0.01221727,-0.14109945,0.14149398,-0.01420312,0.14644077,-0.068489
 09,-0.00237701,0.00764355,0.00980172,0.00275740,-0.01786458,-0.0023840
 2,0.00019743,-0.00109077,-0.00336925,0.00086656,-0.00494527,0.00023420
 ,0.00009322,-0.00125493,-0.00408674,-0.00020326,0.00108297,0.00025641,
 0.00016915,-0.00149610,-0.00412701,0.00006679,0.00241123,0.00020447,-0
 .00002213,0.00088631,0.00561754,-0.00334493,0.01721477,-0.00302227,-0.
 00012675,0.00149305,0.69190771,-0.00126875,-0.05102632,0.01470860,0.00
 137515,-0.00228992,0.00063108,0.00023923,-0.00211505,-0.00013012,0.000
 29176,0.00495861,-0.00072802,-0.00005690,0.00053884,-0.00025849,0.0001
 7114,-0.00058745,0.00170789,0.00023365,-0.00027379,-0.00225304,0.00005
 596,0.00645875,-0.00080317,0.00006853,0.00049871,-0.00026187,-0.002144
 76,-0.00111862,0.00097799,-0.00001556,-0.00289331,-0.00006716,-0.00037
 733,0.74357405,0.00076300,0.01396275,-0.15486344,-0.01302991,0.0021286
 6,-0.02049789,0.00141074,-0.00012519,-0.00028588,-0.00387904,-0.000414
 83,0.00934212,0.00050781,-0.00005264,0.00164673,-0.00002122,0.00157218
 ,-0.01390854,-0.00177703,-0.00200082,0.01740663,0.00054985,-0.00032548
 ,0.00891639,-0.00044288,-0.00005041,0.00183932,0.01724929,0.00134235,-
 0.01561880,-0.00252682,-0.00018723,-0.00116471,0.02039211,0.02222459,0
 .47263632,-0.00387108,0.01315421,0.00179846,-0.00296069,-0.00076092,-0
 .00009012,0.00119958,0.00052049,-0.00002796,0.00042309,-0.00101258,0.0
 0143859,0.00003260,-0.00010348,0.00039035,-0.00002190,0.00029284,-0.00
 246196,-0.00016035,-0.00020238,0.00303579,-0.00008992,-0.00136527,0.00
 112069,-0.00002610,-0.00014458,0.00045182,0.00213768,0.00029768,0.0032
 1881,0.00059552,0.00068998,-0.00033568,-0.22491999,0.15848443,0.066740
 31,0.24820335,0.00962686,0.00026912,0.00242986,0.00105830,0.00090996,0
 .00056751,-0.00014040,-0.00017888,0.00019292,0.00003322,0.00007630,-0.
 00088703,-0.00003066,0.00001710,-0.00025473,-0.00022752,-0.00024167,0.
 00126522,0.00014707,0.00018968,-0.00168494,0.00103297,-0.00000604,-0.0
 0043151,-0.00000886,0.00008394,-0.00044773,-0.00141652,0.00063113,-0.0
 0461689,-0.00038022,-0.00006054,0.00008107,0.15184219,-0.22299697,-0.0
 6899390,-0.19579347,0.25755549,0.02678011,-0.02076862,-0.00730256,0.00
 141125,-0.00065972,-0.00078066,0.00078805,-0.00026912,-0.00037756,0.00
 079006,0.00046725,-0.00043057,-0.00014276,0.00001588,-0.00039391,0.001
 62811,-0.00039423,0.00370752,0.00043846,0.00047840,-0.00481810,0.00106
 424,0.00200371,-0.00311461,0.00000731,0.00040713,-0.00085988,-0.005926
 51,-0.00149338,-0.00427964,0.00032823,-0.00070625,0.00028242,0.0657055
 2,-0.06993007,-0.10627137,-0.07976873,0.08645424,0.09674702,0.00568395
 ,-0.00870359,-0.00023435,-0.00199430,-0.00035171,0.00024495,0.00041208
 ,-0.00050991,0.00013771,-0.00027164,0.00046940,0.00174978,0.00000490,0
 .00005893,0.00026572,0.00083452,0.00028584,-0.00137112,-0.00017956,-0.
 00034850,0.00180266,0.00023419,0.00090947,0.00018881,-0.00004593,-0.00
 004455,0.00013695,0.00019089,-0.00001150,0.00083752,0.00031597,-0.0005
 3196,-0.00010843,-0.10642238,-0.11075690,0.01532120,0.00842061,0.02531
 401,0.00104155,0.11745237,-0.01054961,-0.01151612,-0.00151734,-0.00223
 189,0.00019896,0.00086195,0.00009320,-0.00044276,-0.00026291,-0.000042
 87,0.00067024,0.00138257,0.00007490,-0.00002493,0.00048649,-0.00059590
 ,0.00032903,-0.00305018,-0.00032287,-0.00056984,0.00391033,-0.00057988
 ,0.00103168,0.00229471,-0.00002877,0.00009975,0.00070285,0.00316238,-0
 .00178212,0.00424172,0.00035222,-0.00074168,-0.00018302,-0.10954910,-0
 .37745845,0.04271537,-0.00479952,-0.04116512,-0.00116911,0.14082709,0.
 44900088,0.01289538,0.02575433,-0.00299332,0.00241127,0.00094831,0.000
 58262,-0.00006613,0.00036717,0.00017551,0.00071324,-0.00102410,-0.0010
 8119,-0.00011847,-0.00001222,-0.00035314,0.00116533,-0.00047862,0.0036
 5653,0.00038759,0.00066690,-0.00471711,-0.00017741,-0.00168511,-0.0030
 4221,0.00005062,-0.00020248,-0.00060973,-0.00448264,0.00231952,-0.0009
 1751,0.00029248,0.00083160,0.00023554,0.01714844,0.04991362,-0.0808705
 5,0.00059686,-0.01162651,0.01409979,-0.01518235,-0.04895318,0.06530037
 ,-0.00839294,-0.00189141,0.00038346,0.00285019,0.00037545,-0.00395350,
 0.00042906,-0.00009691,0.00021983,-0.00059694,0.00015802,-0.00082854,0
 .00003331,0.00007851,-0.00052268,0.00013850,-0.00025050,0.00217814,0.0
 0043754,0.00023774,-0.00237200,0.00131168,0.00032050,-0.00094402,0.000
 03025,0.00004205,-0.00032916,-0.00350983,-0.00002253,0.00235982,0.0021
 3333,-0.00016904,0.00018563,-0.26647048,-0.00859469,-0.10085949,-0.036
 25216,0.00741266,-0.01338624,-0.02041843,-0.01246409,-0.01031686,0.376
 94819,0.00135704,0.00880045,0.00155923,-0.00003333,0.00117977,0.000176
 19,0.00001924,0.00020987,-0.00002063,0.00001493,-0.00045412,0.00010347
 ,-0.00000668,-0.00025321,-0.00000670,0.00007645,-0.00012350,-0.0000092
 3,-0.00000203,0.00002534,0.00003125,0.00010089,-0.00078068,-0.00010395
 ,-0.00000404,0.00001983,-0.00000474,-0.00026356,0.00050754,0.00036487,
 0.00016673,-0.00007504,-0.00000991,-0.05049024,-0.08416525,-0.01816513
 ,0.02793340,0.00417471,0.00525962,-0.04518530,-0.02008953,-0.01667999,
 0.14278415,0.48764393,-0.02752001,-0.00426003,-0.00350663,0.00570312,-
 0.00025466,-0.00640512,-0.00021647,-0.00019215,0.00028262,-0.00200038,
 0.00085534,-0.00216260,0.00006918,0.00022448,-0.00096684,-0.00038205,-
 0.00044723,0.00272523,0.00041014,0.00042169,-0.00389937,-0.00121808,0.
 00070410,-0.00107821,0.00008757,0.00002590,-0.00036937,-0.00056916,-0.
 00027691,-0.00192742,-0.00204309,-0.00004670,-0.00003210,-0.09596237,0
 .00013720,-0.10902873,0.00398089,-0.00150393,0.01433475,-0.00166919,-0
 .00063018,0.00518495,0.13031587,0.01313765,0.11667126,0.00002663,0.001
 23934,0.00057912,-0.00027620,0.00013093,-0.00019145,-0.00000627,0.0000
 0002,-0.00002987,-0.00013811,-0.00007857,0.00027627,0.00000252,-0.0000
 2233,0.00002564,0.00018507,0.00001821,-0.00021944,-0.00004959,-0.00001
 514,0.00030822,-0.00009852,-0.00014185,-0.00012064,-0.00000572,-0.0000
 0903,0.00002478,0.00043069,-0.00006590,-0.00001409,-0.00014912,0.00008
 779,-0.00008585,-0.02465223,-0.03740052,-0.00276316,0.00689003,0.00175
 396,-0.00004336,-0.00442799,-0.00388696,-0.00464630,-0.04834383,-0.076
 46735,-0.00845726,0.07057552,0.00100753,0.00019956,0.00044056,-0.00034
 772,0.00025922,0.00014559,0.00000609,0.00001516,-0.00001515,-0.0000114
 7,-0.00015353,0.00026705,0.00000358,-0.00002082,0.00004878,0.00015866,
 0.00014101,-0.00020221,-0.00003371,-0.00006432,0.00031657,0.00008513,-
 0.00007189,-0.00004491,-0.00000709,-0.00000517,0.00002761,0.00006640,0
 .00029742,0.00016866,0.00022718,-0.00011384,-0.00021200,0.01053252,-0.
 01085737,0.00622303,0.00271515,0.00075340,0.00042359,-0.00139220,0.002
 48854,-0.00018497,-0.12790114,-0.39669718,-0.00781780,0.11485220,0.403
 82106,0.00057469,0.00239638,-0.00002102,-0.00014024,0.00041105,0.00025
 215,0.00002098,0.00010701,0.00001505,0.00006800,-0.00031244,0.00013440
 ,0.00000369,-0.00008419,0.00003740,0.00000658,0.00006898,-0.00017629,-
 0.00001590,-0.00005430,0.00031016,0.00017695,-0.00009343,0.00008634,-0
 .00000526,0.00000918,0.00003262,-0.00006325,0.00010696,-0.00006337,0.0
 0051077,-0.00020534,-0.00059203,-0.01142612,-0.01605156,-0.00755764,0.
 00020616,-0.00067408,-0.00101214,-0.00299875,-0.00045024,0.00484760,-0
 .00234486,0.01436310,-0.01016510,0.01538574,0.00044343,0.01389524,0.00
 129775,0.00003019,-0.00287728,0.00010752,0.00008753,-0.00077111,0.0001
 3299,0.00004639,-0.00043453,0.00145000,0.00064479,-0.00513611,0.000176
 92,-0.00001369,-0.00000132,0.00269147,-0.00212323,0.01689480,-0.213868
 56,-0.00587044,0.06987934,0.00172664,0.00105496,-0.00993428,0.00021843
 ,0.00008513,-0.00109600,-0.00209887,-0.00019780,0.00238443,-0.00002993
 ,0.00004041,-0.00038960,-0.00027698,-0.00054021,0.00416845,0.00070307,
 -0.00038705,-0.00120465,0.00040442,0.00093693,-0.00115188,-0.00058120,
 0.00001084,-0.00095459,0.00006913,0.00007220,0.00007461,0.50568682,-0.
 00003411,0.00009506,-0.00016350,-0.00012976,0.00154709,0.00027986,0.00
 000923,-0.00029798,-0.00000869,0.00045206,0.00277716,0.00052308,-0.000
 01401,-0.00059501,-0.00008816,-0.00456855,-0.00543475,0.00398866,-0.00
 224219,-0.06048308,0.00447683,-0.00013003,-0.00060117,-0.00006328,-0.0
 0015589,-0.00132698,0.00023197,-0.00016119,0.00052419,0.00011678,0.000
 00388,-0.00005756,-0.00003770,-0.00004554,-0.00028185,0.00017768,0.000
 11115,-0.00002339,-0.00012978,-0.00003171,-0.00003459,0.00004515,-0.00
 002515,0.00007901,-0.00008871,0.00000729,0.00000972,0.00002076,-0.0067
 3061,0.59986912,-0.00007724,-0.00001166,0.00177254,0.00134314,0.000241
 73,-0.00062680,-0.00012085,-0.00000816,-0.00020451,-0.00377561,0.00048
 398,-0.00145064,0.00007552,-0.00008895,0.00019230,0.03829681,0.0036232
 9,-0.03972216,0.03740454,0.00498472,-0.10854711,0.00093055,-0.00016868
 ,0.00136180,0.00135612,0.00022350,-0.00356605,0.00186497,0.00012023,-0
 .00083325,-0.00001808,-0.00004468,0.00033951,0.00017211,0.00024405,-0.
 00219017,-0.00037836,0.00019664,0.00058752,-0.00022958,-0.00049268,0.0
 0060697,0.00027934,0.00000297,0.00047871,-0.00003832,-0.00003947,-0.00
 003630,0.07077166,-0.00231252,0.61081905,0.00013529,0.00001395,0.00011
 278,-0.00054429,0.00001268,-0.00013921,0.00000122,-0.00001757,0.000148
 36,0.00023430,-0.00020123,0.00176095,-0.00001565,0.00000885,-0.0000562
 0,-0.00495567,0.00000245,0.00062424,-0.00029115,-0.00476050,0.04399192
 ,-0.00109942,0.00002673,-0.00021279,0.00077136,0.00004246,-0.00040494,
 0.00045463,-0.00001467,0.00005274,-0.00000762,-0.00000661,0.00005767,0
 .00005231,0.00004706,-0.00035222,-0.00005075,0.00002676,0.00009149,-0.
 00003735,-0.00007206,0.00009111,0.00005340,-0.00000053,0.00008515,-0.0
 0000682,-0.00000706,-0.00000567,-0.06841434,0.00900503,-0.08238460,0.0
 7770275,-0.00000450,-0.00007251,0.00002079,-0.00002851,0.00000114,0.00
 000118,-0.00000106,-0.00004763,0.00000295,0.00001400,0.00023376,0.0001
 2410,-0.00000211,0.00000121,-0.00000091,-0.00025559,0.00069888,-0.0002
 6109,-0.00028980,0.00013396,0.00192300,0.00000908,0.00011327,0.0000300
 1,-0.00001780,-0.00013653,-0.00001415,0.00001082,0.00014056,0.00000419
 ,-0.00000033,0.00003597,0.00000814,0.00000493,-0.00000653,-0.00005465,
 -0.00000598,0.00000533,0.00000411,-0.00000633,-0.00001647,0.00002544,0
 .00000554,0.00000096,0.00001307,0.00000011,-0.00000125,-0.00000161,0.0
 0738935,-0.05649244,0.02887121,-0.00735640,0.05087684,-0.00001768,-0.0
 0000834,-0.00026691,0.00033759,0.00000252,0.00004638,0.00000029,0.0000
 0582,-0.00009011,-0.00010983,0.00014673,-0.00109119,0.00002137,-0.0000
 0290,0.00001524,0.00272854,-0.00031916,0.00308893,0.00279069,0.0023405
 1,-0.02126772,-0.00002192,0.00001497,-0.00006759,0.00012275,-0.0000213
 0,0.00005826,-0.00008498,0.00002106,0.00004219,0.00000253,0.00000867,-
 0.00004158,-0.00004298,-0.00006500,0.00046755,0.00007827,-0.00005062,-
 0.00013969,0.00004734,0.00010984,-0.00012474,-0.00006389,0.00000062,-0
 .00011989,0.00000715,0.00000941,0.00001002,-0.06736284,0.02873435,-0.3
 1445608,0.06606533,-0.03235585,0.34218042,0.00018950,0.00000701,0.0005
 9407,-0.00012473,-0.00017172,-0.00040165,-0.00002168,0.00003895,0.0000
 6345,-0.00055132,-0.00053659,0.00119059,0.00006645,0.00013277,-0.00000
 190,0.00044475,0.00133399,-0.00670995,-0.03140256,0.02454484,0.0081673
 8,0.00068446,-0.00041008,0.00072110,0.00008382,0.00001536,-0.00000102,
 0.00009125,-0.00001011,-0.00013419,0.00000407,-0.00001672,0.00005686,0
 .00007451,0.00012178,-0.00071847,-0.00012939,0.00006741,0.00020373,-0.
 00007590,-0.00015808,0.00018665,0.00009981,-0.00000923,0.00017144,-0.0
 0001337,-0.00001343,-0.00001582,-0.11265317,0.10971787,-0.02068909,-0.
 00194715,0.00617408,-0.00161194,0.13436114,0.00018837,-0.00005276,-0.0
 0010690,-0.00011696,-0.00003267,-0.00007860,0.00000303,0.00001610,-0.0
 0001691,-0.00008184,-0.00026368,-0.00023117,-0.00002413,0.00002176,0.0
 0002017,0.00005768,0.00074147,0.00050792,0.00033824,0.00914968,-0.0033
 4880,0.00105006,-0.00016869,-0.00010122,-0.00059547,0.00027353,0.00006
 833,-0.00046076,-0.00024084,0.00029551,-0.00000165,0.00002655,-0.00000
 645,-0.00001464,0.00001472,0.00016939,0.00000924,0.00000051,-0.0000243
 8,0.00001837,0.00003608,-0.00005590,-0.00002419,-0.00000014,-0.0000186
 8,0.00000205,0.00000119,0.00000005,0.11461548,-0.25376503,0.03549515,-
 0.00038220,-0.00051370,0.00024820,-0.12704370,0.26428680,-0.00082213,0
 .00009871,-0.00003048,0.00041896,0.00006404,0.00077745,0.00000561,-0.0
 0004784,-0.00000549,0.00060544,0.00061237,-0.00097229,-0.00004391,-0.0
 0009278,-0.00000002,0.00057592,-0.00221666,0.00383340,0.01664495,-0.01
 558365,-0.00134312,-0.00096152,-0.00067325,-0.00003523,0.00009507,-0.0
 0098949,-0.00169183,0.00049602,0.00051259,-0.00067434,0.00000434,-0.00
 004977,-0.00000431,-0.00003813,-0.00008496,0.00000880,0.00002360,-0.00
 000951,-0.00001826,-0.00000062,-0.00001392,0.00003425,-0.00000635,0.00
 000362,-0.00001446,0.00000292,0.00000122,0.00000402,-0.02387396,0.0398
 5971,-0.06011552,-0.01473029,0.02659016,-0.00136486,0.01687902,-0.0380
 0096,0.05944552,0.00017987,-0.00004718,0.00058414,-0.00012381,0.000254
 31,-0.00034315,-0.00002193,-0.00005319,0.00005576,-0.00053100,0.000249
 18,0.00128400,0.00006572,-0.00012735,-0.00003156,0.00041699,0.00017557
 ,-0.00688233,-0.03183090,-0.02500922,0.00290390,0.00069068,0.00020441,
 0.00080221,0.00010926,-0.00000206,-0.00002490,0.00010683,0.00004713,-0
 .00013259,0.00000430,0.00000528,0.00005883,0.00007157,0.00006693,-0.00
 073252,-0.00012318,0.00006930,0.00019415,-0.00008040,-0.00016511,0.000
 20308,0.00010053,-0.00000138,0.00016931,-0.00001183,-0.00001282,-0.000
 01229,-0.11674211,-0.10503777,-0.04478303,-0.00203505,-0.00563949,-0.0
 0288581,0.01081952,0.01246303,0.00472506,0.13893494,-0.00001246,-0.000
 01343,0.00009087,0.00002677,-0.00000825,-0.00007937,-0.00000363,0.0000
 0145,0.00001737,-0.00002984,-0.00021360,0.00035986,0.00003203,0.000009
 06,-0.00001811,-0.00019139,0.00050252,-0.00109955,-0.00315951,0.005315
 05,0.00465198,-0.00084613,-0.00027236,0.00000670,0.00056528,-0.0000542
 1,0.00035307,0.00034787,-0.00008397,-0.00016670,0.00000114,0.00001350,
 0.00000885,0.00002074,0.00002720,-0.00014571,-0.00002039,0.00000594,0.
 00003073,-0.00000895,-0.00001356,0.00003106,0.00002502,-0.00000276,0.0
 0001758,-0.00000424,-0.00000093,0.00000031,-0.10915117,-0.22550751,-0.
 07132065,0.00363284,0.00504517,0.00118046,-0.01378441,-0.01953089,-0.0
 0997963,0.12256042,0.23478158,-0.00082681,-0.00006071,-0.00002983,0.00
 042867,-0.00023448,0.00073836,0.00000555,0.00005122,0.00000859,0.00059
 447,-0.00045093,-0.00102764,-0.00003710,0.00009449,0.00001708,0.000565
 66,0.00142147,0.00406379,0.01652348,0.01668635,0.00309920,-0.00113470,
 0.00059714,-0.00001460,0.00021096,0.00140837,-0.00147524,0.00057075,-0
 .00041796,-0.00082057,0.00000353,0.00005348,0.00001254,-0.00002882,0.0
 0008845,-0.00000614,-0.00001780,-0.00000608,0.00003994,0.00002022,0.00
 001694,-0.00001463,0.00000550,-0.00000232,-0.00000169,-0.00000010,0.00
 000100,-0.00000112,-0.04898514,-0.07556250,-0.08440982,-0.01479584,-0.
 02493009,-0.00687863,0.00204975,0.00518527,0.00216678,0.04484776,0.076
 06089,0.08453361\\0.00000537,0.00000798,-0.00000178,-0.00000112,0.0000
 0890,-0.00000142,-0.00000388,0.00001679,-0.00000583,-0.00000020,0.0000
 0558,-0.00000306,0.00000309,0.00001745,-0.00000366,0.00000393,0.000007
 19,-0.00000227,0.00000916,0.00000856,0.00000004,0.00000252,-0.00000694
 ,0.00000455,0.00000195,-0.00001133,0.00000411,-0.00000816,-0.00001178,
 -0.00000042,-0.00000312,-0.00000993,0.00000473,-0.00001137,-0.00002402
 ,-0.00000118,-0.00000994,0.00001682,-0.00000162,-0.00001498,0.00001410
 ,-0.00000441,-0.00000889,-0.00001469,-0.00000197,-0.00000624,-0.000006
 23,0.00000476,0.00001090,-0.00000596,-0.00000102,0.00001194,-0.0000000
 4,0.00000274,0.00000511,-0.00000579,0.00000257,0.00001392,-0.00000667,
 0.00000515\\\@
 The archive entry for this job was punched.


 The juvenile sea squirt wanders through the sea searching
 for a suitable rock or hunk of coral to cling to and make
 its home for life.  For this task it has a rudimentary
 nervous system.  When it finds its spot and takes root, it
 doesn't need its brain any more so it eats it.
 It's rather like getting tenure.

                               -- source unknown
 Job cpu time:       0 days  0 hours 55 minutes 57.2 seconds.
 Elapsed time:       0 days  0 hours  3 minutes 37.5 seconds.
 File lengths (MBytes):  RWF=    193 Int=      0 D2E=      0 Chk=     11 Scr=      1
 Normal termination of Gaussian 16 at Wed Jun 29 10:39:29 2022.
