 Entering Gaussian System, Link 0=g16
 AtFile(1): /home/561/yj5695/Basis/6-31pGd.gbs
 Initial command:
 /apps/gaussian/g16c01/g16/l1.exe "/jobfs/48710059.gadi-pbs/Gau-1285627.inp" -scrdir="/jobfs/48710059.gadi-pbs/"
 Entering Link 1 = /apps/gaussian/g16c01/g16/l1.exe PID=   1285641.
  
 Copyright (c) 1988-2019, Gaussian, Inc.  All Rights Reserved.
  
 This is part of the Gaussian(R) 16 program.  It is based on
 the Gaussian(R) 09 system (copyright 2009, Gaussian, Inc.),
 the Gaussian(R) 03 system (copyright 2003, Gaussian, Inc.),
 the Gaussian(R) 98 system (copyright 1998, Gaussian, Inc.),
 the Gaussian(R) 94 system (copyright 1995, Gaussian, Inc.),
 the Gaussian 92(TM) system (copyright 1992, Gaussian, Inc.),
 the Gaussian 90(TM) system (copyright 1990, Gaussian, Inc.),
 the Gaussian 88(TM) system (copyright 1988, Gaussian, Inc.),
 the Gaussian 86(TM) system (copyright 1986, Carnegie Mellon
 University), and the Gaussian 82(TM) system (copyright 1983,
 Carnegie Mellon University). Gaussian is a federally registered
 trademark of Gaussian, Inc.
  
 This software contains proprietary and confidential information,
 including trade secrets, belonging to Gaussian, Inc.
  
 This software is provided under written license and may be
 used, copied, transmitted, or stored only in accord with that
 written license.
  
 The following legend is applicable only to US Government
 contracts under FAR:
  
                    RESTRICTED RIGHTS LEGEND
  
 Use, reproduction and disclosure by the US Government is
 subject to restrictions as set forth in subparagraphs (a)
 and (c) of the Commercial Computer Software - Restricted
 Rights clause in FAR 52.227-19.
  
 Gaussian, Inc.
 340 Quinnipiac St., Bldg. 40, Wallingford CT 06492
  
  
 ---------------------------------------------------------------
 Warning -- This program may not be used in any manner that
 competes with the business of Gaussian, Inc. or will provide
 assistance to any competitor of Gaussian, Inc.  The licensee
 of this program is prohibited from giving any competitor of
 Gaussian, Inc. access to this program.  By using this program,
 the user acknowledges that Gaussian, Inc. is engaged in the
 business of creating and licensing software in the field of
 computational chemistry and represents and warrants to the
 licensee that it is not a competitor of Gaussian, Inc. and that
 it will not use this program in any manner prohibited above.
 ---------------------------------------------------------------
  

 Cite this work as:
 Gaussian 16, Revision C.01,
 M. J. Frisch, G. W. Trucks, H. B. Schlegel, G. E. Scuseria, 
 M. A. Robb, J. R. Cheeseman, G. Scalmani, V. Barone, 
 G. A. Petersson, H. Nakatsuji, X. Li, M. Caricato, A. V. Marenich, 
 J. Bloino, B. G. Janesko, R. Gomperts, B. Mennucci, H. P. Hratchian, 
 J. V. Ortiz, A. F. Izmaylov, J. L. Sonnenberg, D. Williams-Young, 
 F. Ding, F. Lipparini, F. Egidi, J. Goings, B. Peng, A. Petrone, 
 T. Henderson, D. Ranasinghe, V. G. Zakrzewski, J. Gao, N. Rega, 
 G. Zheng, W. Liang, M. Hada, M. Ehara, K. Toyota, R. Fukuda, 
 J. Hasegawa, M. Ishida, T. Nakajima, Y. Honda, O. Kitao, H. Nakai, 
 T. Vreven, K. Throssell, J. A. Montgomery, Jr., J. E. Peralta, 
 F. Ogliaro, M. J. Bearpark, J. J. Heyd, E. N. Brothers, K. N. Kudin, 
 V. N. Staroverov, T. A. Keith, R. Kobayashi, J. Normand, 
 K. Raghavachari, A. P. Rendell, J. C. Burant, S. S. Iyengar, 
 J. Tomasi, M. Cossi, J. M. Millam, M. Klene, C. Adamo, R. Cammi, 
 J. W. Ochterski, R. L. Martin, K. Morokuma, O. Farkas, 
 J. B. Foresman, and D. J. Fox, Gaussian, Inc., Wallingford CT, 2019.
 
 ******************************************
 Gaussian 16:  ES64L-G16RevC.01  3-Jul-2019
                29-Jun-2022 
 ******************************************
 %nproc=16
 Will use up to   16 processors via shared memory.
 %mem=50gb
 -----------------------------------------------------
 #m062X/gen 6D OPT Freq=noraman SCRF=(SMD,Solvent=h2o)
 -----------------------------------------------------
 1/18=20,19=15,26=3,38=1/1,3;
 2/9=110,12=2,17=6,18=5,40=1/2;
 3/5=7,8=2,11=2,25=1,30=1,70=32201,71=1,72=1,74=-55/1,2,3;
 4//1;
 5/5=2,38=5,53=1/2;
 6/7=2,8=2,9=2,10=2,28=1/1;
 7//1,2,3,16;
 1/18=20,19=15,26=3/3(2);
 2/9=110/2;
 99//99;
 2/9=110/2;
 3/5=7,6=1,8=2,11=2,25=1,30=1,70=32205,71=1,72=1,74=-55,82=7/1,2,3;
 4/5=5,16=3,69=1/1;
 5/5=2,38=5,53=1/2;
 7//1,2,3,16;
 1/18=20,19=15,26=3/3(-5);
 2/9=110/2;
 6/7=2,8=2,9=2,10=2,19=2,28=1/1;
 99/9=1/99;
 ----------------
 HA.12.smd.a1.smd
 ----------------
 Symbolic Z-matrix:
 Charge =  0 Multiplicity = 1
 C                    -1.30035   0.74377  -0.99428 
 C                    -2.49337   0.77141  -1.71667 
 H                    -3.45149   0.82107  -1.20808 
 C                    -2.42836   0.73984  -3.10342 
 H                    -3.34105   0.76301  -3.68966 
 C                    -1.18897   0.68158  -3.75269 
 C                    -1.16114   0.649    -5.25453 
 C                    -0.00749   0.65462  -3.0057 
 H                     0.9595    0.61516  -3.49584 
 C                    -0.05661   0.68384  -1.61381 
 H                     0.85649   0.66768  -1.02786 
 S                    -1.38121   0.73428   0.78593 
 O                    -0.06537   1.11059   1.29975 
 O                    -2.56091   1.49967   1.1873 
 N                    -1.64849  -0.8154    1.28493 
 H                    -0.88786  -1.43988   1.00855 
 H                    -2.54707  -1.17237   0.95288 
 O                    -2.21039   0.70649  -5.88244 
 C                     0.16273   0.54371  -5.95405 
 H                     0.69076  -0.3605   -5.63334 
 H                     0.79312   1.40244  -5.69944 
 H                     0.0011    0.51403  -7.0321 
 

 GradGradGradGradGradGradGradGradGradGradGradGradGradGradGradGradGradGrad
 Berny optimization.
 Initialization pass.
                           ----------------------------
                           !    Initial Parameters    !
                           ! (Angstroms and Degrees)  !
 --------------------------                            --------------------------
 ! Name  Definition              Value          Derivative Info.                !
 --------------------------------------------------------------------------------
 ! R1    R(1,2)                  1.395          estimate D2E/DX2                !
 ! R2    R(1,10)                 1.3908         estimate D2E/DX2                !
 ! R3    R(1,12)                 1.7821         estimate D2E/DX2                !
 ! R4    R(2,3)                  1.0859         estimate D2E/DX2                !
 ! R5    R(2,4)                  1.3886         estimate D2E/DX2                !
 ! R6    R(4,5)                  1.085          estimate D2E/DX2                !
 ! R7    R(4,6)                  1.4004         estimate D2E/DX2                !
 ! R8    R(6,7)                  1.5025         estimate D2E/DX2                !
 ! R9    R(6,8)                  1.3981         estimate D2E/DX2                !
 ! R10   R(7,18)                 1.2241         estimate D2E/DX2                !
 ! R11   R(7,19)                 1.501          estimate D2E/DX2                !
 ! R12   R(8,9)                  1.0848         estimate D2E/DX2                !
 ! R13   R(8,10)                 1.3931         estimate D2E/DX2                !
 ! R14   R(10,11)                1.085          estimate D2E/DX2                !
 ! R15   R(12,13)                1.4619         estimate D2E/DX2                !
 ! R16   R(12,14)                1.4624         estimate D2E/DX2                !
 ! R17   R(12,15)                1.6498         estimate D2E/DX2                !
 ! R18   R(15,16)                1.0222         estimate D2E/DX2                !
 ! R19   R(15,17)                1.0223         estimate D2E/DX2                !
 ! R20   R(19,20)                1.0951         estimate D2E/DX2                !
 ! R21   R(19,21)                1.0953         estimate D2E/DX2                !
 ! R22   R(19,22)                1.0905         estimate D2E/DX2                !
 ! A1    A(2,1,10)             122.3429         estimate D2E/DX2                !
 ! A2    A(2,1,12)             118.5953         estimate D2E/DX2                !
 ! A3    A(10,1,12)            119.0341         estimate D2E/DX2                !
 ! A4    A(1,2,3)              120.8621         estimate D2E/DX2                !
 ! A5    A(1,2,4)              118.4679         estimate D2E/DX2                !
 ! A6    A(3,2,4)              120.6694         estimate D2E/DX2                !
 ! A7    A(2,4,5)              119.9811         estimate D2E/DX2                !
 ! A8    A(2,4,6)              120.3578         estimate D2E/DX2                !
 ! A9    A(5,4,6)              119.661          estimate D2E/DX2                !
 ! A10   A(4,6,7)              118.7345         estimate D2E/DX2                !
 ! A11   A(4,6,8)              120.0665         estimate D2E/DX2                !
 ! A12   A(7,6,8)              121.199          estimate D2E/DX2                !
 ! A13   A(6,7,18)             119.7251         estimate D2E/DX2                !
 ! A14   A(6,7,19)             118.927          estimate D2E/DX2                !
 ! A15   A(18,7,19)            121.3479         estimate D2E/DX2                !
 ! A16   A(6,8,9)              120.8356         estimate D2E/DX2                !
 ! A17   A(6,8,10)             120.2419         estimate D2E/DX2                !
 ! A18   A(9,8,10)             118.922          estimate D2E/DX2                !
 ! A19   A(1,10,8)             118.5227         estimate D2E/DX2                !
 ! A20   A(1,10,11)            120.8398         estimate D2E/DX2                !
 ! A21   A(8,10,11)            120.6359         estimate D2E/DX2                !
 ! A22   A(1,12,13)            107.9932         estimate D2E/DX2                !
 ! A23   A(1,12,14)            107.938          estimate D2E/DX2                !
 ! A24   A(1,12,15)            108.3306         estimate D2E/DX2                !
 ! A25   A(13,12,14)           119.664          estimate D2E/DX2                !
 ! A26   A(13,12,15)           106.338          estimate D2E/DX2                !
 ! A27   A(14,12,15)           106.1351         estimate D2E/DX2                !
 ! A28   A(12,15,16)           111.808          estimate D2E/DX2                !
 ! A29   A(12,15,17)           111.8477         estimate D2E/DX2                !
 ! A30   A(16,15,17)           110.6647         estimate D2E/DX2                !
 ! A31   A(7,19,20)            110.2861         estimate D2E/DX2                !
 ! A32   A(7,19,21)            110.139          estimate D2E/DX2                !
 ! A33   A(7,19,22)            109.3832         estimate D2E/DX2                !
 ! A34   A(20,19,21)           107.5637         estimate D2E/DX2                !
 ! A35   A(20,19,22)           109.7863         estimate D2E/DX2                !
 ! A36   A(21,19,22)           109.6604         estimate D2E/DX2                !
 ! D1    D(10,1,2,3)          -179.8292         estimate D2E/DX2                !
 ! D2    D(10,1,2,4)            -0.1059         estimate D2E/DX2                !
 ! D3    D(12,1,2,3)             2.1041         estimate D2E/DX2                !
 ! D4    D(12,1,2,4)          -178.1726         estimate D2E/DX2                !
 ! D5    D(2,1,10,8)             0.1938         estimate D2E/DX2                !
 ! D6    D(2,1,10,11)          179.7395         estimate D2E/DX2                !
 ! D7    D(12,1,10,8)          178.2524         estimate D2E/DX2                !
 ! D8    D(12,1,10,11)          -2.2019         estimate D2E/DX2                !
 ! D9    D(2,1,12,13)         -163.0669         estimate D2E/DX2                !
 ! D10   D(2,1,12,14)          -32.3675         estimate D2E/DX2                !
 ! D11   D(2,1,12,15)           82.1499         estimate D2E/DX2                !
 ! D12   D(10,1,12,13)          18.8011         estimate D2E/DX2                !
 ! D13   D(10,1,12,14)         149.5005         estimate D2E/DX2                !
 ! D14   D(10,1,12,15)         -95.9821         estimate D2E/DX2                !
 ! D15   D(1,2,4,5)           -179.8333         estimate D2E/DX2                !
 ! D16   D(1,2,4,6)              0.0011         estimate D2E/DX2                !
 ! D17   D(3,2,4,5)             -0.1094         estimate D2E/DX2                !
 ! D18   D(3,2,4,6)            179.725          estimate D2E/DX2                !
 ! D19   D(2,4,6,7)           -179.9963         estimate D2E/DX2                !
 ! D20   D(2,4,6,8)              0.0109         estimate D2E/DX2                !
 ! D21   D(5,4,6,7)             -0.1614         estimate D2E/DX2                !
 ! D22   D(5,4,6,8)            179.8458         estimate D2E/DX2                !
 ! D23   D(4,6,7,18)             1.7738         estimate D2E/DX2                !
 ! D24   D(4,6,7,19)          -178.1286         estimate D2E/DX2                !
 ! D25   D(8,6,7,18)          -178.2335         estimate D2E/DX2                !
 ! D26   D(8,6,7,19)             1.8641         estimate D2E/DX2                !
 ! D27   D(4,6,8,9)           -179.6528         estimate D2E/DX2                !
 ! D28   D(4,6,8,10)             0.0791         estimate D2E/DX2                !
 ! D29   D(7,6,8,9)              0.3546         estimate D2E/DX2                !
 ! D30   D(7,6,8,10)          -179.9135         estimate D2E/DX2                !
 ! D31   D(6,7,19,20)           58.118          estimate D2E/DX2                !
 ! D32   D(6,7,19,21)          -60.4516         estimate D2E/DX2                !
 ! D33   D(6,7,19,22)          178.9573         estimate D2E/DX2                !
 ! D34   D(18,7,19,20)        -121.7827         estimate D2E/DX2                !
 ! D35   D(18,7,19,21)         119.6477         estimate D2E/DX2                !
 ! D36   D(18,7,19,22)          -0.9434         estimate D2E/DX2                !
 ! D37   D(6,8,10,1)            -0.1774         estimate D2E/DX2                !
 ! D38   D(6,8,10,11)         -179.724          estimate D2E/DX2                !
 ! D39   D(9,8,10,1)           179.5597         estimate D2E/DX2                !
 ! D40   D(9,8,10,11)            0.0131         estimate D2E/DX2                !
 ! D41   D(1,12,15,16)          61.7287         estimate D2E/DX2                !
 ! D42   D(1,12,15,17)         -63.0175         estimate D2E/DX2                !
 ! D43   D(13,12,15,16)        -54.1349         estimate D2E/DX2                !
 ! D44   D(13,12,15,17)       -178.8811         estimate D2E/DX2                !
 ! D45   D(14,12,15,16)        177.4252         estimate D2E/DX2                !
 ! D46   D(14,12,15,17)         52.679          estimate D2E/DX2                !
 --------------------------------------------------------------------------------
 Trust Radius=3.00D-01 FncErr=1.00D-07 GrdErr=1.00D-06 EigMax=2.50D+02 EigMin=1.00D-04
 Number of steps in this run=    114 maximum allowed number of steps=    132.
 GradGradGradGradGradGradGradGradGradGradGradGradGradGradGradGradGradGrad

                          Input orientation:                          
 ---------------------------------------------------------------------
 Center     Atomic      Atomic             Coordinates (Angstroms)
 Number     Number       Type             X           Y           Z
 ---------------------------------------------------------------------
      1          6           0       -1.300351    0.743773   -0.994277
      2          6           0       -2.493368    0.771413   -1.716668
      3          1           0       -3.451487    0.821074   -1.208078
      4          6           0       -2.428356    0.739835   -3.103421
      5          1           0       -3.341048    0.763009   -3.689661
      6          6           0       -1.188970    0.681581   -3.752694
      7          6           0       -1.161141    0.648998   -5.254534
      8          6           0       -0.007491    0.654620   -3.005701
      9          1           0        0.959498    0.615162   -3.495838
     10          6           0       -0.056606    0.683841   -1.613806
     11          1           0        0.856486    0.667676   -1.027861
     12         16           0       -1.381208    0.734278    0.785928
     13          8           0       -0.065366    1.110587    1.299751
     14          8           0       -2.560911    1.499668    1.187300
     15          7           0       -1.648492   -0.815396    1.284934
     16          1           0       -0.887862   -1.439878    1.008552
     17          1           0       -2.547074   -1.172370    0.952879
     18          8           0       -2.210393    0.706486   -5.882444
     19          6           0        0.162733    0.543707   -5.954046
     20          1           0        0.690764   -0.360501   -5.633336
     21          1           0        0.793124    1.402443   -5.699439
     22          1           0        0.001097    0.514034   -7.032101
 ---------------------------------------------------------------------
                    Distance matrix (angstroms):
                    1          2          3          4          5
     1  C    0.000000
     2  C    1.394956   0.000000
     3  H    2.163116   1.085874   0.000000
     4  C    2.391840   1.388635   2.155394   0.000000
     5  H    3.380815   2.147402   2.484718   1.084998   0.000000
     6  C    2.761365   2.419695   3.407860   1.400367   2.154540
     7  C    4.263584   3.782368   4.652859   2.498274   2.685856
     8  C    2.392752   2.802647   3.888478   2.424335   3.404725
     9  H    3.373613   3.887434   4.973232   3.412783   4.307450
    10  C    1.390795   2.440504   3.421793   2.801301   3.886258
    11  H    2.158440   3.421511   4.314469   3.886302   4.971273
    12  S    1.782066   2.738844   2.875700   4.027851   4.885969
    13  O    2.631027   3.887032   4.223605   5.010898   5.978724
    14  O    2.630526   2.994653   2.644135   4.359496   4.993599
    15  N    2.783346   3.498770   3.484815   4.720656   5.486593
    16  H    2.991622   3.859311   4.074006   4.902305   5.739690
    17  H    3.002888   3.302674   3.075958   4.486000   5.092079
    18  O    4.972298   4.175881   4.837679   2.787757   2.467767
    19  C    5.174935   5.006206   5.971912   3.857236   4.177561
    20  H    5.167671   5.173028   6.175538   4.164147   4.614722
    21  H    5.191824   5.202085   6.207015   4.190023   4.641063
    22  H    6.180766   5.877281   6.777452   4.624690   4.733268
                    6          7          8          9         10
     6  C    0.000000
     7  C    1.502451   0.000000
     8  C    1.398077   2.527487   0.000000
     9  H    2.164787   2.755225   1.084831   0.000000
    10  C    2.420144   3.804749   1.393068   2.139913   0.000000
    11  H    3.407169   4.683581   2.158351   2.470684   1.085048
    12  S    4.542997   6.045071   4.033596   4.881251   2.741503
    13  O    5.193624   6.661264   4.329916   4.928840   2.944657
    14  O    5.191823   6.646820   4.981497   5.925151   3.844907
    15  N    5.275395   6.719122   4.823213   5.630621   3.631048
    16  H    5.221180   6.607899   4.612613   5.284454   3.475332
    17  H    5.236793   6.615903   5.045565   5.939899   4.029370
    18  O    2.362152   1.224135   3.623688   3.968934   4.781274
    19  C    2.586902   1.501015   2.955337   2.585097   4.348038
    20  H    2.855897   2.142926   2.902154   2.364960   4.219696
    21  H    2.870219   2.141208   2.907997   2.345922   4.234481
    22  H    3.492684   2.128088   4.028863   3.665231   5.421262
                   11         12         13         14         15
    11  H    0.000000
    12  S    2.881239   0.000000
    13  O    2.542392   1.461870   0.000000
    14  O    4.156651   1.462402   2.528196   0.000000
    15  N    3.717988   1.649829   2.493174   2.490294   0.000000
    16  H    3.410500   2.240515   2.695583   3.387030   1.022215
    17  H    4.346645   2.241076   3.389851   2.682337   1.022321
    18  O    5.742319   6.719785   7.506555   7.122730   7.348685
    19  C    4.976340   6.917176   7.279489   7.702657   7.584888
    20  H    4.721759   6.833634   7.127659   7.781690   7.317206
    21  H    4.729433   6.872710   7.057680   7.660690   7.724103
    22  H    6.066811   7.942345   8.353445   8.665674   8.582634
                   16         17         18         19         20
    16  H    0.000000
    17  H    1.681560   0.000000
    18  O    7.337697   7.096837   0.000000
    19  C    7.315472   7.615352   2.379780   0.000000
    20  H    6.911714   7.383831   3.101166   1.095109   0.000000
    21  H    7.476740   7.876542   3.088521   1.095283   1.767150
    22  H    8.322267   8.549681   2.499887   1.090509   1.788014
                   21         22
    21  H    0.000000
    22  H    1.786775   0.000000
 Stoichiometry    C8H9NO3S
 Framework group  C1[X(C8H9NO3S)]
 Deg. of freedom    60
 Full point group                 C1      NOp   1
 Largest Abelian subgroup         C1      NOp   1
 Largest concise Abelian subgroup C1      NOp   1
                         Standard orientation:                         
 ---------------------------------------------------------------------
 Center     Atomic      Atomic             Coordinates (Angstroms)
 Number     Number       Type             X           Y           Z
 ---------------------------------------------------------------------
      1          6           0       -0.773771    0.000557   -0.103356
      2          6           0       -0.136753   -1.240084   -0.073010
      3          1           0       -0.710995   -2.161587   -0.087130
      4          6           0        1.250881   -1.270790   -0.030140
      5          1           0        1.771739   -2.222349   -0.008610
      6          6           0        1.985142   -0.078424   -0.017942
      7          6           0        3.484958   -0.154183    0.028678
      8          6           0        1.322778    1.152407   -0.048728
      9          1           0        1.879308    2.083601   -0.045365
     10          6           0       -0.068885    1.199417   -0.089969
     11          1           0       -0.589371    2.151053   -0.118516
     12         16           0       -2.555282    0.044721   -0.108515
     13          8           0       -2.972738    1.375818   -0.545520
     14          8           0       -3.033010   -1.135915   -0.827191
     15          7           0       -3.082900   -0.120108    1.445959
     16          1           0       -2.758267    0.645533    2.040375
     17          1           0       -2.817322   -1.023488    1.844096
     18          8           0        4.038039   -1.246229    0.022145
     19          6           0        4.274929    1.120902    0.084792
     20          1           0        3.985625    1.708472    0.962476
     21          1           0        4.071365    1.729990   -0.802462
     22          1           0        5.338734    0.885791    0.132242
 ---------------------------------------------------------------------
 Rotational constants (GHZ):           2.0716028           0.3391381           0.3111301
 General basis read from cards:  (6D, 7F)
 There are   269 symmetry adapted cartesian basis functions of A   symmetry.
 There are   269 symmetry adapted basis functions of A   symmetry.
   269 basis functions,   476 primitive gaussians,   269 cartesian basis functions
    52 alpha electrons       52 beta electrons
       nuclear repulsion energy       897.2324943703 Hartrees.
 NAtoms=   22 NActive=   22 NUniq=   22 SFac= 1.00D+00 NAtFMM=   60 NAOKFM=F Big=F
 Integral buffers will be    131072 words long.
 Raffenetti 2 integral format.
 Two-electron integral symmetry is turned on.
 ------------------------------------------------------------------------------
 Polarizable Continuum Model (PCM)
 =================================
 Model                : PCM.
 Atomic radii         : SMD-Coulomb.
 Polarization charges : Total charges.
 Charge compensation  : None.
 Solution method      : On-the-fly selection.
 Cavity type          : VdW (van der Waals Surface) (Alpha=1.000).
 Cavity algorithm     : GePol (No added spheres)
                        Default sphere list used, NSphG=   22.
                        Lebedev-Laikov grids with approx.  5.0 points / Ang**2.
                        Smoothing algorithm: York/Karplus (Gamma=1.0000).
                        Polarization charges: spherical gaussians, with
                                              point-specific exponents (IZeta= 3).
                        Self-potential: point-specific (ISelfS= 7).
                        Self-field    : sphere-specific E.n sum rule (ISelfD= 2).
 1st derivatives      : Analytical E(r).r(x)/FMM algorithm (CHGder, D1EAlg=3).
                        Cavity 1st derivative terms included.
 Solvent              : Water, Eps=  78.355300 Eps(inf)=   1.777849
 ------------------------------------------------------------------------------
 ------------------------------------------------------------------------------
 Atomic radii for non-electrostatic terms: SMD-CDS.
 ------------------------------------------------------------------------------
 Nuclear repulsion after PCM non-electrostatic terms =      897.2406941630 Hartrees.
 One-electron integrals computed using PRISM.
 NBasis=   269 RedAO= T EigKep=  1.22D-06  NBF=   269
 NBsUse=   269 1.00D-06 EigRej= -1.00D+00 NBFU=   269
 ExpMin= 4.05D-02 ExpMax= 2.19D+04 ExpMxC= 3.30D+03 IAcc=3 IRadAn=         5 AccDes= 0.00D+00
 Harris functional with IExCor= 1009 and IRadAn=       5 diagonalized for initial guess.
 HarFok:  IExCor= 1009 AccDes= 0.00D+00 IRadAn=         5 IDoV= 1 UseB2=F ITyADJ=14
 ICtDFT=  3500011 ScaDFX=  1.000000  1.000000  1.000000  1.000000
 FoFCou: FMM=F IPFlag=           0 FMFlag=      100000 FMFlg1=           0
         NFxFlg=           0 DoJE=T BraDBF=F KetDBF=T FulRan=T
         wScrn=  0.000000 ICntrl=       500 IOpCl=  0 I1Cent=   200000004 NGrid=           0
         NMat0=    1 NMatS0=      1 NMatT0=    0 NMatD0=    1 NMtDS0=    0 NMtDT0=    0
 Petite list used in FoFCou.
 Requested convergence on RMS density matrix=1.00D-08 within 128 cycles.
 Requested convergence on MAX density matrix=1.00D-06.
 Requested convergence on             energy=1.00D-06.
 No special actions if energy rises.
 Inv3:  Mode=1 IEnd=     9166512.
 Iteration    1 A*A^-1 deviation from unit magnitude is 3.33D-15 for   1723.
 Iteration    1 A*A^-1 deviation from orthogonality  is 2.12D-15 for    956    299.
 Iteration    1 A^-1*A deviation from unit magnitude is 3.33D-15 for   1723.
 Iteration    1 A^-1*A deviation from orthogonality  is 6.65D-14 for   1078   1051.
 Error on total polarization charges =  0.04942
 SCF Done:  E(RM062X) =  -988.586365179     A.U. after   16 cycles
            NFock= 16  Conv=0.22D-08     -V/T= 2.0066
 SMD-CDS (non-electrostatic) energy       (kcal/mol) =       5.15
 (included in total energy above)

 **********************************************************************

            Population analysis using the SCF Density.

 **********************************************************************

 Orbital symmetries:
       Occupied  (A) (A) (A) (A) (A) (A) (A) (A) (A) (A) (A) (A)
                 (A) (A) (A) (A) (A) (A) (A) (A) (A) (A) (A) (A)
                 (A) (A) (A) (A) (A) (A) (A) (A) (A) (A) (A) (A)
                 (A) (A) (A) (A) (A) (A) (A) (A) (A) (A) (A) (A)
                 (A) (A) (A) (A)
       Virtual   (A) (A) (A) (A) (A) (A) (A) (A) (A) (A) (A) (A)
                 (A) (A) (A) (A) (A) (A) (A) (A) (A) (A) (A) (A)
                 (A) (A) (A) (A) (A) (A) (A) (A) (A) (A) (A) (A)
                 (A) (A) (A) (A) (A) (A) (A) (A) (A) (A) (A) (A)
                 (A) (A) (A) (A) (A) (A) (A) (A) (A) (A) (A) (A)
                 (A) (A) (A) (A) (A) (A) (A) (A) (A) (A) (A) (A)
                 (A) (A) (A) (A) (A) (A) (A) (A) (A) (A) (A) (A)
                 (A) (A) (A) (A) (A) (A) (A) (A) (A) (A) (A) (A)
                 (A) (A) (A) (A) (A) (A) (A) (A) (A) (A) (A) (A)
                 (A) (A) (A) (A) (A) (A) (A) (A) (A) (A) (A) (A)
                 (A) (A) (A) (A) (A) (A) (A) (A) (A) (A) (A) (A)
                 (A) (A) (A) (A) (A) (A) (A) (A) (A) (A) (A) (A)
                 (A) (A) (A) (A) (A) (A) (A) (A) (A) (A) (A) (A)
                 (A) (A) (A) (A) (A) (A) (A) (A) (A) (A) (A) (A)
                 (A) (A) (A) (A) (A) (A) (A) (A) (A) (A) (A) (A)
                 (A) (A) (A) (A) (A) (A) (A) (A) (A) (A) (A) (A)
                 (A) (A) (A) (A) (A) (A) (A) (A) (A) (A) (A) (A)
                 (A) (A) (A) (A) (A) (A) (A) (A) (A) (A) (A) (A)
                 (A)
 The electronic state is 1-A.
 Alpha  occ. eigenvalues --  -90.18399 -19.66414 -19.66368 -19.65805 -14.80436
 Alpha  occ. eigenvalues --  -10.66171 -10.60810 -10.58376 -10.58367 -10.58357
 Alpha  occ. eigenvalues --  -10.57935 -10.57703 -10.54450  -8.49397  -6.41593
 Alpha  occ. eigenvalues --   -6.41586  -6.41458  -1.26358  -1.18440  -1.14911
 Alpha  occ. eigenvalues --   -1.03373  -0.99445  -0.90217  -0.87217  -0.84125
 Alpha  occ. eigenvalues --   -0.77929  -0.71758  -0.71003  -0.64889  -0.64528
 Alpha  occ. eigenvalues --   -0.61723  -0.59994  -0.57338  -0.56360  -0.54105
 Alpha  occ. eigenvalues --   -0.53589  -0.52405  -0.51327  -0.50715  -0.48913
 Alpha  occ. eigenvalues --   -0.46965  -0.45042  -0.44043  -0.43750  -0.42663
 Alpha  occ. eigenvalues --   -0.42263  -0.40710  -0.40328  -0.38522  -0.34512
 Alpha  occ. eigenvalues --   -0.33314  -0.33120
 Alpha virt. eigenvalues --   -0.05158  -0.00011   0.01168   0.02820   0.03755
 Alpha virt. eigenvalues --    0.03868   0.04139   0.04712   0.04844   0.05697
 Alpha virt. eigenvalues --    0.06430   0.06856   0.07210   0.08556   0.08797
 Alpha virt. eigenvalues --    0.09983   0.10068   0.10429   0.10699   0.10890
 Alpha virt. eigenvalues --    0.12179   0.12969   0.13223   0.13670   0.14103
 Alpha virt. eigenvalues --    0.14593   0.15466   0.15478   0.16071   0.17187
 Alpha virt. eigenvalues --    0.17529   0.18206   0.19379   0.19539   0.19823
 Alpha virt. eigenvalues --    0.21200   0.21413   0.21507   0.21658   0.22142
 Alpha virt. eigenvalues --    0.22918   0.24116   0.24352   0.24882   0.25227
 Alpha virt. eigenvalues --    0.25781   0.26629   0.27390   0.28003   0.28239
 Alpha virt. eigenvalues --    0.28774   0.29414   0.29683   0.30091   0.30350
 Alpha virt. eigenvalues --    0.31337   0.31542   0.31941   0.32414   0.32703
 Alpha virt. eigenvalues --    0.33293   0.33568   0.34150   0.35691   0.36040
 Alpha virt. eigenvalues --    0.37144   0.37820   0.38628   0.40303   0.40842
 Alpha virt. eigenvalues --    0.43329   0.44051   0.45997   0.47330   0.48586
 Alpha virt. eigenvalues --    0.52817   0.55899   0.56557   0.57398   0.65063
 Alpha virt. eigenvalues --    0.66485   0.67860   0.68346   0.69790   0.71345
 Alpha virt. eigenvalues --    0.72695   0.74002   0.75605   0.75953   0.77347
 Alpha virt. eigenvalues --    0.78032   0.78644   0.80924   0.81177   0.82726
 Alpha virt. eigenvalues --    0.83800   0.84876   0.87173   0.90262   0.92831
 Alpha virt. eigenvalues --    0.94300   0.96177   0.98585   1.00258   1.00770
 Alpha virt. eigenvalues --    1.01197   1.03439   1.03585   1.04549   1.05803
 Alpha virt. eigenvalues --    1.08884   1.10910   1.11533   1.12763   1.12981
 Alpha virt. eigenvalues --    1.13846   1.15468   1.17384   1.18223   1.19675
 Alpha virt. eigenvalues --    1.20437   1.23419   1.24870   1.27630   1.29333
 Alpha virt. eigenvalues --    1.31171   1.31586   1.32529   1.33862   1.35867
 Alpha virt. eigenvalues --    1.36987   1.37154   1.38030   1.38248   1.39530
 Alpha virt. eigenvalues --    1.40027   1.41883   1.42907   1.44155   1.46991
 Alpha virt. eigenvalues --    1.49613   1.51050   1.53531   1.54014   1.54938
 Alpha virt. eigenvalues --    1.55817   1.61106   1.68993   1.72159   1.74738
 Alpha virt. eigenvalues --    1.76533   1.78413   1.79928   1.81044   1.81852
 Alpha virt. eigenvalues --    1.84520   1.85253   1.88160   1.89539   1.90002
 Alpha virt. eigenvalues --    1.90890   1.92111   1.94815   1.99928   2.02639
 Alpha virt. eigenvalues --    2.03888   2.04961   2.08436   2.09626   2.12334
 Alpha virt. eigenvalues --    2.12663   2.14898   2.15865   2.17213   2.18985
 Alpha virt. eigenvalues --    2.20107   2.23042   2.24225   2.29894   2.30909
 Alpha virt. eigenvalues --    2.32508   2.33335   2.34462   2.36037   2.44648
 Alpha virt. eigenvalues --    2.46495   2.48000   2.49405   2.57170   2.59979
 Alpha virt. eigenvalues --    2.65021   2.66984   2.67749   2.72427   2.79959
 Alpha virt. eigenvalues --    2.81311   2.83604   2.89763   2.91058   2.94527
 Alpha virt. eigenvalues --    3.00843   3.13660   3.21879   3.39390   3.88239
 Alpha virt. eigenvalues --    4.07327   4.20983   4.22598   4.25513   4.28353
 Alpha virt. eigenvalues --    4.28447   4.33550   4.37539   4.41265   4.44081
 Alpha virt. eigenvalues --    4.61683   4.75063
          Condensed to atoms (all electrons):
               1          2          3          4          5          6
     1  C   21.532219  -2.284020   0.067076  -1.785821   0.036159  -3.783453
     2  C   -2.284020  33.808498   0.220043 -13.189526  -0.039620   0.758348
     3  H    0.067076   0.220043   0.409023  -0.005809  -0.002990  -0.016291
     4  C   -1.785821 -13.189526  -0.005809  23.337078   0.331670  -1.363182
     5  H    0.036159  -0.039620  -0.002990   0.331670   0.419628   0.054869
     6  C   -3.783453   0.758348  -0.016291  -1.363182   0.054869  12.720309
     7  C   -1.328126  -1.484333   0.000563   1.098130  -0.090953  -3.071594
     8  C    0.819144   5.050620  -0.033649  -6.514235   0.050651   0.122549
     9  H    0.008787  -0.049764   0.000012   0.096370  -0.000091   0.078353
    10  C   -6.082560 -17.029334   0.071844   3.367942  -0.050929   0.708139
    11  H    0.011861   0.010474  -0.000097  -0.004122   0.000011   0.000656
    12  S    0.333545   0.565429   0.001054  -0.712335   0.001098  -0.391000
    13  O    0.054706   0.044732   0.001055   0.152380   0.000024  -0.026072
    14  O    0.093180  -0.275634   0.002638  -0.095045   0.000100  -0.049175
    15  N   -0.804228   0.188053  -0.001112   0.358252  -0.000015   0.125266
    16  H    0.053283   0.079005   0.000025  -0.008791   0.000000  -0.006733
    17  H    0.060373  -0.111438   0.000011  -0.017608   0.000001  -0.005324
    18  O    0.007370   0.072252   0.000154   0.183807   0.007421  -0.423734
    19  C    0.008136  -0.143613   0.000063   0.394483   0.005294   0.092715
    20  H   -0.001960   0.000862  -0.000000   0.002058  -0.000002   0.022686
    21  H   -0.003022  -0.005009  -0.000000   0.011375  -0.000003  -0.011613
    22  H    0.001165  -0.000262  -0.000000  -0.016596  -0.000002   0.047262
               7          8          9         10         11         12
     1  C   -1.328126   0.819144   0.008787  -6.082560   0.011861   0.333545
     2  C   -1.484333   5.050620  -0.049764 -17.029334   0.010474   0.565429
     3  H    0.000563  -0.033649   0.000012   0.071844  -0.000097   0.001054
     4  C    1.098130  -6.514235   0.096370   3.367942  -0.004122  -0.712335
     5  H   -0.090953   0.050651  -0.000091  -0.050929   0.000011   0.001098
     6  C   -3.071594   0.122549   0.078353   0.708139   0.000656  -0.391000
     7  C    9.913408  -1.749634  -0.022762   2.474636  -0.003845  -0.189087
     8  C   -1.749634  25.527372   0.125886 -16.563332   0.046005  -0.111938
     9  H   -0.022762   0.125886   0.428312   0.055004  -0.003156   0.001265
    10  C    2.474636 -16.563332   0.055004  40.312819   0.242346  -0.370958
    11  H   -0.003845   0.046005  -0.003156   0.242346   0.407263  -0.002931
    12  S   -0.189087  -0.111938   0.001265  -0.370958  -0.002931  15.158475
    13  O   -0.002439  -0.002298   0.000198  -0.317315   0.003979   0.212704
    14  O   -0.012667   0.195165   0.000021  -0.019056   0.000946   0.305461
    15  N    0.016697   0.191963   0.000008   0.077034  -0.000033  -0.496551
    16  H   -0.000665  -0.015573   0.000000  -0.132793   0.000039   0.059915
    17  H   -0.000628  -0.001955   0.000000   0.055292   0.000003   0.053698
    18  O    0.535035  -0.184109  -0.000065   0.058809   0.000024   0.000512
    19  C   -0.642020  -0.358527   0.011095  -0.227633   0.001428  -0.004340
    20  H   -0.060644  -0.018551  -0.001415  -0.001894  -0.000001  -0.000079
    21  H   -0.026384  -0.032084  -0.001412   0.027360  -0.000002  -0.000051
    22  H   -0.128534   0.019867   0.000169   0.000444  -0.000000   0.000011
              13         14         15         16         17         18
     1  C    0.054706   0.093180  -0.804228   0.053283   0.060373   0.007370
     2  C    0.044732  -0.275634   0.188053   0.079005  -0.111438   0.072252
     3  H    0.001055   0.002638  -0.001112   0.000025   0.000011   0.000154
     4  C    0.152380  -0.095045   0.358252  -0.008791  -0.017608   0.183807
     5  H    0.000024   0.000100  -0.000015   0.000000   0.000001   0.007421
     6  C   -0.026072  -0.049175   0.125266  -0.006733  -0.005324  -0.423734
     7  C   -0.002439  -0.012667   0.016697  -0.000665  -0.000628   0.535035
     8  C   -0.002298   0.195165   0.191963  -0.015573  -0.001955  -0.184109
     9  H    0.000198   0.000021   0.000008   0.000000   0.000000  -0.000065
    10  C   -0.317315  -0.019056   0.077034  -0.132793   0.055292   0.058809
    11  H    0.003979   0.000946  -0.000033   0.000039   0.000003   0.000024
    12  S    0.212704   0.305461  -0.496551   0.059915   0.053698   0.000512
    13  O    8.786042  -0.148934  -0.114417  -0.008442   0.008722   0.000010
    14  O   -0.148934   8.747758  -0.131916   0.008294  -0.007042  -0.000014
    15  N   -0.114417  -0.131916   8.146774   0.225508   0.216292   0.000003
    16  H   -0.008442   0.008294   0.225508   0.253820  -0.013028   0.000000
    17  H    0.008722  -0.007042   0.216292  -0.013028   0.257316  -0.000000
    18  O    0.000010  -0.000014   0.000003   0.000000  -0.000000   8.363167
    19  C    0.000263   0.000203   0.001611  -0.000028  -0.000007  -0.089914
    20  H   -0.000001   0.000000   0.000003  -0.000000  -0.000000   0.003152
    21  H    0.000000  -0.000000  -0.000000   0.000000  -0.000000   0.002694
    22  H    0.000000   0.000000   0.000000   0.000000   0.000000   0.000041
              19         20         21         22
     1  C    0.008136  -0.001960  -0.003022   0.001165
     2  C   -0.143613   0.000862  -0.005009  -0.000262
     3  H    0.000063  -0.000000  -0.000000  -0.000000
     4  C    0.394483   0.002058   0.011375  -0.016596
     5  H    0.005294  -0.000002  -0.000003  -0.000002
     6  C    0.092715   0.022686  -0.011613   0.047262
     7  C   -0.642020  -0.060644  -0.026384  -0.128534
     8  C   -0.358527  -0.018551  -0.032084   0.019867
     9  H    0.011095  -0.001415  -0.001412   0.000169
    10  C   -0.227633  -0.001894   0.027360   0.000444
    11  H    0.001428  -0.000001  -0.000002  -0.000000
    12  S   -0.004340  -0.000079  -0.000051   0.000011
    13  O    0.000263  -0.000001   0.000000   0.000000
    14  O    0.000203   0.000000  -0.000000   0.000000
    15  N    0.001611   0.000003  -0.000000   0.000000
    16  H   -0.000028  -0.000000   0.000000   0.000000
    17  H   -0.000007  -0.000000  -0.000000   0.000000
    18  O   -0.089914   0.003152   0.002694   0.000041
    19  C    6.657027   0.393030   0.374983   0.423179
    20  H    0.393030   0.428275  -0.023757  -0.018266
    21  H    0.374983  -0.023757   0.426754  -0.018152
    22  H    0.423179  -0.018266  -0.018152   0.429695
 Mulliken charges:
               1
     1  C   -1.013813
     2  C   -0.185761
     3  H    0.286386
     4  C    0.379525
     5  H    0.277681
     6  C    0.417019
     7  C    0.775847
     8  C   -0.563339
     9  H    0.273183
    10  C   -0.655864
    11  H    0.289153
    12  S    1.586101
    13  O   -0.644897
    14  O   -0.614285
    15  N   -0.999189
    16  H    0.506166
    17  H    0.505322
    18  O   -0.536614
    19  C   -0.897428
    20  H    0.276502
    21  H    0.278324
    22  H    0.259979
 Sum of Mulliken charges =  -0.00000
 Mulliken charges with hydrogens summed into heavy atoms:
               1
     1  C   -1.013813
     2  C    0.100625
     4  C    0.657206
     6  C    0.417019
     7  C    0.775847
     8  C   -0.290155
    10  C   -0.366711
    12  S    1.586101
    13  O   -0.644897
    14  O   -0.614285
    15  N    0.012299
    18  O   -0.536614
    19  C   -0.082623
 Electronic spatial extent (au):  <R**2>=           3416.8187
 Charge=             -0.0000 electrons
 Dipole moment (field-independent basis, Debye):
    X=              4.2679    Y=              3.1313    Z=              5.6264  Tot=              7.7250
 Quadrupole moment (field-independent basis, Debye-Ang):
   XX=           -113.9928   YY=            -80.9691   ZZ=            -79.6960
   XY=             18.3470   XZ=            -14.6593   YZ=             -1.0162
 Traceless Quadrupole moment (field-independent basis, Debye-Ang):
   XX=            -22.4402   YY=             10.5835   ZZ=             11.8566
   XY=             18.3470   XZ=            -14.6593   YZ=             -1.0162
 Octapole moment (field-independent basis, Debye-Ang**2):
  XXX=             41.9016  YYY=              1.3068  ZZZ=             20.1760  XYY=              4.7397
  XXY=             61.2945  XXZ=             37.5925  XZZ=            -14.2893  YZZ=              1.3827
  YYZ=             10.6904  XYZ=              3.4165
 Hexadecapole moment (field-independent basis, Debye-Ang**3):
 XXXX=          -4195.1264 YYYY=           -543.9517 ZZZZ=           -192.5111 XXXY=            285.7821
 XXXZ=            -79.6051 YYYX=             36.4332 YYYZ=             -3.1850 ZZZX=            -48.1291
 ZZZY=             -1.3277 XXYY=           -784.9730 XXZZ=           -619.5078 YYZZ=           -131.4895
 XXYZ=             -7.8547 YYXZ=            -31.5957 ZZXY=              0.3947
 N-N= 8.972406941630D+02 E-N=-4.114662446707D+03  KE= 9.821266862880D+02
 D1PCM: PCM CHGder 1st derivatives, ID1Alg=3 FixD1E=F DoIter=F DoCFld=F I1PDM=0.
 Calling FoFJK, ICntrl=      2127 FMM=F ISym2X=0 I1Cent= 0 IOpClX= 0 NMat=1 NMatS=1 NMatT=0.
 ***** Axes restored to original set *****
 -------------------------------------------------------------------
 Center     Atomic                   Forces (Hartrees/Bohr)
 Number     Number              X              Y              Z
 -------------------------------------------------------------------
      1        6          -0.000015870    0.000003104   -0.000005614
      2        6           0.000006113    0.000000483   -0.000007849
      3        1          -0.000002446   -0.000003141   -0.000001908
      4        6          -0.000004262   -0.000008634   -0.000003174
      5        1           0.000001748   -0.000008073   -0.000004240
      6        6           0.000000011   -0.000002069   -0.000002932
      7        6           0.000006590   -0.000006752   -0.000002456
      8        6           0.000005369   -0.000001616    0.000004847
      9        1           0.000002050    0.000003936   -0.000001980
     10        6          -0.000004443    0.000003536    0.000000065
     11        1          -0.000001504    0.000008392    0.000000695
     12       16           0.000006523   -0.000001983    0.000001147
     13        8           0.000002068    0.000015870    0.000010064
     14        8          -0.000007389   -0.000002686   -0.000003874
     15        7          -0.000009335    0.000009284    0.000002628
     16        1           0.000000960    0.000010399    0.000002274
     17        1           0.000000268   -0.000000702    0.000002506
     18        8          -0.000000651   -0.000009846   -0.000003160
     19        6          -0.000004118   -0.000011063    0.000000022
     20        1           0.000007784   -0.000003873    0.000011124
     21        1           0.000003536    0.000004946   -0.000001520
     22        1           0.000006999    0.000000489    0.000003333
 -------------------------------------------------------------------
 Cartesian Forces:  Max     0.000015870 RMS     0.000005802

 GradGradGradGradGradGradGradGradGradGradGradGradGradGradGradGradGradGrad
 Berny optimization.
 FormGI is forming the generalized inverse of G from B-inverse, IUseBI=4.
 Internal  Forces:  Max     0.000012393 RMS     0.000003637
 Search for a local minimum.
 Step number   1 out of a maximum of  114
 All quantities printed in internal units (Hartrees-Bohrs-Radians)
 Mixed Optimization -- En-DIIS/RFO-DIIS
 Second derivative matrix not updated -- first step.
 ITU=  0
     Eigenvalues ---    0.00608   0.00734   0.00745   0.00753   0.01566
     Eigenvalues ---    0.01704   0.01960   0.02111   0.02145   0.02160
     Eigenvalues ---    0.02179   0.02185   0.02197   0.02206   0.04571
     Eigenvalues ---    0.07426   0.07450   0.09531   0.10398   0.14197
     Eigenvalues ---    0.15999   0.16000   0.16000   0.16000   0.16000
     Eigenvalues ---    0.16000   0.16000   0.16000   0.16000   0.19752
     Eigenvalues ---    0.22000   0.22989   0.23996   0.24987   0.25000
     Eigenvalues ---    0.25000   0.25000   0.25000   0.27582   0.32122
     Eigenvalues ---    0.32271   0.34209   0.34229   0.34754   0.35294
     Eigenvalues ---    0.35391   0.35397   0.35417   0.42189   0.42469
     Eigenvalues ---    0.42675   0.43970   0.43987   0.46014   0.46250
     Eigenvalues ---    0.46904   0.47309   0.90608   0.90829   0.93575
 RFO step:  Lambda=-1.06901871D-08 EMin= 6.07539040D-03
 Linear search not attempted -- first point.
 Iteration  1 RMS(Cart)=  0.00017008 RMS(Int)=  0.00000002
 Iteration  2 RMS(Cart)=  0.00000002 RMS(Int)=  0.00000000
 Variable       Old X    -DE/DX   Delta X   Delta X   Delta X     New X
                                 (Linear)    (Quad)   (Total)
    R1        2.63608   0.00000   0.00000   0.00000   0.00000   2.63609
    R2        2.62822   0.00000   0.00000   0.00000   0.00000   2.62822
    R3        3.36762   0.00001   0.00000   0.00004   0.00004   3.36766
    R4        2.05200   0.00000   0.00000   0.00000   0.00000   2.05201
    R5        2.62414   0.00000   0.00000   0.00000   0.00000   2.62414
    R6        2.05035  -0.00000   0.00000  -0.00000  -0.00000   2.05035
    R7        2.64631  -0.00000   0.00000  -0.00000  -0.00000   2.64631
    R8        2.83922  -0.00000   0.00000  -0.00001  -0.00001   2.83921
    R9        2.64198   0.00000   0.00000   0.00001   0.00001   2.64199
   R10        2.31328   0.00000   0.00000   0.00000   0.00000   2.31328
   R11        2.83651  -0.00001   0.00000  -0.00002  -0.00002   2.83649
   R12        2.05003   0.00000   0.00000   0.00001   0.00001   2.05004
   R13        2.63252  -0.00000   0.00000  -0.00000  -0.00000   2.63252
   R14        2.05044  -0.00000   0.00000  -0.00000  -0.00000   2.05044
   R15        2.76253   0.00001   0.00000   0.00001   0.00001   2.76255
   R16        2.76354  -0.00000   0.00000  -0.00000  -0.00000   2.76354
   R17        3.11773  -0.00000   0.00000  -0.00001  -0.00001   3.11772
   R18        1.93171  -0.00000   0.00000  -0.00000  -0.00000   1.93170
   R19        1.93191   0.00000   0.00000   0.00000   0.00000   1.93191
   R20        2.06946   0.00001   0.00000   0.00001   0.00001   2.06947
   R21        2.06979   0.00001   0.00000   0.00002   0.00002   2.06980
   R22        2.06076  -0.00000   0.00000  -0.00001  -0.00001   2.06076
    A1        2.13529  -0.00000   0.00000  -0.00002  -0.00002   2.13527
    A2        2.06988   0.00001   0.00000   0.00003   0.00003   2.06991
    A3        2.07754  -0.00000   0.00000  -0.00001  -0.00001   2.07752
    A4        2.10944  -0.00000   0.00000  -0.00002  -0.00002   2.10942
    A5        2.06766   0.00000   0.00000   0.00002   0.00002   2.06767
    A6        2.10608  -0.00000   0.00000  -0.00000  -0.00000   2.10608
    A7        2.09406   0.00000   0.00000   0.00002   0.00002   2.09408
    A8        2.10064  -0.00000   0.00000  -0.00001  -0.00001   2.10063
    A9        2.08848  -0.00000   0.00000  -0.00000  -0.00000   2.08847
   A10        2.07231   0.00000   0.00000   0.00002   0.00002   2.07233
   A11        2.09556   0.00000   0.00000   0.00001   0.00001   2.09556
   A12        2.11532  -0.00001   0.00000  -0.00002  -0.00002   2.11530
   A13        2.08960   0.00001   0.00000   0.00002   0.00002   2.08962
   A14        2.07567  -0.00001   0.00000  -0.00005  -0.00005   2.07562
   A15        2.11792   0.00001   0.00000   0.00003   0.00003   2.11795
   A16        2.10898  -0.00000   0.00000  -0.00002  -0.00002   2.10896
   A17        2.09862  -0.00000   0.00000  -0.00000  -0.00000   2.09861
   A18        2.07558   0.00000   0.00000   0.00002   0.00002   2.07560
   A19        2.06861   0.00000   0.00000   0.00001   0.00001   2.06862
   A20        2.10905   0.00000   0.00000   0.00000   0.00000   2.10906
   A21        2.10549  -0.00000   0.00000  -0.00001  -0.00001   2.10548
   A22        1.88484   0.00001   0.00000   0.00007   0.00007   1.88490
   A23        1.88387  -0.00000   0.00000  -0.00002  -0.00002   1.88385
   A24        1.89072   0.00000   0.00000   0.00000   0.00000   1.89073
   A25        2.08853  -0.00000   0.00000  -0.00001  -0.00001   2.08852
   A26        1.85595   0.00000   0.00000   0.00003   0.00003   1.85598
   A27        1.85241  -0.00001   0.00000  -0.00006  -0.00006   1.85235
   A28        1.95142  -0.00001   0.00000  -0.00004  -0.00004   1.95138
   A29        1.95211   0.00001   0.00000   0.00003   0.00003   1.95214
   A30        1.93146  -0.00000   0.00000  -0.00000  -0.00000   1.93146
   A31        1.92486  -0.00000   0.00000  -0.00002  -0.00002   1.92484
   A32        1.92229  -0.00000   0.00000  -0.00002  -0.00002   1.92227
   A33        1.90910   0.00000   0.00000   0.00002   0.00002   1.90912
   A34        1.87734   0.00000   0.00000  -0.00000  -0.00000   1.87734
   A35        1.91613   0.00001   0.00000   0.00006   0.00006   1.91619
   A36        1.91394  -0.00000   0.00000  -0.00004  -0.00004   1.91389
    D1       -3.13861   0.00000   0.00000   0.00002   0.00002  -3.13859
    D2       -0.00185   0.00000   0.00000   0.00005   0.00005  -0.00179
    D3        0.03672   0.00000   0.00000   0.00005   0.00005   0.03677
    D4       -3.10970   0.00000   0.00000   0.00008   0.00008  -3.10962
    D5        0.00338  -0.00000   0.00000  -0.00001  -0.00001   0.00337
    D6        3.13705  -0.00000   0.00000  -0.00002  -0.00002   3.13702
    D7        3.11109  -0.00000   0.00000  -0.00004  -0.00004   3.11105
    D8       -0.03843  -0.00000   0.00000  -0.00005  -0.00005  -0.03848
    D9       -2.84606   0.00000   0.00000   0.00006   0.00006  -2.84599
   D10       -0.56492   0.00000   0.00000   0.00008   0.00008  -0.56484
   D11        1.43379  -0.00000   0.00000  -0.00000  -0.00000   1.43378
   D12        0.32814   0.00000   0.00000   0.00009   0.00009   0.32823
   D13        2.60928   0.00000   0.00000   0.00011   0.00011   2.60938
   D14       -1.67520  -0.00000   0.00000   0.00002   0.00002  -1.67518
   D15       -3.13868  -0.00000   0.00000  -0.00000  -0.00000  -3.13869
   D16        0.00002  -0.00000   0.00000  -0.00007  -0.00007  -0.00005
   D17       -0.00191   0.00000   0.00000   0.00003   0.00003  -0.00188
   D18        3.13679  -0.00000   0.00000  -0.00004  -0.00004   3.13675
   D19       -3.14153   0.00000   0.00000   0.00005   0.00005  -3.14148
   D20        0.00019   0.00000   0.00000   0.00005   0.00005   0.00024
   D21       -0.00282  -0.00000   0.00000  -0.00002  -0.00002  -0.00283
   D22        3.13890  -0.00000   0.00000  -0.00002  -0.00002   3.13888
   D23        0.03096  -0.00000   0.00000  -0.00025  -0.00025   0.03070
   D24       -3.10893  -0.00000   0.00000  -0.00030  -0.00030  -3.10923
   D25       -3.11076  -0.00000   0.00000  -0.00025  -0.00025  -3.11101
   D26        0.03254  -0.00000   0.00000  -0.00030  -0.00030   0.03223
   D27       -3.13553   0.00000   0.00000   0.00001   0.00001  -3.13553
   D28        0.00138  -0.00000   0.00000  -0.00000  -0.00000   0.00138
   D29        0.00619   0.00000   0.00000   0.00000   0.00000   0.00619
   D30       -3.14008  -0.00000   0.00000  -0.00001  -0.00001  -3.14009
   D31        1.01435  -0.00000   0.00000  -0.00011  -0.00011   1.01424
   D32       -1.05508  -0.00000   0.00000  -0.00009  -0.00009  -1.05517
   D33        3.12339   0.00000   0.00000  -0.00004  -0.00004   3.12336
   D34       -2.12551  -0.00000   0.00000  -0.00016  -0.00016  -2.12567
   D35        2.08825  -0.00000   0.00000  -0.00014  -0.00014   2.08811
   D36       -0.01647   0.00000   0.00000  -0.00009  -0.00009  -0.01655
   D37       -0.00310  -0.00000   0.00000  -0.00001  -0.00001  -0.00311
   D38       -3.13678  -0.00000   0.00000  -0.00000  -0.00000  -3.13678
   D39        3.13391  -0.00000   0.00000  -0.00003  -0.00003   3.13388
   D40        0.00023  -0.00000   0.00000  -0.00001  -0.00001   0.00021
   D41        1.07737   0.00000   0.00000   0.00003   0.00003   1.07740
   D42       -1.09986   0.00000   0.00000   0.00004   0.00004  -1.09982
   D43       -0.94483  -0.00001   0.00000  -0.00006  -0.00006  -0.94489
   D44       -3.12206  -0.00000   0.00000  -0.00005  -0.00005  -3.12212
   D45        3.09665  -0.00000   0.00000  -0.00003  -0.00003   3.09663
   D46        0.91942  -0.00000   0.00000  -0.00002  -0.00002   0.91940
         Item               Value     Threshold  Converged?
 Maximum Force            0.000012     0.000450     YES
 RMS     Force            0.000004     0.000300     YES
 Maximum Displacement     0.000694     0.001800     YES
 RMS     Displacement     0.000170     0.001200     YES
 Predicted change in Energy=-5.345103D-09
 Optimization completed.
    -- Stationary point found.
                           ----------------------------
                           !   Optimized Parameters   !
                           ! (Angstroms and Degrees)  !
 --------------------------                            --------------------------
 ! Name  Definition              Value          Derivative Info.                !
 --------------------------------------------------------------------------------
 ! R1    R(1,2)                  1.395          -DE/DX =    0.0                 !
 ! R2    R(1,10)                 1.3908         -DE/DX =    0.0                 !
 ! R3    R(1,12)                 1.7821         -DE/DX =    0.0                 !
 ! R4    R(2,3)                  1.0859         -DE/DX =    0.0                 !
 ! R5    R(2,4)                  1.3886         -DE/DX =    0.0                 !
 ! R6    R(4,5)                  1.085          -DE/DX =    0.0                 !
 ! R7    R(4,6)                  1.4004         -DE/DX =    0.0                 !
 ! R8    R(6,7)                  1.5025         -DE/DX =    0.0                 !
 ! R9    R(6,8)                  1.3981         -DE/DX =    0.0                 !
 ! R10   R(7,18)                 1.2241         -DE/DX =    0.0                 !
 ! R11   R(7,19)                 1.501          -DE/DX =    0.0                 !
 ! R12   R(8,9)                  1.0848         -DE/DX =    0.0                 !
 ! R13   R(8,10)                 1.3931         -DE/DX =    0.0                 !
 ! R14   R(10,11)                1.085          -DE/DX =    0.0                 !
 ! R15   R(12,13)                1.4619         -DE/DX =    0.0                 !
 ! R16   R(12,14)                1.4624         -DE/DX =    0.0                 !
 ! R17   R(12,15)                1.6498         -DE/DX =    0.0                 !
 ! R18   R(15,16)                1.0222         -DE/DX =    0.0                 !
 ! R19   R(15,17)                1.0223         -DE/DX =    0.0                 !
 ! R20   R(19,20)                1.0951         -DE/DX =    0.0                 !
 ! R21   R(19,21)                1.0953         -DE/DX =    0.0                 !
 ! R22   R(19,22)                1.0905         -DE/DX =    0.0                 !
 ! A1    A(2,1,10)             122.3429         -DE/DX =    0.0                 !
 ! A2    A(2,1,12)             118.5953         -DE/DX =    0.0                 !
 ! A3    A(10,1,12)            119.0341         -DE/DX =    0.0                 !
 ! A4    A(1,2,3)              120.8621         -DE/DX =    0.0                 !
 ! A5    A(1,2,4)              118.4679         -DE/DX =    0.0                 !
 ! A6    A(3,2,4)              120.6694         -DE/DX =    0.0                 !
 ! A7    A(2,4,5)              119.9811         -DE/DX =    0.0                 !
 ! A8    A(2,4,6)              120.3578         -DE/DX =    0.0                 !
 ! A9    A(5,4,6)              119.661          -DE/DX =    0.0                 !
 ! A10   A(4,6,7)              118.7345         -DE/DX =    0.0                 !
 ! A11   A(4,6,8)              120.0665         -DE/DX =    0.0                 !
 ! A12   A(7,6,8)              121.199          -DE/DX =    0.0                 !
 ! A13   A(6,7,18)             119.7251         -DE/DX =    0.0                 !
 ! A14   A(6,7,19)             118.927          -DE/DX =    0.0                 !
 ! A15   A(18,7,19)            121.3479         -DE/DX =    0.0                 !
 ! A16   A(6,8,9)              120.8356         -DE/DX =    0.0                 !
 ! A17   A(6,8,10)             120.2419         -DE/DX =    0.0                 !
 ! A18   A(9,8,10)             118.922          -DE/DX =    0.0                 !
 ! A19   A(1,10,8)             118.5227         -DE/DX =    0.0                 !
 ! A20   A(1,10,11)            120.8398         -DE/DX =    0.0                 !
 ! A21   A(8,10,11)            120.6359         -DE/DX =    0.0                 !
 ! A22   A(1,12,13)            107.9932         -DE/DX =    0.0                 !
 ! A23   A(1,12,14)            107.938          -DE/DX =    0.0                 !
 ! A24   A(1,12,15)            108.3306         -DE/DX =    0.0                 !
 ! A25   A(13,12,14)           119.664          -DE/DX =    0.0                 !
 ! A26   A(13,12,15)           106.338          -DE/DX =    0.0                 !
 ! A27   A(14,12,15)           106.1351         -DE/DX =    0.0                 !
 ! A28   A(12,15,16)           111.808          -DE/DX =    0.0                 !
 ! A29   A(12,15,17)           111.8477         -DE/DX =    0.0                 !
 ! A30   A(16,15,17)           110.6647         -DE/DX =    0.0                 !
 ! A31   A(7,19,20)            110.2861         -DE/DX =    0.0                 !
 ! A32   A(7,19,21)            110.139          -DE/DX =    0.0                 !
 ! A33   A(7,19,22)            109.3832         -DE/DX =    0.0                 !
 ! A34   A(20,19,21)           107.5637         -DE/DX =    0.0                 !
 ! A35   A(20,19,22)           109.7863         -DE/DX =    0.0                 !
 ! A36   A(21,19,22)           109.6604         -DE/DX =    0.0                 !
 ! D1    D(10,1,2,3)          -179.8292         -DE/DX =    0.0                 !
 ! D2    D(10,1,2,4)            -0.1059         -DE/DX =    0.0                 !
 ! D3    D(12,1,2,3)             2.1041         -DE/DX =    0.0                 !
 ! D4    D(12,1,2,4)          -178.1726         -DE/DX =    0.0                 !
 ! D5    D(2,1,10,8)             0.1938         -DE/DX =    0.0                 !
 ! D6    D(2,1,10,11)          179.7395         -DE/DX =    0.0                 !
 ! D7    D(12,1,10,8)          178.2524         -DE/DX =    0.0                 !
 ! D8    D(12,1,10,11)          -2.2019         -DE/DX =    0.0                 !
 ! D9    D(2,1,12,13)         -163.0669         -DE/DX =    0.0                 !
 ! D10   D(2,1,12,14)          -32.3675         -DE/DX =    0.0                 !
 ! D11   D(2,1,12,15)           82.1499         -DE/DX =    0.0                 !
 ! D12   D(10,1,12,13)          18.8011         -DE/DX =    0.0                 !
 ! D13   D(10,1,12,14)         149.5005         -DE/DX =    0.0                 !
 ! D14   D(10,1,12,15)         -95.9821         -DE/DX =    0.0                 !
 ! D15   D(1,2,4,5)           -179.8333         -DE/DX =    0.0                 !
 ! D16   D(1,2,4,6)              0.0011         -DE/DX =    0.0                 !
 ! D17   D(3,2,4,5)             -0.1094         -DE/DX =    0.0                 !
 ! D18   D(3,2,4,6)            179.725          -DE/DX =    0.0                 !
 ! D19   D(2,4,6,7)           -179.9963         -DE/DX =    0.0                 !
 ! D20   D(2,4,6,8)              0.0109         -DE/DX =    0.0                 !
 ! D21   D(5,4,6,7)             -0.1614         -DE/DX =    0.0                 !
 ! D22   D(5,4,6,8)            179.8458         -DE/DX =    0.0                 !
 ! D23   D(4,6,7,18)             1.7738         -DE/DX =    0.0                 !
 ! D24   D(4,6,7,19)          -178.1286         -DE/DX =    0.0                 !
 ! D25   D(8,6,7,18)          -178.2335         -DE/DX =    0.0                 !
 ! D26   D(8,6,7,19)             1.8641         -DE/DX =    0.0                 !
 ! D27   D(4,6,8,9)           -179.6528         -DE/DX =    0.0                 !
 ! D28   D(4,6,8,10)             0.0791         -DE/DX =    0.0                 !
 ! D29   D(7,6,8,9)              0.3546         -DE/DX =    0.0                 !
 ! D30   D(7,6,8,10)          -179.9135         -DE/DX =    0.0                 !
 ! D31   D(6,7,19,20)           58.118          -DE/DX =    0.0                 !
 ! D32   D(6,7,19,21)          -60.4516         -DE/DX =    0.0                 !
 ! D33   D(6,7,19,22)          178.9573         -DE/DX =    0.0                 !
 ! D34   D(18,7,19,20)        -121.7827         -DE/DX =    0.0                 !
 ! D35   D(18,7,19,21)         119.6477         -DE/DX =    0.0                 !
 ! D36   D(18,7,19,22)          -0.9434         -DE/DX =    0.0                 !
 ! D37   D(6,8,10,1)            -0.1774         -DE/DX =    0.0                 !
 ! D38   D(6,8,10,11)         -179.724          -DE/DX =    0.0                 !
 ! D39   D(9,8,10,1)           179.5597         -DE/DX =    0.0                 !
 ! D40   D(9,8,10,11)            0.0131         -DE/DX =    0.0                 !
 ! D41   D(1,12,15,16)          61.7287         -DE/DX =    0.0                 !
 ! D42   D(1,12,15,17)         -63.0175         -DE/DX =    0.0                 !
 ! D43   D(13,12,15,16)        -54.1349         -DE/DX =    0.0                 !
 ! D44   D(13,12,15,17)       -178.8811         -DE/DX =    0.0                 !
 ! D45   D(14,12,15,16)        177.4252         -DE/DX =    0.0                 !
 ! D46   D(14,12,15,17)         52.679          -DE/DX =    0.0                 !
 --------------------------------------------------------------------------------
 GradGradGradGradGradGradGradGradGradGradGradGradGradGradGradGradGradGrad

                          Input orientation:                          
 ---------------------------------------------------------------------
 Center     Atomic      Atomic             Coordinates (Angstroms)
 Number     Number       Type             X           Y           Z
 ---------------------------------------------------------------------
      1          6           0       -1.300351    0.743773   -0.994277
      2          6           0       -2.493368    0.771413   -1.716668
      3          1           0       -3.451487    0.821074   -1.208078
      4          6           0       -2.428356    0.739835   -3.103421
      5          1           0       -3.341048    0.763009   -3.689661
      6          6           0       -1.188970    0.681581   -3.752694
      7          6           0       -1.161141    0.648998   -5.254534
      8          6           0       -0.007491    0.654620   -3.005701
      9          1           0        0.959498    0.615162   -3.495838
     10          6           0       -0.056606    0.683841   -1.613806
     11          1           0        0.856486    0.667676   -1.027861
     12         16           0       -1.381208    0.734278    0.785928
     13          8           0       -0.065366    1.110587    1.299751
     14          8           0       -2.560911    1.499668    1.187300
     15          7           0       -1.648492   -0.815396    1.284934
     16          1           0       -0.887862   -1.439878    1.008552
     17          1           0       -2.547074   -1.172370    0.952879
     18          8           0       -2.210393    0.706486   -5.882444
     19          6           0        0.162733    0.543707   -5.954046
     20          1           0        0.690764   -0.360501   -5.633336
     21          1           0        0.793124    1.402443   -5.699439
     22          1           0        0.001097    0.514034   -7.032101
 ---------------------------------------------------------------------
                    Distance matrix (angstroms):
                    1          2          3          4          5
     1  C    0.000000
     2  C    1.394956   0.000000
     3  H    2.163116   1.085874   0.000000
     4  C    2.391840   1.388635   2.155394   0.000000
     5  H    3.380815   2.147402   2.484718   1.084998   0.000000
     6  C    2.761365   2.419695   3.407860   1.400367   2.154540
     7  C    4.263584   3.782368   4.652859   2.498274   2.685856
     8  C    2.392752   2.802647   3.888478   2.424335   3.404725
     9  H    3.373613   3.887434   4.973232   3.412783   4.307450
    10  C    1.390795   2.440504   3.421793   2.801301   3.886258
    11  H    2.158440   3.421511   4.314469   3.886302   4.971273
    12  S    1.782066   2.738844   2.875700   4.027851   4.885969
    13  O    2.631027   3.887032   4.223605   5.010898   5.978724
    14  O    2.630526   2.994653   2.644135   4.359496   4.993599
    15  N    2.783346   3.498770   3.484815   4.720656   5.486593
    16  H    2.991622   3.859311   4.074006   4.902305   5.739690
    17  H    3.002888   3.302674   3.075958   4.486000   5.092079
    18  O    4.972298   4.175881   4.837679   2.787757   2.467767
    19  C    5.174935   5.006206   5.971912   3.857236   4.177561
    20  H    5.167671   5.173028   6.175538   4.164147   4.614722
    21  H    5.191824   5.202085   6.207015   4.190023   4.641063
    22  H    6.180766   5.877281   6.777452   4.624690   4.733268
                    6          7          8          9         10
     6  C    0.000000
     7  C    1.502451   0.000000
     8  C    1.398077   2.527487   0.000000
     9  H    2.164787   2.755225   1.084831   0.000000
    10  C    2.420144   3.804749   1.393068   2.139913   0.000000
    11  H    3.407169   4.683581   2.158351   2.470684   1.085048
    12  S    4.542997   6.045071   4.033596   4.881251   2.741503
    13  O    5.193624   6.661264   4.329916   4.928840   2.944657
    14  O    5.191823   6.646820   4.981497   5.925151   3.844907
    15  N    5.275395   6.719122   4.823213   5.630621   3.631048
    16  H    5.221180   6.607899   4.612613   5.284454   3.475332
    17  H    5.236793   6.615903   5.045565   5.939899   4.029370
    18  O    2.362152   1.224135   3.623688   3.968934   4.781274
    19  C    2.586902   1.501015   2.955337   2.585097   4.348038
    20  H    2.855897   2.142926   2.902154   2.364960   4.219696
    21  H    2.870219   2.141208   2.907997   2.345922   4.234481
    22  H    3.492684   2.128088   4.028863   3.665231   5.421262
                   11         12         13         14         15
    11  H    0.000000
    12  S    2.881239   0.000000
    13  O    2.542392   1.461870   0.000000
    14  O    4.156651   1.462402   2.528196   0.000000
    15  N    3.717988   1.649829   2.493174   2.490294   0.000000
    16  H    3.410500   2.240515   2.695583   3.387030   1.022215
    17  H    4.346645   2.241076   3.389851   2.682337   1.022321
    18  O    5.742319   6.719785   7.506555   7.122730   7.348685
    19  C    4.976340   6.917176   7.279489   7.702657   7.584888
    20  H    4.721759   6.833634   7.127659   7.781690   7.317206
    21  H    4.729433   6.872710   7.057680   7.660690   7.724103
    22  H    6.066811   7.942345   8.353445   8.665674   8.582634
                   16         17         18         19         20
    16  H    0.000000
    17  H    1.681560   0.000000
    18  O    7.337697   7.096837   0.000000
    19  C    7.315472   7.615352   2.379780   0.000000
    20  H    6.911714   7.383831   3.101166   1.095109   0.000000
    21  H    7.476740   7.876542   3.088521   1.095283   1.767150
    22  H    8.322267   8.549681   2.499887   1.090509   1.788014
                   21         22
    21  H    0.000000
    22  H    1.786775   0.000000
 Stoichiometry    C8H9NO3S
 Framework group  C1[X(C8H9NO3S)]
 Deg. of freedom    60
 Full point group                 C1      NOp   1
 Largest Abelian subgroup         C1      NOp   1
 Largest concise Abelian subgroup C1      NOp   1
                         Standard orientation:                         
 ---------------------------------------------------------------------
 Center     Atomic      Atomic             Coordinates (Angstroms)
 Number     Number       Type             X           Y           Z
 ---------------------------------------------------------------------
      1          6           0       -0.773771    0.000557   -0.103356
      2          6           0       -0.136753   -1.240084   -0.073010
      3          1           0       -0.710995   -2.161587   -0.087130
      4          6           0        1.250881   -1.270790   -0.030140
      5          1           0        1.771739   -2.222349   -0.008610
      6          6           0        1.985142   -0.078424   -0.017942
      7          6           0        3.484958   -0.154183    0.028678
      8          6           0        1.322778    1.152407   -0.048728
      9          1           0        1.879308    2.083601   -0.045365
     10          6           0       -0.068885    1.199417   -0.089969
     11          1           0       -0.589371    2.151053   -0.118516
     12         16           0       -2.555282    0.044721   -0.108515
     13          8           0       -2.972738    1.375818   -0.545520
     14          8           0       -3.033010   -1.135915   -0.827191
     15          7           0       -3.082900   -0.120108    1.445959
     16          1           0       -2.758267    0.645533    2.040375
     17          1           0       -2.817322   -1.023488    1.844096
     18          8           0        4.038039   -1.246229    0.022145
     19          6           0        4.274929    1.120902    0.084792
     20          1           0        3.985625    1.708472    0.962476
     21          1           0        4.071365    1.729990   -0.802462
     22          1           0        5.338734    0.885791    0.132242
 ---------------------------------------------------------------------
 Rotational constants (GHZ):           2.0716028           0.3391381           0.3111301
 Unable to Open any file for archive entry.
 1\1\GINC-GADI-CPU-CLX-1325\FOpt\RM062X\Gen\C8H9N1O3S1\YJ5695\29-Jun-20
 22\0\\#m062X/gen 6D OPT Freq=noraman SCRF=(SMD,Solvent=h2o)\\HA.12.smd
 .a1.smd\\0,1\C,-1.300351,0.743773,-0.994277\C,-2.493368,0.771413,-1.71
 6668\H,-3.451487,0.821074,-1.208078\C,-2.428356,0.739835,-3.103421\H,-
 3.341048,0.763009,-3.689661\C,-1.18897,0.681581,-3.752694\C,-1.161141,
 0.648998,-5.254534\C,-0.007491,0.65462,-3.005701\H,0.959498,0.615162,-
 3.495838\C,-0.056606,0.683841,-1.613806\H,0.856486,0.667676,-1.027861\
 S,-1.381208,0.734278,0.785928\O,-0.065366,1.110587,1.299751\O,-2.56091
 1,1.499668,1.1873\N,-1.648492,-0.815396,1.284934\H,-0.887862,-1.439878
 ,1.008552\H,-2.547074,-1.17237,0.952879\O,-2.210393,0.706486,-5.882444
 \C,0.162733,0.543707,-5.954046\H,0.690764,-0.360501,-5.633336\H,0.7931
 24,1.402443,-5.699439\H,0.001097,0.514034,-7.032101\\Version=ES64L-G16
 RevC.01\State=1-A\HF=-988.5863652\RMSD=2.240e-09\RMSF=5.802e-06\Dipole
 =1.2517576,-2.2525023,-1.6113518\Quadrupole=9.7872248,8.8944994,-18.68
 17241,1.602584,-12.2173882,-10.0308147\PG=C01 [X(C8H9N1O3S1)]\\@
 The archive entry for this job was punched.


 ... FOR AFTERWARDS A MAN FINDS PLEASURE IN HIS PAINS,
 WHEN HE HAS SUFFERED LONG AND WANDERED FAR.

                                    -- HOMER
 Job cpu time:       0 days  0 hours 12 minutes  6.6 seconds.
 Elapsed time:       0 days  0 hours  0 minutes 46.5 seconds.
 File lengths (MBytes):  RWF=     95 Int=      0 D2E=      0 Chk=      8 Scr=      1
 Normal termination of Gaussian 16 at Wed Jun 29 12:05:13 2022.
 Link1:  Proceeding to internal job step number  2.
 ------------------------------------------------------------------
 #N Geom=AllCheck Guess=TCheck SCRF=Check GenChk RM062X/ChkBas Freq
 ------------------------------------------------------------------
 1/10=4,29=7,30=1,38=1,40=1/1,3;
 2/12=2,40=1/2;
 3/5=7,6=2,8=2,11=2,14=-4,25=1,30=1,67=1,70=2,71=2,74=-55,82=7,116=1,140=1/1,2,3;
 4/5=101/1;
 5/5=2,38=6,98=1/2;
 8/6=4,10=90,11=11/1;
 11/6=1,8=1,9=11,15=111,16=1/1,2,10;
 10/6=1/2;
 6/7=2,8=2,9=2,10=2,28=1/1;
 7/8=1,10=1,25=1/1,2,3,16;
 1/10=4,30=1/3;
 99//99;
 Structure from the checkpoint file:  "/jobfs/48710059.gadi-pbs/Gau-1285641.chk"
 ----------------
 HA.12.smd.a1.smd
 ----------------
 Charge =  0 Multiplicity = 1
 Redundant internal coordinates found in file.  (old form).
 C,0,-1.300351,0.743773,-0.994277
 C,0,-2.493368,0.771413,-1.716668
 H,0,-3.451487,0.821074,-1.208078
 C,0,-2.428356,0.739835,-3.103421
 H,0,-3.341048,0.763009,-3.689661
 C,0,-1.18897,0.681581,-3.752694
 C,0,-1.161141,0.648998,-5.254534
 C,0,-0.007491,0.65462,-3.005701
 H,0,0.959498,0.615162,-3.495838
 C,0,-0.056606,0.683841,-1.613806
 H,0,0.856486,0.667676,-1.027861
 S,0,-1.381208,0.734278,0.785928
 O,0,-0.065366,1.110587,1.299751
 O,0,-2.560911,1.499668,1.1873
 N,0,-1.648492,-0.815396,1.284934
 H,0,-0.887862,-1.439878,1.008552
 H,0,-2.547074,-1.17237,0.952879
 O,0,-2.210393,0.706486,-5.882444
 C,0,0.162733,0.543707,-5.954046
 H,0,0.690764,-0.360501,-5.633336
 H,0,0.793124,1.402443,-5.699439
 H,0,0.001097,0.514034,-7.032101
 Recover connectivity data from disk.

 GradGradGradGradGradGradGradGradGradGradGradGradGradGradGradGradGradGrad
 Berny optimization.
 Initialization pass.
                           ----------------------------
                           !    Initial Parameters    !
                           ! (Angstroms and Degrees)  !
 --------------------------                            --------------------------
 ! Name  Definition              Value          Derivative Info.                !
 --------------------------------------------------------------------------------
 ! R1    R(1,2)                  1.395          calculate D2E/DX2 analytically  !
 ! R2    R(1,10)                 1.3908         calculate D2E/DX2 analytically  !
 ! R3    R(1,12)                 1.7821         calculate D2E/DX2 analytically  !
 ! R4    R(2,3)                  1.0859         calculate D2E/DX2 analytically  !
 ! R5    R(2,4)                  1.3886         calculate D2E/DX2 analytically  !
 ! R6    R(4,5)                  1.085          calculate D2E/DX2 analytically  !
 ! R7    R(4,6)                  1.4004         calculate D2E/DX2 analytically  !
 ! R8    R(6,7)                  1.5025         calculate D2E/DX2 analytically  !
 ! R9    R(6,8)                  1.3981         calculate D2E/DX2 analytically  !
 ! R10   R(7,18)                 1.2241         calculate D2E/DX2 analytically  !
 ! R11   R(7,19)                 1.501          calculate D2E/DX2 analytically  !
 ! R12   R(8,9)                  1.0848         calculate D2E/DX2 analytically  !
 ! R13   R(8,10)                 1.3931         calculate D2E/DX2 analytically  !
 ! R14   R(10,11)                1.085          calculate D2E/DX2 analytically  !
 ! R15   R(12,13)                1.4619         calculate D2E/DX2 analytically  !
 ! R16   R(12,14)                1.4624         calculate D2E/DX2 analytically  !
 ! R17   R(12,15)                1.6498         calculate D2E/DX2 analytically  !
 ! R18   R(15,16)                1.0222         calculate D2E/DX2 analytically  !
 ! R19   R(15,17)                1.0223         calculate D2E/DX2 analytically  !
 ! R20   R(19,20)                1.0951         calculate D2E/DX2 analytically  !
 ! R21   R(19,21)                1.0953         calculate D2E/DX2 analytically  !
 ! R22   R(19,22)                1.0905         calculate D2E/DX2 analytically  !
 ! A1    A(2,1,10)             122.3429         calculate D2E/DX2 analytically  !
 ! A2    A(2,1,12)             118.5953         calculate D2E/DX2 analytically  !
 ! A3    A(10,1,12)            119.0341         calculate D2E/DX2 analytically  !
 ! A4    A(1,2,3)              120.8621         calculate D2E/DX2 analytically  !
 ! A5    A(1,2,4)              118.4679         calculate D2E/DX2 analytically  !
 ! A6    A(3,2,4)              120.6694         calculate D2E/DX2 analytically  !
 ! A7    A(2,4,5)              119.9811         calculate D2E/DX2 analytically  !
 ! A8    A(2,4,6)              120.3578         calculate D2E/DX2 analytically  !
 ! A9    A(5,4,6)              119.661          calculate D2E/DX2 analytically  !
 ! A10   A(4,6,7)              118.7345         calculate D2E/DX2 analytically  !
 ! A11   A(4,6,8)              120.0665         calculate D2E/DX2 analytically  !
 ! A12   A(7,6,8)              121.199          calculate D2E/DX2 analytically  !
 ! A13   A(6,7,18)             119.7251         calculate D2E/DX2 analytically  !
 ! A14   A(6,7,19)             118.927          calculate D2E/DX2 analytically  !
 ! A15   A(18,7,19)            121.3479         calculate D2E/DX2 analytically  !
 ! A16   A(6,8,9)              120.8356         calculate D2E/DX2 analytically  !
 ! A17   A(6,8,10)             120.2419         calculate D2E/DX2 analytically  !
 ! A18   A(9,8,10)             118.922          calculate D2E/DX2 analytically  !
 ! A19   A(1,10,8)             118.5227         calculate D2E/DX2 analytically  !
 ! A20   A(1,10,11)            120.8398         calculate D2E/DX2 analytically  !
 ! A21   A(8,10,11)            120.6359         calculate D2E/DX2 analytically  !
 ! A22   A(1,12,13)            107.9932         calculate D2E/DX2 analytically  !
 ! A23   A(1,12,14)            107.938          calculate D2E/DX2 analytically  !
 ! A24   A(1,12,15)            108.3306         calculate D2E/DX2 analytically  !
 ! A25   A(13,12,14)           119.664          calculate D2E/DX2 analytically  !
 ! A26   A(13,12,15)           106.338          calculate D2E/DX2 analytically  !
 ! A27   A(14,12,15)           106.1351         calculate D2E/DX2 analytically  !
 ! A28   A(12,15,16)           111.808          calculate D2E/DX2 analytically  !
 ! A29   A(12,15,17)           111.8477         calculate D2E/DX2 analytically  !
 ! A30   A(16,15,17)           110.6647         calculate D2E/DX2 analytically  !
 ! A31   A(7,19,20)            110.2861         calculate D2E/DX2 analytically  !
 ! A32   A(7,19,21)            110.139          calculate D2E/DX2 analytically  !
 ! A33   A(7,19,22)            109.3832         calculate D2E/DX2 analytically  !
 ! A34   A(20,19,21)           107.5637         calculate D2E/DX2 analytically  !
 ! A35   A(20,19,22)           109.7863         calculate D2E/DX2 analytically  !
 ! A36   A(21,19,22)           109.6604         calculate D2E/DX2 analytically  !
 ! D1    D(10,1,2,3)          -179.8292         calculate D2E/DX2 analytically  !
 ! D2    D(10,1,2,4)            -0.1059         calculate D2E/DX2 analytically  !
 ! D3    D(12,1,2,3)             2.1041         calculate D2E/DX2 analytically  !
 ! D4    D(12,1,2,4)          -178.1726         calculate D2E/DX2 analytically  !
 ! D5    D(2,1,10,8)             0.1938         calculate D2E/DX2 analytically  !
 ! D6    D(2,1,10,11)          179.7395         calculate D2E/DX2 analytically  !
 ! D7    D(12,1,10,8)          178.2524         calculate D2E/DX2 analytically  !
[...]
 075333,0.59007987,0.00522929,0.00616724,-0.16387554,-0.01341533,0.0001
 5061,-0.01933347,0.00104190,0.00050421,-0.00062560,-0.00075049,-0.0008
 0109,0.00344855,0.00031134,0.00016604,0.00109075,-0.00110435,0.0004807
 9,0.01006661,-0.00192676,-0.00008218,-0.01398780,-0.00052143,-0.000490
 50,0.00272002,-0.00041853,0.00023384,0.00143784,0.01550611,-0.00108698
 ,-0.01566374,-0.00153931,0.00035161,-0.00071549,0.03438242,0.06525857,
 0.51589122,-0.00992939,-0.00501132,0.00412236,0.00307008,-0.00065249,-
 0.00523012,0.00060231,-0.00018103,0.00038078,-0.00156939,0.00039574,-0
 .00001057,0.00013032,0.00003595,-0.00055728,0.00035690,-0.00000931,-0.
 00118106,0.00041836,-0.00009246,0.00201770,0.00171728,0.00034222,-0.00
 017204,0.00001336,-0.00002641,-0.00039474,-0.00299976,0.00067547,0.000
 60468,0.00174616,-0.00032108,0.00024403,-0.45308152,-0.10575710,-0.148
 48254,0.50455268,-0.00515880,0.00675635,0.00180652,0.00096212,0.001204
 05,-0.00236256,0.00004937,0.00018594,-0.00002443,-0.00096070,-0.000609
 35,0.00031827,0.00004779,-0.00015266,-0.00016972,0.00029170,0.00007752
 ,-0.00024566,0.00009010,0.00005744,0.00035621,-0.00004605,-0.00021358,
 -0.00019352,0.00000290,0.00002148,-0.00005913,-0.00019361,0.00019314,0
 .00051690,-0.00017198,-0.00010605,0.00003673,-0.10794323,-0.10379315,-
 0.04178488,0.13352854,0.09990272,-0.03232366,-0.00904892,-0.00268821,0
 .00655219,-0.00159581,-0.00708056,-0.00009381,-0.00028797,0.00041759,-
 0.00283602,0.00118243,-0.00155680,0.00021539,0.00003954,-0.00091637,-0
 .00056092,-0.00011434,-0.00240568,0.00041411,-0.00008999,0.00339095,-0
 .00014512,0.00053153,0.00067924,0.00007833,-0.00007455,-0.00036536,-0.
 00048053,-0.00060084,-0.00258139,-0.00145178,-0.00027126,-0.00110930,-
 0.15441748,-0.04549573,-0.14145897,0.17209660,0.05024666,0.13302962,-0
 .00711635,0.00987189,-0.00375628,-0.00289083,-0.00055685,0.00040819,0.
 00145847,0.00042517,-0.00002344,0.00152522,-0.00083465,0.00028238,-0.0
 0002847,0.00002938,0.00036422,-0.00019010,0.00016509,0.00134423,-0.000
 19769,0.00015214,-0.00222682,-0.00132089,-0.00081269,0.00013458,0.0000
 3950,-0.00004881,0.00060470,0.00257726,0.00074708,0.00473378,0.0006238
 8,0.00039645,-0.00040146,-0.37551547,0.19336791,0.10237187,-0.02834098
 ,0.02075862,0.00969699,0.40871610,0.00909140,0.00297399,0.00396100,0.0
 0061057,0.00047676,0.00040659,0.00005882,-0.00012921,0.00011526,-0.000
 20073,-0.00010955,-0.00029045,0.00000632,-0.00000429,-0.00014320,-0.00
 023863,0.00004110,-0.00065380,0.00013289,0.00005556,0.00094961,0.00148
 208,-0.00038705,0.00038890,-0.00005684,-0.00005245,-0.00040822,-0.0015
 2888,0.00043374,-0.00427561,-0.00019936,0.00011415,0.00004961,0.194112
 44,-0.19821107,-0.06562680,-0.00776374,0.01175368,-0.00226540,-0.23297
 876,0.21544853,0.02749919,-0.01650479,-0.00064690,0.00070029,-0.000782
 68,-0.00202812,0.00124787,-0.00037920,-0.00062407,0.00004218,0.0006912
 3,0.00071760,-0.00004795,-0.00007767,-0.00027435,0.00117624,-0.0002909
 6,-0.00238593,0.00062540,-0.00010580,0.00337789,0.00255912,0.00143010,
 -0.00127289,-0.00007930,0.00009730,-0.00095558,-0.00561284,-0.00162233
 ,-0.00636511,0.00009566,-0.00051466,0.00035318,0.10765473,-0.07197175,
 -0.11671777,-0.01369096,0.00256581,0.01497122,-0.11872602,0.07750447,0
 .10358442,0.00960254,-0.00378951,0.00027609,-0.00125986,-0.00037093,0.
 00115912,0.00007600,-0.00026184,0.00007504,0.00015042,0.00029466,0.000
 95890,-0.00004119,0.00007293,0.00016892,0.00076677,-0.00004557,0.00043
 758,-0.00002723,-0.00007626,-0.00055633,0.00007547,0.00039611,-0.00082
 809,-0.00004304,-0.00007169,-0.00002936,-0.00044288,0.00021184,-0.0002
 0002,0.00012980,-0.00019752,-0.00011518,-0.09582649,-0.01879491,0.0087
 9414,-0.01823764,-0.04258267,0.00433214,-0.00246917,0.04054048,-0.0038
 6506,0.72011156,-0.00314731,-0.00603509,-0.00135590,-0.00165806,-0.000
 52379,0.00207891,-0.00016577,-0.00038252,-0.00022272,0.00060744,0.0009
 5624,0.00000488,-0.00000690,0.00002031,0.00029343,-0.00043583,-0.00002
 953,0.00175774,-0.00037490,-0.00034250,-0.00235110,-0.00066497,0.00117
 909,0.00031790,-0.00000543,0.00007887,0.00042258,0.00193936,-0.0011852
 3,0.00295547,0.00021729,-0.00047834,-0.00020516,-0.01920859,-0.2019667
 4,0.05945757,-0.01014936,-0.01286391,0.00507928,0.00621587,-0.02945832
 ,0.00702169,-0.03091458,0.54741145,0.00547796,0.02391555,-0.00283929,0
 .00268024,0.00089552,-0.00181507,-0.00010844,0.00058889,0.00001357,-0.
 00038274,-0.00153754,0.00059849,-0.00003835,0.00002151,-0.00028997,0.0
 0098370,-0.00012071,-0.00315309,0.00059932,0.00041251,0.00398256,0.000
 13029,-0.00211256,-0.00050418,0.00005186,-0.00006909,-0.00045119,-0.00
 330422,0.00169754,-0.00210054,0.00011175,0.00082297,-0.00000401,0.0035
 4425,0.02734355,-0.06424633,-0.00915587,-0.01268986,0.00742876,0.00391
 475,-0.01122855,0.00794777,0.03011040,0.07195701,0.15835343,-0.0002831
 9,-0.00096785,0.00003357,-0.00036887,-0.00008860,0.00014860,-0.0000182
 7,-0.00005030,-0.00001523,0.00004320,0.00009948,-0.00000371,0.00000055
 ,0.00000562,0.00003994,-0.00001383,-0.00018989,0.00038038,-0.00005861,
 0.00003854,-0.00042343,-0.00009147,0.00016535,-0.00010041,-0.00000541,
 0.00000099,0.00005459,0.00033860,-0.00007135,0.00027329,-0.00004071,-0
 .00000122,-0.00005843,0.00736552,0.00143909,-0.00311960,-0.00170353,-0
 .00115601,-0.00017975,0.00318674,-0.00577881,0.00063232,-0.26880066,0.
 16206319,0.07387013,0.27717363,-0.00120385,0.00140073,-0.00011623,0.00
 033884,0.00026934,-0.00019155,0.00000633,0.00005043,0.00001391,-0.0000
 0493,-0.00018030,-0.00013254,-0.00000057,-0.00000931,-0.00004655,-0.00
 009424,0.00003415,-0.00046815,0.00007004,0.00003020,0.00054154,-0.0000
 0386,-0.00023363,0.00022172,0.00001676,0.00000351,-0.00002958,-0.00015
 690,0.00021424,-0.00004575,-0.00009381,0.00002029,0.00005294,0.0236407
 2,-0.02356099,-0.01027827,-0.00083132,0.00390509,0.00150244,0.00102545
 ,-0.00581126,0.00132567,0.16571658,-0.19315060,-0.05974161,-0.17651281
 ,0.20485767,0.00122734,-0.00094667,-0.00027142,-0.00028088,0.00001029,
 0.00016597,0.00000149,-0.00007416,0.00005186,-0.00001303,0.00005175,0.
 00010099,0.00000006,0.00000515,0.00002518,0.00008538,0.00002411,0.0003
 2874,-0.00004687,-0.00000992,-0.00035779,0.00009035,0.00007058,-0.0002
 2560,-0.00001334,-0.00001267,-0.00000406,0.00000367,-0.00006395,-0.000
 03919,0.00007680,-0.00001505,0.00002659,-0.00770427,0.01581357,-0.0043
 4919,-0.00096940,-0.00088261,-0.00094573,-0.00087654,0.00337765,0.0036
 0173,0.10137861,-0.08961626,-0.04380083,-0.08287000,0.06373772,0.04548
 524,0.00074054,0.00124975,0.00009957,0.00041868,0.00005844,-0.00044253
 ,-0.00002281,-0.00007788,0.00015554,-0.00018595,-0.00001535,0.00028546
 ,-0.00000336,0.00000108,-0.00004852,0.00027630,0.00017640,-0.00048402,
 0.00009380,-0.00005399,0.00057339,0.00001496,-0.00023365,-0.00016015,0
 .00000467,-0.00001691,-0.00007029,-0.00048179,0.00021702,-0.00025937,-
 0.00002557,0.00008086,0.00001526,-0.00449115,-0.01023554,0.00032901,0.
 00368070,0.00256429,-0.00010948,-0.00062211,0.00298172,0.00065313,-0.3
 4389993,-0.10490080,-0.10749797,-0.01682592,-0.01177963,-0.01017836,0.
 36147740,0.00161943,0.00042808,-0.00000663,-0.00010562,0.00004713,0.00
 015909,0.00015744,-0.00002977,0.00003214,0.00001669,-0.00007607,0.0002
 5926,-0.00001224,0.00000732,-0.00000222,0.00022155,-0.00011173,-0.0003
 1128,0.00008413,0.00006036,0.00036113,0.00001178,-0.00011482,-0.000182
 32,0.00000180,-0.00001709,-0.00004196,-0.00020623,0.00030561,-0.000140
 93,0.00001874,0.00000689,-0.00001113,-0.03048949,-0.01313228,-0.012508
 57,-0.00420792,-0.00631356,0.00122426,0.00214039,0.00288332,0.00154766
 ,-0.11014370,-0.10328723,-0.04009052,0.02099715,0.01216256,0.00852669,
 0.11999063,0.10718021,-0.00150463,-0.00032833,-0.00032609,0.00015216,0
 .00007406,-0.00018390,-0.00014816,0.00003413,0.00003771,-0.00003853,-0
 .00001827,-0.00033795,0.00000963,-0.00001526,-0.00001141,-0.00024436,0
 .00010737,0.00025538,-0.00005933,-0.00003201,-0.00028663,0.00001563,0.
 00004974,0.00021128,-0.00000010,0.00001367,0.00002958,0.00025826,-0.00
 006459,0.00012793,0.00001555,-0.00003446,0.00004351,0.01298786,0.01228
 775,-0.00254015,0.00170300,0.00284278,0.00359497,0.00068821,-0.0011676
 9,-0.00101959,-0.14248105,-0.05916076,-0.05665607,0.01107345,0.0039982
 3,-0.00001122,0.11749376,0.04141179,0.05689591,0.00040586,-0.00027494,
 -0.00144612,0.00092405,-0.00008223,-0.00151791,0.00004013,0.00000653,-
 0.00045628,-0.00754264,0.00034645,0.00531661,0.00238382,-0.00012023,0.
 00191474,-0.00469892,0.00079490,-0.03868399,-0.55114884,0.02739181,-0.
 25317745,0.00503142,-0.00007867,-0.00001994,0.00026537,0.00011728,0.00
 053520,-0.00021047,-0.00007866,-0.00109330,0.00003456,-0.00000788,-0.0
 0049939,-0.00006204,0.00012928,0.00418979,-0.00056530,-0.00011022,-0.0
 0099617,0.00069358,-0.00032442,-0.00106250,0.00016394,0.00074199,-0.00
 124374,0.00013297,-0.00017034,0.00011246,-0.00018713,-0.00011949,0.000
 09537,0.62268583,-0.00002185,-0.00001247,0.00001841,-0.00010403,-0.000
 65582,0.00007619,0.00000889,0.00016571,0.00001978,0.00034130,-0.000511
 58,-0.00028855,-0.00011527,0.00051923,-0.00008943,0.00056294,0.0191806
 1,0.00128917,0.02692623,-0.06836069,0.01322032,-0.00014700,0.00244796,
 -0.00012299,-0.00000458,0.00061551,-0.00005159,-0.00002801,-0.00177702
 ,0.00006973,-0.00001112,-0.00017511,0.00003142,0.00002019,0.00017280,-
 0.00013459,0.00002752,0.00000790,0.00003949,-0.00005233,-0.00000628,0.
 00006891,0.00001405,0.00001823,-0.00003017,0.00000765,-0.00000244,0.00
 000595,-0.00001289,0.00000792,-0.00000616,-0.03386207,0.02520466,-0.00
 168628,-0.00034514,-0.00369093,-0.00118596,0.00012034,0.00108782,0.000
 09101,0.00001432,-0.00027922,-0.00333795,0.00023040,-0.00117186,-0.001
 00440,0.00004718,-0.00178593,-0.05141965,0.00202349,-0.04613953,-0.263
 16419,0.01406633,-0.24997287,0.00856615,-0.00044451,-0.00633975,-0.000
 23823,0.00005495,0.00042084,-0.00178111,0.00004354,-0.00335497,0.00015
 413,-0.00000622,-0.00109621,-0.00050652,0.00011700,0.00678877,-0.00098
 501,-0.00020024,-0.00185259,0.00115429,-0.00053052,-0.00168624,0.00031
 390,0.00119250,-0.00190237,0.00020656,-0.00026983,0.00017626,-0.000272
 43,-0.00016757,0.00013066,0.30786227,-0.01539268,0.28929292,-0.0007014
 9,0.00008750,0.00034588,0.00112517,-0.00005253,0.00066468,0.00001881,-
 0.00000879,-0.00017707,0.00114071,-0.00002070,-0.00325015,0.00018401,-
 0.00000686,0.00000028,0.00430796,0.00101798,0.00373915,-0.16379832,0.0
 0612096,0.05918399,-0.00051970,0.00001521,0.00165799,0.00035917,0.0002
 0232,0.00041482,-0.00005837,-0.00017675,-0.00054537,0.00001843,0.00000
 073,-0.00001964,-0.00003963,-0.00000938,-0.00059718,0.00009371,0.00001
 913,0.00012677,-0.00009581,0.00003746,0.00014329,-0.00000273,-0.000101
 19,0.00017237,-0.00002217,0.00002394,-0.00001534,0.00002889,0.00001767
 ,-0.00001335,-0.06087059,0.00590912,0.00241504,0.51545189,0.00007168,0
 .00029263,-0.00001531,-0.00001923,-0.00081786,-0.00001038,-0.00001352,
 -0.00013751,0.00000222,-0.00012925,0.00127534,-0.00004694,-0.00001301,
 -0.00005035,-0.00000274,0.00176354,0.01707822,-0.00095877,0.00673072,-
 0.09030777,-0.00505723,0.00011400,-0.00124715,-0.00040837,0.00025779,0
 .00138839,0.00032315,-0.00007501,-0.00169723,0.00006912,-0.00000210,0.
 00003926,0.00001273,0.00000041,0.00019307,-0.00000286,0.00001035,-0.00
 001892,0.00001480,-0.00002891,-0.00001800,0.00003895,0.00000014,0.0000
 4876,-0.00006101,-0.00000029,-0.00000048,-0.00000277,0.00000350,-0.000
 00960,0.00001058,0.00515892,0.02668861,-0.00055708,0.00217966,0.541885
 93,0.00025308,-0.00005557,-0.00055207,0.00180731,-0.00002470,-0.000590
 26,-0.00005171,0.00000696,-0.00048220,-0.00223758,-0.00006947,-0.00513
 068,0.00008712,-0.00000984,0.00017057,0.02679433,-0.00222417,-0.011615
 44,0.06891785,-0.00568390,-0.13550111,0.00072617,-0.00047559,-0.002765
 53,0.00128703,0.00022330,-0.00159194,0.00027196,0.00011736,0.00024075,
 -0.00000663,-0.00000884,-0.00006627,0.00000667,-0.00001349,0.00123595,
 -0.00021027,-0.00004809,-0.00035169,0.00018964,-0.00010688,-0.00036663
 ,0.00004577,0.00022410,-0.00032211,0.00003229,-0.00004217,0.00002393,-
 0.00004609,-0.00003438,0.00002530,-0.02384797,0.00123769,0.01723142,0.
 04662706,-0.00145423,0.60449684,0.00021980,-0.00005759,-0.00003266,-0.
 00003735,0.00019086,-0.00019426,-0.00000323,0.00002858,0.00000311,-0.0
 0012204,-0.00031078,0.00019399,0.00003355,-0.00001100,-0.00003317,0.00
 016441,-0.00219397,0.00008067,-0.01255850,0.02542171,-0.01233898,0.000
 19992,-0.00025952,-0.00022166,0.00015453,-0.00011135,0.00003296,-0.000
 04255,0.00017602,0.00026752,0.00000060,-0.00001608,0.00000571,0.000021
 37,0.00000949,0.00003947,-0.00000812,-0.00000397,-0.00000389,0.0000063
 9,-0.00000672,-0.00000934,-0.00000704,0.00000213,-0.00001049,0.0000015
 0,-0.00000042,0.00000076,-0.00000284,-0.00000156,0.00000293,-0.0059498
 7,-0.00310845,0.00288045,-0.10658443,0.11638259,-0.03707315,0.11623398
 ,-0.00015381,-0.00002058,0.00012844,0.00005564,-0.00001692,0.00016862,
 -0.00000122,-0.00000466,-0.00000606,0.00009459,0.00006223,-0.00025652,
 -0.00001616,0.00003512,0.00002006,0.00038185,-0.00007272,0.00009842,-0
 .00065281,-0.00005235,-0.00027263,0.00051806,0.00036929,0.00060791,-0.
 00041317,-0.00033629,-0.00038070,-0.00019723,0.00015808,-0.00006404,0.
 00000055,0.00000976,0.00000351,-0.00001788,-0.00004060,-0.00018276,0.0
 0002381,0.00001290,0.00004559,-0.00003527,0.00002564,0.00005056,-0.000
 00352,-0.00004296,0.00006247,-0.00000596,0.00000728,-0.00000313,0.0000
 0972,0.00000655,-0.00000510,-0.00080920,-0.00103595,-0.00028876,0.1132
 0454,-0.23302258,0.06720657,-0.12224992,0.25107609,0.00034284,0.000051
 40,-0.00012213,-0.00025458,-0.00018094,-0.00035832,0.00000112,-0.00001
 856,0.00000539,-0.00040710,0.00022398,0.00058361,-0.00002033,0.0000068
 0,0.00002781,0.00007803,0.00166437,-0.00129314,0.00156775,-0.01593987,
 0.00649767,0.00034097,-0.00048282,-0.00125103,0.00010362,-0.00055778,-
 0.00148960,-0.00006602,-0.00039635,0.00027497,-0.00000787,-0.00000637,
 0.00000431,0.00001378,0.00006671,0.00024305,-0.00003322,-0.00000709,-0
 .00005251,0.00002420,-0.00001447,-0.00004531,0.00000877,0.00005439,-0.
 00009076,0.00000710,-0.00001102,0.00000455,-0.00001246,-0.00000969,0.0
 0000655,0.00325364,0.00196264,0.00040243,-0.03557112,0.06759180,-0.072
 16049,0.04133145,-0.07366172,0.07309940,0.00021570,0.00002669,-0.00003
 726,-0.00005083,-0.00020715,-0.00018060,-0.00000637,-0.00002706,0.0000
 0681,-0.00011678,0.00033051,0.00017790,0.00003301,0.00001434,-0.000037
 15,0.00036683,0.00223331,0.00000763,-0.01551082,-0.02460320,-0.0103833
 0,0.00020819,0.00025978,-0.00022714,0.00019273,0.00008432,-0.00004328,
 -0.00001614,-0.00010395,0.00025934,0.00000016,0.00001647,0.00000719,0.
 00001732,-0.00001800,0.00003444,-0.00000611,0.00000061,-0.00000901,0.0
 0000428,0.00000099,-0.00002177,-0.00000174,0.00000820,-0.00000335,0.00
 000043,0.00000021,0.,-0.00000145,-0.00000129,0.00000069,-0.00513273,0.
 00398449,0.00263516,-0.13522244,-0.13129760,-0.03508077,0.01055689,0.0
 1299202,0.00361860,0.14673401,0.00011348,-0.00003909,-0.00012281,-0.00
 006167,0.00000734,-0.00014539,0.00000183,-0.00000149,0.00000659,-0.000
 08322,0.00003378,0.00025116,0.00001167,0.00002902,-0.00001289,-0.00052
 701,-0.00045700,-0.00010002,0.00244154,0.00392747,0.00192522,-0.000506
 46,0.00032113,-0.00072965,0.00036157,-0.00016510,0.00011617,0.00023260
 ,0.00022447,0.00001533,0.00000005,0.00000867,-0.00000521,0.00001451,-0
 .00004097,0.00018558,-0.00002955,-0.00000685,-0.00005282,0.00004665,-0
 .00001929,-0.00007476,0.00000314,0.00003083,-0.00003696,0.00000524,-0.
 00000591,0.00000287,-0.00000689,-0.00000414,0.00000307,0.00159834,-0.0
 0180803,0.00011809,-0.12764421,-0.21325734,-0.05137961,-0.01618871,-0.
 02001519,-0.00631555,0.13821850,0.23026922,0.00028501,-0.00009457,-0.0
 0010520,-0.00024797,0.00019668,-0.00032510,0.00000402,0.00001618,0.000
 00513,-0.00036659,-0.00018696,0.00055505,-0.00002781,-0.00001274,0.000
 02985,-0.00014294,-0.00180670,-0.00117754,0.00346692,0.01596269,0.0053
 1583,0.00017291,0.00038112,-0.00154010,0.00015482,0.00019323,-0.001554
 33,-0.00006318,0.00040440,0.00024196,-0.00000846,0.00000619,0.00000751
 ,0.00001286,-0.00005752,0.00020338,-0.00003579,-0.00000662,-0.00004051
 ,0.00003758,-0.00000900,-0.00005865,0.00000011,0.00002488,-0.00004260,
 0.00000701,-0.00000642,0.00000437,-0.00000788,-0.00000464,0.00000625,0
 .00274160,-0.00219202,0.00048379,-0.03353292,-0.05169491,-0.06300798,0
 .00552286,0.00741646,0.00131826,0.03954095,0.05615333,0.06351884,-0.00
 006120,0.00002325,0.00008275,-0.00046399,-0.00001142,0.00017039,0.0000
 0653,-0.00000058,0.00014815,0.00052727,0.00002479,0.00151798,0.0000160
 1,0.00000921,-0.00003914,-0.00529115,0.00043081,0.00110474,0.00265656,
 0.00097458,0.03307801,-0.00093153,-0.00001250,-0.00055181,0.00046096,-
 0.00000319,-0.00021383,0.00033778,-0.00000384,-0.00005779,-0.00000264,
 0.00000021,0.00004457,0.00001849,-0.00000403,-0.00035427,0.00005991,0.
 00001207,0.00009513,-0.00004353,0.00002172,0.00008631,-0.00001689,-0.0
 0006177,0.00009817,-0.00001049,0.00001380,-0.00000890,0.00001410,0.000
 01012,-0.00000698,0.00360700,-0.00033478,-0.00069723,-0.05481308,-0.00
 109439,-0.04849210,-0.00227697,-0.00272465,-0.01431915,-0.00226414,0.0
 0199860,-0.01751311,0.05847100,-0.00001260,-0.00003335,-0.00000285,0.0
 0003807,-0.00018156,0.00000129,-0.00000234,-0.00003272,-0.00001033,-0.
 00003719,0.00026656,-0.00013599,0.00000323,0.00007947,0.00000365,0.000
 47026,0.00164067,-0.00008443,-0.00059556,-0.00183287,-0.00242081,0.000
 08129,-0.00003546,0.00007299,-0.00001302,-0.00019968,0.00002533,-0.000
 00012,0.00019833,-0.00001938,0.00000049,0.00001634,-0.00000410,-0.0000
 0130,-0.00002290,0.00002343,-0.00000653,-0.00000019,-0.00000842,0.0000
 0617,0.00000030,-0.00001774,0.00000275,0.00000300,0.00000104,0.0000007
 8,-0.00000057,0.00000086,0.00000013,0.00000036,-0.00000055,-0.00024718
 ,-0.00068377,0.00017443,-0.00081580,-0.04830543,-0.00738504,0.00230867
 ,0.00289785,0.02598014,-0.00191220,0.00096846,-0.02468306,0.00073198,0
 .04525717,0.00007055,-0.00002187,-0.00015721,0.00031414,0.00000377,-0.
 00010618,-0.00001083,0.00000257,-0.00009538,-0.00049459,-0.00001304,-0
 .00072693,0.00004116,-0.00000761,0.00005126,0.00278734,-0.00023280,-0.
 00008232,-0.00437532,-0.00024183,-0.01647363,0.00029022,-0.00000696,0.
 00043624,0.00007934,0.00002317,0.00012656,-0.00008434,0.00001676,0.000
 04958,0.00000603,-0.00000107,-0.00004200,-0.00000836,0.00000373,0.0003
 8793,-0.00006028,-0.00001548,-0.00010667,0.00006094,-0.00003250,-0.000
 10664,0.00001561,0.00006954,-0.00010615,0.00001134,-0.00001450,0.00000
 961,-0.00001560,-0.00001018,0.00000798,-0.00197690,0.00026845,0.003257
 55,-0.04176918,-0.00779075,-0.32892036,-0.00044429,-0.00068719,-0.0056
 0471,-0.00026507,0.00019825,-0.00383820,0.04582811,0.00848953,0.352039
 68\\0.00001587,-0.00000310,0.00000561,-0.00000611,-0.00000048,0.000007
 84,0.00000245,0.00000314,0.00000191,0.00000426,0.00000863,0.00000317,-
 0.00000175,0.00000807,0.00000424,-0.00000001,0.00000207,0.00000293,-0.
 00000659,0.00000675,0.00000246,-0.00000537,0.00000162,-0.00000484,-0.0
 0000205,-0.00000394,0.00000198,0.00000444,-0.00000353,-0.00000006,0.00
 000150,-0.00000839,-0.00000069,-0.00000653,0.00000198,-0.00000115,-0.0
 0000206,-0.00001587,-0.00001006,0.00000739,0.00000269,0.00000387,0.000
 00934,-0.00000928,-0.00000263,-0.00000096,-0.00001040,-0.00000227,-0.0
 0000027,0.00000070,-0.00000251,0.00000065,0.00000985,0.00000316,0.0000
 0412,0.00001106,-0.00000002,-0.00000778,0.00000387,-0.00001112,-0.0000
 0354,-0.00000495,0.00000152,-0.00000700,-0.00000049,-0.00000333\\\@
 The archive entry for this job was punched.


 THE REAL VOYAGE OF DISCOVERY CONSISTS NOT IN SEEKING NEW LANDSCAPES 
 BUT IN HAVING NEW EYES.
                                                    -- MARCEL PROUST
 Job cpu time:       0 days  1 hours 14 minutes 42.4 seconds.
 Elapsed time:       0 days  0 hours  5 minutes  8.1 seconds.
 File lengths (MBytes):  RWF=    242 Int=      0 D2E=      0 Chk=     13 Scr=      1
 Normal termination of Gaussian 16 at Wed Jun 29 12:10:22 2022.
