 Entering Gaussian System, Link 0=g16
 AtFile(1): /home/561/yj5695/Basis/6-31pGd.gbs
 Initial command:
 /apps/gaussian/g16c01/g16/l1.exe "/jobfs/48676125.gadi-pbs/Gau-690612.inp" -scrdir="/jobfs/48676125.gadi-pbs/"
 Entering Link 1 = /apps/gaussian/g16c01/g16/l1.exe PID=    690620.
  
 Copyright (c) 1988-2019, Gaussian, Inc.  All Rights Reserved.
  
 This is part of the Gaussian(R) 16 program.  It is based on
 the Gaussian(R) 09 system (copyright 2009, Gaussian, Inc.),
 the Gaussian(R) 03 system (copyright 2003, Gaussian, Inc.),
 the Gaussian(R) 98 system (copyright 1998, Gaussian, Inc.),
 the Gaussian(R) 94 system (copyright 1995, Gaussian, Inc.),
 the Gaussian 92(TM) system (copyright 1992, Gaussian, Inc.),
 the Gaussian 90(TM) system (copyright 1990, Gaussian, Inc.),
 the Gaussian 88(TM) system (copyright 1988, Gaussian, Inc.),
 the Gaussian 86(TM) system (copyright 1986, Carnegie Mellon
 University), and the Gaussian 82(TM) system (copyright 1983,
 Carnegie Mellon University). Gaussian is a federally registered
 trademark of Gaussian, Inc.
  
 This software contains proprietary and confidential information,
 including trade secrets, belonging to Gaussian, Inc.
  
 This software is provided under written license and may be
 used, copied, transmitted, or stored only in accord with that
 written license.
  
 The following legend is applicable only to US Government
 contracts under FAR:
  
                    RESTRICTED RIGHTS LEGEND
  
 Use, reproduction and disclosure by the US Government is
 subject to restrictions as set forth in subparagraphs (a)
 and (c) of the Commercial Computer Software - Restricted
 Rights clause in FAR 52.227-19.
  
 Gaussian, Inc.
 340 Quinnipiac St., Bldg. 40, Wallingford CT 06492
  
  
 ---------------------------------------------------------------
 Warning -- This program may not be used in any manner that
 competes with the business of Gaussian, Inc. or will provide
 assistance to any competitor of Gaussian, Inc.  The licensee
 of this program is prohibited from giving any competitor of
 Gaussian, Inc. access to this program.  By using this program,
 the user acknowledges that Gaussian, Inc. is engaged in the
 business of creating and licensing software in the field of
 computational chemistry and represents and warrants to the
 licensee that it is not a competitor of Gaussian, Inc. and that
 it will not use this program in any manner prohibited above.
 ---------------------------------------------------------------
  

 Cite this work as:
 Gaussian 16, Revision C.01,
 M. J. Frisch, G. W. Trucks, H. B. Schlegel, G. E. Scuseria, 
 M. A. Robb, J. R. Cheeseman, G. Scalmani, V. Barone, 
 G. A. Petersson, H. Nakatsuji, X. Li, M. Caricato, A. V. Marenich, 
 J. Bloino, B. G. Janesko, R. Gomperts, B. Mennucci, H. P. Hratchian, 
 J. V. Ortiz, A. F. Izmaylov, J. L. Sonnenberg, D. Williams-Young, 
 F. Ding, F. Lipparini, F. Egidi, J. Goings, B. Peng, A. Petrone, 
 T. Henderson, D. Ranasinghe, V. G. Zakrzewski, J. Gao, N. Rega, 
 G. Zheng, W. Liang, M. Hada, M. Ehara, K. Toyota, R. Fukuda, 
 J. Hasegawa, M. Ishida, T. Nakajima, Y. Honda, O. Kitao, H. Nakai, 
 T. Vreven, K. Throssell, J. A. Montgomery, Jr., J. E. Peralta, 
 F. Ogliaro, M. J. Bearpark, J. J. Heyd, E. N. Brothers, K. N. Kudin, 
 V. N. Staroverov, T. A. Keith, R. Kobayashi, J. Normand, 
 K. Raghavachari, A. P. Rendell, J. C. Burant, S. S. Iyengar, 
 J. Tomasi, M. Cossi, J. M. Millam, M. Klene, C. Adamo, R. Cammi, 
 J. W. Ochterski, R. L. Martin, K. Morokuma, O. Farkas, 
 J. B. Foresman, and D. J. Fox, Gaussian, Inc., Wallingford CT, 2019.
 
 ******************************************
 Gaussian 16:  ES64L-G16RevC.01  3-Jul-2019
                29-Jun-2022 
 ******************************************
 %nproc=16
 Will use up to   16 processors via shared memory.
 %mem=50gb
 -----------------------------------------------------
 #m062X/gen 6D OPT Freq=noraman SCRF=(SMD,Solvent=h2o)
 -----------------------------------------------------
 1/18=20,19=15,26=3,38=1/1,3;
 2/9=110,12=2,17=6,18=5,40=1/2;
 3/5=7,8=2,11=2,25=1,30=1,70=32201,71=1,72=1,74=-55/1,2,3;
 4//1;
 5/5=2,38=5,53=1/2;
 6/7=2,8=2,9=2,10=2,28=1/1;
 7//1,2,3,16;
 1/18=20,19=15,26=3/3(2);
 2/9=110/2;
 99//99;
 2/9=110/2;
 3/5=7,6=1,8=2,11=2,25=1,30=1,70=32205,71=1,72=1,74=-55,82=7/1,2,3;
 4/5=5,16=3,69=1/1;
 5/5=2,38=5,53=1/2;
 7//1,2,3,16;
 1/18=20,19=15,26=3/3(-5);
 2/9=110/2;
 6/7=2,8=2,9=2,10=2,19=2,28=1/1;
 99/9=1/99;
 ------------------
 HA.10.smd.a3c3.smd
 ------------------
 Symbolic Z-matrix:
 Charge =  0 Multiplicity = 1
 C                    -1.28239   0.7927   -1.00383 
 C                    -2.39115   1.03318  -1.8147 
 H                    -3.37139   1.18754  -1.37356 
 C                    -2.23934   1.09242  -3.19298 
 H                    -3.10578   1.294    -3.8131 
 C                    -0.97103   0.8938   -3.78103 
 N                    -0.80044   0.91096  -5.13463 
 C                     0.13918   0.64878  -2.93613 
 H                     1.12034   0.50615  -3.38109 
 C                    -0.01316   0.59662  -1.5654 
 H                     0.84906   0.41329  -0.93041 
 S                    -1.48322   0.66164   0.73746 
 O                    -2.59305   1.52938   1.1446 
 O                    -1.51867  -0.75925   1.09614 
 N                    -0.14516   1.27864   1.50218 
 H                    -0.02915   2.2728    1.29355 
 H                     0.69868   0.76709   1.23539 
 C                     0.26535   1.6656   -5.76671 
 H                    -1.14251   0.10015  -5.63559 
 H                     1.25168   1.40289  -5.36312 
 H                     0.11126   2.7407   -5.6351 
 H                     0.25276   1.44676  -6.83427 
 

 GradGradGradGradGradGradGradGradGradGradGradGradGradGradGradGradGradGrad
 Berny optimization.
 Initialization pass.
                           ----------------------------
                           !    Initial Parameters    !
                           ! (Angstroms and Degrees)  !
 --------------------------                            --------------------------
 ! Name  Definition              Value          Derivative Info.                !
 --------------------------------------------------------------------------------
 ! R1    R(1,2)                  1.3945         estimate D2E/DX2                !
 ! R2    R(1,10)                 1.4017         estimate D2E/DX2                !
 ! R3    R(1,12)                 1.7577         estimate D2E/DX2                !
 ! R4    R(2,3)                  1.086          estimate D2E/DX2                !
 ! R5    R(2,4)                  1.3879         estimate D2E/DX2                !
 ! R6    R(4,5)                  1.0844         estimate D2E/DX2                !
 ! R7    R(4,6)                  1.412          estimate D2E/DX2                !
 ! R8    R(6,7)                  1.3644         estimate D2E/DX2                !
 ! R9    R(6,8)                  1.4165         estimate D2E/DX2                !
 ! R10   R(7,18)                 1.4508         estimate D2E/DX2                !
 ! R11   R(7,19)                 1.0126         estimate D2E/DX2                !
 ! R12   R(8,9)                  1.0867         estimate D2E/DX2                !
 ! R13   R(8,10)                 1.3802         estimate D2E/DX2                !
 ! R14   R(10,11)                1.0864         estimate D2E/DX2                !
 ! R15   R(12,13)                1.4664         estimate D2E/DX2                !
 ! R16   R(12,14)                1.4659         estimate D2E/DX2                !
 ! R17   R(12,15)                1.6601         estimate D2E/DX2                !
 ! R18   R(15,16)                1.0224         estimate D2E/DX2                !
 ! R19   R(15,17)                1.0222         estimate D2E/DX2                !
 ! R20   R(18,20)                1.0976         estimate D2E/DX2                !
 ! R21   R(18,21)                1.094          estimate D2E/DX2                !
 ! R22   R(18,22)                1.0898         estimate D2E/DX2                !
 ! A1    A(2,1,10)             120.7376         estimate D2E/DX2                !
 ! A2    A(2,1,12)             119.8708         estimate D2E/DX2                !
 ! A3    A(10,1,12)            119.3353         estimate D2E/DX2                !
 ! A4    A(1,2,3)              120.397          estimate D2E/DX2                !
 ! A5    A(1,2,4)              119.8572         estimate D2E/DX2                !
 ! A6    A(3,2,4)              119.7409         estimate D2E/DX2                !
 ! A7    A(2,4,5)              119.2382         estimate D2E/DX2                !
 ! A8    A(2,4,6)              120.3855         estimate D2E/DX2                !
 ! A9    A(5,4,6)              120.3763         estimate D2E/DX2                !
 ! A10   A(4,6,7)              121.5799         estimate D2E/DX2                !
 ! A11   A(4,6,8)              118.6807         estimate D2E/DX2                !
 ! A12   A(7,6,8)              119.7302         estimate D2E/DX2                !
 ! A13   A(6,7,18)             122.0465         estimate D2E/DX2                !
 ! A14   A(6,7,19)             116.0072         estimate D2E/DX2                !
 ! A15   A(18,7,19)            116.6867         estimate D2E/DX2                !
 ! A16   A(6,8,9)              119.0856         estimate D2E/DX2                !
 ! A17   A(6,8,10)             120.8248         estimate D2E/DX2                !
 ! A18   A(9,8,10)             120.0889         estimate D2E/DX2                !
 ! A19   A(1,10,8)             119.5093         estimate D2E/DX2                !
 ! A20   A(1,10,11)            120.5366         estimate D2E/DX2                !
 ! A21   A(8,10,11)            119.9519         estimate D2E/DX2                !
 ! A22   A(1,12,13)            108.5053         estimate D2E/DX2                !
 ! A23   A(1,12,14)            108.5074         estimate D2E/DX2                !
 ! A24   A(1,12,15)            109.6661         estimate D2E/DX2                !
 ! A25   A(13,12,14)           119.165          estimate D2E/DX2                !
 ! A26   A(13,12,15)           105.2001         estimate D2E/DX2                !
 ! A27   A(14,12,15)           105.4882         estimate D2E/DX2                !
 ! A28   A(12,15,16)           111.0292         estimate D2E/DX2                !
 ! A29   A(12,15,17)           111.0473         estimate D2E/DX2                !
 ! A30   A(16,15,17)           109.8576         estimate D2E/DX2                !
 ! A31   A(7,18,20)            112.0514         estimate D2E/DX2                !
 ! A32   A(7,18,21)            110.8095         estimate D2E/DX2                !
 ! A33   A(7,18,22)            108.2899         estimate D2E/DX2                !
 ! A34   A(20,18,21)           108.5146         estimate D2E/DX2                !
 ! A35   A(20,18,22)           108.8146         estimate D2E/DX2                !
 ! A36   A(21,18,22)           108.2727         estimate D2E/DX2                !
 ! D1    D(10,1,2,3)          -179.8005         estimate D2E/DX2                !
 ! D2    D(10,1,2,4)            -0.6075         estimate D2E/DX2                !
 ! D3    D(12,1,2,3)             2.9439         estimate D2E/DX2                !
 ! D4    D(12,1,2,4)          -177.8632         estimate D2E/DX2                !
 ! D5    D(2,1,10,8)             0.3003         estimate D2E/DX2                !
 ! D6    D(2,1,10,11)          179.7641         estimate D2E/DX2                !
 ! D7    D(12,1,10,8)          177.5705         estimate D2E/DX2                !
 ! D8    D(12,1,10,11)          -2.9658         estimate D2E/DX2                !
 ! D9    D(2,1,12,13)          -31.5961         estimate D2E/DX2                !
 ! D10   D(2,1,12,14)           99.2449         estimate D2E/DX2                !
 ! D11   D(2,1,12,15)         -146.004          estimate D2E/DX2                !
 ! D12   D(10,1,12,13)         151.1097         estimate D2E/DX2                !
 ! D13   D(10,1,12,14)         -78.0493         estimate D2E/DX2                !
 ! D14   D(10,1,12,15)          36.7018         estimate D2E/DX2                !
 ! D15   D(1,2,4,5)           -179.137          estimate D2E/DX2                !
 ! D16   D(1,2,4,6)              0.8015         estimate D2E/DX2                !
 ! D17   D(3,2,4,5)              0.0612         estimate D2E/DX2                !
 ! D18   D(3,2,4,6)            179.9998         estimate D2E/DX2                !
 ! D19   D(2,4,6,7)            178.2096         estimate D2E/DX2                !
 ! D20   D(2,4,6,8)             -0.6848         estimate D2E/DX2                !
 ! D21   D(5,4,6,7)             -1.8525         estimate D2E/DX2                !
 ! D22   D(5,4,6,8)            179.253          estimate D2E/DX2                !
 ! D23   D(4,6,7,18)           132.7575         estimate D2E/DX2                !
 ! D24   D(4,6,7,19)           -73.7384         estimate D2E/DX2                !
 ! D25   D(8,6,7,18)           -48.3594         estimate D2E/DX2                !
 ! D26   D(8,6,7,19)           105.1446         estimate D2E/DX2                !
 ! D27   D(4,6,8,9)           -179.3154         estimate D2E/DX2                !
 ! D28   D(4,6,8,10)             0.379          estimate D2E/DX2                !
 ! D29   D(7,6,8,9)              1.7692         estimate D2E/DX2                !
 ! D30   D(7,6,8,10)          -178.5364         estimate D2E/DX2                !
 ! D31   D(6,7,18,20)           54.6394         estimate D2E/DX2                !
 ! D32   D(6,7,18,21)          -66.7241         estimate D2E/DX2                !
 ! D33   D(6,7,18,22)          174.6633         estimate D2E/DX2                !
 ! D34   D(19,7,18,20)         -98.6962         estimate D2E/DX2                !
 ! D35   D(19,7,18,21)         139.9403         estimate D2E/DX2                !
 ! D36   D(19,7,18,22)          21.3277         estimate D2E/DX2                !
 ! D37   D(6,8,10,1)            -0.1896         estimate D2E/DX2                !
 ! D38   D(6,8,10,11)         -179.6566         estimate D2E/DX2                !
 ! D39   D(9,8,10,1)           179.5018         estimate D2E/DX2                !
 ! D40   D(9,8,10,11)            0.0348         estimate D2E/DX2                !
 ! D41   D(1,12,15,16)          62.3143         estimate D2E/DX2                !
 ! D42   D(1,12,15,17)         -60.2251         estimate D2E/DX2                !
 ! D43   D(13,12,15,16)        -54.1969         estimate D2E/DX2                !
 ! D44   D(13,12,15,17)       -176.7362         estimate D2E/DX2                !
 ! D45   D(14,12,15,16)        178.9825         estimate D2E/DX2                !
 ! D46   D(14,12,15,17)         56.4432         estimate D2E/DX2                !
 --------------------------------------------------------------------------------
 Trust Radius=3.00D-01 FncErr=1.00D-07 GrdErr=1.00D-06 EigMax=2.50D+02 EigMin=1.00D-04
 Number of steps in this run=    114 maximum allowed number of steps=    132.
 GradGradGradGradGradGradGradGradGradGradGradGradGradGradGradGradGradGrad

                          Input orientation:                          
 ---------------------------------------------------------------------
 Center     Atomic      Atomic             Coordinates (Angstroms)
 Number     Number       Type             X           Y           Z
 ---------------------------------------------------------------------
      1          6           0       -1.282385    0.792699   -1.003826
      2          6           0       -2.391146    1.033184   -1.814699
      3          1           0       -3.371385    1.187543   -1.373560
      4          6           0       -2.239338    1.092420   -3.192980
      5          1           0       -3.105780    1.293996   -3.813100
      6          6           0       -0.971033    0.893799   -3.781025
      7          7           0       -0.800436    0.910963   -5.134630
      8          6           0        0.139183    0.648779   -2.936133
      9          1           0        1.120339    0.506152   -3.381086
     10          6           0       -0.013163    0.596618   -1.565395
     11          1           0        0.849055    0.413291   -0.930409
     12         16           0       -1.483217    0.661643    0.737461
     13          8           0       -2.593049    1.529378    1.144598
     14          8           0       -1.518671   -0.759250    1.096136
     15          7           0       -0.145155    1.278643    1.502183
     16          1           0       -0.029152    2.272805    1.293547
     17          1           0        0.698679    0.767090    1.235385
     18          6           0        0.265351    1.665601   -5.766709
     19          1           0       -1.142511    0.100145   -5.635590
     20          1           0        1.251677    1.402891   -5.363119
     21          1           0        0.111255    2.740696   -5.635103
     22          1           0        0.252756    1.446755   -6.834270
 ---------------------------------------------------------------------
                    Distance matrix (angstroms):
                    1          2          3          4          5
     1  C    0.000000
     2  C    1.394525   0.000000
     3  H    2.157899   1.085955   0.000000
     4  C    2.407901   1.387881   2.144963   0.000000
     5  H    3.386457   2.138301   2.456264   1.084391   0.000000
     6  C    2.796425   2.429524   3.412311   1.412036   2.172172
     7  N    4.160505   3.683373   4.564200   2.423504   2.684728
     8  C    2.403202   2.794270   3.880205   2.433136   3.422742
     9  H    3.392132   3.880961   4.966894   3.415629   4.320581
    10  C    1.401689   2.430544   3.415208   2.801911   3.886231
    11  H    2.166190   3.415427   4.313695   3.888266   4.972552
    12  S    1.757723   2.734209   2.880653   4.025625   4.872390
    13  O    2.622263   3.007393   2.657777   4.373857   4.989696
    14  O    2.621873   3.528030   3.649925   4.727003   5.552957
    15  N    2.794551   4.013282   4.322818   5.144399   6.084223
    16  H    3.006531   4.095958   4.411550   5.138789   6.041651
    17  H    2.989872   4.349809   4.852710   5.324303   6.343401
    18  C    5.083552   4.803677   5.723124   3.636768   3.913975
    19  H    4.685342   4.126604   4.931046   2.855518   2.932776
    20  H    5.079098   5.098836   6.110291   4.122267   4.626213
    21  H    5.213986   4.875766   5.718550   3.769094   3.970132
    22  H    6.064530   5.688352   6.559035   4.426633   4.520019
                    6          7          8          9         10
     6  C    0.000000
     7  N    1.364421   0.000000
     8  C    1.416495   2.405205   0.000000
     9  H    2.164269   2.632141   1.086735   0.000000
    10  C    2.432046   3.668522   1.380164   2.142369   0.000000
    11  H    3.416083   4.543564   2.140631   2.467395   1.086387
    12  S    4.553344   5.916908   4.015923   4.874947   2.732843
    13  O    5.224620   6.559314   4.989280   5.942900   3.856153
    14  O    5.178724   6.490602   4.581508   5.348938   3.344948
    15  N    5.361200   6.679212   4.491795   5.103385   3.145253
    16  H    5.342291   6.615962   4.533871   5.127825   3.314122
    17  H    5.288512   6.545620   4.210534   4.643026   2.894849
    18  C    2.463182   1.450829   3.010317   2.786848   4.344115
    19  H    2.024525   1.012621   3.038224   3.219957   4.253046
    20  H    2.775362   2.122585   2.774273   2.179414   4.083210
    21  H    2.831957   2.104656   3.414870   3.330470   4.601638
    22  H    3.335525   2.070039   3.980595   3.682650   5.343640
                   11         12         13         14         15
    11  H    0.000000
    12  S    2.878014   0.000000
    13  O    4.171257   1.466442   0.000000
    14  O    3.329844   1.465893   2.528726   0.000000
    15  N    2.766729   1.660090   2.486548   2.490869   0.000000
    16  H    3.029030   2.240397   2.673656   3.383932   1.022421
    17  H    2.199648   2.240473   3.380059   2.695505   1.022215
    18  C    5.029790   6.809526   7.480319   7.494083   7.290750
    19  H    5.118899   6.406804   7.079387   6.796778   7.302834
    20  H    4.559641   6.726527   7.559649   7.353343   7.007064
    21  H    5.300501   6.890165   7.398979   7.759888   7.290007
    22  H    6.023221   7.807760   8.471586   8.419961   8.347637
                   16         17         18         19         20
    16  H    0.000000
    17  H    1.673409   0.000000
    18  C    7.092436   7.072794   0.000000
    19  H    7.346629   7.144585   2.109483   0.000000
    20  H    6.834360   6.652090   1.097607   2.739256   0.000000
    21  H    6.945850   7.172433   1.094027   2.923087   1.778837
    22  H    8.174548   8.110495   1.089834   2.279685   1.778778
                   21         22
    21  H    0.000000
    22  H    1.769833   0.000000
 Stoichiometry    C7H10N2O2S
 Framework group  C1[X(C7H10N2O2S)]
 Deg. of freedom    60
 Full point group                 C1      NOp   1
 Largest Abelian subgroup         C1      NOp   1
 Largest concise Abelian subgroup C1      NOp   1
                         Standard orientation:                         
 ---------------------------------------------------------------------
 Center     Atomic      Atomic             Coordinates (Angstroms)
 Number     Number       Type             X           Y           Z
 ---------------------------------------------------------------------
      1          6           0        0.521961    0.120269    0.035870
      2          6           0       -0.114143    1.355897   -0.079427
      3          1           0        0.466965    2.261531   -0.225847
      4          6           0       -1.499026    1.427962   -0.023587
      5          1           0       -1.983886    2.392231   -0.128464
      6          6           0       -2.267975    0.258985    0.166295
      7          7           0       -3.628295    0.306072    0.260926
      8          6           0       -1.598291   -0.983736    0.283026
      9          1           0       -2.184234   -1.888958    0.418067
     10          6           0       -0.221302   -1.053647    0.220839
     11          1           0        0.277410   -2.014998    0.306443
     12         16           0        2.277544    0.034719    0.021685
     13          8           0        2.789433    1.116782   -0.825405
     14          8           0        2.749336   -0.073396    1.405363
     15          7           0        2.762563   -1.367507   -0.722907
     16          1           0        2.459234   -1.388435   -1.699071
     17          1           0        2.403594   -2.187991   -0.230087
     18          6           0       -4.483582   -0.598448   -0.484212
     19          1           0       -4.000618    0.673214    1.128097
     20          1           0       -4.226308   -1.650320   -0.305003
     21          1           0       -4.414787   -0.402104   -1.558275
     22          1           0       -5.513956   -0.430413   -0.171433
 ---------------------------------------------------------------------
 Rotational constants (GHZ):           2.3417151           0.4096923           0.3816619
 General basis read from cards:  (6D, 7F)
 There are   252 symmetry adapted cartesian basis functions of A   symmetry.
 There are   252 symmetry adapted basis functions of A   symmetry.
   252 basis functions,   448 primitive gaussians,   252 cartesian basis functions
    49 alpha electrons       49 beta electrons
       nuclear repulsion energy       822.7088016312 Hartrees.
 NAtoms=   22 NActive=   22 NUniq=   22 SFac= 1.00D+00 NAtFMM=   60 NAOKFM=F Big=F
 Integral buffers will be    131072 words long.
 Raffenetti 2 integral format.
 Two-electron integral symmetry is turned on.
 ------------------------------------------------------------------------------
 Polarizable Continuum Model (PCM)
 =================================
 Model                : PCM.
 Atomic radii         : SMD-Coulomb.
 Polarization charges : Total charges.
 Charge compensation  : None.
 Solution method      : On-the-fly selection.
 Cavity type          : VdW (van der Waals Surface) (Alpha=1.000).
 Cavity algorithm     : GePol (No added spheres)
                        Default sphere list used, NSphG=   22.
                        Lebedev-Laikov grids with approx.  5.0 points / Ang**2.
                        Smoothing algorithm: York/Karplus (Gamma=1.0000).
                        Polarization charges: spherical gaussians, with
                                              point-specific exponents (IZeta= 3).
                        Self-potential: point-specific (ISelfS= 7).
                        Self-field    : sphere-specific E.n sum rule (ISelfD= 2).
 1st derivatives      : Analytical E(r).r(x)/FMM algorithm (CHGder, D1EAlg=3).
                        Cavity 1st derivative terms included.
 Solvent              : Water, Eps=  78.355300 Eps(inf)=   1.777849
 ------------------------------------------------------------------------------
 ------------------------------------------------------------------------------
 Atomic radii for non-electrostatic terms: SMD-CDS.
 ------------------------------------------------------------------------------
 Nuclear repulsion after PCM non-electrostatic terms =      822.7151346998 Hartrees.
 One-electron integrals computed using PRISM.
 NBasis=   252 RedAO= T EigKep=  2.53D-06  NBF=   252
 NBsUse=   252 1.00D-06 EigRej= -1.00D+00 NBFU=   252
 ExpMin= 4.05D-02 ExpMax= 2.19D+04 ExpMxC= 3.30D+03 IAcc=3 IRadAn=         5 AccDes= 0.00D+00
 Harris functional with IExCor= 1009 and IRadAn=       5 diagonalized for initial guess.
 HarFok:  IExCor= 1009 AccDes= 0.00D+00 IRadAn=         5 IDoV= 1 UseB2=F ITyADJ=14
 ICtDFT=  3500011 ScaDFX=  1.000000  1.000000  1.000000  1.000000
 FoFCou: FMM=F IPFlag=           0 FMFlag=      100000 FMFlg1=           0
         NFxFlg=           0 DoJE=T BraDBF=F KetDBF=T FulRan=T
         wScrn=  0.000000 ICntrl=       500 IOpCl=  0 I1Cent=   200000004 NGrid=           0
         NMat0=    1 NMatS0=      1 NMatT0=    0 NMatD0=    1 NMtDS0=    0 NMtDT0=    0
 Petite list used in FoFCou.
 Requested convergence on RMS density matrix=1.00D-08 within 128 cycles.
 Requested convergence on MAX density matrix=1.00D-06.
 Requested convergence on             energy=1.00D-06.
 No special actions if energy rises.
 Inv3:  Mode=1 IEnd=     8833968.
 Iteration    1 A*A^-1 deviation from unit magnitude is 3.77D-15 for   1694.
 Iteration    1 A*A^-1 deviation from orthogonality  is 2.11D-15 for   1693    531.
 Iteration    1 A^-1*A deviation from unit magnitude is 3.77D-15 for   1699.
 Iteration    1 A^-1*A deviation from orthogonality  is 1.90D-15 for    282     83.
 Error on total polarization charges =  0.04789
 SCF Done:  E(RM062X) =  -930.603174784     A.U. after   15 cycles
            NFock= 15  Conv=0.62D-08     -V/T= 2.0064
 SMD-CDS (non-electrostatic) energy       (kcal/mol) =       3.97
 (included in total energy above)

 **********************************************************************

            Population analysis using the SCF Density.

 **********************************************************************

 Orbital symmetries:
       Occupied  (A) (A) (A) (A) (A) (A) (A) (A) (A) (A) (A) (A)
                 (A) (A) (A) (A) (A) (A) (A) (A) (A) (A) (A) (A)
                 (A) (A) (A) (A) (A) (A) (A) (A) (A) (A) (A) (A)
                 (A) (A) (A) (A) (A) (A) (A) (A) (A) (A) (A) (A)
                 (A)
       Virtual   (A) (A) (A) (A) (A) (A) (A) (A) (A) (A) (A) (A)
                 (A) (A) (A) (A) (A) (A) (A) (A) (A) (A) (A) (A)
                 (A) (A) (A) (A) (A) (A) (A) (A) (A) (A) (A) (A)
                 (A) (A) (A) (A) (A) (A) (A) (A) (A) (A) (A) (A)
                 (A) (A) (A) (A) (A) (A) (A) (A) (A) (A) (A) (A)
                 (A) (A) (A) (A) (A) (A) (A) (A) (A) (A) (A) (A)
                 (A) (A) (A) (A) (A) (A) (A) (A) (A) (A) (A) (A)
                 (A) (A) (A) (A) (A) (A) (A) (A) (A) (A) (A) (A)
                 (A) (A) (A) (A) (A) (A) (A) (A) (A) (A) (A) (A)
                 (A) (A) (A) (A) (A) (A) (A) (A) (A) (A) (A) (A)
                 (A) (A) (A) (A) (A) (A) (A) (A) (A) (A) (A) (A)
                 (A) (A) (A) (A) (A) (A) (A) (A) (A) (A) (A) (A)
                 (A) (A) (A) (A) (A) (A) (A) (A) (A) (A) (A) (A)
                 (A) (A) (A) (A) (A) (A) (A) (A) (A) (A) (A) (A)
                 (A) (A) (A) (A) (A) (A) (A) (A) (A) (A) (A) (A)
                 (A) (A) (A) (A) (A) (A) (A) (A) (A) (A) (A) (A)
                 (A) (A) (A) (A) (A) (A) (A) (A) (A) (A) (A)
 The electronic state is 1-A.
 Alpha  occ. eigenvalues --  -90.17996 -19.65936 -19.65932 -14.80258 -14.75551
 Alpha  occ. eigenvalues --  -10.60343 -10.59496 -10.57828 -10.57762 -10.56345
 Alpha  occ. eigenvalues --  -10.56216 -10.56179  -8.49004  -6.41205  -6.41186
 Alpha  occ. eigenvalues --   -6.41058  -1.25750  -1.14244  -1.04298  -1.02994
 Alpha  occ. eigenvalues --   -0.97063  -0.86762  -0.86260  -0.78793  -0.74155
 Alpha  occ. eigenvalues --   -0.71081  -0.68090  -0.64040  -0.61478  -0.60687
 Alpha  occ. eigenvalues --   -0.58788  -0.55545  -0.54191  -0.53419  -0.52478
 Alpha  occ. eigenvalues --   -0.50441  -0.48269  -0.47660  -0.46064  -0.44162
 Alpha  occ. eigenvalues --   -0.43277  -0.42353  -0.41712  -0.40141  -0.39800
 Alpha  occ. eigenvalues --   -0.38507  -0.33516  -0.32522  -0.27079
 Alpha virt. eigenvalues --   -0.01153   0.00674   0.01259   0.02949   0.03728
 Alpha virt. eigenvalues --    0.03923   0.04755   0.04965   0.05275   0.05920
 Alpha virt. eigenvalues --    0.07033   0.07477   0.08280   0.08874   0.09275
 Alpha virt. eigenvalues --    0.09905   0.10933   0.11289   0.11893   0.12838
 Alpha virt. eigenvalues --    0.13123   0.13985   0.14205   0.14798   0.15162
 Alpha virt. eigenvalues --    0.15878   0.16413   0.16927   0.17559   0.17781
 Alpha virt. eigenvalues --    0.18611   0.20044   0.20380   0.20530   0.20902
 Alpha virt. eigenvalues --    0.22159   0.22323   0.22595   0.23034   0.23398
 Alpha virt. eigenvalues --    0.24423   0.24772   0.25337   0.25881   0.26293
 Alpha virt. eigenvalues --    0.26721   0.27511   0.28226   0.28945   0.29447
 Alpha virt. eigenvalues --    0.30126   0.30513   0.31097   0.31416   0.31573
 Alpha virt. eigenvalues --    0.32720   0.33283   0.33552   0.33790   0.35190
 Alpha virt. eigenvalues --    0.35492   0.36114   0.36982   0.37585   0.39635
 Alpha virt. eigenvalues --    0.41073   0.41478   0.42324   0.43255   0.45415
 Alpha virt. eigenvalues --    0.48831   0.53677   0.57416   0.62375   0.65258
 Alpha virt. eigenvalues --    0.65781   0.67956   0.69155   0.70774   0.71374
 Alpha virt. eigenvalues --    0.72872   0.74522   0.75727   0.76519   0.77071
 Alpha virt. eigenvalues --    0.78586   0.79734   0.81383   0.83421   0.84470
 Alpha virt. eigenvalues --    0.88273   0.91175   0.91839   0.94015   0.95052
 Alpha virt. eigenvalues --    0.95861   0.99205   1.00209   1.01747   1.02180
 Alpha virt. eigenvalues --    1.03699   1.05210   1.05700   1.07101   1.08881
 Alpha virt. eigenvalues --    1.09534   1.10541   1.10572   1.11201   1.12819
 Alpha virt. eigenvalues --    1.13563   1.13919   1.15272   1.17270   1.17764
 Alpha virt. eigenvalues --    1.19486   1.19900   1.21816   1.22906   1.27252
 Alpha virt. eigenvalues --    1.29086   1.31459   1.32912   1.34497   1.35548
 Alpha virt. eigenvalues --    1.35759   1.37031   1.38621   1.40829   1.41874
 Alpha virt. eigenvalues --    1.46239   1.49050   1.49511   1.50290   1.52134
 Alpha virt. eigenvalues --    1.52597   1.54552   1.57531   1.59621   1.65086
 Alpha virt. eigenvalues --    1.73271   1.76794   1.78370   1.79278   1.83090
 Alpha virt. eigenvalues --    1.84568   1.85668   1.87174   1.89874   1.90893
 Alpha virt. eigenvalues --    1.94110   1.95701   1.98745   2.01254   2.02723
 Alpha virt. eigenvalues --    2.06172   2.06535   2.09225   2.11650   2.13284
 Alpha virt. eigenvalues --    2.13568   2.16142   2.17622   2.18306   2.19508
 Alpha virt. eigenvalues --    2.20267   2.26377   2.28489   2.30450   2.31618
 Alpha virt. eigenvalues --    2.33093   2.35136   2.37001   2.43979   2.46437
 Alpha virt. eigenvalues --    2.51254   2.56402   2.57635   2.64575   2.67626
 Alpha virt. eigenvalues --    2.69395   2.75781   2.77540   2.79310   2.80434
 Alpha virt. eigenvalues --    2.88084   2.90434   2.95961   2.96365   3.15057
 Alpha virt. eigenvalues --    3.38684   3.91017   4.05936   4.14276   4.16363
 Alpha virt. eigenvalues --    4.22021   4.27087   4.31123   4.34441   4.37887
 Alpha virt. eigenvalues --    4.41372   4.47221   4.74157
          Condensed to atoms (all electrons):
               1          2          3          4          5          6
     1  C   21.493163  -6.982337   0.027930   0.168487   0.042334  -3.046681
     2  C   -6.982337  33.660318   0.290221  -7.203510  -0.078085   2.003263
     3  H    0.027930   0.290221   0.420378  -0.026656  -0.003207  -0.007308
     4  C    0.168487  -7.203510  -0.026656  15.324529   0.394302  -0.971253
     5  H    0.042334  -0.078085  -0.003207   0.394302   0.434067  -0.060028
     6  C   -3.046681   2.003263  -0.007308  -0.971253  -0.060028   7.940398
     7  N   -0.107979   0.015597  -0.000459  -0.490830   0.003766   0.747582
     8  C   -1.374845  -0.879480  -0.028065  -1.720553   0.028574  -0.746551
     9  H    0.050818  -0.001881   0.000011   0.015613  -0.000093  -0.063805
    10  C   -2.344796 -15.474106   0.046085   0.321578  -0.022675   0.740535
    11  H    0.120549   0.092046  -0.000111  -0.028664   0.000013  -0.033011
    12  S   -0.867873   0.813188   0.000527   0.215944  -0.000427   0.000552
    13  O   -0.382090  -0.073575   0.004330   0.174242   0.000115  -0.025918
    14  O    0.012912  -0.268845  -0.000492  -0.067223   0.000020   0.022484
    15  N    0.310971   0.500728   0.000911  -0.038311   0.000045  -0.013534
    16  H   -0.003960   0.017729  -0.000001   0.001180   0.000000   0.001766
    17  H   -0.185272  -0.084519  -0.000004   0.004915   0.000000   0.000121
    18  C   -0.014105   0.085406  -0.000031  -0.149335   0.000814  -0.297274
    19  H    0.004611  -0.022020  -0.000000  -0.030559   0.000391   0.049785
    20  H    0.007792   0.012168  -0.000000  -0.078877   0.000004  -0.128754
    21  H    0.002740  -0.014464   0.000000   0.059626  -0.000009   0.037124
    22  H   -0.000305   0.000237  -0.000000   0.016283  -0.000002   0.015062
               7          8          9         10         11         12
     1  C   -0.107979  -1.374845   0.050818  -2.344796   0.120549  -0.867873
     2  C    0.015597  -0.879480  -0.001881 -15.474106   0.092046   0.813188
     3  H   -0.000459  -0.028065   0.000011   0.046085  -0.000111   0.000527
     4  C   -0.490830  -1.720553   0.015613   0.321578  -0.028664   0.215944
     5  H    0.003766   0.028574  -0.000093  -0.022675   0.000013  -0.000427
     6  C    0.747582  -0.746551  -0.063805   0.740535  -0.033011   0.000552
     7  N    7.355786  -0.068568  -0.002384  -0.100934  -0.000901   0.001774
     8  C   -0.068568  16.598086   0.329729  -6.712989  -0.033305   0.044844
     9  H   -0.002384   0.329729   0.438038  -0.015723  -0.003240   0.000556
    10  C   -0.100934  -6.712989  -0.015723  30.420563   0.183224  -0.541824
    11  H   -0.000901  -0.033305  -0.003240   0.183224   0.434570  -0.002160
    12  S    0.001774   0.044844   0.000556  -0.541824  -0.002160  14.306136
    13  O    0.000232   0.109798   0.000028  -0.022623   0.000645   0.292081
    14  O    0.000222  -0.075728  -0.000015   0.311235  -0.001690   0.293425
    15  N   -0.000240  -0.018950   0.000127  -0.922621   0.004914   0.051004
    16  H    0.000001  -0.037791  -0.000000  -0.001361  -0.000446   0.038949
    17  H    0.000005   0.094352  -0.000004   0.158507   0.001456   0.021977
    18  C    0.187717   0.128726  -0.006742   0.000842   0.000399  -0.002743
    19  H    0.288612   0.008413  -0.000027  -0.008088   0.000002   0.000172
    20  H   -0.068528   0.132978   0.001533   0.025497   0.000021  -0.000079
    21  H   -0.057884  -0.062200  -0.000029  -0.015084  -0.000001   0.000094
    22  H   -0.041038  -0.016921  -0.000004  -0.000878  -0.000000  -0.000020
              13         14         15         16         17         18
     1  C   -0.382090   0.012912   0.310971  -0.003960  -0.185272  -0.014105
     2  C   -0.073575  -0.268845   0.500728   0.017729  -0.084519   0.085406
     3  H    0.004330  -0.000492   0.000911  -0.000001  -0.000004  -0.000031
     4  C    0.174242  -0.067223  -0.038311   0.001180   0.004915  -0.149335
     5  H    0.000115   0.000020   0.000045   0.000000   0.000000   0.000814
     6  C   -0.025918   0.022484  -0.013534   0.001766   0.000121  -0.297274
     7  N    0.000232   0.000222  -0.000240   0.000001   0.000005   0.187717
     8  C    0.109798  -0.075728  -0.018950  -0.037791   0.094352   0.128726
     9  H    0.000028  -0.000015   0.000127  -0.000000  -0.000004  -0.006742
    10  C   -0.022623   0.311235  -0.922621  -0.001361   0.158507   0.000842
    11  H    0.000645  -0.001690   0.004914  -0.000446   0.001456   0.000399
    12  S    0.292081   0.293425   0.051004   0.038949   0.021977  -0.002743
    13  O    8.855021  -0.169660  -0.113862  -0.004732   0.010094  -0.000114
    14  O   -0.169660   8.693454  -0.157142   0.008346  -0.002928   0.000128
    15  N   -0.113862  -0.157142   7.958059   0.231180   0.233113  -0.000434
    16  H   -0.004732   0.008346   0.231180   0.255406  -0.016494  -0.000012
    17  H    0.010094  -0.002928   0.233113  -0.016494   0.268645  -0.000004
    18  C   -0.000114   0.000128  -0.000434  -0.000012  -0.000004   5.370400
    19  H    0.000000  -0.000001   0.000003  -0.000000   0.000000  -0.035434
    20  H    0.000000   0.000000  -0.000005  -0.000000  -0.000000   0.429273
    21  H    0.000000   0.000000   0.000004   0.000000   0.000000   0.397606
    22  H    0.000000  -0.000000  -0.000000   0.000000   0.000000   0.385681
              19         20         21         22
     1  C    0.004611   0.007792   0.002740  -0.000305
     2  C   -0.022020   0.012168  -0.014464   0.000237
     3  H   -0.000000  -0.000000   0.000000  -0.000000
     4  C   -0.030559  -0.078877   0.059626   0.016283
     5  H    0.000391   0.000004  -0.000009  -0.000002
     6  C    0.049785  -0.128754   0.037124   0.015062
     7  N    0.288612  -0.068528  -0.057884  -0.041038
     8  C    0.008413   0.132978  -0.062200  -0.016921
     9  H   -0.000027   0.001533  -0.000029  -0.000004
    10  C   -0.008088   0.025497  -0.015084  -0.000878
    11  H    0.000002   0.000021  -0.000001  -0.000000
    12  S    0.000172  -0.000079   0.000094  -0.000020
    13  O    0.000000   0.000000   0.000000   0.000000
    14  O   -0.000001   0.000000   0.000000  -0.000000
    15  N    0.000003  -0.000005   0.000004  -0.000000
    16  H   -0.000000  -0.000000   0.000000   0.000000
    17  H    0.000000  -0.000000   0.000000   0.000000
    18  C   -0.035434   0.429273   0.397606   0.385681
    19  H    0.272828   0.001564   0.001959  -0.003466
    20  H    0.001564   0.522233  -0.041322  -0.024044
    21  H    0.001959  -0.041322   0.484092  -0.021084
    22  H   -0.003466  -0.024044  -0.021084   0.458191
 Mulliken charges:
               1
     1  C   -0.932063
     2  C   -0.408081
     3  H    0.275940
     4  C    0.109070
     5  H    0.260082
     6  C   -0.164554
     7  N   -0.661550
     8  C    0.300447
     9  H    0.257493
    10  C   -0.024363
    11  H    0.265691
    12  S    1.333901
    13  O   -0.654011
    14  O   -0.598502
    15  N   -1.025960
    16  H    0.510240
    17  H    0.496039
    18  C   -0.480764
    19  H    0.471256
    20  H    0.208546
    21  H    0.228834
    22  H    0.232308
 Sum of Mulliken charges =  -0.00000
 Mulliken charges with hydrogens summed into heavy atoms:
               1
     1  C   -0.932063
     2  C   -0.132141
     4  C    0.369151
     6  C   -0.164554
     7  N   -0.190294
     8  C    0.557941
    10  C    0.241328
    12  S    1.333901
    13  O   -0.654011
    14  O   -0.598502
    15  N   -0.019681
    18  C    0.188925
 Electronic spatial extent (au):  <R**2>=           2904.6049
 Charge=              0.0000 electrons
 Dipole moment (field-independent basis, Debye):
    X=             -9.3304    Y=             -5.0293    Z=             -1.7733  Tot=             10.7469
 Quadrupole moment (field-independent basis, Debye-Ang):
   XX=            -86.9669   YY=            -67.6354   ZZ=            -82.9405
   XY=             -8.5781   XZ=             -9.6951   YZ=              4.8335
 Traceless Quadrupole moment (field-independent basis, Debye-Ang):
   XX=             -7.7860   YY=             11.5456   ZZ=             -3.7596
   XY=             -8.5781   XZ=             -9.6951   YZ=              4.8335
 Octapole moment (field-independent basis, Debye-Ang**2):
  XXX=           -152.5891  YYY=            -17.2556  ZZZ=            -13.7493  XYY=              5.0802
  XXY=            -30.1923  XXZ=              2.3882  XZZ=            -10.0315  YZZ=             -6.4436
  YYZ=              1.0609  XYZ=              6.4649
 Hexadecapole moment (field-independent basis, Debye-Ang**3):
 XXXX=          -3006.3600 YYYY=           -424.2099 ZZZZ=           -236.8146 XXXY=             -7.5109
 XXXZ=            -89.1193 YYYX=            -43.4329 YYYZ=              1.6477 ZZZX=            -45.4074
 ZZZY=             18.0319 XXYY=           -596.1928 XXZZ=           -563.4238 YYZZ=           -124.7704
 XXYZ=             46.7352 YYXZ=             -5.1369 ZZXY=            -23.0084
 N-N= 8.227151346998D+02 E-N=-3.829983069131D+03  KE= 9.246562788473D+02
 D1PCM: PCM CHGder 1st derivatives, ID1Alg=3 FixD1E=F DoIter=F DoCFld=F I1PDM=0.
 Calling FoFJK, ICntrl=      2127 FMM=F ISym2X=0 I1Cent= 0 IOpClX= 0 NMat=1 NMatS=1 NMatT=0.
 ***** Axes restored to original set *****
 -------------------------------------------------------------------
 Center     Atomic                   Forces (Hartrees/Bohr)
 Number     Number              X              Y              Z
 -------------------------------------------------------------------
      1        6           0.005719726    0.001188158   -0.010690435
      2        6          -0.002423519   -0.000361184    0.005998901
      3        1          -0.000038540    0.000506595    0.000490657
      4        6           0.008444427   -0.004714987   -0.002944314
      5        1           0.000499133   -0.000039581   -0.002217665
      6        6           0.002947475   -0.004608211    0.035333677
      7        7          -0.011052136    0.006165609   -0.036505333
      8        6          -0.005807439    0.006791614   -0.005210353
      9        1          -0.000695330   -0.000863136    0.001239622
     10        6          -0.002060368    0.001626561    0.008127237
     11        1           0.000960446   -0.001272526   -0.001301778
     12       16          -0.000022983    0.004961672    0.010898548
     13        8          -0.001495194   -0.003508719   -0.001914238
     14        8          -0.000952215   -0.000921360    0.000242401
     15        7          -0.001704265   -0.002187633   -0.006083537
     16        1           0.000192033    0.000174151   -0.000002886
     17        1           0.000896794    0.000300601    0.003126819
     18        6           0.005774861   -0.006766742    0.005081495
     19        1          -0.001358299    0.001719332   -0.001019385
     20        1           0.002065861    0.001571602   -0.003205793
     21        1          -0.000592618    0.000343467    0.001159717
     22        1           0.000702151   -0.000105285   -0.000603359
 -------------------------------------------------------------------
 Cartesian Forces:  Max     0.036505333 RMS     0.007391413

 GradGradGradGradGradGradGradGradGradGradGradGradGradGradGradGradGradGrad
 Berny optimization.
 FormGI is forming the generalized inverse of G from B-inverse, IUseBI=4.
 Internal  Forces:  Max     0.034298414 RMS     0.004271943
 Search for a local minimum.
 Step number   1 out of a maximum of  114
 All quantities printed in internal units (Hartrees-Bohrs-Radians)
 Mixed Optimization -- RFO/linear search
 Second derivative matrix not updated -- first step.
 ITU=  0
     Eigenvalues ---    0.00930   0.01019   0.01652   0.01824   0.01824
     Eigenvalues ---    0.01932   0.02018   0.02071   0.02103   0.02160
     Eigenvalues ---    0.02162   0.02171   0.02208   0.02236   0.04695
     Eigenvalues ---    0.07294   0.07695   0.09319   0.10324   0.14595
     Eigenvalues ---    0.15022   0.15998   0.15999   0.16000   0.16000
     Eigenvalues ---    0.16000   0.16000   0.16000   0.16000   0.16000
     Eigenvalues ---    0.19987   0.21999   0.22266   0.22963   0.23991
     Eigenvalues ---    0.24972   0.24995   0.25000   0.29752   0.33948
     Eigenvalues ---    0.34351   0.34832   0.35193   0.35234   0.35284
     Eigenvalues ---    0.35469   0.38137   0.40607   0.41157   0.41627
     Eigenvalues ---    0.43954   0.43987   0.44612   0.45092   0.45536
     Eigenvalues ---    0.46751   0.48564   0.52064   0.88957   0.89179
 RFO step:  Lambda=-8.75058284D-03 EMin= 9.29547263D-03
 Linear search not attempted -- first point.
 Iteration  1 RMS(Cart)=  0.09497945 RMS(Int)=  0.00588926
 Iteration  2 RMS(Cart)=  0.00919404 RMS(Int)=  0.00021816
 Iteration  3 RMS(Cart)=  0.00008393 RMS(Int)=  0.00021439
 Iteration  4 RMS(Cart)=  0.00000003 RMS(Int)=  0.00021439
 Variable       Old X    -DE/DX   Delta X   Delta X   Delta X     New X
                                 (Linear)    (Quad)   (Total)
    R1        2.63527  -0.00215   0.00000  -0.00425  -0.00426   2.63101
    R2        2.64881  -0.00269   0.00000  -0.00520  -0.00520   2.64360
    R3        3.32161   0.00664   0.00000   0.02170   0.02170   3.34331
    R4        2.05216   0.00031   0.00000   0.00085   0.00085   2.05301
    R5        2.62271   0.00301   0.00000   0.00588   0.00588   2.62859
    R6        2.04920   0.00086   0.00000   0.00237   0.00237   2.05157
    R7        2.66836  -0.00748   0.00000  -0.01743  -0.01743   2.65093
    R8        2.57838   0.03430   0.00000   0.06479   0.06479   2.64317
    R9        2.67679  -0.00368   0.00000  -0.00866  -0.00866   2.66813
   R10        2.74167   0.00218   0.00000   0.00559   0.00559   2.74726
   R11        1.91358  -0.00041   0.00000  -0.00089  -0.00089   1.91269
   R12        2.05363  -0.00102   0.00000  -0.00284  -0.00284   2.05080
   R13        2.60813   0.00590   0.00000   0.01212   0.01213   2.62026
   R14        2.05297   0.00022   0.00000   0.00060   0.00060   2.05357
   R15        2.77117  -0.00148   0.00000  -0.00165  -0.00165   2.76952
   R16        2.77014   0.00098   0.00000   0.00108   0.00108   2.77122
   R17        3.13712  -0.00248   0.00000  -0.00589  -0.00589   3.13122
   R18        1.93209   0.00019   0.00000   0.00043   0.00043   1.93252
   R19        1.93171  -0.00022   0.00000  -0.00048  -0.00048   1.93122
   R20        2.07418   0.00029   0.00000   0.00084   0.00084   2.07502
   R21        2.06741   0.00056   0.00000   0.00159   0.00159   2.06900
   R22        2.05949   0.00061   0.00000   0.00170   0.00170   2.06119
    A1        2.10727   0.00015   0.00000   0.00191   0.00193   2.10920
    A2        2.09214  -0.00600   0.00000  -0.02400  -0.02402   2.06812
    A3        2.08279   0.00584   0.00000   0.02182   0.02180   2.10459
    A4        2.10132   0.00032   0.00000   0.00092   0.00088   2.10220
    A5        2.09190  -0.00143   0.00000  -0.00663  -0.00663   2.08527
    A6        2.08987   0.00110   0.00000   0.00553   0.00549   2.09536
    A7        2.08110   0.00041   0.00000   0.00622   0.00621   2.08731
    A8        2.10112   0.00347   0.00000   0.01299   0.01301   2.11414
    A9        2.10096  -0.00388   0.00000  -0.01921  -0.01922   2.08174
   A10        2.12197  -0.00710   0.00000  -0.02638  -0.02654   2.09543
   A11        2.07137  -0.00226   0.00000  -0.01041  -0.01051   2.06086
   A12        2.08969   0.00938   0.00000   0.03731   0.03715   2.12683
   A13        2.13011  -0.00476   0.00000  -0.02592  -0.02674   2.10338
   A14        2.02471   0.00385   0.00000   0.01042   0.00936   2.03407
   A15        2.03657  -0.00019   0.00000  -0.01335  -0.01408   2.02249
   A16        2.07844  -0.00007   0.00000   0.00125   0.00122   2.07965
   A17        2.10879   0.00211   0.00000   0.00916   0.00921   2.11800
   A18        2.09595  -0.00204   0.00000  -0.01038  -0.01041   2.08553
   A19        2.08583  -0.00204   0.00000  -0.00712  -0.00719   2.07864
   A20        2.10376   0.00276   0.00000   0.01399   0.01384   2.11760
   A21        2.09356  -0.00072   0.00000  -0.00663  -0.00677   2.08678
   A22        1.89377  -0.00242   0.00000  -0.01406  -0.01412   1.87965
   A23        1.89381   0.00061   0.00000   0.00071   0.00065   1.89446
   A24        1.91404  -0.00054   0.00000   0.00213   0.00214   1.91618
   A25        2.07982  -0.00163   0.00000  -0.01379  -0.01396   2.06586
   A26        1.83609   0.00351   0.00000   0.02036   0.02037   1.85646
   A27        1.84112   0.00067   0.00000   0.00698   0.00696   1.84807
   A28        1.93782  -0.00020   0.00000   0.00423   0.00399   1.94182
   A29        1.93814   0.00436   0.00000   0.03124   0.03101   1.96915
   A30        1.91738  -0.00096   0.00000   0.00423   0.00382   1.92120
   A31        1.95567   0.00604   0.00000   0.03764   0.03763   1.99329
   A32        1.93399  -0.00260   0.00000  -0.01578  -0.01578   1.91821
   A33        1.89002  -0.00007   0.00000  -0.00184  -0.00192   1.88810
   A34        1.89394  -0.00128   0.00000  -0.00497  -0.00491   1.88903
   A35        1.89917  -0.00275   0.00000  -0.01545  -0.01553   1.88364
   A36        1.88972   0.00049   0.00000  -0.00079  -0.00087   1.88885
    D1       -3.13811   0.00037   0.00000   0.00986   0.00986  -3.12825
    D2       -0.01060  -0.00011   0.00000  -0.00475  -0.00458  -0.01519
    D3        0.05138   0.00038   0.00000   0.01597   0.01590   0.06728
    D4       -3.10430  -0.00010   0.00000   0.00136   0.00146  -3.10284
    D5        0.00524  -0.00020   0.00000  -0.00650  -0.00640  -0.00115
    D6        3.13747   0.00070   0.00000   0.02220   0.02236  -3.12335
    D7        3.09919  -0.00053   0.00000  -0.01382  -0.01382   3.08537
    D8       -0.05176   0.00037   0.00000   0.01488   0.01493  -0.03683
    D9       -0.55146   0.00282   0.00000   0.06225   0.06217  -0.48929
   D10        1.73215  -0.00059   0.00000   0.03478   0.03482   1.76697
   D11       -2.54825   0.00026   0.00000   0.04461   0.04461  -2.50364
   D12        2.63736   0.00298   0.00000   0.06880   0.06874   2.70610
   D13       -1.36222  -0.00043   0.00000   0.04133   0.04139  -1.32083
   D14        0.64057   0.00042   0.00000   0.05116   0.05118   0.69175
   D15       -3.12653   0.00038   0.00000   0.01164   0.01141  -3.11512
   D16        0.01399   0.00039   0.00000   0.01286   0.01275   0.02674
   D17        0.00107  -0.00010   0.00000  -0.00291  -0.00301  -0.00194
   D18        3.14159  -0.00009   0.00000  -0.00169  -0.00167   3.13992
   D19        3.11034   0.00069   0.00000   0.02208   0.02148   3.13182
   D20       -0.01195  -0.00030   0.00000  -0.00953  -0.00947  -0.02142
   D21       -0.03233   0.00071   0.00000   0.02333   0.02284  -0.00950
   D22        3.12856  -0.00029   0.00000  -0.00828  -0.00812   3.12044
   D23        2.31706   0.00565   0.00000   0.17879   0.17888   2.49593
   D24       -1.28698   0.00312   0.00000   0.10760   0.10732  -1.17966
   D25       -0.84403   0.00653   0.00000   0.21019   0.21048  -0.63355
   D26        1.83512   0.00400   0.00000   0.13901   0.13892   1.97404
   D27       -3.12964  -0.00031   0.00000  -0.00994  -0.00982  -3.13946
   D28        0.00662  -0.00004   0.00000  -0.00191  -0.00190   0.00471
   D29        0.03088  -0.00110   0.00000  -0.04024  -0.04062  -0.00974
   D30       -3.11605  -0.00084   0.00000  -0.03221  -0.03271   3.13443
   D31        0.95364  -0.00014   0.00000  -0.00507  -0.00486   0.94878
   D32       -1.16455  -0.00084   0.00000  -0.01360  -0.01329  -1.17784
   D33        3.04845   0.00012   0.00000  -0.00230  -0.00203   3.04642
   D34       -1.72257   0.00142   0.00000   0.06072   0.06040  -1.66217
   D35        2.44242   0.00071   0.00000   0.05218   0.05197   2.49439
   D36        0.37224   0.00167   0.00000   0.06349   0.06323   0.43547
   D37       -0.00331   0.00028   0.00000   0.00977   0.00966   0.00635
   D38       -3.13560  -0.00063   0.00000  -0.01888  -0.01869   3.12890
   D39        3.13290   0.00056   0.00000   0.01791   0.01764  -3.13265
   D40        0.00061  -0.00035   0.00000  -0.01073  -0.01071  -0.01010
   D41        1.08759  -0.00047   0.00000  -0.01197  -0.01186   1.07573
   D42       -1.05113  -0.00216   0.00000  -0.04229  -0.04238  -1.09351
   D43       -0.94591   0.00073   0.00000  -0.00750  -0.00738  -0.95330
   D44       -3.08463  -0.00096   0.00000  -0.03781  -0.03790  -3.12253
   D45        3.12383   0.00035   0.00000  -0.00633  -0.00625   3.11759
   D46        0.98512  -0.00134   0.00000  -0.03664  -0.03677   0.94835
         Item               Value     Threshold  Converged?
 Maximum Force            0.034298     0.000450     NO 
 RMS     Force            0.004272     0.000300     NO 
 Maximum Displacement     0.430843     0.001800     NO 
 RMS     Displacement     0.097699     0.001200     NO 
 Predicted change in Energy=-5.068226D-03
 GradGradGradGradGradGradGradGradGradGradGradGradGradGradGradGradGradGrad

                          Input orientation:                          
 ---------------------------------------------------------------------
 Center     Atomic      Atomic             Coordinates (Angstroms)
 Number     Number       Type             X           Y           Z
 ---------------------------------------------------------------------
      1          6           0       -1.252694    0.786458   -0.997923
      2          6           0       -2.375196    1.011489   -1.790239
      3          1           0       -3.351847    1.149386   -1.334815
      4          6           0       -2.232857    1.092941   -3.171529
      5          1           0       -3.102899    1.292960   -3.789303
      6          6           0       -0.982224    0.920599   -3.783159
      7          7           0       -0.866764    0.995545   -5.175075
      8          6           0        0.136580    0.687550   -2.954023
      9          1           0        1.112863    0.553759   -3.408672
     10          6           0        0.011408    0.623585   -1.574584
     11          1           0        0.890052    0.430916   -0.964838
     12         16           0       -1.471699    0.628042    0.750511
     13          8           0       -2.658999    1.402422    1.122732
     14          8           0       -1.431396   -0.795973    1.098478
     15          7           0       -0.193091    1.324590    1.541422
     16          1           0       -0.130058    2.324370    1.335810
     17          1           0        0.697273    0.867234    1.335326
     18          6           0        0.303569    1.603255   -5.787044
     19          1           0       -1.309348    0.256240   -5.706111
     20          1           0        1.258693    1.174899   -5.455433
     21          1           0        0.318618    2.677661   -5.576884
     22          1           0        0.231890    1.467913   -6.866972
 ---------------------------------------------------------------------
                    Distance matrix (angstroms):
                    1          2          3          4          5
     1  C    0.000000
     2  C    1.392270   0.000000
     3  H    2.156771   1.086404   0.000000
     4  C    2.403999   1.390991   2.151474   0.000000
     5  H    3.386976   2.145935   2.471255   1.085646   0.000000
     6  C    2.801551   2.433180   3.414945   1.402810   2.153126
     7  N    4.200150   3.705771   4.576779   2.426911   2.647474
     8  C    2.401289   2.787176   3.873532   2.413687   3.399770
     9  H    3.385516   3.872389   4.958759   3.397175   4.296969
    10  C    1.398935   2.427521   3.412542   2.794146   3.879685
    11  H    2.172295   3.417630   4.318193   3.880763   4.966324
    12  S    1.769203   2.723738   2.855756   4.022175   4.869584
    13  O    2.618068   2.952757   2.565853   4.326436   4.933267
    14  O    2.632663   3.535868   3.659709   4.737435   5.572070
    15  N    2.803679   3.994944   4.275649   5.140643   6.073270
    16  H    3.011942   4.066508   4.346580   5.123894   6.014015
    17  H    3.041866   4.385206   4.858461   5.380367   6.394089
    18  C    5.101450   4.847724   5.778444   3.678967   3.961222
    19  H    4.738289   4.128013   4.906908   2.824366   2.822369
    20  H    5.131018   5.163865   6.183625   4.172991   4.670483
    21  H    5.197360   4.936744   5.814042   3.847999   4.101173
    22  H    6.092135   5.725246   6.599197   4.457789   4.541307
                    6          7          8          9         10
     6  C    0.000000
     7  N    1.398706   0.000000
     8  C    1.411914   2.456549   0.000000
     9  H    2.159676   2.689661   1.085234   0.000000
    10  C    2.439944   3.724658   1.386583   2.140551   0.000000
    11  H    3.418792   4.596879   2.142530   2.457042   1.086704
    12  S    4.569392   5.967711   4.039019   4.897375   2.757842
    13  O    5.206870   6.560490   4.994620   5.956575   3.874683
    14  O    5.194108   6.548726   4.591530   5.348778   3.352922
    15  N    5.397880   6.758213   4.552310   5.177173   3.200425
    16  H    5.375929   6.685816   4.599233   5.214405   3.373881
    17  H    5.387249   6.696865   4.329570   4.772473   2.999558
    18  C    2.476861   1.453787   2.982015   2.722693   4.334736
    19  H    2.060613   1.012152   3.138587   3.351694   4.353029
    20  H    2.807646   2.151356   2.784547   2.143901   4.113473
    21  H    2.827880   2.096686   3.297436   3.137344   4.509103
    22  H    3.359096   2.071880   3.991143   3.683970   5.363849
                   11         12         13         14         15
    11  H    0.000000
    12  S    2.925602   0.000000
    13  O    4.230548   1.465569   0.000000
    14  O    3.339408   1.466466   2.518042   0.000000
    15  N    2.872837   1.656972   2.502410   2.495273   0.000000
    16  H    3.149409   2.240559   2.700173   3.389151   1.022648
    17  H    2.349105   2.259129   3.405317   2.711750   1.021959
    18  C    4.997201   6.844140   7.520781   7.495119   7.350561
    19  H    5.229488   6.469356   7.054671   6.886544   7.410408
    20  H    4.566711   6.802046   7.659786   7.353547   7.147452
    21  H    5.161915   6.887823   7.441592   7.725874   7.263810
    22  H    6.028576   7.850710   8.496876   8.446307   8.420347
                   16         17         18         19         20
    16  H    0.000000
    17  H    1.675626   0.000000
    18  C    7.172384   7.171115   0.000000
    19  H    7.433475   7.347223   2.102974   0.000000
    20  H    7.026443   6.820869   1.098052   2.738906   0.000000
    21  H    6.936243   7.155395   1.094870   2.920659   1.776734
    22  H    8.255311   8.237420   1.090733   2.278413   1.769922
                   21         22
    21  H    0.000000
    22  H    1.770688   0.000000
 Stoichiometry    C7H10N2O2S
 Framework group  C1[X(C7H10N2O2S)]
 Deg. of freedom    60
 Full point group                 C1      NOp   1
 Largest Abelian subgroup         C1      NOp   1
 Largest concise Abelian subgroup C1      NOp   1
                         Standard orientation:                         
 ---------------------------------------------------------------------
 Center     Atomic      Atomic             Coordinates (Angstroms)
 Number     Number       Type             X           Y           Z
 ---------------------------------------------------------------------
      1          6           0        0.522358    0.092941    0.027580
      2          6           0       -0.094676    1.336037   -0.083760
      3          1           0        0.498940    2.234297   -0.228752
      4          6           0       -1.482664    1.417412   -0.042238
      5          1           0       -1.966708    2.382767   -0.153673
      6          6           0       -2.271139    0.271855    0.141836
      7          7           0       -3.664678    0.381094    0.191756
      8          6           0       -1.616621   -0.973793    0.257883
      9          1           0       -2.209768   -1.871609    0.398730
     10          6           0       -0.234720   -1.070945    0.198528
     11          1           0        0.239412   -2.043154    0.303089
     12         16           0        2.290271    0.025500    0.031429
     13          8           0        2.781635    1.176091   -0.731850
     14          8           0        2.747706   -0.139489    1.414923
     15          7           0        2.801880   -1.325781   -0.779653
     16          1           0        2.504019   -1.306119   -1.757764
     17          1           0        2.494655   -2.194033   -0.336763
     18          6           0       -4.507260   -0.646654   -0.397554
     19          1           0       -4.052083    0.864761    0.992029
     20          1           0       -4.298763   -1.662100   -0.035457
     21          1           0       -4.394986   -0.641515   -1.486640
     22          1           0       -5.545863   -0.412420   -0.160617
 ---------------------------------------------------------------------
 Rotational constants (GHZ):           2.3528682           0.4064376           0.3775683
 Basis read from rwf:  (6D, 7F)
 There are   252 symmetry adapted cartesian basis functions of A   symmetry.
 There are   252 symmetry adapted basis functions of A   symmetry.
   252 basis functions,   448 primitive gaussians,   252 cartesian basis functions
    49 alpha electrons       49 beta electrons
       nuclear repulsion energy       820.7892963567 Hartrees.
 NAtoms=   22 NActive=   22 NUniq=   22 SFac= 1.00D+00 NAtFMM=   60 NAOKFM=F Big=F
 Integral buffers will be    131072 words long.
 Raffenetti 2 integral format.
 Two-electron integral symmetry is turned on.
 ------------------------------------------------------------------------------
 Polarizable Continuum Model (PCM)
 =================================
 Model                : PCM.
 Atomic radii         : SMD-Coulomb.
 Polarization charges : Total charges.
 Charge compensation  : None.
 Solution method      : On-the-fly selection.
 Cavity type          : VdW (van der Waals Surface) (Alpha=1.000).
 Cavity algorithm     : GePol (No added spheres)
                        Default sphere list used, NSphG=   22.
                        Lebedev-Laikov grids with approx.  5.0 points / Ang**2.
                        Smoothing algorithm: York/Karplus (Gamma=1.0000).
                        Polarization charges: spherical gaussians, with
                                              point-specific exponents (IZeta= 3).
                        Self-potential: point-specific (ISelfS= 7).
                        Self-field    : sphere-specific E.n sum rule (ISelfD= 2).
 1st derivatives      : Analytical E(r).r(x)/FMM algorithm (CHGder, D1EAlg=3).
                        Cavity 1st derivative terms included.
 Solvent              : Water, Eps=  78.355300 Eps(inf)=   1.777849
 ------------------------------------------------------------------------------
 ------------------------------------------------------------------------------
 Atomic radii for non-electrostatic terms: SMD-CDS.
 ------------------------------------------------------------------------------
 Nuclear repulsion after PCM non-electrostatic terms =      820.7954687726 Hartrees.
 One-electron integrals computed using PRISM.
 NBasis=   252 RedAO= T EigKep=  2.45D-06  NBF=   252
 NBsUse=   252 1.00D-06 EigRej= -1.00D+00 NBFU=   252
 Initial guess from the checkpoint file:  "/jobfs/48676125.gadi-pbs/Gau-690620.chk"
 B after Tr=     0.000000   -0.000000    0.000000
         Rot=    0.999986   -0.005168    0.000637    0.000154 Ang=  -0.60 deg.
 ExpMin= 4.05D-02 ExpMax= 2.19D+04 ExpMxC= 3.30D+03 IAcc=3 IRadAn=         5 AccDes= 0.00D+00
 Harris functional with IExCor= 1009 and IRadAn=       5 diagonalized for initial guess.
 HarFok:  IExCor= 1009 AccDes= 0.00D+00 IRadAn=         5 IDoV= 1 UseB2=F ITyADJ=14
 ICtDFT=  3500011 ScaDFX=  1.000000  1.000000  1.000000  1.000000
 FoFCou: FMM=F IPFlag=           0 FMFlag=      100000 FMFlg1=           0
         NFxFlg=           0 DoJE=T BraDBF=F KetDBF=T FulRan=T
         wScrn=  0.000000 ICntrl=       500 IOpCl=  0 I1Cent=   200000004 NGrid=           0
         NMat0=    1 NMatS0=      1 NMatT0=    0 NMatD0=    1 NMtDS0=    0 NMtDT0=    0
 Petite list used in FoFCou.
 Requested convergence on RMS density matrix=1.00D-08 within 128 cycles.
 Requested convergence on MAX density matrix=1.00D-06.
 Requested convergence on             energy=1.00D-06.
 No special actions if energy rises.
 Inv3:  Mode=1 IEnd=     8906187.
 Iteration    1 A*A^-1 deviation from unit magnitude is 5.11D-15 for   1720.
 Iteration    1 A*A^-1 deviation from orthogonality  is 1.80D-15 for    842    283.
 Iteration    1 A^-1*A deviation from unit magnitude is 5.11D-15 for   1720.
 Iteration    1 A^-1*A deviation from orthogonality  is 2.36D-15 for   1718    163.
 Error on total polarization charges =  0.04778
 SCF Done:  E(RM062X) =  -930.609406782     A.U. after   14 cycles
            NFock= 14  Conv=0.30D-08     -V/T= 2.0065
 SMD-CDS (non-electrostatic) energy       (kcal/mol) =       3.87
 (included in total energy above)
 D1PCM: PCM CHGder 1st derivatives, ID1Alg=3 FixD1E=F DoIter=F DoCFld=F I1PDM=0.
 Calling FoFJK, ICntrl=      2127 FMM=F ISym2X=0 I1Cent= 0 IOpClX= 0 NMat=1 NMatS=1 NMatT=0.
 ***** Axes restored to original set *****
 -------------------------------------------------------------------
 Center     Atomic                   Forces (Hartrees/Bohr)
 Number     Number              X              Y              Z
 -------------------------------------------------------------------
      1        6           0.004065869    0.000671205   -0.003160312
      2        6          -0.002101885    0.001060955   -0.000613432
      3        1           0.000386647    0.000142221   -0.000389480
      4        6          -0.001997665   -0.003975213   -0.000450181
      5        1          -0.000152838   -0.000007256   -0.000265392
      6        6           0.004291288   -0.003733345    0.005373620
      7        7          -0.002506493    0.008152689   -0.002253253
      8        6          -0.000487955    0.004781796   -0.005025899
      9        1           0.000488473   -0.000347696    0.001221751
     10        6          -0.002562819   -0.000505616    0.001921988
     11        1           0.000212174    0.000098931    0.000276148
     12       16           0.000591728    0.000891120    0.002711809
     13        8           0.001093686   -0.000906885    0.000455925
     14        8           0.000958984   -0.000439792    0.000631272
     15        7          -0.002764014    0.001002162   -0.003386656
     16        1           0.000015001   -0.000276043    0.000144531
     17        1          -0.000662689   -0.001349775    0.000489176
     18        6           0.002994123   -0.004719874    0.001722509
     19        1          -0.001848737   -0.000138904    0.001503136
     20        1          -0.000292764   -0.000569143   -0.001264233
     21        1           0.000414109   -0.000169297    0.000687763
     22        1          -0.000134221    0.000337759   -0.000330791
 -------------------------------------------------------------------
 Cartesian Forces:  Max     0.008152689 RMS     0.002239436

 GradGradGradGradGradGradGradGradGradGradGradGradGradGradGradGradGradGrad
 Berny optimization.
 Using GEDIIS/GDIIS optimizer.
 FormGI is forming the generalized inverse of G from B-inverse, IUseBI=4.
 Internal  Forces:  Max     0.005855728 RMS     0.001378014
 Search for a local minimum.
 Step number   2 out of a maximum of  114
 All quantities printed in internal units (Hartrees-Bohrs-Radians)
 Mixed Optimization -- RFO/linear search
 Update second derivatives using D2CorX and points    1    2
 DE= -6.23D-03 DEPred=-5.07D-03 R= 1.23D+00
 TightC=F SS=  1.41D+00  RLast= 4.00D-01 DXNew= 5.0454D-01 1.1985D+00
 Trust test= 1.23D+00 RLast= 4.00D-01 DXMaxT set to 5.05D-01
 ITU=  1  0
 Use linear search instead of GDIIS.
     Eigenvalues ---    0.00813   0.00976   0.01202   0.01655   0.01831
     Eigenvalues ---    0.01942   0.01992   0.02027   0.02077   0.02105
     Eigenvalues ---    0.02160   0.02188   0.02209   0.02244   0.04468
     Eigenvalues ---    0.07087   0.07746   0.09239   0.10521   0.14645
     Eigenvalues ---    0.14826   0.15852   0.15994   0.15997   0.16000
     Eigenvalues ---    0.16000   0.16000   0.16000   0.16000   0.16695
     Eigenvalues ---    0.20074   0.21943   0.22377   0.23157   0.23892
     Eigenvalues ---    0.24688   0.24988   0.26798   0.29854   0.33954
     Eigenvalues ---    0.34354   0.34829   0.35196   0.35233   0.35292
     Eigenvalues ---    0.35467   0.38163   0.40392   0.41005   0.41787
     Eigenvalues ---    0.43954   0.43986   0.44656   0.44992   0.45538
     Eigenvalues ---    0.46752   0.48653   0.63419   0.88942   0.89172
 RFO step:  Lambda=-7.29115122D-03 EMin= 8.13396975D-03
 Quartic linear search produced a step of  0.83426.
 Iteration  1 RMS(Cart)=  0.12381540 RMS(Int)=  0.03627002
 Iteration  2 RMS(Cart)=  0.09116461 RMS(Int)=  0.00470713
 Iteration  3 RMS(Cart)=  0.00706974 RMS(Int)=  0.00101050
 Iteration  4 RMS(Cart)=  0.00003295 RMS(Int)=  0.00101033
 Iteration  5 RMS(Cart)=  0.00000010 RMS(Int)=  0.00101033
 Variable       Old X    -DE/DX   Delta X   Delta X   Delta X     New X
                                 (Linear)    (Quad)   (Total)
    R1        2.63101   0.00120  -0.00355   0.00484   0.00127   2.63228
    R2        2.64360  -0.00222  -0.00434  -0.00667  -0.01103   2.63257
    R3        3.34331   0.00122   0.01810   0.00243   0.02053   3.36384
    R4        2.05301  -0.00049   0.00071  -0.00229  -0.00159   2.05142
    R5        2.62859  -0.00143   0.00490  -0.00549  -0.00057   2.62802
    R6        2.05157   0.00027   0.00198   0.00076   0.00273   2.05431
    R7        2.65093   0.00062  -0.01454   0.00530  -0.00922   2.64170
    R8        2.64317  -0.00001   0.05405  -0.01136   0.04269   2.68586
    R9        2.66813  -0.00315  -0.00722  -0.00991  -0.01711   2.65102
   R10        2.74726  -0.00012   0.00466  -0.00145   0.00321   2.75047
   R11        1.91269   0.00013  -0.00074   0.00058  -0.00016   1.91253
   R12        2.05080  -0.00003  -0.00237   0.00037  -0.00200   2.04880
   R13        2.62026   0.00057   0.01012  -0.00049   0.00963   2.62989
   R14        2.05357   0.00031   0.00050   0.00125   0.00175   2.05532
   R15        2.76952  -0.00126  -0.00138  -0.00191  -0.00329   2.76624
   R16        2.77122   0.00060   0.00090   0.00087   0.00177   2.77299
   R17        3.13122  -0.00418  -0.00492  -0.01462  -0.01954   3.11169
   R18        1.93252  -0.00029   0.00036  -0.00111  -0.00075   1.93178
   R19        1.93122  -0.00006  -0.00040  -0.00014  -0.00054   1.93068
   R20        2.07502  -0.00043   0.00070  -0.00208  -0.00138   2.07364
   R21        2.06900  -0.00003   0.00133  -0.00041   0.00092   2.06993
   R22        2.06119   0.00030   0.00142   0.00102   0.00243   2.06362
    A1        2.10920   0.00129   0.00161   0.00823   0.00985   2.11905
    A2        2.06812   0.00030  -0.02004   0.00585  -0.01421   2.05391
    A3        2.10459  -0.00159   0.01819  -0.01379   0.00438   2.10898
    A4        2.10220   0.00093   0.00073   0.00619   0.00684   2.10904
    A5        2.08527  -0.00144  -0.00553  -0.00766  -0.01319   2.07208
    A6        2.09536   0.00051   0.00458   0.00139   0.00588   2.10124
    A7        2.08731   0.00049   0.00518   0.00209   0.00723   2.09454
    A8        2.11414  -0.00074   0.01086  -0.00645   0.00448   2.11861
    A9        2.08174   0.00024  -0.01604   0.00436  -0.01172   2.07002
   A10        2.09543  -0.00295  -0.02214  -0.01342  -0.03581   2.05962
   A11        2.06086   0.00235  -0.00877   0.01647   0.00755   2.06841
   A12        2.12683   0.00060   0.03099  -0.00310   0.02755   2.15439
   A13        2.10338  -0.00048  -0.02231  -0.00984  -0.03718   2.06619
   A14        2.03407  -0.00056   0.00781  -0.02802  -0.02648   2.00759
   A15        2.02249   0.00001  -0.01174  -0.01456  -0.03179   1.99070
   A16        2.07965   0.00223   0.00101   0.01858   0.01956   2.09921
   A17        2.11800  -0.00171   0.00768  -0.01350  -0.00577   2.11223
   A18        2.08553  -0.00052  -0.00869  -0.00507  -0.01379   2.07174
   A19        2.07864   0.00024  -0.00600   0.00306  -0.00302   2.07562
   A20        2.11760  -0.00023   0.01155  -0.00431   0.00711   2.12471
   A21        2.08678  -0.00001  -0.00565   0.00146  -0.00432   2.08246
   A22        1.87965   0.00127  -0.01178   0.01245   0.00064   1.88029
   A23        1.89446   0.00134   0.00054   0.01051   0.01100   1.90546
   A24        1.91618  -0.00277   0.00179  -0.01994  -0.01812   1.89806
   A25        2.06586  -0.00020  -0.01165   0.00651  -0.00531   2.06055
   A26        1.85646  -0.00002   0.01699  -0.00778   0.00921   1.86567
   A27        1.84807  -0.00002   0.00580  -0.00527   0.00055   1.84863
   A28        1.94182   0.00058   0.00333   0.00667   0.00963   1.95145
   A29        1.96915  -0.00129   0.02587  -0.01572   0.00979   1.97894
   A30        1.92120   0.00072   0.00319   0.00973   0.01231   1.93351
   A31        1.99329   0.00031   0.03139  -0.00423   0.02715   2.02044
   A32        1.91821   0.00003  -0.01316   0.00456  -0.00863   1.90958
   A33        1.88810  -0.00006  -0.00160  -0.00133  -0.00299   1.88511
   A34        1.88903   0.00005  -0.00409   0.00327  -0.00080   1.88823
   A35        1.88364  -0.00047  -0.01296  -0.00432  -0.01732   1.86632
   A36        1.88885   0.00012  -0.00072   0.00218   0.00137   1.89022
    D1       -3.12825   0.00006   0.00822   0.00258   0.01078  -3.11747
    D2       -0.01519  -0.00006  -0.00382  -0.00078  -0.00440  -0.01958
    D3        0.06728   0.00005   0.01327  -0.00308   0.01010   0.07739
    D4       -3.10284  -0.00007   0.00122  -0.00644  -0.00507  -3.10791
    D5       -0.00115   0.00007  -0.00534   0.00421  -0.00100  -0.00215
    D6       -3.12335  -0.00006   0.01865  -0.00871   0.01004  -3.11331
    D7        3.08537   0.00014  -0.01153   0.01061  -0.00086   3.08450
    D8       -0.03683   0.00001   0.01246  -0.00231   0.01017  -0.02666
    D9       -0.48929  -0.00019   0.05187   0.02774   0.07954  -0.40974
   D10        1.76697   0.00136   0.02905   0.05179   0.08090   1.84787
   D11       -2.50364   0.00058   0.03722   0.04056   0.07776  -2.42588
   D12        2.70610  -0.00030   0.05735   0.02139   0.07869   2.78480
   D13       -1.32083   0.00125   0.03453   0.04545   0.08005  -1.24077
   D14        0.69175   0.00048   0.04270   0.03422   0.07690   0.76866
   D15       -3.11512   0.00007   0.00952   0.00203   0.01120  -3.10392
   D16        0.02674  -0.00007   0.01064  -0.00630   0.00416   0.03090
   D17       -0.00194  -0.00004  -0.00251  -0.00123  -0.00388  -0.00583
   D18        3.13992  -0.00018  -0.00139  -0.00957  -0.01093   3.12899
   D19        3.13182   0.00030   0.01792   0.01353   0.03043  -3.12093
   D20       -0.02142   0.00011  -0.00790   0.00912   0.00130  -0.02012
   D21       -0.00950   0.00016   0.01905   0.00523   0.02348   0.01398
   D22        3.12044  -0.00003  -0.00677   0.00082  -0.00565   3.11479
   D23        2.49593   0.00567   0.14923   0.27321   0.42201   2.91794
   D24       -1.17966   0.00362   0.08953   0.16424   0.25418  -0.92548
   D25       -0.63355   0.00586   0.17559   0.27766   0.45285  -0.18071
   D26        1.97404   0.00381   0.11590   0.16869   0.28502   2.25906
   D27       -3.13946  -0.00004  -0.00819  -0.00063  -0.00857   3.13516
   D28        0.00471  -0.00011  -0.00159  -0.00560  -0.00712  -0.00240
   D29       -0.00974  -0.00026  -0.03389  -0.00519  -0.03984  -0.04958
   D30        3.13443  -0.00033  -0.02729  -0.01016  -0.03839   3.09604
   D31        0.94878  -0.00004  -0.00405   0.01449   0.01138   0.96016
   D32       -1.17784  -0.00035  -0.01108   0.00977  -0.00030  -1.17814
   D33        3.04642  -0.00048  -0.00170   0.00535   0.00460   3.05102
   D34       -1.66217   0.00216   0.05039   0.12670   0.17609  -1.48608
   D35        2.49439   0.00185   0.04336   0.12198   0.16442   2.65881
   D36        0.43547   0.00172   0.05275   0.11756   0.16932   0.60478
   D37        0.00635   0.00002   0.00806  -0.00093   0.00694   0.01329
   D38        3.12890   0.00015  -0.01559   0.01170  -0.00370   3.12520
   D39       -3.13265  -0.00005   0.01471  -0.00595   0.00832  -3.12434
   D40       -0.01010   0.00008  -0.00894   0.00668  -0.00232  -0.01242
   D41        1.07573  -0.00019  -0.00989  -0.01397  -0.02374   1.05199
   D42       -1.09351  -0.00062  -0.03536  -0.02010  -0.05563  -1.14913
   D43       -0.95330  -0.00027  -0.00616  -0.01431  -0.02028  -0.97358
   D44       -3.12253  -0.00070  -0.03162  -0.02044  -0.05217   3.10848
   D45        3.11759  -0.00001  -0.00521  -0.01453  -0.01960   3.09798
   D46        0.94835  -0.00045  -0.03068  -0.02066  -0.05150   0.89686
         Item               Value     Threshold  Converged?
 Maximum Force            0.005856     0.000450     NO 
 RMS     Force            0.001378     0.000300     NO 
 Maximum Displacement     0.967818     0.001800     NO 
 RMS     Displacement     0.205280     0.001200     NO 
 Predicted change in Energy=-5.627032D-03
 GradGradGradGradGradGradGradGradGradGradGradGradGradGradGradGradGradGrad

                          Input orientation:                          
 ---------------------------------------------------------------------
 Center     Atomic      Atomic             Coordinates (Angstroms)
 Number     Number       Type             X           Y           Z
 ---------------------------------------------------------------------
      1          6           0       -1.231438    0.776201   -1.002853
      2          6           0       -2.378101    0.963497   -1.771208
      3          1           0       -3.355467    1.034600   -1.304142
      4          6           0       -2.243610    1.111021   -3.147493
      5          1           0       -3.120892    1.293343   -3.763046
      6          6           0       -0.993471    1.038209   -3.768827
      7          7           0       -0.935985    1.224781   -5.176651
      8          6           0        0.141047    0.835476   -2.968964
      9          1           0        1.124000    0.768525   -3.421471
     10          6           0        0.031567    0.711733   -1.587130
     11          1           0        0.927666    0.539805   -0.995200
     12         16           0       -1.439631    0.537978    0.748874
     13          8           0       -2.722361    1.131286    1.130166
     14          8           0       -1.208368   -0.874121    1.074087
     15          7           0       -0.267974    1.381538    1.540726
     16          1           0       -0.320747    2.382872    1.341865
     17          1           0        0.674350    1.026749    1.367622
     18          6           0        0.365235    1.433926   -5.794330
     19          1           0       -1.556709    0.631891   -5.712811
     20          1           0        1.119031    0.662752   -5.591353
     21          1           0        0.769495    2.400040   -5.473384
     22          1           0        0.224237    1.463740   -6.876801
 ---------------------------------------------------------------------
                    Distance matrix (angstroms):
                    1          2          3          4          5
     1  C    0.000000
     2  C    1.392941   0.000000
     3  H    2.160797   1.085565   0.000000
     4  C    2.395010   1.390687   2.154067   0.000000
[...]
 780,0.01079762,-0.15288563,-0.01793616,0.01240673,-0.03237965,0.000947
 74,-0.00111293,-0.00133998,-0.00898818,0.00078651,0.01733770,0.0004971
 8,-0.00042039,0.00140584,0.00063908,0.00738175,-0.02384058,-0.00161576
 ,-0.01158716,0.02381632,0.00764454,-0.00441236,0.01833902,-0.00046588,
 -0.00008830,0.00137176,0.02298685,0.00026139,-0.03393985,-0.00155408,-
 0.00008714,-0.00086361,-0.00210650,-0.05469125,0.48694794,-0.01292221,
 -0.00355950,-0.00152545,-0.00367374,0.00210858,-0.00235967,0.00127115,
 -0.00073077,-0.00025461,0.00012784,-0.00006896,0.00259880,0.00003834,-
 0.00005309,0.00045666,0.00003524,0.00120915,-0.00408994,-0.00011166,-0
 .00192875,0.00387786,-0.00025777,0.00009476,0.00251968,0.00006707,-0.0
 0000392,0.00073480,0.00392535,-0.00301125,0.00295429,0.00045450,-0.000
 37169,-0.00052777,-0.46832654,-0.10499196,0.09081353,0.52755071,-0.009
 39602,0.00726426,-0.00103141,0.00021072,0.00025849,-0.00035828,-0.0007
 3827,0.00010675,0.00003772,-0.00059812,-0.00009434,0.00032421,0.000009
 97,-0.00008165,0.00008888,0.00015882,0.00014449,-0.00055265,-0.0001059
 1,-0.00024356,0.00067167,-0.00123746,0.00007529,0.00012583,-0.00000768
 ,-0.00020563,0.00031739,0.00183002,-0.00053829,0.00319659,-0.00003789,
 0.00014910,0.00002915,-0.10752410,-0.10260896,0.02613524,0.13377297,0.
 09675123,0.03137593,0.00758344,-0.00374561,0.00210348,-0.00009054,0.00
 111400,0.00118012,0.00012692,-0.00054353,0.00161572,-0.00065574,-0.002
 17479,-0.00011678,0.00011224,-0.00035075,0.00094945,-0.00160930,0.0047
 0122,0.00027694,0.00226352,-0.00475590,0.00044721,-0.00068265,-0.00437
 225,-0.00014968,-0.00015414,-0.00096002,-0.00578337,0.00539965,-0.0017
 9177,0.00030062,0.00030582,0.00053379,0.09966914,0.02877129,-0.0998416
 0,-0.10648652,-0.02875713,0.08903621,-0.00384014,0.00840518,0.00115899
 ,0.00356655,0.00076902,-0.00173118,0.00053466,-0.00002874,0.00043301,0
 .00007900,-0.00007025,-0.00177841,-0.00001743,-0.00009665,-0.00054605,
 -0.00006104,-0.00089379,0.00323344,0.00035483,0.00138703,-0.00293493,0
 .00051097,-0.00011879,-0.00220088,0.00000635,-0.00000361,-0.00033755,-
 0.00401239,0.00032990,0.00276291,0.00178525,-0.00035147,0.00032657,-0.
 32367360,0.20439448,-0.08363189,-0.02804718,0.02442449,-0.00993480,0.3
 5078263,0.01460755,-0.00219172,-0.00092104,-0.00345029,0.00120194,0.00
 426745,-0.00014661,0.00011772,-0.00021406,0.00098778,-0.00069782,0.001
 07048,-0.00013102,-0.00028050,0.00058487,-0.00004760,0.00078690,-0.002
 26913,-0.00023448,-0.00101975,0.00226601,0.00020999,-0.00029390,0.0015
 4130,-0.00004447,-0.00006632,0.00025064,0.00211081,-0.00010237,-0.0017
 3237,-0.00028798,-0.00022517,0.00003349,0.20778808,-0.24439704,0.07166
 665,-0.00695156,0.01092310,0.00151305,-0.24803542,0.26972822,-0.025436
 64,0.02092862,-0.00387250,0.00774453,0.00086847,-0.00323485,-0.0001101
 6,0.00024349,0.00051221,-0.00108694,0.00012516,-0.00389610,0.00003516,
 -0.00005555,-0.00105266,-0.00093980,-0.00098038,0.00453577,0.00036561,
 0.00217311,-0.00463181,-0.00179281,0.00048262,-0.00233229,0.00011460,0
 .00003953,-0.00033007,-0.00170575,0.00110297,0.00077533,-0.00121234,0.
 00087544,-0.00093204,-0.08970383,0.07715134,-0.10961894,0.00789684,-0.
 00181823,0.01462549,0.09789665,-0.08262563,0.10083744,0.01028848,-0.00
 154404,0.00041634,-0.00044106,0.00043132,0.00070953,0.00013554,0.00003
 036,0.00013226,0.00007684,-0.00010889,0.00061026,-0.00007072,-0.000082
 63,0.00004252,0.00088841,-0.00043077,0.00021303,-0.00007085,0.00014231
 ,-0.00025732,0.00024429,0.00014228,-0.00089169,-0.00000005,0.00015157,
 -0.00012694,-0.00122490,-0.00018426,-0.00108257,0.00004839,-0.00000002
 ,-0.00000375,-0.09293494,-0.01494310,-0.01539579,-0.02192559,-0.041465
 23,-0.01557342,-0.00063816,0.03640035,0.00978758,0.70908385,-0.0014915
 6,0.00077017,-0.00137369,0.00158644,-0.00150235,-0.00053100,0.00002861
 ,-0.00031911,0.00014740,0.00064538,0.00069141,-0.00161437,0.00002712,0
 .00017829,-0.00026666,-0.00026423,-0.00074239,0.00242467,0.00016605,0.
 00111563,-0.00247795,-0.00012958,0.00100298,-0.00134019,0.00005904,0.0
 0013695,-0.00023279,-0.00205482,-0.00042255,-0.00032549,-0.00031177,-0
 .00026040,0.00018095,-0.01563767,-0.16687910,-0.07812036,-0.01105666,-
 0.01100553,-0.00955600,0.00689555,-0.03134018,-0.01440167,-0.03340821,
 0.55195991,-0.00203203,-0.02077404,-0.01564879,0.00431299,-0.00434164,
 0.00227408,-0.00035748,-0.00052370,-0.00000511,0.00283333,0.00161411,-
 0.00367433,-0.00003563,0.00035864,-0.00037130,0.00035943,-0.00250793,0
 .00704686,0.00040196,0.00335382,-0.00727599,-0.00129004,0.00362690,-0.
 00483934,0.00020407,0.00045128,-0.00041576,-0.00740815,-0.00188634,0.0
 0251335,-0.00015418,-0.00084137,-0.00004239,-0.00961467,-0.04760938,-0
 .08302213,0.00585591,0.00448694,0.00700775,-0.00376428,0.00802424,0.00
 692475,0.00189504,-0.00333919,0.15305339,-0.00011208,-0.00103015,-0.00
 073177,0.00051977,-0.00022952,-0.00001159,-0.00005762,0.00004573,0.000
 12947,0.00007767,0.00007641,-0.00017278,-0.00000268,0.00002336,-0.0000
 4850,0.00011245,-0.00024225,0.00051713,0.00001645,0.00025943,-0.000561
 49,-0.00011641,0.00023163,-0.00043255,0.00001248,0.00003052,-0.0000436
 2,-0.00063326,-0.00000595,0.00022695,-0.00003942,-0.00005343,0.0000089
 2,0.00717954,0.00148589,0.00496545,-0.00179133,-0.00118699,-0.00018248
 ,0.00301846,-0.00553747,-0.00162758,-0.23910821,0.16942655,-0.05781935
 ,0.24816906,-0.00128876,0.00108271,0.00097568,-0.00025109,0.00027652,-
 0.00040329,-0.00008993,-0.00001050,-0.00009649,-0.00021773,-0.00005639
 ,0.00015849,0.00001703,-0.00001868,0.00002814,-0.00020363,0.00029267,-
 0.00060112,-0.00002961,-0.00031171,0.00065454,0.00010522,-0.00033209,0
 .00057022,-0.00001523,-0.00004936,0.00004780,0.00070095,0.00031823,-0.
 00022729,-0.00001025,0.00003216,-0.00001144,0.02060007,-0.02313655,0.0
 0814960,-0.00068550,0.00412724,-0.00055407,0.00085557,-0.00482913,-0.0
 0281899,0.18106616,-0.23373271,0.04403734,-0.18829095,0.24293114,-0.00
 171072,0.00112180,0.00041863,-0.00008016,0.00003052,-0.00052488,-0.000
 16575,0.00000252,0.00000633,-0.00021530,0.00006973,-0.00000255,0.00002
 466,0.00001690,0.00000955,-0.00025990,0.00021526,-0.00046530,-0.000017
 10,-0.00023603,0.00051772,0.00007518,-0.00030756,0.00053576,-0.0000119
 7,-0.00004709,0.00003576,0.00063883,0.00024153,-0.00013749,0.00001873,
 0.00003081,0.00003884,0.01259854,-0.02012605,-0.00463453,0.00094603,0.
 00193967,-0.00092928,0.00081731,-0.00519737,0.00221627,-0.08392103,0.0
 7498490,-0.03274876,0.06423269,-0.04801242,0.03738384,0.00067465,0.001
 17074,0.00125733,-0.00059509,0.00057126,-0.00030618,0.00001065,0.00005
 290,-0.00001611,-0.00032093,-0.00017222,0.00051497,-0.00000117,-0.0000
 4288,0.00005827,0.00013740,0.00026949,-0.00076373,-0.00007400,-0.00038
 036,0.00082765,0.00011484,-0.00026925,0.00038169,-0.00001861,-0.000021
 07,0.00005589,0.00075694,-0.00002032,-0.00037422,-0.00001949,0.0000178
 1,-0.00008263,-0.00485572,-0.00777576,-0.00133452,0.00346603,0.0018387
 3,0.00052503,-0.00024682,0.00264690,-0.00009199,-0.36431110,-0.1143751
 7,0.06696787,-0.01721961,-0.01230057,0.00699796,0.38246789,0.00120189,
 0.00021642,0.00075757,-0.00016588,0.00041648,-0.00013417,0.00001600,0.
 00000877,-0.00001960,-0.00019411,-0.00012368,0.00034127,-0.00000421,-0
 .00002836,0.00002608,0.00012097,0.00009200,-0.00041306,-0.00003386,-0.
 00020094,0.00043453,0.00011790,-0.00019232,0.00014532,-0.00001529,-0.0
 0000795,0.00000815,0.00027708,0.00019850,-0.00034807,0.00007202,-0.000
 00766,-0.00002971,-0.02722886,-0.01046261,0.00904361,-0.00436631,-0.00
 510973,-0.00335705,0.00261471,0.00235854,-0.00058161,-0.12617037,-0.10
 919327,0.01714567,0.02508262,0.01330844,-0.00480539,0.12865898,0.10864
 706,0.00176234,0.00061359,0.00069226,-0.00042409,0.00045310,-0.0001451
 5,0.00002705,0.00005150,0.00005094,-0.00026303,-0.00014429,0.00047160,
 -0.00000579,-0.00003956,0.00003479,0.00013987,0.00010590,-0.00060427,-
 0.00004953,-0.00028161,0.00063878,0.00024936,-0.00020495,0.00018992,-0
 .00001292,0.00001498,0.00000655,0.00034857,0.00008994,-0.00053462,0.00
 008769,-0.00001726,0.00001963,-0.01906561,-0.01346299,-0.00505240,-0.0
 0315612,-0.00484828,0.00214123,-0.00000939,0.00189393,-0.00078720,0.10
 339734,0.03569974,-0.03131764,-0.00848750,-0.00184467,-0.00168376,-0.0
 7456453,-0.01818579,0.03592072,0.00200527,0.00103127,-0.00458990,0.000
 44018,0.00012425,0.00097981,0.00004010,-0.00016203,-0.00032361,0.00332
 834,0.00228676,-0.00504665,0.00009388,-0.00012658,-0.00004764,0.003544
 50,-0.00549651,0.01912120,-0.19686471,0.04798660,0.05189720,-0.0007873
 5,0.00071011,-0.00925584,-0.00029243,-0.00030751,-0.00079105,-0.002346
 76,-0.00033306,0.00427048,-0.00004126,0.00014291,-0.00014530,-0.000270
 71,-0.00114462,0.00513082,0.00080278,0.00016733,-0.00105996,-0.0006216
 2,0.00052542,-0.00100987,-0.00007997,-0.00054410,-0.00161992,-0.000121
 93,0.00014952,0.00012391,0.00017803,0.00009259,0.00013699,0.55356533,-
 0.00158073,0.00050203,-0.00008399,0.00053152,0.00105890,0.00244251,-0.
 00009691,-0.00037197,0.00021352,0.00277121,0.00230380,0.00173984,-0.00
 013646,-0.00059889,-0.00015814,-0.01205341,-0.00262028,0.00802739,0.05
 950977,-0.06988096,-0.03096836,-0.00177796,-0.00076108,0.00292587,-0.0
 0067917,-0.00106350,0.00051586,0.00092585,0.00066064,-0.00106312,0.000
 03190,0.00008063,0.00005656,-0.00022744,-0.00024448,-0.00022045,-0.000
 07842,-0.00001228,0.00017075,0.00006428,-0.00003589,0.00009322,0.00002
 799,-0.00004425,-0.00008382,0.00001053,-0.00000563,-0.00001108,-0.0000
 0343,0.00001090,0.00000395,0.01312963,0.57061069,-0.00097409,-0.000804
 34,0.00306827,0.00138407,0.00057520,-0.00132575,-0.00010827,0.00005885
 ,-0.00024792,-0.00425820,0.00141668,-0.00012070,0.00015507,-0.00026763
 ,0.00009282,0.02648829,-0.00867251,-0.03249035,0.06761365,-0.01949301,
 -0.14240526,0.00212022,-0.00110165,0.00300684,0.00067459,-0.00001874,-
 0.00230767,0.00206542,0.00036132,-0.00258224,0.00001369,-0.00008865,0.
 00012154,0.00015041,0.00055791,-0.00304305,-0.00049842,-0.00005335,0.0
 0058361,0.00036440,-0.00026541,0.00056280,0.00004755,0.00029295,0.0008
 9763,0.00006742,-0.00008175,-0.00006193,-0.00009772,-0.00005338,-0.000
 07737,0.05202163,-0.02664409,0.59581281,0.00019488,-0.00050919,0.00145
 875,-0.00038493,0.00082388,-0.00107419,-0.00003480,0.00001427,0.000038
 30,0.00084633,-0.00104862,0.00400235,-0.00036066,-0.00015520,-0.000816
 69,0.00705619,-0.00221357,0.00017657,-0.36134514,0.07002013,-0.1588082
 0,0.00158362,-0.00085593,0.00317965,-0.00000573,-0.00013439,0.00003139
 ,0.00054952,0.00025792,-0.00035137,0.00000522,-0.00010054,0.00010553,0
 .00008278,0.00017636,-0.00156256,-0.00026850,-0.00003429,0.00031905,0.
 00018500,-0.00014095,0.00033040,0.00001303,0.00014877,0.00042453,0.000
 03445,-0.00003762,-0.00003140,-0.00004846,-0.00002613,-0.00003978,-0.0
 1531651,-0.00052998,-0.00999934,0.36824472,0.00030642,0.00092207,-0.00
 259322,0.00004042,-0.00134639,0.00137428,0.00007897,0.00011388,0.00002
 015,0.00172830,-0.00152803,-0.00374007,-0.00006650,0.00014469,0.000117
 76,0.00750690,-0.00966917,0.01630862,0.05405795,-0.00505985,0.01785597
 ,-0.00225659,0.00452072,-0.00030071,-0.00009751,-0.00025927,-0.0001983
 5,0.00050610,0.00073235,0.00224481,-0.00017944,-0.00033871,0.00009322,
 -0.00011906,-0.00042911,0.00254795,0.00040314,0.00005622,-0.00048851,-
 0.00033762,0.00020535,-0.00048842,-0.00003357,-0.00026756,-0.00075980,
 -0.00006056,0.00007188,0.00005555,0.00008215,0.00004445,0.00006225,0.0
 0571927,-0.00623291,0.00329999,-0.06656457,0.01905280,0.00055481,-0.00
 020532,0.00020086,-0.00021786,0.00027935,-0.00034479,-0.00000144,-0.00
 003615,0.00006322,-0.00145544,0.00040890,0.00073773,0.00121634,-0.0005
 1469,-0.00050126,-0.03161814,0.00496530,-0.01665286,-0.15545141,0.0337
 4555,-0.14833100,0.00296132,0.00057996,-0.00446983,-0.00013623,-0.0001
 8623,0.00004857,-0.00147979,0.00104607,0.00033370,0.00008401,-0.000008
 03,-0.00038283,0.00003763,-0.00006836,0.00005942,0.00003072,0.00001348
 ,-0.00003064,0.00003570,-0.00001440,-0.00001501,-0.00000750,-0.0000098
 6,-0.00003266,-0.00000713,0.00000379,0.00000285,0.00000158,0.00000172,
 0.00000427,0.01979073,-0.00267029,0.01089534,0.16059313,-0.03512267,0.
 15962300,0.00010205,-0.00042537,0.00124200,-0.00028924,0.00010916,-0.0
 0095427,-0.00000654,0.00005439,0.00003407,-0.00135422,-0.00065051,0.00
 134589,0.00006748,0.00011949,0.00000782,0.00091052,0.00196415,-0.00701
 976,-0.01281475,0.02973286,0.00907072,0.00111492,-0.00092342,0.0011393
 8,-0.00010593,0.00013025,0.00014696,0.00010325,0.00002301,-0.00056142,
 0.00001213,-0.00002226,0.00003231,0.00010824,0.00029148,-0.00128850,-0
 .00021325,-0.00004101,0.00025804,0.00015625,-0.00013124,0.00026020,0.0
 0001170,0.00014154,0.00041261,0.00003049,-0.00003511,-0.00002879,-0.00
 004760,-0.00002381,-0.00003523,-0.05235976,0.02627236,-0.00282751,-0.0
 0038424,0.00201514,0.00143891,0.06122352,0.00045094,0.00029739,-0.0012
 5869,-0.00008833,-0.00011672,0.00046323,0.00002006,-0.00000798,-0.0000
 3698,0.00065874,-0.00005311,-0.00124602,-0.00004431,0.00000511,0.00002
 118,0.00024276,0.00027084,0.00464243,0.01089387,-0.00281666,-0.0077268
 2,-0.00021771,-0.00009416,-0.00180473,-0.00022355,0.00043819,0.0001399
 3,-0.00071982,-0.00044234,0.00109021,-0.00001164,0.00002855,-0.0000121
 6,-0.00005173,-0.00020694,0.00131271,0.00021158,0.00002885,-0.00027085
 ,-0.00016823,0.00012629,-0.00024910,-0.00001535,-0.00011915,-0.0003685
 0,-0.00002996,0.00003409,0.00002736,0.00004312,0.00002135,0.00003467,0
 .02749738,-0.30807263,0.01347030,-0.00046801,-0.00125014,-0.00099622,-
 0.03882413,0.33291477,-0.00112453,0.00050840,-0.00037608,0.00069921,-0
 .00034497,0.00140293,-0.00000886,-0.00006239,0.00000096,0.00137469,0.0
 0067186,-0.00149433,-0.00005035,-0.00010829,-0.00002212,-0.00057519,-0
 .00324007,0.00536933,0.00992521,-0.02051985,-0.00513328,-0.00113383,0.
 00034472,0.00081391,-0.00031823,-0.00074406,-0.00096583,0.00062669,0.0
 0044552,-0.00075075,-0.00000694,-0.00001997,-0.00002172,-0.00013915,-0
 .00016669,0.00042641,0.00006126,0.00002391,-0.00004680,-0.00004663,0.0
 0004814,-0.00009431,0.00000677,-0.00006560,-0.00016847,-0.00000882,0.0
 0000987,0.00000992,0.00002041,0.00001162,0.00001439,-0.00291575,0.0147
 0636,-0.05189167,0.00002172,-0.00097558,-0.00071354,-0.00405031,-0.009
 70759,0.05149280,-0.00018663,-0.00028540,0.00095037,-0.00002840,0.0003
 7081,-0.00044612,-0.00002883,-0.00003766,0.00003631,-0.00061922,0.0001
 5032,0.00139148,0.00004025,-0.00016171,-0.00005427,-0.00022932,0.00092
 075,-0.00478713,-0.02999121,-0.00332946,-0.00063453,0.00029665,-0.0002
 0092,0.00106074,0.00039070,-0.00001996,-0.00004606,0.00046823,-0.00011
 920,-0.00081559,0.00001360,-0.00000822,0.00002925,0.00007919,0.0002111
 1,-0.00102855,-0.00015397,-0.00002804,0.00019193,0.00012815,-0.0000981
 1,0.00020455,0.00001296,0.00011085,0.00032535,0.00002407,-0.00002916,-
 0.00002350,-0.00003521,-0.00001944,-0.00002632,-0.23131825,-0.10538015
 ,-0.06933987,-0.00205776,-0.00235101,0.00363000,0.00448718,0.00110171,
 0.00039060,0.26202315,-0.00001475,0.00005342,-0.00014202,-0.00000434,-
 0.00009552,0.00002446,0.00000945,0.00001580,-0.00000251,0.00004853,-0.
 00031616,-0.00019829,0.00000234,0.00004866,0.00001429,-0.00034185,0.00
 039139,0.00082564,0.01382331,0.00806044,0.00530286,-0.00084325,-0.0002
 2370,-0.00038495,0.00032660,-0.00008743,0.00043570,0.00015969,-0.00012
 325,-0.00008204,-0.00000215,-0.00000142,-0.00001550,0.00001222,0.00000
 339,0.00015593,0.00004689,0.00001086,-0.00005532,-0.00002181,0.0000214
 1,-0.00004442,-0.00000583,-0.00001730,-0.00003298,-0.00000357,0.000004
 43,0.00000372,0.00000548,0.00000164,0.00000289,-0.10911470,-0.11245105
 ,-0.04086984,0.00182395,-0.00011611,-0.00133712,-0.02654047,-0.0148832
 1,-0.01091018,0.11150072,0.11484337,-0.00077096,0.00022782,-0.00008151
 ,0.00033129,-0.00051800,0.00066322,0.00002477,0.00006369,0.00001979,0.
 00038351,-0.00056864,-0.00110582,-0.00001121,0.00009818,0.00003592,0.0
 0045246,0.00036411,0.00266419,0.02306969,0.00832894,0.00573850,-0.0010
 2235,0.00051810,0.00031461,0.00055275,0.00134930,-0.00161064,0.0003474
 7,-0.00054249,-0.00081045,0.00000390,0.00001190,0.00000076,-0.00000486
 ,0.00013980,0.00012544,0.00004480,-0.00000128,-0.00005287,-0.00003195,
 0.00000693,-0.00004780,0.00000926,-0.00000585,0.00002978,0.00000179,-0
 .00000163,-0.00000200,0.00000104,0.00000117,0.00000009,-0.07377594,-0.
 04150643,-0.07791317,0.00227909,0.00044478,-0.00147727,0.00174766,0.00
 208424,0.00074578,0.07089808,0.04496054,0.07959532,0.00007440,-0.00009
 544,0.00018378,-0.00050224,0.00016799,-0.00013685,-0.00000504,-0.00004
 987,0.00011146,0.00019467,-0.00024311,0.00142759,-0.00002525,0.0000193
 7,-0.00003178,-0.00425065,0.00199907,0.00099771,0.00172938,-0.00780610
 ,0.03539017,-0.00070210,0.00022665,-0.00023517,0.00054336,-0.00018588,
 -0.00031123,0.00036898,-0.00003854,-0.00005822,-0.00000048,-0.00000327
 ,0.00003777,0.00003632,0.00004933,-0.00036463,-0.00004728,-0.00001207,
 0.00007436,0.00005027,-0.00003966,0.00008156,0.00000205,0.00003784,0.0
 0010265,0.00000767,-0.00000938,-0.00000822,-0.00001261,-0.00000649,-0.
 00000935,-0.06357714,0.01926903,-0.06506300,0.00141099,-0.00037831,0.0
 0000006,-0.00075220,-0.00025738,-0.00274797,-0.00331535,0.00913356,-0.
 02453031,0.06877224,-0.00004834,0.00001184,-0.00006328,0.00015995,-0.0
 0007005,0.00005860,-0.00001212,-0.00003533,-0.00005023,0.00006269,0.00
 040147,-0.00043376,0.00000335,-0.00001083,0.00001434,0.00145655,-0.000
 19764,-0.00046308,-0.00153396,0.00189783,-0.01351691,0.00030449,0.0000
 3179,0.00003342,-0.00022506,-0.00003660,0.00012892,-0.00006835,0.00011
 228,0.00001711,0.00000563,0.00001560,-0.00000908,-0.00001193,-0.000024
 07,0.00009463,0.00001129,0.00000412,-0.00001538,-0.00001383,0.00001032
 ,-0.00001998,-0.00000006,-0.00000946,-0.00003025,-0.00000187,0.0000032
 5,0.00000273,0.00000346,0.00000196,0.00000299,0.01766605,-0.07283179,0
 .07838116,-0.00044628,0.00063283,0.00012522,0.00676348,-0.00610239,0.0
 3009485,-0.00229783,0.00486034,-0.01545518,-0.02177733,0.07133452,0.00
 003658,0.00012680,-0.00045132,0.00043281,-0.00014504,0.00015274,-0.000
 00405,0.00001458,-0.00009257,-0.00006632,0.00033983,-0.00122313,0.0000
 3038,-0.00001291,0.00000631,0.00313089,-0.00189141,0.00187613,-0.00306
 680,0.00496611,-0.02178103,-0.00005558,0.00006492,-0.00013718,0.000088
 51,-0.00002074,0.00009451,-0.00016055,-0.00000551,0.00020673,0.0000000
 9,0.00001407,-0.00003848,-0.00003594,-0.00011140,0.00063211,0.00010732
 ,0.00002994,-0.00014751,-0.00008103,0.00007223,-0.00014448,-0.00000747
 ,-0.00006993,-0.00018491,-0.00001464,0.00001770,0.00001502,0.00002191,
 0.00001111,0.00001723,-0.05289133,0.07251394,-0.30057459,-0.00027692,0
 .00024198,0.00098272,-0.00037079,0.00039139,0.00140248,-0.00190673,0.0
 0234916,-0.00683189,0.05508963,-0.07889682,0.32622112\\0.00000386,0.00
 000165,-0.00000709,-0.00000441,-0.00000023,0.00000127,-0.00000070,0.00
 000239,-0.00000214,0.00000246,0.00000041,-0.00000184,0.00000230,0.0000
 0118,-0.00000328,0.00000375,-0.00000333,0.00000753,0.00000396,-0.00000
 309,-0.00000753,-0.00000138,0.00000123,-0.00000168,0.00000090,-0.00000
 208,0.00000362,-0.00000271,-0.00000085,0.00000394,-0.00000189,-0.00000
 112,0.00000183,0.00000097,-0.00000373,-0.00000043,-0.00001245,0.000001
 58,-0.00000059,-0.00000998,0.00000381,0.00000058,0.00000697,-0.0000016
 4,0.00000576,-0.00000657,0.00000263,-0.00000234,-0.00000544,0.00000348
 ,-0.00000190,0.00000007,0.00000366,0.00000603,0.00000344,0.00000281,-0
 .00000079,0.00000414,-0.00000248,0.00000008,0.00000614,-0.00000217,-0.
 00000016,0.00000659,-0.00000411,-0.00000088\\\@
 The archive entry for this job was punched.


 THE REAL VOYAGE OF DISCOVERY CONSISTS NOT IN SEEKING NEW LANDSCAPES 
 BUT IN HAVING NEW EYES.
                                                    -- MARCEL PROUST
 Job cpu time:       0 days  1 hours  6 minutes 27.4 seconds.
 Elapsed time:       0 days  0 hours  4 minutes 25.0 seconds.
 File lengths (MBytes):  RWF=    218 Int=      0 D2E=      0 Chk=     13 Scr=      1
 Normal termination of Gaussian 16 at Wed Jun 29 11:05:21 2022.
