 Entering Gaussian System, Link 0=g16
 AtFile(1): //home/561/yj5695//Basis/6-31pGd.gbs
 Initial command:
 /apps/gaussian/g16c01/g16/l1.exe "/jobfs/40665760.gadi-pbs/Gau-1448189.inp" -scrdir="/jobfs/40665760.gadi-pbs/"
 Entering Link 1 = /apps/gaussian/g16c01/g16/l1.exe PID=   1448190.
  
 Copyright (c) 1988-2019, Gaussian, Inc.  All Rights Reserved.
  
 This is part of the Gaussian(R) 16 program.  It is based on
 the Gaussian(R) 09 system (copyright 2009, Gaussian, Inc.),
 the Gaussian(R) 03 system (copyright 2003, Gaussian, Inc.),
 the Gaussian(R) 98 system (copyright 1998, Gaussian, Inc.),
 the Gaussian(R) 94 system (copyright 1995, Gaussian, Inc.),
 the Gaussian 92(TM) system (copyright 1992, Gaussian, Inc.),
 the Gaussian 90(TM) system (copyright 1990, Gaussian, Inc.),
 the Gaussian 88(TM) system (copyright 1988, Gaussian, Inc.),
 the Gaussian 86(TM) system (copyright 1986, Carnegie Mellon
 University), and the Gaussian 82(TM) system (copyright 1983,
 Carnegie Mellon University). Gaussian is a federally registered
 trademark of Gaussian, Inc.
  
 This software contains proprietary and confidential information,
 including trade secrets, belonging to Gaussian, Inc.
  
 This software is provided under written license and may be
 used, copied, transmitted, or stored only in accord with that
 written license.
  
 The following legend is applicable only to US Government
 contracts under FAR:
  
                    RESTRICTED RIGHTS LEGEND
  
 Use, reproduction and disclosure by the US Government is
 subject to restrictions as set forth in subparagraphs (a)
 and (c) of the Commercial Computer Software - Restricted
 Rights clause in FAR 52.227-19.
  
 Gaussian, Inc.
 340 Quinnipiac St., Bldg. 40, Wallingford CT 06492
  
  
 ---------------------------------------------------------------
 Warning -- This program may not be used in any manner that
 competes with the business of Gaussian, Inc. or will provide
 assistance to any competitor of Gaussian, Inc.  The licensee
 of this program is prohibited from giving any competitor of
 Gaussian, Inc. access to this program.  By using this program,
 the user acknowledges that Gaussian, Inc. is engaged in the
 business of creating and licensing software in the field of
 computational chemistry and represents and warrants to the
 licensee that it is not a competitor of Gaussian, Inc. and that
 it will not use this program in any manner prohibited above.
 ---------------------------------------------------------------
  

 Cite this work as:
 Gaussian 16, Revision C.01,
 M. J. Frisch, G. W. Trucks, H. B. Schlegel, G. E. Scuseria, 
 M. A. Robb, J. R. Cheeseman, G. Scalmani, V. Barone, 
 G. A. Petersson, H. Nakatsuji, X. Li, M. Caricato, A. V. Marenich, 
 J. Bloino, B. G. Janesko, R. Gomperts, B. Mennucci, H. P. Hratchian, 
 J. V. Ortiz, A. F. Izmaylov, J. L. Sonnenberg, D. Williams-Young, 
 F. Ding, F. Lipparini, F. Egidi, J. Goings, B. Peng, A. Petrone, 
 T. Henderson, D. Ranasinghe, V. G. Zakrzewski, J. Gao, N. Rega, 
 G. Zheng, W. Liang, M. Hada, M. Ehara, K. Toyota, R. Fukuda, 
 J. Hasegawa, M. Ishida, T. Nakajima, Y. Honda, O. Kitao, H. Nakai, 
 T. Vreven, K. Throssell, J. A. Montgomery, Jr., J. E. Peralta, 
 F. Ogliaro, M. J. Bearpark, J. J. Heyd, E. N. Brothers, K. N. Kudin, 
 V. N. Staroverov, T. A. Keith, R. Kobayashi, J. Normand, 
 K. Raghavachari, A. P. Rendell, J. C. Burant, S. S. Iyengar, 
 J. Tomasi, M. Cossi, J. M. Millam, M. Klene, C. Adamo, R. Cammi, 
 J. W. Ochterski, R. L. Martin, K. Morokuma, O. Farkas, 
 J. B. Foresman, and D. J. Fox, Gaussian, Inc., Wallingford CT, 2019.
 
 ******************************************
 Gaussian 16:  ES64L-G16RevC.01  3-Jul-2019
                19-May-2022 
 ******************************************
 %nproc=16
 Will use up to   16 processors via shared memory.
 %mem=20gb
 ----------------------------------------------------------------------
 #m062X/gen 6D OPT Freq=Noraman INT(grid=ultrafine) SCRF=(SMD,Solvent=h
 2o)
 ----------------------------------------------------------------------
 1/18=20,19=15,26=6,38=1/1,3;
 2/9=110,12=2,17=6,18=5,40=1/2;
 3/5=7,8=2,11=2,25=1,30=1,70=32201,71=1,72=1,74=-55,75=-5/1,2,3;
 4//1;
 5/5=2,38=5,53=1/2;
 6/7=2,8=2,9=2,10=2,28=1/1;
 7//1,2,3,16;
 1/18=20,19=15,26=6/3(2);
 2/9=110/2;
 99//99;
 2/9=110/2;
 3/5=7,6=1,8=2,11=2,25=1,30=1,70=32205,71=1,72=1,74=-55,75=-5,82=7/1,2,3;
 4/5=5,16=3,69=1/1;
 5/5=2,38=5,53=1/2;
 7//1,2,3,16;
 1/18=20,19=15,26=6/3(-5);
 2/9=110/2;
 6/7=2,8=2,9=2,10=2,19=2,28=1/1;
 99/9=1/99;
 -----
 a3 b1
 -----
 Symbolic Z-matrix:
 Charge =  0 Multiplicity = 1
 C                    -1.207     0.60539  -0.64784 
 S                    -1.70105   0.46624   1.13437 
 O                    -2.87742   1.30672   1.26333 
 O                    -1.74503  -0.96003   1.40025 
 N                    -0.49409   1.12086   1.98963 
 H                    -0.3824    2.13023   1.87384 
 H                     0.38342   0.59728   1.96643 
 F                    -2.15707   0.08399  -1.4145 
 F                    -0.07107  -0.05212  -0.84687 
 F                    -1.0385    1.88307  -0.9607 
 

 GradGradGradGradGradGradGradGradGradGradGradGradGradGradGradGradGradGrad
 Berny optimization.
 Initialization pass.
                           ----------------------------
                           !    Initial Parameters    !
                           ! (Angstroms and Degrees)  !
 --------------------------                            --------------------------
 ! Name  Definition              Value          Derivative Info.                !
 --------------------------------------------------------------------------------
 ! R1    R(1,2)                  1.8546         estimate D2E/DX2                !
 ! R2    R(1,8)                  1.3275         estimate D2E/DX2                !
 ! R3    R(1,9)                  1.3275         estimate D2E/DX2                !
 ! R4    R(1,10)                 1.3262         estimate D2E/DX2                !
 ! R5    R(2,3)                  1.4515         estimate D2E/DX2                !
 ! R6    R(2,4)                  1.4515         estimate D2E/DX2                !
 ! R7    R(2,5)                  1.6176         estimate D2E/DX2                !
 ! R8    R(5,6)                  1.0221         estimate D2E/DX2                !
 ! R9    R(5,7)                  1.0221         estimate D2E/DX2                !
 ! A1    A(2,1,8)              109.5636         estimate D2E/DX2                !
 ! A2    A(2,1,9)              109.5635         estimate D2E/DX2                !
 ! A3    A(2,1,10)             109.4406         estimate D2E/DX2                !
 ! A4    A(8,1,9)              109.3465         estimate D2E/DX2                !
 ! A5    A(8,1,10)             109.4566         estimate D2E/DX2                !
 ! A6    A(9,1,10)             109.4565         estimate D2E/DX2                !
 ! A7    A(1,2,3)              104.9407         estimate D2E/DX2                !
 ! A8    A(1,2,4)              104.9407         estimate D2E/DX2                !
 ! A9    A(1,2,5)              106.1971         estimate D2E/DX2                !
 ! A10   A(3,2,4)              121.8796         estimate D2E/DX2                !
 ! A11   A(3,2,5)              108.8686         estimate D2E/DX2                !
 ! A12   A(4,2,5)              108.8688         estimate D2E/DX2                !
 ! A13   A(2,5,6)              114.9149         estimate D2E/DX2                !
 ! A14   A(2,5,7)              114.9151         estimate D2E/DX2                !
 ! A15   A(6,5,7)              114.1729         estimate D2E/DX2                !
 ! D1    D(8,1,2,3)            -64.8013         estimate D2E/DX2                !
 ! D2    D(8,1,2,4)             64.7631         estimate D2E/DX2                !
 ! D3    D(8,1,2,5)            179.9809         estimate D2E/DX2                !
 ! D4    D(9,1,2,3)            175.2382         estimate D2E/DX2                !
 ! D5    D(9,1,2,4)            -55.1974         estimate D2E/DX2                !
 ! D6    D(9,1,2,5)             60.0204         estimate D2E/DX2                !
 ! D7    D(10,1,2,3)            55.2185         estimate D2E/DX2                !
 ! D8    D(10,1,2,4)          -175.2171         estimate D2E/DX2                !
 ! D9    D(10,1,2,5)           -59.9992         estimate D2E/DX2                !
 ! D10   D(1,2,5,6)             67.7652         estimate D2E/DX2                !
 ! D11   D(1,2,5,7)            -67.764          estimate D2E/DX2                !
 ! D12   D(3,2,5,6)            -44.7542         estimate D2E/DX2                !
 ! D13   D(3,2,5,7)            179.7167         estimate D2E/DX2                !
 ! D14   D(4,2,5,6)           -179.7154         estimate D2E/DX2                !
 ! D15   D(4,2,5,7)             44.7554         estimate D2E/DX2                !
 --------------------------------------------------------------------------------
 Trust Radius=3.00D-01 FncErr=5.00D-06 GrdErr=5.00D-06 EigMax=2.50D+02 EigMin=1.00D-04
 Number of steps in this run=     49 maximum allowed number of steps=    100.
 GradGradGradGradGradGradGradGradGradGradGradGradGradGradGradGradGradGrad

                          Input orientation:                          
 ---------------------------------------------------------------------
 Center     Atomic      Atomic             Coordinates (Angstroms)
 Number     Number       Type             X           Y           Z
 ---------------------------------------------------------------------
      1          6           0       -1.207003    0.605390   -0.647839
      2         16           0       -1.701048    0.466243    1.134368
      3          8           0       -2.877418    1.306722    1.263326
      4          8           0       -1.745034   -0.960029    1.400254
      5          7           0       -0.494088    1.120861    1.989625
      6          1           0       -0.382400    2.130229    1.873841
      7          1           0        0.383422    0.597275    1.966431
      8          9           0       -2.157074    0.083990   -1.414503
      9          9           0       -0.071072   -0.052116   -0.846867
     10          9           0       -1.038501    1.883069   -0.960702
 ---------------------------------------------------------------------
                    Distance matrix (angstroms):
                    1          2          3          4          5
     1  C    0.000000
     2  S    1.854644   0.000000
     3  O    2.633383   1.451510   0.000000
     4  O    2.633382   1.451510   2.537558   0.000000
     5  N    2.780319   1.617635   2.498463   2.498465   0.000000
     6  H    3.060061   2.248222   2.697407   3.410389   1.022108
     7  H    3.060053   2.248224   3.410388   2.697420   1.022108
     8  F    1.327504   2.617407   3.030633   3.030282   3.927940
     9  F    1.327503   2.617405   3.764961   2.945506   3.098468
    10  F    1.326175   2.614514   2.942803   3.762514   3.095444
                    6          7          8          9         10
     6  H    0.000000
     7  H    1.716101   0.000000
     8  F    4.260254   4.260082   0.000000
     9  F    3.501686   2.922827   2.166135   0.000000
    10  F    2.919964   3.499034   2.166524   2.166522   0.000000
 Stoichiometry    CH2F3NO2S
 Framework group  C1[X(CH2F3NO2S)]
 Deg. of freedom    24
 Full point group                 C1      NOp   1
 Largest Abelian subgroup         C1      NOp   1
 Largest concise Abelian subgroup C1      NOp   1
                         Standard orientation:                         
 ---------------------------------------------------------------------
 Center     Atomic      Atomic             Coordinates (Angstroms)
 Number     Number       Type             X           Y           Z
 ---------------------------------------------------------------------
      1          6           0        0.997615    0.039783   -0.000763
      2         16           0       -0.845089   -0.170329    0.000434
      3          8           0       -1.150048   -0.806322   -1.268185
      4          8           0       -1.148379   -0.806482    1.269373
      5          7           0       -1.469397    1.321978    0.000937
      6          1           0       -1.312543    1.854634   -0.857188
      7          1           0       -1.311400    1.854537    0.858913
      8          9           0        1.580982   -1.152672   -0.000805
      9          9           0        1.369170    0.711098    1.082541
     10          9           0        1.364611    0.711127   -1.083976
 ---------------------------------------------------------------------
 Rotational constants (GHZ):           2.5929499           1.5482553           1.5471540
 General basis read from cards:  (6D, 7F)
 There are   160 symmetry adapted cartesian basis functions of A   symmetry.
 There are   160 symmetry adapted basis functions of A   symmetry.
   160 basis functions,   288 primitive gaussians,   160 cartesian basis functions
    37 alpha electrons       37 beta electrons
       nuclear repulsion energy       565.3346838970 Hartrees.
 NAtoms=   10 NActive=   10 NUniq=   10 SFac= 1.00D+00 NAtFMM=   60 NAOKFM=F Big=F
 Integral buffers will be    131072 words long.
 Raffenetti 2 integral format.
 Two-electron integral symmetry is turned on.
 ------------------------------------------------------------------------------
 Polarizable Continuum Model (PCM)
 =================================
 Model                : PCM.
 Atomic radii         : SMD-Coulomb.
 Polarization charges : Total charges.
 Charge compensation  : None.
 Solution method      : On-the-fly selection.
 Cavity type          : VdW (van der Waals Surface) (Alpha=1.000).
 Cavity algorithm     : GePol (No added spheres)
                        Default sphere list used, NSphG=   10.
                        Lebedev-Laikov grids with approx.  5.0 points / Ang**2.
                        Smoothing algorithm: York/Karplus (Gamma=1.0000).
                        Polarization charges: spherical gaussians, with
                                              point-specific exponents (IZeta= 3).
                        Self-potential: point-specific (ISelfS= 7).
                        Self-field    : sphere-specific E.n sum rule (ISelfD= 2).
 1st derivatives      : Analytical E(r).r(x)/FMM algorithm (CHGder, D1EAlg=3).
                        Cavity 1st derivative terms included.
 Solvent              : Water, Eps=  78.355300 Eps(inf)=   1.777849
 ------------------------------------------------------------------------------
 Spheres list:
 ISph  on   Nord     Re0    Alpha      Xe            Ye            Ze
    1   C      1    1.8500  1.000      0.997615      0.039783     -0.000763
    2   S      2    2.4900  1.000     -0.845089     -0.170329      0.000434
    3   O      3    1.5200  1.000     -1.150048     -0.806322     -1.268185
    4   O      4    1.5200  1.000     -1.148379     -0.806482      1.269373
    5   N      5    1.8900  1.000     -1.469397      1.321978      0.000937
    6   H      6    1.2000  1.000     -1.312543      1.854634     -0.857188
    7   H      7    1.2000  1.000     -1.311400      1.854537      0.858913
    8   F      8    1.7300  1.000      1.580982     -1.152672     -0.000805
    9   F      9    1.7300  1.000      1.369170      0.711098      1.082541
   10   F     10    1.7300  1.000      1.364611      0.711127     -1.083976
 ------------------------------------------------------------------------------
 ------------------------------------------------------------------------------
 Atomic radii for non-electrostatic terms: SMD-CDS.
 ------------------------------------------------------------------------------
 Nuclear repulsion after PCM non-electrostatic terms =      565.3409459523 Hartrees.
 One-electron integrals computed using PRISM.
 NBasis=   160 RedAO= T EigKep=  2.87D-04  NBF=   160
 NBsUse=   160 1.00D-06 EigRej= -1.00D+00 NBFU=   160
 ExpMin= 4.05D-02 ExpMax= 2.19D+04 ExpMxC= 3.30D+03 IAcc=3 IRadAn=         5 AccDes= 0.00D+00
 Harris functional with IExCor= 1009 and IRadAn=       5 diagonalized for initial guess.
 HarFok:  IExCor= 1009 AccDes= 0.00D+00 IRadAn=         5 IDoV= 1 UseB2=F ITyADJ=14
 ICtDFT=  3500011 ScaDFX=  1.000000  1.000000  1.000000  1.000000
 FoFCou: FMM=F IPFlag=           0 FMFlag=      100000 FMFlg1=           0
         NFxFlg=           0 DoJE=T BraDBF=F KetDBF=T FulRan=T
         wScrn=  0.000000 ICntrl=       500 IOpCl=  0 I1Cent=   200000004 NGrid=           0
         NMat0=    1 NMatS0=      1 NMatT0=    0 NMatD0=    1 NMtDS0=    0 NMtDT0=    0
 Petite list used in FoFCou.
 Keep R1 ints in memory in canonical form, NReq=98785159.
 Requested convergence on RMS density matrix=1.00D-08 within 128 cycles.
 Requested convergence on MAX density matrix=1.00D-06.
 Requested convergence on             energy=1.00D-06.
 No special actions if energy rises.
 Inv3:  Mode=1 IEnd=     2506188.
 Iteration    1 A*A^-1 deviation from unit magnitude is 3.00D-15 for    899.
 Iteration    1 A*A^-1 deviation from orthogonality  is 1.45D-15 for    894     91.
 Iteration    1 A^-1*A deviation from unit magnitude is 3.22D-15 for    899.
 Iteration    1 A^-1*A deviation from orthogonality  is 2.13D-15 for    874    602.
 Error on total polarization charges =  0.01919
 SCF Done:  E(RM062X) =  -941.954422312     A.U. after   13 cycles
            NFock= 13  Conv=0.36D-08     -V/T= 2.0059
 SMD-CDS (non-electrostatic) energy       (kcal/mol) =       3.93
 (included in total energy above)

 **********************************************************************

            Population analysis using the SCF Density.

 **********************************************************************

 Orbital symmetries:
       Occupied  (A) (A) (A) (A) (A) (A) (A) (A) (A) (A) (A) (A)
                 (A) (A) (A) (A) (A) (A) (A) (A) (A) (A) (A) (A)
                 (A) (A) (A) (A) (A) (A) (A) (A) (A) (A) (A) (A)
                 (A)
       Virtual   (A) (A) (A) (A) (A) (A) (A) (A) (A) (A) (A) (A)
                 (A) (A) (A) (A) (A) (A) (A) (A) (A) (A) (A) (A)
                 (A) (A) (A) (A) (A) (A) (A) (A) (A) (A) (A) (A)
                 (A) (A) (A) (A) (A) (A) (A) (A) (A) (A) (A) (A)
                 (A) (A) (A) (A) (A) (A) (A) (A) (A) (A) (A) (A)
                 (A) (A) (A) (A) (A) (A) (A) (A) (A) (A) (A) (A)
                 (A) (A) (A) (A) (A) (A) (A) (A) (A) (A) (A) (A)
                 (A) (A) (A) (A) (A) (A) (A) (A) (A) (A) (A) (A)
                 (A) (A) (A) (A) (A) (A) (A) (A) (A) (A) (A) (A)
                 (A) (A) (A) (A) (A) (A) (A) (A) (A) (A) (A) (A)
                 (A) (A) (A)
 The electronic state is 1-A.
 Alpha  occ. eigenvalues --  -90.20638 -25.34087 -25.34050 -25.34001 -19.68642
 Alpha  occ. eigenvalues --  -19.68636 -14.82395 -10.85313  -8.51658  -6.43835
 Alpha  occ. eigenvalues --   -6.43834  -6.43759  -1.51078  -1.41779  -1.41685
 Alpha  occ. eigenvalues --   -1.28832  -1.17471  -1.05741  -0.87951  -0.78744
 Alpha  occ. eigenvalues --   -0.73293  -0.73186  -0.71695  -0.64248  -0.62905
 Alpha  occ. eigenvalues --   -0.60514  -0.60370  -0.57951  -0.57186  -0.56900
 Alpha  occ. eigenvalues --   -0.56121  -0.54745  -0.46287  -0.44676  -0.42506
 Alpha  occ. eigenvalues --   -0.42146  -0.40094
 Alpha virt. eigenvalues --    0.01089   0.03244   0.03580   0.03856   0.06697
 Alpha virt. eigenvalues --    0.07448   0.07557   0.07871   0.09210   0.09274
 Alpha virt. eigenvalues --    0.11780   0.13547   0.13621   0.13917   0.16838
 Alpha virt. eigenvalues --    0.19014   0.21574   0.22030   0.22753   0.23371
 Alpha virt. eigenvalues --    0.23517   0.25103   0.25811   0.26284   0.27704
 Alpha virt. eigenvalues --    0.28290   0.29432   0.29906   0.31120   0.32355
 Alpha virt. eigenvalues --    0.32512   0.33484   0.35440   0.35473   0.37632
 Alpha virt. eigenvalues --    0.37833   0.39617   0.41244   0.44643   0.45677
 Alpha virt. eigenvalues --    0.47790   0.54394   0.59116   0.60857   0.62911
 Alpha virt. eigenvalues --    0.67986   0.72816   0.83280   0.87482   0.89174
 Alpha virt. eigenvalues --    0.92185   0.96506   1.01115   1.02294   1.10291
 Alpha virt. eigenvalues --    1.12129   1.13697   1.14294   1.25839   1.26551
 Alpha virt. eigenvalues --    1.28135   1.28626   1.29099   1.33636   1.34866
 Alpha virt. eigenvalues --    1.35858   1.40165   1.43784   1.54265   1.54998
 Alpha virt. eigenvalues --    1.63530   1.63546   1.65158   1.65728   1.66250
 Alpha virt. eigenvalues --    1.69255   1.70565   1.70596   1.74342   1.76529
 Alpha virt. eigenvalues --    1.79347   1.79651   1.81853   1.84002   1.85194
 Alpha virt. eigenvalues --    1.85494   1.88368   1.89825   1.91602   1.92449
 Alpha virt. eigenvalues --    1.94957   2.01020   2.01909   2.06798   2.07229
 Alpha virt. eigenvalues --    2.08533   2.11571   2.15807   2.16746   2.17785
 Alpha virt. eigenvalues --    2.19577   2.31437   2.33948   2.36087   2.39229
 Alpha virt. eigenvalues --    2.47668   2.48147   2.70367   2.80897   2.82290
 Alpha virt. eigenvalues --    2.89023   2.92791   3.20401   3.20941   3.25486
 Alpha virt. eigenvalues --    3.88543   4.03588   4.15446   4.15512   4.50751
 Alpha virt. eigenvalues --    5.59375   5.61700   6.23033
          Condensed to atoms (all electrons):
               1          2          3          4          5          6
     1  C    4.911607   0.290994  -0.140327  -0.140746  -0.121240  -0.007511
     2  S    0.290994  13.966038   0.303401   0.303527   0.005535   0.026837
     3  O   -0.140327   0.303401   8.727061  -0.168045  -0.131559  -0.005144
     4  O   -0.140746   0.303527  -0.168045   8.727283  -0.131409   0.006345
     5  N   -0.121240   0.005535  -0.131559  -0.131409   7.867412   0.237517
     6  H   -0.007511   0.026837  -0.005144   0.006345   0.237517   0.237405
     7  H   -0.007477   0.026779   0.006346  -0.005153   0.237572  -0.010637
     8  F    0.186120  -0.059043   0.005718   0.005748   0.016878  -0.000117
     9  F    0.128836  -0.034131   0.014362   0.003974   0.001128  -0.000379
    10  F    0.128371  -0.034357   0.003989   0.014422   0.001236   0.000674
               7          8          9         10
     1  C   -0.007477   0.186120   0.128836   0.128371
     2  S    0.026779  -0.059043  -0.034131  -0.034357
     3  O    0.006346   0.005718   0.014362   0.003989
     4  O   -0.005153   0.005748   0.003974   0.014422
     5  N    0.237572   0.016878   0.001128   0.001236
     6  H   -0.010637  -0.000117  -0.000379   0.000674
     7  H    0.237351  -0.000117   0.000668  -0.000389
     8  F   -0.000117   9.201547  -0.043170  -0.042906
     9  F    0.000668  -0.043170   9.230513  -0.041113
    10  F   -0.000389  -0.042906  -0.041113   9.229768
 Mulliken charges:
               1
     1  C    0.771373
     2  S    1.204419
     3  O   -0.615803
     4  O   -0.615946
     5  N   -0.983069
     6  H    0.515011
     7  H    0.515057
     8  F   -0.270659
     9  F   -0.260688
    10  F   -0.259695
 Sum of Mulliken charges =   0.00000
 Mulliken charges with hydrogens summed into heavy atoms:
               1
     1  C    0.771373
     2  S    1.204419
     3  O   -0.615803
     4  O   -0.615946
     5  N    0.046998
     8  F   -0.270659
     9  F   -0.260688
    10  F   -0.259695
 Electronic spatial extent (au):  <R**2>=            875.1249
 Charge=              0.0000 electrons
 Dipole moment (field-independent basis, Debye):
    X=              0.8699    Y=              6.1414    Z=             -0.0076  Tot=              6.2027
 Quadrupole moment (field-independent basis, Debye-Ang):
   XX=            -54.7002   YY=            -45.6965   ZZ=            -55.4453
   XY=             -7.0196   XZ=             -0.0105   YZ=              0.0021
 Traceless Quadrupole moment (field-independent basis, Debye-Ang):
   XX=             -2.7529   YY=              6.2509   ZZ=             -3.4980
   XY=             -7.0196   XZ=             -0.0105   YZ=              0.0021
 Octapole moment (field-independent basis, Debye-Ang**2):
  XXX=             27.7055  YYY=             21.8123  ZZZ=             -0.0305  XYY=             -1.2909
  XXY=              7.0227  XXZ=             -0.0263  XZZ=              9.8390  YZZ=             11.5347
  YYZ=             -0.0057  XYZ=             -0.0049
 Hexadecapole moment (field-independent basis, Debye-Ang**3):
 XXXX=           -507.4650 YYYY=           -203.7915 ZZZZ=           -237.7113 XXXY=              0.0029
 XXXZ=             -0.0208 YYYX=            -24.0243 YYYZ=              0.0079 ZZZX=              0.0023
 ZZZY=              0.0199 XXYY=           -117.7159 XXZZ=           -126.6237 YYZZ=            -71.6940
 XXYZ=             -0.0277 YYXZ=              0.0020 ZZXY=            -14.9120
 N-N= 5.653409459523D+02 E-N=-3.359824798341D+03  KE= 9.364455322119D+02
 D1PCM: PCM CHGder 1st derivatives, ID1Alg=3 FixD1E=F DoIter=F DoCFld=F I1PDM=0.
 Calling FoFJK, ICntrl=      2127 FMM=F ISym2X=0 I1Cent= 0 IOpClX= 0 NMat=1 NMatS=1 NMatT=0.
 ***** Axes restored to original set *****
 -------------------------------------------------------------------
 Center     Atomic                   Forces (Hartrees/Bohr)
 Number     Number              X              Y              Z
 -------------------------------------------------------------------
      1        6          -0.000772561   -0.001210395   -0.000414003
      2       16          -0.000216298   -0.000308663    0.000082800
      3        8          -0.000010619    0.000083312   -0.000013491
      4        8           0.000029834   -0.000087368    0.000052401
      5        7           0.000080344    0.000051149   -0.000139419
      6        1           0.000043199   -0.000017510    0.000001012
      7        1           0.000009354    0.000042616   -0.000009625
      8        9           0.000283468    0.000325158    0.000770967
      9        9           0.000221041    0.000167359    0.000100941
     10        9           0.000332238    0.000954340   -0.000431583
 -------------------------------------------------------------------
 Cartesian Forces:  Max     0.001210395 RMS     0.000387657

 GradGradGradGradGradGradGradGradGradGradGradGradGradGradGradGradGradGrad
 Berny optimization.
 FormGI is forming the generalized inverse of G from B-inverse, IUseBI=4.
 Internal  Forces:  Max     0.001077502 RMS     0.000268453
 Search for a local minimum.
 Step number   1 out of a maximum of   49
 All quantities printed in internal units (Hartrees-Bohrs-Radians)
 Mixed Optimization -- En-DIIS/RFO-DIIS
 Second derivative matrix not updated -- first step.
 ITU=  0
     Eigenvalues ---    0.00230   0.02386   0.03963   0.08704   0.08824
     Eigenvalues ---    0.08837   0.09245   0.12650   0.16000   0.16000
     Eigenvalues ---    0.18609   0.22245   0.25000   0.25000   0.25000
     Eigenvalues ---    0.25000   0.44004   0.44004   0.47954   0.60099
     Eigenvalues ---    0.60099   0.60418   0.95268   0.95268
 RFO step:  Lambda=-7.25920128D-06 EMin= 2.30000000D-03
 Linear search not attempted -- first point.
 Iteration  1 RMS(Cart)=  0.00125973 RMS(Int)=  0.00000100
 Iteration  2 RMS(Cart)=  0.00000113 RMS(Int)=  0.00000030
 Iteration  3 RMS(Cart)=  0.00000000 RMS(Int)=  0.00000030
 Variable       Old X    -DE/DX   Delta X   Delta X   Delta X     New X
                                 (Linear)    (Quad)   (Total)
    R1        3.50477   0.00005   0.00000   0.00021   0.00021   3.50498
    R2        2.50862  -0.00079   0.00000  -0.00132  -0.00132   2.50730
    R3        2.50862   0.00011   0.00000   0.00017   0.00017   2.50879
    R4        2.50611   0.00108   0.00000   0.00178   0.00178   2.50789
    R5        2.74296   0.00006   0.00000   0.00006   0.00006   2.74302
    R6        2.74296   0.00010   0.00000   0.00010   0.00010   2.74306
    R7        3.05689   0.00002   0.00000   0.00004   0.00004   3.05692
    R8        1.93150  -0.00003   0.00000  -0.00007  -0.00007   1.93144
    R9        1.93150  -0.00003   0.00000  -0.00007  -0.00007   1.93144
    A1        1.91225  -0.00064   0.00000  -0.00237  -0.00236   1.90988
    A2        1.91224  -0.00009   0.00000  -0.00044  -0.00044   1.91180
    A3        1.91010   0.00048   0.00000   0.00178   0.00179   1.91188
    A4        1.90846   0.00042   0.00000   0.00197   0.00197   1.91043
    A5        1.91038   0.00010   0.00000   0.00054   0.00054   1.91092
    A6        1.91038  -0.00027   0.00000  -0.00149  -0.00149   1.90889
    A7        1.83156  -0.00001   0.00000  -0.00028  -0.00028   1.83128
    A8        1.83156   0.00007   0.00000   0.00035   0.00035   1.83191
    A9        1.85349  -0.00019   0.00000  -0.00096  -0.00096   1.85253
   A10        2.12720   0.00001   0.00000   0.00043   0.00043   2.12763
   A11        1.90012   0.00005   0.00000   0.00004   0.00004   1.90016
   A12        1.90012   0.00003   0.00000   0.00018   0.00018   1.90030
   A13        2.00564   0.00004   0.00000   0.00032   0.00032   2.00596
   A14        2.00565   0.00002   0.00000   0.00022   0.00022   2.00587
   A15        1.99269  -0.00003   0.00000  -0.00010  -0.00010   1.99259
    D1       -1.13100  -0.00002   0.00000  -0.00065  -0.00065  -1.13165
    D2        1.13033   0.00003   0.00000  -0.00010  -0.00010   1.13023
    D3        3.14126   0.00002   0.00000  -0.00016  -0.00016   3.14110
    D4        3.05848  -0.00008   0.00000  -0.00134  -0.00134   3.05714
    D5       -0.96338  -0.00003   0.00000  -0.00080  -0.00080  -0.96417
    D6        1.04755  -0.00004   0.00000  -0.00085  -0.00085   1.04670
    D7        0.96375   0.00001   0.00000  -0.00034  -0.00034   0.96340
    D8       -3.05812   0.00006   0.00000   0.00021   0.00020  -3.05791
    D9       -1.04718   0.00005   0.00000   0.00015   0.00015  -1.04704
   D10        1.18273  -0.00002   0.00000  -0.00000  -0.00000   1.18272
   D11       -1.18270  -0.00004   0.00000  -0.00045  -0.00045  -1.18316
   D12       -0.78111   0.00007   0.00000   0.00077   0.00077  -0.78034
   D13        3.13665   0.00005   0.00000   0.00032   0.00032   3.13697
   D14       -3.13663  -0.00002   0.00000   0.00001   0.00001  -3.13662
   D15        0.78113  -0.00003   0.00000  -0.00044  -0.00044   0.78069
         Item               Value     Threshold  Converged?
 Maximum Force            0.001078     0.000450     NO 
 RMS     Force            0.000268     0.000300     YES
 Maximum Displacement     0.004846     0.001800     NO 
 RMS     Displacement     0.001260     0.001200     NO 
 Predicted change in Energy=-3.629623D-06
 GradGradGradGradGradGradGradGradGradGradGradGradGradGradGradGradGradGrad

                          Input orientation:                          
 ---------------------------------------------------------------------
 Center     Atomic      Atomic             Coordinates (Angstroms)
 Number     Number       Type             X           Y           Z
 ---------------------------------------------------------------------
      1          6           0       -1.206867    0.605700   -0.647709
      2         16           0       -1.701532    0.465743    1.134377
      3          8           0       -2.877678    1.306637    1.263037
      4          8           0       -1.745447   -0.960602    1.400176
      5          7           0       -0.494186    1.120510    1.989010
      6          1           0       -0.382415    2.129848    1.873355
      7          1           0        0.383311    0.596971    1.965849
      8          9           0       -2.157686    0.083873   -1.411939
      9          9           0       -0.070122   -0.050858   -0.845837
     10          9           0       -1.037594    1.883812   -0.962385
 ---------------------------------------------------------------------
                    Distance matrix (angstroms):
                    1          2          3          4          5
     1  C    0.000000
     2  S    1.854753   0.000000
     3  O    2.633225   1.451543   0.000000
     4  O    2.633857   1.451565   2.537938   0.000000
     5  N    2.779430   1.617653   2.498543   2.498682   0.000000
     6  H    3.059168   2.248422   2.697500   3.410666   1.022072
     7  H    3.059317   2.248362   3.410516   2.697708   1.022072
     8  F    1.326804   2.614885   3.028041   3.028012   3.925341
     9  F    1.327596   2.617178   3.764640   2.946001   3.096497
    10  F    1.327119   2.616895   2.944748   3.764763   3.096555
                    6          7          8          9         10
     6  H    0.000000
     7  H    1.715985   0.000000
     8  F    4.258023   4.257861   0.000000
     9  F    3.499572   2.920763   2.167152   0.000000
    10  F    2.920824   3.499926   2.167138   2.166225   0.000000
 Stoichiometry    CH2F3NO2S
 Framework group  C1[X(CH2F3NO2S)]
 Deg. of freedom    24
 Full point group                 C1      NOp   1
 Largest Abelian subgroup         C1      NOp   1
 Largest concise Abelian subgroup C1      NOp   1
                         Standard orientation:                         
 ---------------------------------------------------------------------
 Center     Atomic      Atomic             Coordinates (Angstroms)
 Number     Number       Type             X           Y           Z
 ---------------------------------------------------------------------
      1          6           0        0.997709    0.038595   -0.000131
      2         16           0       -0.845305   -0.169757   -0.000074
      3          8           0       -1.149854   -0.804154   -1.269628
      4          8           0       -1.150423   -0.806269    1.268309
      5          7           0       -1.466753    1.323763    0.000907
      6          1           0       -1.308562    1.856821   -0.856680
      7          1           0       -1.308686    1.855553    0.859304
      8          9           0        1.576801   -1.155165   -0.000305
      9          9           0        1.368667    0.709957    1.083462
     10          9           0        1.368461    0.710677   -1.082763
 ---------------------------------------------------------------------
 Rotational constants (GHZ):           2.5919020           1.5484709           1.5477126
 Basis read from rwf:  (6D, 7F)
 There are   160 symmetry adapted cartesian basis functions of A   symmetry.
 There are   160 symmetry adapted basis functions of A   symmetry.
   160 basis functions,   288 primitive gaussians,   160 cartesian basis functions
    37 alpha electrons       37 beta electrons
       nuclear repulsion energy       565.3293476671 Hartrees.
 NAtoms=   10 NActive=   10 NUniq=   10 SFac= 1.00D+00 NAtFMM=   60 NAOKFM=F Big=F
 Integral buffers will be    131072 words long.
 Raffenetti 2 integral format.
 Two-electron integral symmetry is turned on.
 ------------------------------------------------------------------------------
 Polarizable Continuum Model (PCM)
 =================================
 Model                : PCM.
 Atomic radii         : SMD-Coulomb.
 Polarization charges : Total charges.
 Charge compensation  : None.
 Solution method      : On-the-fly selection.
 Cavity type          : VdW (van der Waals Surface) (Alpha=1.000).
 Cavity algorithm     : GePol (No added spheres)
                        Default sphere list used, NSphG=   10.
                        Lebedev-Laikov grids with approx.  5.0 points / Ang**2.
                        Smoothing algorithm: York/Karplus (Gamma=1.0000).
                        Polarization charges: spherical gaussians, with
                                              point-specific exponents (IZeta= 3).
                        Self-potential: point-specific (ISelfS= 7).
                        Self-field    : sphere-specific E.n sum rule (ISelfD= 2).
 1st derivatives      : Analytical E(r).r(x)/FMM algorithm (CHGder, D1EAlg=3).
                        Cavity 1st derivative terms included.
 Solvent              : Water, Eps=  78.355300 Eps(inf)=   1.777849
 ------------------------------------------------------------------------------
 Spheres list:
 ISph  on   Nord     Re0    Alpha      Xe            Ye            Ze
    1   C      1    1.8500  1.000      0.997709      0.038595     -0.000131
    2   S      2    2.4900  1.000     -0.845305     -0.169757     -0.000074
    3   O      3    1.5200  1.000     -1.149854     -0.804154     -1.269628
    4   O      4    1.5200  1.000     -1.150423     -0.806269      1.268309
    5   N      5    1.8900  1.000     -1.466753      1.323763      0.000907
    6   H      6    1.2000  1.000     -1.308562      1.856821     -0.856680
    7   H      7    1.2000  1.000     -1.308686      1.855553      0.859304
    8   F      8    1.7300  1.000      1.576801     -1.155165     -0.000305
    9   F      9    1.7300  1.000      1.368667      0.709957      1.083462
   10   F     10    1.7300  1.000      1.368461      0.710677     -1.082763
 ------------------------------------------------------------------------------
 ------------------------------------------------------------------------------
 Atomic radii for non-electrostatic terms: SMD-CDS.
 ------------------------------------------------------------------------------
 Nuclear repulsion after PCM non-electrostatic terms =      565.3356095428 Hartrees.
 One-electron integrals computed using PRISM.
 NBasis=   160 RedAO= T EigKep=  2.87D-04  NBF=   160
 NBsUse=   160 1.00D-06 EigRej= -1.00D+00 NBFU=   160
 Initial guess from the checkpoint file:  "/jobfs/40665760.gadi-pbs/Gau-1448190.chk"
 B after Tr=    -0.000000    0.000000    0.000000
         Rot=    1.000000   -0.000277    0.000410    0.000696 Ang=  -0.10 deg.
 Keep R1 ints in memory in canonical form, NReq=98785159.
 Requested convergence on RMS density matrix=1.00D-08 within 128 cycles.
 Requested convergence on MAX density matrix=1.00D-06.
 Requested convergence on             energy=1.00D-06.
 No special actions if energy rises.
 Inv3:  Mode=1 IEnd=     2511675.
 Iteration    1 A*A^-1 deviation from unit magnitude is 4.00D-15 for    908.
 Iteration    1 A*A^-1 deviation from orthogonality  is 1.80D-15 for    758    141.
 Iteration    1 A^-1*A deviation from unit magnitude is 3.55D-15 for    908.
 Iteration    1 A^-1*A deviation from orthogonality  is 1.52D-15 for    789    126.
 Error on total polarization charges =  0.01919
 SCF Done:  E(RM062X) =  -941.954427859     A.U. after    8 cycles
            NFock=  8  Conv=0.68D-08     -V/T= 2.0059
 SMD-CDS (non-electrostatic) energy       (kcal/mol) =       3.93
 (included in total energy above)
 D1PCM: PCM CHGder 1st derivatives, ID1Alg=3 FixD1E=F DoIter=F DoCFld=F I1PDM=0.
 Calling FoFJK, ICntrl=      2127 FMM=F ISym2X=0 I1Cent= 0 IOpClX= 0 NMat=1 NMatS=1 NMatT=0.
 ***** Axes restored to original set *****
 -------------------------------------------------------------------
 Center     Atomic                   Forces (Hartrees/Bohr)
 Number     Number              X              Y              Z
 -------------------------------------------------------------------
      1        6          -0.000357025   -0.000527744   -0.000066388
      2       16           0.000072057    0.000048163   -0.000009154
      3        8          -0.000023980   -0.000012631    0.000043754
      4        8           0.000008592    0.000051095   -0.000000851
      5        7           0.000054465    0.000005451    0.000020681
      6        1           0.000005366   -0.000006752   -0.000021787
      7        1           0.000007309    0.000015661   -0.000013362
      8        9           0.000201599    0.000150507    0.000206427
      9        9          -0.000006925    0.000032783   -0.000035904
     10        9           0.000038542    0.000243467   -0.000123417
 -------------------------------------------------------------------
 Cartesian Forces:  Max     0.000527744 RMS     0.000142838

 GradGradGradGradGradGradGradGradGradGradGradGradGradGradGradGradGradGrad
 Berny optimization.
 Using GEDIIS/GDIIS optimizer.
 FormGI is forming the generalized inverse of G from B-inverse, IUseBI=4.
 Internal  Forces:  Max     0.000340604 RMS     0.000078721
 Search for a local minimum.
 Step number   2 out of a maximum of   49
 All quantities printed in internal units (Hartrees-Bohrs-Radians)
 Mixed Optimization -- En-DIIS/RFO-DIIS
 Swapping is turned off.
 Update second derivatives using D2CorX and points    1    2
 DE= -5.55D-06 DEPred=-3.63D-06 R= 1.53D+00
 TightC=F SS=  1.41D+00  RLast= 5.18D-03 DXNew= 5.0454D-01 1.5533D-02
 Trust test= 1.53D+00 RLast= 5.18D-03 DXMaxT set to 3.00D-01
 ITU=  1  0
     Eigenvalues ---    0.00231   0.02386   0.03950   0.08621   0.08774
     Eigenvalues ---    0.08856   0.09509   0.12671   0.15990   0.16024
     Eigenvalues ---    0.18633   0.22137   0.22655   0.25000   0.25000
     Eigenvalues ---    0.28705   0.43951   0.44004   0.47915   0.49504
     Eigenvalues ---    0.60116   0.60716   0.95251   0.95490
 En-DIIS/RFO-DIIS/Sim-DIIS IScMMF=       -3 using points:     2    1
 RFO step:  Lambda=-7.58318603D-07.
 DidBck=F Rises=F RFO-DIIS coefs:    0.96757    0.03243
 Iteration  1 RMS(Cart)=  0.00084715 RMS(Int)=  0.00000035
 Iteration  2 RMS(Cart)=  0.00000039 RMS(Int)=  0.00000003
 Variable       Old X    -DE/DX   Delta X   Delta X   Delta X     New X
                                 (Linear)    (Quad)   (Total)
    R1        3.50498   0.00001  -0.00001   0.00009   0.00008   3.50506
    R2        2.50730  -0.00034   0.00004  -0.00081  -0.00076   2.50653
    R3        2.50879  -0.00000  -0.00001   0.00001   0.00001   2.50880
    R4        2.50789   0.00028  -0.00006   0.00075   0.00069   2.50858
    R5        2.74302   0.00002  -0.00000   0.00003   0.00003   2.74305
    R6        2.74306  -0.00005  -0.00000  -0.00004  -0.00005   2.74301
    R7        3.05692   0.00002  -0.00000   0.00004   0.00004   3.05696
    R8        1.93144  -0.00002   0.00000  -0.00006  -0.00006   1.93138
    R9        1.93144  -0.00002   0.00000  -0.00005  -0.00005   1.93139
    A1        1.90988   0.00001   0.00008  -0.00019  -0.00011   1.90977
    A2        1.91180   0.00005   0.00001   0.00019   0.00021   1.91201
    A3        1.91188   0.00007  -0.00006   0.00045   0.00040   1.91228
    A4        1.91043  -0.00000  -0.00006   0.00037   0.00031   1.91074
    A5        1.91092  -0.00005  -0.00002  -0.00021  -0.00022   1.91070
    A6        1.90889  -0.00008   0.00005  -0.00063  -0.00058   1.90831
    A7        1.83128   0.00000   0.00001   0.00011   0.00012   1.83140
    A8        1.83191  -0.00006  -0.00001  -0.00034  -0.00036   1.83155
    A9        1.85253   0.00012   0.00003   0.00059   0.00062   1.85315
   A10        2.12763  -0.00000  -0.00001  -0.00024  -0.00025   2.12738
   A11        1.90016  -0.00002  -0.00000   0.00009   0.00009   1.90025
   A12        1.90030  -0.00002  -0.00001  -0.00008  -0.00009   1.90021
   A13        2.00596  -0.00002  -0.00001  -0.00002  -0.00003   2.00592
   A14        2.00587   0.00001  -0.00001   0.00015   0.00015   2.00602
   A15        1.99259   0.00001   0.00000   0.00012   0.00012   1.99271
    D1       -1.13165   0.00004   0.00002   0.00159   0.00161  -1.13004
    D2        1.13023   0.00000   0.00000   0.00117   0.00117   1.13140
    D3        3.14110   0.00001   0.00001   0.00118   0.00119  -3.14090
    D4        3.05714   0.00001   0.00004   0.00112   0.00117   3.05831
    D5       -0.96417  -0.00003   0.00003   0.00071   0.00074  -0.96344
    D6        1.04670  -0.00002   0.00003   0.00072   0.00075   1.04745
    D7        0.96340   0.00003   0.00001   0.00150   0.00151   0.96491
    D8       -3.05791  -0.00001  -0.00001   0.00108   0.00108  -3.05683
    D9       -1.04704  -0.00000  -0.00000   0.00109   0.00109  -1.04595
   D10        1.18272   0.00003   0.00000   0.00035   0.00035   1.18308
   D11       -1.18316   0.00002   0.00001   0.00002   0.00003  -1.18312
   D12       -0.78034  -0.00002  -0.00002  -0.00010  -0.00013  -0.78047
   D13        3.13697  -0.00003  -0.00001  -0.00044  -0.00045   3.13652
   D14       -3.13662   0.00001  -0.00000   0.00021   0.00021  -3.13641
   D15        0.78069   0.00000   0.00001  -0.00012  -0.00011   0.78058
         Item               Value     Threshold  Converged?
 Maximum Force            0.000341     0.000450     YES
 RMS     Force            0.000079     0.000300     YES
 Maximum Displacement     0.002085     0.001800     NO 
 RMS     Displacement     0.000847     0.001200     YES
 Predicted change in Energy=-3.791832D-07
 GradGradGradGradGradGradGradGradGradGradGradGradGradGradGradGradGradGrad

                          Input orientation:                          
 ---------------------------------------------------------------------
 Center     Atomic      Atomic             Coordinates (Angstroms)
 Number     Number       Type             X           Y           Z
 ---------------------------------------------------------------------
      1          6           0       -1.206999    0.605428   -0.647961
      2         16           0       -1.701247    0.465788    1.134310
      3          8           0       -2.877845    1.306058    1.263097
      4          8           0       -1.744785   -0.960576    1.399931
      5          7           0       -0.494275    1.120718    1.989386
      6          1           0       -0.382873    2.130103    1.874060
      7          1           0        0.383369    0.597461    1.966542
      8          9           0       -2.158375    0.084759   -1.411588
      9          9           0       -0.070696   -0.051727   -0.846669
     10          9           0       -1.036490    1.883622   -0.963175
 ---------------------------------------------------------------------
                    Distance matrix (angstroms):
                    1          2          3          4          5
     1  C    0.000000
     2  S    1.854797   0.000000
     3  O    2.633392   1.451558   0.000000
     4  O    2.633524   1.451539   2.537751   0.000000
     5  N    2.780126   1.617674   2.498650   2.498603   0.000000
     6  H    3.060132   2.248396   2.697631   3.410557   1.022042
     7  H    3.060223   2.248460   3.410639   2.697697   1.022046
     8  F    1.326400   2.614526   3.027069   3.027940   3.925438
     9  F    1.327600   2.617403   3.764941   2.945470   3.097944
    10  F    1.327483   2.617555   2.946261   3.765025   3.097359
                    6          7          8          9         10
     6  H    0.000000
     7  H    1.716004   0.000000
     8  F    4.258088   4.258532   0.000000
     9  F    3.501457   2.922632   2.167064   0.000000
    10  F    2.921963   3.500493   2.166935   2.166081   0.000000
 Stoichiometry    CH2F3NO2S
 Framework group  C1[X(CH2F3NO2S)]
 Deg. of freedom    24
 Full point group                 C1      NOp   1
 Largest Abelian subgroup         C1      NOp   1
 Largest concise Abelian subgroup C1      NOp   1
                         Standard orientation:                         
 ---------------------------------------------------------------------
 Center     Atomic      Atomic             Coordinates (Angstroms)
 Number     Number       Type             X           Y           Z
 ---------------------------------------------------------------------
      1          6           0        0.997761    0.038404   -0.000034
      2         16           0       -0.845337   -0.169589    0.000068
      3          8           0       -1.149980   -0.806013   -1.268466
      4          8           0       -1.150215   -0.804495    1.269284
      5          7           0       -1.467425    1.323687   -0.000848
      6          1           0       -1.309630    1.855604   -0.859180
      7          1           0       -1.309733    1.856707    0.856824
      8          9           0        1.576310   -1.155171   -0.000169
      9          9           0        1.369084    0.710196    1.083173
     10          9           0        1.369241    0.710413   -1.082908
 ---------------------------------------------------------------------
 Rotational constants (GHZ):           2.5921290           1.5481745           1.5474635
 Basis read from rwf:  (6D, 7F)
 There are   160 symmetry adapted cartesian basis functions of A   symmetry.
 There are   160 symmetry adapted basis functions of A   symmetry.
   160 basis functions,   288 primitive gaussians,   160 cartesian basis functions
    37 alpha electrons       37 beta electrons
       nuclear repulsion energy       565.3137496035 Hartrees.
 NAtoms=   10 NActive=   10 NUniq=   10 SFac= 1.00D+00 NAtFMM=   60 NAOKFM=F Big=F
 Integral buffers will be    131072 words long.
 Raffenetti 2 integral format.
 Two-electron integral symmetry is turned on.
 ------------------------------------------------------------------------------
 Polarizable Continuum Model (PCM)
 =================================
 Model                : PCM.
 Atomic radii         : SMD-Coulomb.
 Polarization charges : Total charges.
 Charge compensation  : None.
 Solution method      : On-the-fly selection.
 Cavity type          : VdW (van der Waals Surface) (Alpha=1.000).
 Cavity algorithm     : GePol (No added spheres)
                        Default sphere list used, NSphG=   10.
                        Lebedev-Laikov grids with approx.  5.0 points / Ang**2.
                        Smoothing algorithm: York/Karplus (Gamma=1.0000).
                        Polarization charges: spherical gaussians, with
                                              point-specific exponents (IZeta= 3).
                        Self-potential: point-specific (ISelfS= 7).
                        Self-field    : sphere-specific E.n sum rule (ISelfD= 2).
 1st derivatives      : Analytical E(r).r(x)/FMM algorithm (CHGder, D1EAlg=3).
                        Cavity 1st derivative terms included.
 Solvent              : Water, Eps=  78.355300 Eps(inf)=   1.777849
 ------------------------------------------------------------------------------
 Spheres list:
 ISph  on   Nord     Re0    Alpha      Xe            Ye            Ze
    1   C      1    1.8500  1.000      0.997761      0.038404     -0.000034
    2   S      2    2.4900  1.000     -0.845337     -0.169589      0.000068
    3   O      3    1.5200  1.000     -1.149980     -0.806013     -1.268466
    4   O      4    1.5200  1.000     -1.150215     -0.804495      1.269284
    5   N      5    1.8900  1.000     -1.467425      1.323687     -0.000848
    6   H      6    1.2000  1.000     -1.309630      1.855604     -0.859180
    7   H      7    1.2000  1.000     -1.309733      1.856707      0.856824
    8   F      8    1.7300  1.000      1.576310     -1.155171     -0.000169
    9   F      9    1.7300  1.000      1.369084      0.710196      1.083173
   10   F     10    1.7300  1.000      1.369241      0.710413     -1.082908
 ------------------------------------------------------------------------------
 ------------------------------------------------------------------------------
 Atomic radii for non-electrostatic terms: SMD-CDS.
 ------------------------------------------------------------------------------
 Nuclear repulsion after PCM non-electrostatic terms =      565.3200124512 Hartrees.
 One-electron integrals computed using PRISM.
 NBasis=   160 RedAO= T EigKep=  2.87D-04  NBF=   160
 NBsUse=   160 1.00D-06 EigRej= -1.00D+00 NBFU=   160
 Initial guess from the checkpoint file:  "/jobfs/40665760.gadi-pbs/Gau-1448190.chk"
 B after Tr=     0.000000   -0.000000   -0.000000
         Rot=    1.000000    0.000441    0.000001    0.000013 Ang=   0.05 deg.
 Keep R1 ints in memory in canonical form, NReq=98785159.
 Requested convergence on RMS density matrix=1.00D-08 within 128 cycles.
 Requested convergence on MAX density matrix=1.00D-06.
 Requested convergence on             energy=1.00D-06.
 No special actions if energy rises.
 Inv3:  Mode=1 IEnd=     2511675.
 Iteration    1 A*A^-1 deviation from unit magnitude is 4.66D-15 for    914.
 Iteration    1 A*A^-1 deviation from orthogonality  is 1.81D-15 for    914    815.
 Iteration    1 A^-1*A deviation from unit magnitude is 4.66D-15 for    914.
 Iteration    1 A^-1*A deviation from orthogonality  is 1.70D-15 for    819    219.
 Error on total polarization charges =  0.01919
 SCF Done:  E(RM062X) =  -941.954428151     A.U. after    8 cycles
            NFock=  8  Conv=0.41D-08     -V/T= 2.0059
 SMD-CDS (non-electrostatic) energy       (kcal/mol) =       3.93
 (included in total energy above)
 D1PCM: PCM CHGder 1st derivatives, ID1Alg=3 FixD1E=F DoIter=F DoCFld=F I1PDM=0.
 Calling FoFJK, ICntrl=      2127 FMM=F ISym2X=0 I1Cent= 0 IOpClX= 0 NMat=1 NMatS=1 NMatT=0.
 ***** Axes restored to original set *****
 -------------------------------------------------------------------
 Center     Atomic                   Forces (Hartrees/Bohr)
 Number     Number              X              Y              Z
 -------------------------------------------------------------------
      1        6          -0.000081060   -0.000125121   -0.000049355
      2       16           0.000040074    0.000058817    0.000041264
      3        8           0.000024276    0.000012837    0.000016394
      4        8           0.000019364   -0.000003867    0.000005516
      5        7           0.000003393    0.000001872   -0.000027997
      6        1           0.000023266    0.000018705   -0.000023898
      7        1           0.000021696   -0.000001498   -0.000026408
      8        9           0.000010130   -0.000001449    0.000053200
      9        9          -0.000030737   -0.000024166    0.000003287
     10        9          -0.000030403    0.000063870    0.000007998
 -------------------------------------------------------------------
 Cartesian Forces:  Max     0.000125121 RMS     0.000039093

 GradGradGradGradGradGradGradGradGradGradGradGradGradGradGradGradGradGrad
 Berny optimization.
 Using GEDIIS/GDIIS optimizer.
 FormGI is forming the generalized inverse of G from B-inverse, IUseBI=4.
 Internal  Forces:  Max     0.000068976 RMS     0.000022477
 Search for a local minimum.
 Step number   3 out of a maximum of   49
 All quantities printed in internal units (Hartrees-Bohrs-Radians)
 Mixed Optimization -- En-DIIS/RFO-DIIS
 Swapping is turned off.
 Update second derivatives using D2CorX and points    1    2    3
 DE= -2.92D-07 DEPred=-3.79D-07 R= 7.70D-01
 Trust test= 7.70D-01 RLast= 3.91D-03 DXMaxT set to 3.00D-01
 ITU=  0  1  0
     Eigenvalues ---    0.00243   0.02386   0.03932   0.08328   0.08778
     Eigenvalues ---    0.08855   0.09553   0.12727   0.16006   0.16055
     Eigenvalues ---    0.18408   0.22180   0.23026   0.25000   0.27969
     Eigenvalues ---    0.29198   0.40662   0.44011   0.44095   0.48413
     Eigenvalues ---    0.60120   0.60774   0.95291   0.95586
 En-DIIS/RFO-DIIS/Sim-DIIS IScMMF=       -3 using points:     3    2    1
 RFO step:  Lambda=-8.45777974D-08.
 DidBck=T Rises=F RFO-DIIS coefs:    0.63759    0.51904   -0.15663
 Iteration  1 RMS(Cart)=  0.00034317 RMS(Int)=  0.00000009
 Iteration  2 RMS(Cart)=  0.00000007 RMS(Int)=  0.00000005
 Variable       Old X    -DE/DX   Delta X   Delta X   Delta X     New X
                                 (Linear)    (Quad)   (Total)
    R1        3.50506  -0.00002   0.00000  -0.00006  -0.00006   3.50500
    R2        2.50653  -0.00006   0.00007  -0.00021  -0.00014   2.50639
    R3        2.50880  -0.00000   0.00002  -0.00002   0.00000   2.50880
    R4        2.50858   0.00007   0.00003   0.00013   0.00016   2.50874
    R5        2.74305  -0.00001  -0.00000  -0.00000  -0.00000   2.74304
    R6        2.74301   0.00001   0.00003  -0.00003   0.00000   2.74301
    R7        3.05696  -0.00003  -0.00001  -0.00004  -0.00004   3.05692
    R8        1.93138   0.00001   0.00001  -0.00000   0.00001   1.93139
    R9        1.93139   0.00000   0.00001  -0.00001   0.00000   1.93139
    A1        1.90977   0.00002  -0.00033   0.00037   0.00004   1.90981
    A2        1.91201  -0.00002  -0.00014   0.00009  -0.00005   1.91196
    A3        1.91228  -0.00007   0.00014  -0.00029  -0.00015   1.91212
    A4        1.91074   0.00000   0.00020  -0.00013   0.00006   1.91080
    A5        1.91070   0.00002   0.00017  -0.00010   0.00007   1.91076
    A6        1.90831   0.00004  -0.00002   0.00006   0.00004   1.90835
    A7        1.83140  -0.00001  -0.00009   0.00005  -0.00003   1.83137
    A8        1.83155  -0.00003   0.00018  -0.00034  -0.00016   1.83140
    A9        1.85315   0.00002  -0.00038   0.00047   0.00010   1.85325
   A10        2.12738   0.00001   0.00016  -0.00011   0.00005   2.12742
   A11        1.90025  -0.00000  -0.00002   0.00005   0.00003   1.90027
   A12        1.90021   0.00000   0.00006  -0.00004   0.00002   1.90023
   A13        2.00592   0.00000   0.00006  -0.00004   0.00002   2.00595
   A14        2.00602  -0.00001  -0.00002  -0.00002  -0.00003   2.00598
   A15        1.99271   0.00001  -0.00006   0.00011   0.00005   1.99276
    D1       -1.13004   0.00000  -0.00068   0.00015  -0.00053  -1.13057
    D2        1.13140  -0.00000  -0.00044  -0.00014  -0.00058   1.13082
    D3       -3.14090  -0.00000  -0.00046  -0.00013  -0.00059  -3.14149
    D4        3.05831  -0.00000  -0.00063   0.00004  -0.00060   3.05771
    D5       -0.96344  -0.00001  -0.00039  -0.00026  -0.00065  -0.96409
    D6        1.04745  -0.00000  -0.00041  -0.00025  -0.00065   1.04679
    D7        0.96491   0.00000  -0.00060   0.00008  -0.00052   0.96439
    D8       -3.05683  -0.00000  -0.00036  -0.00021  -0.00057  -3.05740
    D9       -1.04595  -0.00000  -0.00037  -0.00020  -0.00058  -1.04652
   D10        1.18308   0.00001  -0.00013   0.00020   0.00007   1.18315
   D11       -1.18312   0.00000  -0.00008   0.00008  -0.00000  -1.18312
   D12       -0.78047   0.00001   0.00017  -0.00012   0.00005  -0.78042
   D13        3.13652   0.00001   0.00021  -0.00024  -0.00002   3.13650
   D14       -3.13641  -0.00001  -0.00007   0.00002  -0.00006  -3.13646
   D15        0.78058  -0.00001  -0.00003  -0.00009  -0.00012   0.78045
         Item               Value     Threshold  Converged?
 Maximum Force            0.000069     0.000450     YES
 RMS     Force            0.000022     0.000300     YES
 Maximum Displacement     0.001085     0.001800     YES
 RMS     Displacement     0.000343     0.001200     YES
 Predicted change in Energy=-3.900193D-08
 Optimization completed.
    -- Stationary point found.
                           ----------------------------
                           !   Optimized Parameters   !
                           ! (Angstroms and Degrees)  !
 --------------------------                            --------------------------
 ! Name  Definition              Value          Derivative Info.                !
 --------------------------------------------------------------------------------
 ! R1    R(1,2)                  1.8548         -DE/DX =    0.0                 !
 ! R2    R(1,8)                  1.3264         -DE/DX =   -0.0001              !
 ! R3    R(1,9)                  1.3276         -DE/DX =    0.0                 !
 ! R4    R(1,10)                 1.3275         -DE/DX =    0.0001              !
 ! R5    R(2,3)                  1.4516         -DE/DX =    0.0                 !
 ! R6    R(2,4)                  1.4515         -DE/DX =    0.0                 !
 ! R7    R(2,5)                  1.6177         -DE/DX =    0.0                 !
 ! R8    R(5,6)                  1.022          -DE/DX =    0.0                 !
 ! R9    R(5,7)                  1.022          -DE/DX =    0.0                 !
 ! A1    A(2,1,8)              109.4218         -DE/DX =    0.0                 !
 ! A2    A(2,1,9)              109.55           -DE/DX =    0.0                 !
 ! A3    A(2,1,10)             109.5655         -DE/DX =   -0.0001              !
 ! A4    A(8,1,9)              109.4773         -DE/DX =    0.0                 !
 ! A5    A(8,1,10)             109.4748         -DE/DX =    0.0                 !
 ! A6    A(9,1,10)             109.3379         -DE/DX =    0.0                 !
 ! A7    A(1,2,3)              104.9317         -DE/DX =    0.0                 !
 ! A8    A(1,2,4)              104.9402         -DE/DX =    0.0                 !
 ! A9    A(1,2,5)              106.1777         -DE/DX =    0.0                 !
 ! A10   A(3,2,4)              121.8897         -DE/DX =    0.0                 !
 ! A11   A(3,2,5)              108.8761         -DE/DX =    0.0                 !
 ! A12   A(4,2,5)              108.8741         -DE/DX =    0.0                 !
 ! A13   A(2,5,6)              114.931          -DE/DX =    0.0                 !
 ! A14   A(2,5,7)              114.9362         -DE/DX =    0.0                 !
 ! A15   A(6,5,7)              114.174          -DE/DX =    0.0                 !
 ! D1    D(8,1,2,3)            -64.7465         -DE/DX =    0.0                 !
 ! D2    D(8,1,2,4)             64.8245         -DE/DX =    0.0                 !
 ! D3    D(8,1,2,5)           -179.9603         -DE/DX =    0.0                 !
 ! D4    D(9,1,2,3)            175.2281         -DE/DX =    0.0                 !
 ! D5    D(9,1,2,4)            -55.2009         -DE/DX =    0.0                 !
 ! D6    D(9,1,2,5)             60.0143         -DE/DX =    0.0                 !
 ! D7    D(10,1,2,3)            55.2854         -DE/DX =    0.0                 !
 ! D8    D(10,1,2,4)          -175.1437         -DE/DX =    0.0                 !
 ! D9    D(10,1,2,5)           -59.9284         -DE/DX =    0.0                 !
 ! D10   D(1,2,5,6)             67.7854         -DE/DX =    0.0                 !
 ! D11   D(1,2,5,7)            -67.7878         -DE/DX =    0.0                 !
 ! D12   D(3,2,5,6)            -44.7175         -DE/DX =    0.0                 !
 ! D13   D(3,2,5,7)            179.7093         -DE/DX =    0.0                 !
 ! D14   D(4,2,5,6)           -179.7029         -DE/DX =    0.0                 !
 ! D15   D(4,2,5,7)             44.7239         -DE/DX =    0.0                 !
 --------------------------------------------------------------------------------
 GradGradGradGradGradGradGradGradGradGradGradGradGradGradGradGradGradGrad

                          Input orientation:                          
 ---------------------------------------------------------------------
 Center     Atomic      Atomic             Coordinates (Angstroms)
 Number     Number       Type             X           Y           Z
 ---------------------------------------------------------------------
      1          6           0       -1.206999    0.605428   -0.647961
      2         16           0       -1.701247    0.465788    1.134310
      3          8           0       -2.877845    1.306058    1.263097
      4          8           0       -1.744785   -0.960576    1.399931
      5          7           0       -0.494275    1.120718    1.989386
      6          1           0       -0.382873    2.130103    1.874060
      7          1           0        0.383369    0.597461    1.966542
      8          9           0       -2.158375    0.084759   -1.411588
      9          9           0       -0.070696   -0.051727   -0.846669
     10          9           0       -1.036490    1.883622   -0.963175
 ---------------------------------------------------------------------
                    Distance matrix (angstroms):
                    1          2          3          4          5
     1  C    0.000000
     2  S    1.854797   0.000000
     3  O    2.633392   1.451558   0.000000
     4  O    2.633524   1.451539   2.537751   0.000000
     5  N    2.780126   1.617674   2.498650   2.498603   0.000000
     6  H    3.060132   2.248396   2.697631   3.410557   1.022042
     7  H    3.060223   2.248460   3.410639   2.697697   1.022046
     8  F    1.326400   2.614526   3.027069   3.027940   3.925438
     9  F    1.327600   2.617403   3.764941   2.945470   3.097944
    10  F    1.327483   2.617555   2.946261   3.765025   3.097359
                    6          7          8          9         10
     6  H    0.000000
     7  H    1.716004   0.000000
     8  F    4.258088   4.258532   0.000000
     9  F    3.501457   2.922632   2.167064   0.000000
    10  F    2.921963   3.500493   2.166935   2.166081   0.000000
 Stoichiometry    CH2F3NO2S
 Framework group  C1[X(CH2F3NO2S)]
 Deg. of freedom    24
 Full point group                 C1      NOp   1
 Largest Abelian subgroup         C1      NOp   1
 Largest concise Abelian subgroup C1      NOp   1
                         Standard orientation:                         
 ---------------------------------------------------------------------
 Center     Atomic      Atomic             Coordinates (Angstroms)
 Number     Number       Type             X           Y           Z
 ---------------------------------------------------------------------
      1          6           0        0.997761    0.038404   -0.000034
      2         16           0       -0.845337   -0.169589    0.000068
      3          8           0       -1.149980   -0.806013   -1.268466
      4          8           0       -1.150215   -0.804495    1.269284
      5          7           0       -1.467425    1.323687   -0.000848
      6          1           0       -1.309630    1.855604   -0.859180
      7          1           0       -1.309733    1.856707    0.856824
      8          9           0        1.576310   -1.155171   -0.000169
      9          9           0        1.369084    0.710196    1.083173
     10          9           0        1.369241    0.710413   -1.082908
 ---------------------------------------------------------------------
 Rotational constants (GHZ):           2.5921290           1.5481745           1.5474635

 **********************************************************************

            Population analysis using the SCF Density.

 **********************************************************************

 Orbital symmetries:
       Occupied  (A) (A) (A) (A) (A) (A) (A) (A) (A) (A) (A) (A)
                 (A) (A) (A) (A) (A) (A) (A) (A) (A) (A) (A) (A)
                 (A) (A) (A) (A) (A) (A) (A) (A) (A) (A) (A) (A)
                 (A)
       Virtual   (A) (A) (A) (A) (A) (A) (A) (A) (A) (A) (A) (A)
                 (A) (A) (A) (A) (A) (A) (A) (A) (A) (A) (A) (A)
                 (A) (A) (A) (A) (A) (A) (A) (A) (A) (A) (A) (A)
                 (A) (A) (A) (A) (A) (A) (A) (A) (A) (A) (A) (A)
                 (A) (A) (A) (A) (A) (A) (A) (A) (A) (A) (A) (A)
                 (A) (A) (A) (A) (A) (A) (A) (A) (A) (A) (A) (A)
                 (A) (A) (A) (A) (A) (A) (A) (A) (A) (A) (A) (A)
                 (A) (A) (A) (A) (A) (A) (A) (A) (A) (A) (A) (A)
                 (A) (A) (A) (A) (A) (A) (A) (A) (A) (A) (A) (A)
                 (A) (A) (A) (A) (A) (A) (A) (A) (A) (A) (A) (A)
                 (A) (A) (A)
 The electronic state is 1-A.
 Alpha  occ. eigenvalues --  -90.20640 -25.34054 -25.34050 -25.34037 -19.68646
 Alpha  occ. eigenvalues --  -19.68644 -14.82386 -10.85314  -8.51660  -6.43836
 Alpha  occ. eigenvalues --   -6.43836  -6.43761  -1.51069  -1.41736  -1.41724
 Alpha  occ. eigenvalues --   -1.28832  -1.17474  -1.05735  -0.87948  -0.78740
 Alpha  occ. eigenvalues --   -0.73304  -0.73169  -0.71694  -0.64243  -0.62905
 Alpha  occ. eigenvalues --   -0.60498  -0.60384  -0.57950  -0.57168  -0.56921
 Alpha  occ. eigenvalues --   -0.56122  -0.54747  -0.46289  -0.44679  -0.42511
 Alpha  occ. eigenvalues --   -0.42146  -0.40084
 Alpha virt. eigenvalues --    0.01089   0.03250   0.03579   0.03854   0.06701
 Alpha virt. eigenvalues --    0.07448   0.07558   0.07897   0.09202   0.09253
 Alpha virt. eigenvalues --    0.11776   0.13549   0.13603   0.13919   0.16841
 Alpha virt. eigenvalues --    0.19014   0.21560   0.22031   0.22773   0.23362
 Alpha virt. eigenvalues --    0.23517   0.25081   0.25813   0.26277   0.27700
 Alpha virt. eigenvalues --    0.28290   0.29436   0.29905   0.31120   0.32366
 Alpha virt. eigenvalues --    0.32502   0.33482   0.35440   0.35473   0.37633
 Alpha virt. eigenvalues --    0.37837   0.39618   0.41245   0.44646   0.45670
 Alpha virt. eigenvalues --    0.47770   0.54393   0.59114   0.60878   0.62910
 Alpha virt. eigenvalues --    0.67973   0.72813   0.83278   0.87463   0.89199
 Alpha virt. eigenvalues --    0.92181   0.96503   1.01107   1.02304   1.10301
 Alpha virt. eigenvalues --    1.12121   1.13697   1.14299   1.25844   1.26563
 Alpha virt. eigenvalues --    1.28128   1.28628   1.29116   1.33626   1.34862
 Alpha virt. eigenvalues --    1.35849   1.40164   1.43778   1.54267   1.54978
 Alpha virt. eigenvalues --    1.63527   1.63555   1.65167   1.65731   1.66256
 Alpha virt. eigenvalues --    1.69263   1.70554   1.70604   1.74342   1.76537
 Alpha virt. eigenvalues --    1.79343   1.79667   1.81857   1.83979   1.85193
 Alpha virt. eigenvalues --    1.85455   1.88390   1.89828   1.91614   1.92438
 Alpha virt. eigenvalues --    1.94947   2.01011   2.01917   2.06714   2.07249
 Alpha virt. eigenvalues --    2.08511   2.11562   2.15889   2.16688   2.17784
 Alpha virt. eigenvalues --    2.19539   2.31504   2.33956   2.35987   2.39268
 Alpha virt. eigenvalues --    2.47632   2.48160   2.70332   2.80859   2.82330
 Alpha virt. eigenvalues --    2.89051   2.92774   3.20306   3.20994   3.25507
 Alpha virt. eigenvalues --    3.88578   4.03569   4.15480   4.15492   4.50758
 Alpha virt. eigenvalues --    5.59432   5.61639   6.23014
          Condensed to atoms (all electrons):
               1          2          3          4          5          6
     1  C    4.910366   0.291846  -0.140628  -0.140464  -0.121135  -0.007530
     2  S    0.291846  13.965922   0.303530   0.303379   0.005097   0.026851
     3  O   -0.140628   0.303530   8.726717  -0.167918  -0.131342  -0.005152
     4  O   -0.140464   0.303379  -0.167918   8.726738  -0.131379   0.006341
     5  N   -0.121135   0.005097  -0.131342  -0.131379   7.867723   0.237579
     6  H   -0.007530   0.026851  -0.005152   0.006341   0.237579   0.237364
     7  H   -0.007493   0.026810   0.006339  -0.005153   0.237576  -0.010635
     8  F    0.185988  -0.059504   0.005847   0.005817   0.016919  -0.000117
     9  F    0.128750  -0.034138   0.014357   0.003980   0.001170  -0.000381
    10  F    0.128832  -0.034159   0.003985   0.014356   0.001135   0.000671
               7          8          9         10
     1  C   -0.007493   0.185988   0.128750   0.128832
     2  S    0.026810  -0.059504  -0.034138  -0.034159
     3  O    0.006339   0.005847   0.014357   0.003985
     4  O   -0.005153   0.005817   0.003980   0.014356
     5  N    0.237576   0.016919   0.001170   0.001135
     6  H   -0.010635  -0.000117  -0.000381   0.000671
     7  H    0.237356  -0.000117   0.000670  -0.000382
     8  F   -0.000117   9.200679  -0.042847  -0.042874
     9  F    0.000670  -0.042847   9.230505  -0.041359
    10  F   -0.000382  -0.042874  -0.041359   9.230389
 Mulliken charges:
               1
     1  C    0.771468
     2  S    1.204365
     3  O   -0.615736
     4  O   -0.615698
     5  N   -0.983343
     6  H    0.515008
     7  H    0.515029
     8  F   -0.269791
     9  F   -0.260708
    10  F   -0.260594
 Sum of Mulliken charges =  -0.00000
 Mulliken charges with hydrogens summed into heavy atoms:
               1
     1  C    0.771468
     2  S    1.204365
     3  O   -0.615736
     4  O   -0.615698
     5  N    0.046694
     8  F   -0.269791
     9  F   -0.260708
    10  F   -0.260594
 Electronic spatial extent (au):  <R**2>=            875.1345
 Charge=              0.0000 electrons
 Dipole moment (field-independent basis, Debye):
    X=              0.8777    Y=              6.1272    Z=             -0.0040  Tot=              6.1897
 Quadrupole moment (field-independent basis, Debye-Ang):
   XX=            -54.7098   YY=            -45.6821   ZZ=            -55.4488
   XY=             -7.0243   XZ=              0.0034   YZ=             -0.0068
 Traceless Quadrupole moment (field-independent basis, Debye-Ang):
   XX=             -2.7629   YY=              6.2648   ZZ=             -3.5019
   XY=             -7.0243   XZ=              0.0034   YZ=             -0.0068
 Octapole moment (field-independent basis, Debye-Ang**2):
  XXX=             27.7374  YYY=             21.7961  ZZZ=             -0.0213  XYY=             -1.2745
  XXY=              6.9456  XXZ=             -0.0047  XZZ=              9.8413  YZZ=             11.5148
  YYZ=              0.0029  XYZ=              0.0055
 Hexadecapole moment (field-independent basis, Debye-Ang**3):
 XXXX=           -507.3104 YYYY=           -203.8003 ZZZZ=           -237.7199 XXXY=              0.0012
 XXXZ=             -0.0022 YYYX=            -23.9978 YYYZ=             -0.0102 ZZZX=              0.0212
 ZZZY=             -0.0200 XXYY=           -117.7734 XXZZ=           -126.6485 YYZZ=            -71.6842
 XXYZ=             -0.0057 YYXZ=             -0.0036 ZZXY=            -14.8977
 N-N= 5.653200124512D+02 E-N=-3.359782188937D+03  KE= 9.364440114468D+02
 Unable to Open any file for archive entry.
 1\1\GINC-GADI-CPU-CLX-1439\FOpt\RM062X\Gen\C1H2F3N1O2S1\YJ5695\19-May-
 2022\0\\#m062X/gen 6D OPT Freq=Noraman INT(grid=ultrafine) SCRF=(SMD,S
 olvent=h2o)\\a3 b1\\0,1\C,-1.2069992405,0.6054284633,-0.647961242\S,-1
 .7012469062,0.4657881573,1.1343104272\O,-2.8778449151,1.306057764,1.26
 30973064\O,-1.7447846548,-0.9605763426,1.3999311878\N,-0.494274661,1.1
 207176819,1.9893861816\H,-0.3828727106,2.1301028085,1.8740595115\H,0.3
 833691283,0.5974612882,1.9665422977\F,-2.1583752851,0.084759336,-1.411
 5877856\F,-0.0706962744,-0.051726959,-0.8466692978\F,-1.0364904805,1.8
 836218025,-0.9631745868\\Version=ES64L-G16RevC.01\State=1-A\HF=-941.95
 44282\RMSD=4.142e-09\RMSF=3.909e-05\Dipole=2.1764635,1.0912271,0.05063
 04\Quadrupole=1.4668138,-1.2563139,-0.2104999,2.3563182,5.3214954,2.80
 39606\PG=C01 [X(C1H2F3N1O2S1)]\\@
 The archive entry for this job was punched.


     ON THE SURVIVAL OF THE FITTEST -
 "STRONG REPRESENTATIVES FROM EACH PAST ERA THRIVE TODAY,
 SUCH AS PROGRAMMING IN THE THIRTY YEAR OLD LANGUAGE KNOWN
 AS FORTRAN, AND EVEN IN THE ANCIENT SCRIPT KNOWN AS DIRECT
 MACHINE CODE. SOME PEOPLE MIGHT LOOK ON SUCH RELICS AS LIVING
 FOSSILS; OTHERS WOULD POINT OUT THAT EVEN A VERY OLD SPECIES
 MIGHT STILL BE FILLING A PARTICULAR ECOLOGICAL NICHE."
     -- ALAN KAY, SCI.AM. SEPTEMBER 1984
 Job cpu time:       0 days  0 hours  8 minutes  7.3 seconds.
 Elapsed time:       0 days  0 hours  0 minutes 33.7 seconds.
 File lengths (MBytes):  RWF=     30 Int=      0 D2E=      0 Chk=      4 Scr=      1
 Normal termination of Gaussian 16 at Thu May 19 20:12:18 2022.
 Link1:  Proceeding to internal job step number  2.
 ------------------------------------------------------------------
 #N Geom=AllCheck Guess=TCheck SCRF=Check GenChk RM062X/ChkBas Freq
 ------------------------------------------------------------------
 1/10=4,29=7,30=1,38=1,40=1/1,3;
 2/12=2,40=1/2;
 3/5=7,6=2,8=2,11=2,14=-4,25=1,30=1,67=1,70=2,71=2,74=-55,75=-5,82=7,116=1,140=1/1,2,3;
 4/5=101/1;
 5/5=2,38=6,98=1/2;
 8/6=4,10=90,11=11/1;
 11/6=1,8=1,9=11,15=111,16=1/1,2,10;
 10/6=1/2;
 6/7=2,8=2,9=2,10=2,28=1/1;
 7/8=1,10=1,25=1/1,2,3,16;
 1/10=4,30=1/3;
 99//99;
 Structure from the checkpoint file:  "/jobfs/40665760.gadi-pbs/Gau-1448190.chk"
 -----
 a3 b1
 -----
 Charge =  0 Multiplicity = 1
 Redundant internal coordinates found in file.  (old form).
 C,0,-1.2069992405,0.6054284633,-0.647961242
 S,0,-1.7012469062,0.4657881573,1.1343104272
 O,0,-2.8778449151,1.306057764,1.2630973064
 O,0,-1.7447846548,-0.9605763426,1.3999311878
 N,0,-0.494274661,1.1207176819,1.9893861816
 H,0,-0.3828727106,2.1301028085,1.8740595115
 H,0,0.3833691283,0.5974612882,1.9665422977
 F,0,-2.1583752851,0.084759336,-1.4115877856
 F,0,-0.0706962744,-0.051726959,-0.8466692978
 F,0,-1.0364904805,1.8836218025,-0.9631745868
 Recover connectivity data from disk.

 GradGradGradGradGradGradGradGradGradGradGradGradGradGradGradGradGradGrad
 Berny optimization.
 Initialization pass.
                           ----------------------------
                           !    Initial Parameters    !
                           ! (Angstroms and Degrees)  !
 --------------------------                            --------------------------
 ! Name  Definition              Value          Derivative Info.                !
 --------------------------------------------------------------------------------
 ! R1    R(1,2)                  1.8548         calculate D2E/DX2 analytically  !
 ! R2    R(1,8)                  1.3264         calculate D2E/DX2 analytically  !
 ! R3    R(1,9)                  1.3276         calculate D2E/DX2 analytically  !
 ! R4    R(1,10)                 1.3275         calculate D2E/DX2 analytically  !
 ! R5    R(2,3)                  1.4516         calculate D2E/DX2 analytically  !
 ! R6    R(2,4)                  1.4515         calculate D2E/DX2 analytically  !
 ! R7    R(2,5)                  1.6177         calculate D2E/DX2 analytically  !
 ! R8    R(5,6)                  1.022          calculate D2E/DX2 analytically  !
 ! R9    R(5,7)                  1.022          calculate D2E/DX2 analytically  !
 ! A1    A(2,1,8)              109.4218         calculate D2E/DX2 analytically  !
 ! A2    A(2,1,9)              109.55           calculate D2E/DX2 analytically  !
 ! A3    A(2,1,10)             109.5655         calculate D2E/DX2 analytically  !
 ! A4    A(8,1,9)              109.4773         calculate D2E/DX2 analytically  !
 ! A5    A(8,1,10)             109.4748         calculate D2E/DX2 analytically  !
 ! A6    A(9,1,10)             109.3379         calculate D2E/DX2 analytically  !
 ! A7    A(1,2,3)              104.9317         calculate D2E/DX2 analytically  !
 ! A8    A(1,2,4)              104.9402         calculate D2E/DX2 analytically  !
 ! A9    A(1,2,5)              106.1777         calculate D2E/DX2 analytically  !
 ! A10   A(3,2,4)              121.8897         calculate D2E/DX2 analytically  !
 ! A11   A(3,2,5)              108.8761         calculate D2E/DX2 analytically  !
 ! A12   A(4,2,5)              108.8741         calculate D2E/DX2 analytically  !
 ! A13   A(2,5,6)              114.931          calculate D2E/DX2 analytically  !
 ! A14   A(2,5,7)              114.9362         calculate D2E/DX2 analytically  !
 ! A15   A(6,5,7)              114.174          calculate D2E/DX2 analytically  !
 ! D1    D(8,1,2,3)            -64.7465         calculate D2E/DX2 analytically  !
 ! D2    D(8,1,2,4)             64.8245         calculate D2E/DX2 analytically  !
 ! D3    D(8,1,2,5)           -179.9603         calculate D2E/DX2 analytically  !
 ! D4    D(9,1,2,3)            175.2281         calculate D2E/DX2 analytically  !
 ! D5    D(9,1,2,4)            -55.2009         calculate D2E/DX2 analytically  !
 ! D6    D(9,1,2,5)             60.0143         calculate D2E/DX2 analytically  !
 ! D7    D(10,1,2,3)            55.2854         calculate D2E/DX2 analytically  !
 ! D8    D(10,1,2,4)          -175.1437         calculate D2E/DX2 analytically  !
 ! D9    D(10,1,2,5)           -59.9284         calculate D2E/DX2 analytically  !
 ! D10   D(1,2,5,6)             67.7854         calculate D2E/DX2 analytically  !
 ! D11   D(1,2,5,7)            -67.7878         calculate D2E/DX2 analytically  !
 ! D12   D(3,2,5,6)            -44.7175         calculate D2E/DX2 analytically  !
 ! D13   D(3,2,5,7)            179.7093         calculate D2E/DX2 analytically  !
 ! D14   D(4,2,5,6)           -179.7029         calculate D2E/DX2 analytically  !
 ! D15   D(4,2,5,7)             44.7239         calculate D2E/DX2 analytically  !
 --------------------------------------------------------------------------------
 Trust Radius=3.00D-01 FncErr=1.00D-07 GrdErr=1.00D-07 EigMax=2.50D+02 EigMin=1.00D-04
 Number of steps in this run=      2 maximum allowed number of steps=      2.
 GradGradGradGradGradGradGradGradGradGradGradGradGradGradGradGradGradGrad

                          Input orientation:                          
 ---------------------------------------------------------------------
 Center     Atomic      Atomic             Coordinates (Angstroms)
 Number     Number       Type             X           Y           Z
[...]
      5        7           0.000003382    0.000001867   -0.000027999
      6        1           0.000023265    0.000018703   -0.000023896
      7        1           0.000021693   -0.000001496   -0.000026407
      8        9           0.000010140   -0.000001444    0.000053204
      9        9          -0.000030749   -0.000024158    0.000003289
     10        9          -0.000030405    0.000063853    0.000008002
 -------------------------------------------------------------------
 Cartesian Forces:  Max     0.000125119 RMS     0.000039092
 FormGI is forming the generalized inverse of G from B-inverse, IUseBI=4.

 GradGradGradGradGradGradGradGradGradGradGradGradGradGradGradGradGradGrad
 Berny optimization.
 Internal  Forces:  Max     0.000068958 RMS     0.000022478
 Search for a local minimum.
 Step number   1 out of a maximum of    2
 All quantities printed in internal units (Hartrees-Bohrs-Radians)
 Second derivative matrix not updated -- analytic derivatives used.
 ITU=  0
     Eigenvalues ---    0.00089   0.00509   0.01118   0.07618   0.08752
     Eigenvalues ---    0.09627   0.09960   0.12327   0.12993   0.15920
     Eigenvalues ---    0.17249   0.18333   0.19514   0.21358   0.23149
     Eigenvalues ---    0.34111   0.38020   0.40223   0.40687   0.44416
     Eigenvalues ---    0.44607   0.57424   0.64607   0.66369
 Angle between quadratic step and forces=  82.56 degrees.
 Linear search not attempted -- first point.
 Iteration  1 RMS(Cart)=  0.00127314 RMS(Int)=  0.00000090
 Iteration  2 RMS(Cart)=  0.00000095 RMS(Int)=  0.00000001
 Variable       Old X    -DE/DX   Delta X   Delta X   Delta X     New X
                                 (Linear)    (Quad)   (Total)
    R1        3.50506  -0.00002   0.00000  -0.00009  -0.00009   3.50497
    R2        2.50653  -0.00006   0.00000  -0.00020  -0.00020   2.50633
    R3        2.50880  -0.00000   0.00000   0.00002   0.00002   2.50882
    R4        2.50858   0.00007   0.00000   0.00020   0.00020   2.50878
    R5        2.74305  -0.00001   0.00000  -0.00001  -0.00001   2.74304
    R6        2.74301   0.00001   0.00000   0.00003   0.00003   2.74304
    R7        3.05696  -0.00003   0.00000  -0.00014  -0.00014   3.05682
    R8        1.93138   0.00001   0.00000   0.00001   0.00001   1.93139
    R9        1.93139   0.00000   0.00000   0.00000   0.00000   1.93139
    A1        1.90977   0.00002   0.00000   0.00024   0.00024   1.91001
    A2        1.91201  -0.00002   0.00000  -0.00009  -0.00009   1.91192
    A3        1.91228  -0.00007   0.00000  -0.00030  -0.00030   1.91198
    A4        1.91074   0.00000   0.00000   0.00002   0.00002   1.91076
    A5        1.91070   0.00002   0.00000   0.00007   0.00007   1.91077
    A6        1.90831   0.00004   0.00000   0.00007   0.00007   1.90837
    A7        1.83140  -0.00001   0.00000  -0.00000  -0.00000   1.83140
    A8        1.83155  -0.00003   0.00000  -0.00019  -0.00019   1.83137
    A9        1.85315   0.00002   0.00000   0.00008   0.00008   1.85323
   A10        2.12738   0.00001   0.00000   0.00008   0.00008   2.12746
   A11        1.90025  -0.00000   0.00000   0.00001   0.00001   1.90026
   A12        1.90021   0.00000   0.00000   0.00001   0.00001   1.90022
   A13        2.00592   0.00000   0.00000   0.00013   0.00013   2.00606
   A14        2.00602  -0.00001   0.00000  -0.00000  -0.00000   2.00601
   A15        1.99271   0.00001   0.00000   0.00016   0.00016   1.99288
    D1       -1.13004   0.00000   0.00000  -0.00218  -0.00218  -1.13222
    D2        1.13140  -0.00000   0.00000  -0.00218  -0.00218   1.12922
    D3       -3.14090  -0.00000   0.00000  -0.00222  -0.00222   3.14007
    D4        3.05831  -0.00000   0.00000  -0.00229  -0.00229   3.05602
    D5       -0.96344  -0.00001   0.00000  -0.00229  -0.00229  -0.96573
    D6        1.04745  -0.00000   0.00000  -0.00233  -0.00233   1.04512
    D7        0.96491   0.00000   0.00000  -0.00213  -0.00213   0.96279
    D8       -3.05683  -0.00000   0.00000  -0.00213  -0.00213  -3.05897
    D9       -1.04595  -0.00000   0.00000  -0.00217  -0.00217  -1.04812
   D10        1.18308   0.00001   0.00000   0.00011   0.00011   1.18319
   D11       -1.18312   0.00000   0.00000  -0.00030  -0.00030  -1.18342
   D12       -0.78047   0.00001   0.00000   0.00007   0.00007  -0.78040
   D13        3.13652   0.00001   0.00000  -0.00035  -0.00035   3.13617
   D14       -3.13641  -0.00001   0.00000  -0.00006  -0.00006  -3.13647
   D15        0.78058  -0.00001   0.00000  -0.00047  -0.00047   0.78011
         Item               Value     Threshold  Converged?
 Maximum Force            0.000069     0.000450     YES
 RMS     Force            0.000022     0.000300     YES
 Maximum Displacement     0.003985     0.001800     NO 
 RMS     Displacement     0.001273     0.001200     NO 
 Predicted change in Energy=-6.099276D-08
                           ----------------------------
                           ! Non-Optimized Parameters !
                           ! (Angstroms and Degrees)  !
 --------------------------                            --------------------------
 ! Name  Definition              Value          Derivative Info.                !
 --------------------------------------------------------------------------------
 ! R1    R(1,2)                  1.8548         -DE/DX =    0.0                 !
 ! R2    R(1,8)                  1.3263         -DE/DX =   -0.0001              !
 ! R3    R(1,9)                  1.3276         -DE/DX =    0.0                 !
 ! R4    R(1,10)                 1.3276         -DE/DX =    0.0001              !
 ! R5    R(2,3)                  1.4516         -DE/DX =    0.0                 !
 ! R6    R(2,4)                  1.4516         -DE/DX =    0.0                 !
 ! R7    R(2,5)                  1.6176         -DE/DX =    0.0                 !
 ! R8    R(5,6)                  1.022          -DE/DX =    0.0                 !
 ! R9    R(5,7)                  1.022          -DE/DX =    0.0                 !
 ! A1    A(2,1,8)              109.4355         -DE/DX =    0.0                 !
 ! A2    A(2,1,9)              109.5448         -DE/DX =    0.0                 !
 ! A3    A(2,1,10)             109.5482         -DE/DX =   -0.0001              !
 ! A4    A(8,1,9)              109.4782         -DE/DX =    0.0                 !
 ! A5    A(8,1,10)             109.4789         -DE/DX =    0.0                 !
 ! A6    A(9,1,10)             109.3417         -DE/DX =    0.0                 !
 ! A7    A(1,2,3)              104.9316         -DE/DX =    0.0                 !
 ! A8    A(1,2,4)              104.9295         -DE/DX =    0.0                 !
 ! A9    A(1,2,5)              106.1824         -DE/DX =    0.0                 !
 ! A10   A(3,2,4)              121.8945         -DE/DX =    0.0                 !
 ! A11   A(3,2,5)              108.8766         -DE/DX =    0.0                 !
 ! A12   A(4,2,5)              108.8746         -DE/DX =    0.0                 !
 ! A13   A(2,5,6)              114.9386         -DE/DX =    0.0                 !
 ! A14   A(2,5,7)              114.9362         -DE/DX =    0.0                 !
 ! A15   A(6,5,7)              114.1834         -DE/DX =    0.0                 !
 ! D1    D(8,1,2,3)            -64.8712         -DE/DX =    0.0                 !
 ! D2    D(8,1,2,4)             64.6994         -DE/DX =    0.0                 !
 ! D3    D(8,1,2,5)            179.9125         -DE/DX =    0.0                 !
 ! D4    D(9,1,2,3)            175.0971         -DE/DX =    0.0                 !
 ! D5    D(9,1,2,4)            -55.3324         -DE/DX =    0.0                 !
 ! D6    D(9,1,2,5)             59.8807         -DE/DX =    0.0                 !
 ! D7    D(10,1,2,3)            55.1635         -DE/DX =    0.0                 !
 ! D8    D(10,1,2,4)          -175.2659         -DE/DX =    0.0                 !
 ! D9    D(10,1,2,5)           -60.0528         -DE/DX =    0.0                 !
 ! D10   D(1,2,5,6)             67.7916         -DE/DX =    0.0                 !
 ! D11   D(1,2,5,7)            -67.8052         -DE/DX =    0.0                 !
 ! D12   D(3,2,5,6)            -44.7138         -DE/DX =    0.0                 !
 ! D13   D(3,2,5,7)            179.6895         -DE/DX =    0.0                 !
 ! D14   D(4,2,5,6)           -179.7065         -DE/DX =    0.0                 !
 ! D15   D(4,2,5,7)             44.6968         -DE/DX =    0.0                 !
 --------------------------------------------------------------------------------
 GradGradGradGradGradGradGradGradGradGradGradGradGradGradGradGradGradGrad


 ----------------------------------------------------------------------

 Electric dipole moment (input orientation):
 (Debye = 10**-18 statcoulomb cm , SI units = C m)
                  (au)            (Debye)         (10**-30 SI)
   Tot        0.243523D+01      0.618973D+01      0.206467D+02
   x          0.217646D+01      0.553202D+01      0.184528D+02
   y          0.109123D+01      0.277362D+01      0.925181D+01
   z          0.506304D-01      0.128690D+00      0.429262D+00

 Dipole polarizability, Alpha (input orientation).
 (esu units = cm**3 , SI units = C**2 m**2 J**-1)
 Alpha(0;0):
               (au)            (10**-24 esu)      (10**-40 SI)
   iso        0.610227D+02      0.904263D+01      0.100613D+02
   aniso      0.461438D+01      0.683780D+00      0.760808D+00
   xx         0.604859D+02      0.896308D+01      0.997277D+01
   yx        -0.123150D+01     -0.182489D+00     -0.203046D+00
   yy         0.625891D+02      0.927475D+01      0.103196D+02
   zx         0.178628D+01      0.264699D+00      0.294517D+00
   zy         0.699384D+00      0.103638D+00      0.115313D+00
   zz         0.599931D+02      0.889006D+01      0.989152D+01

 ----------------------------------------------------------------------

 Dipole orientation:
     6          0.14941280          2.36259381         -1.55132139
    16         -2.96032330          1.00784608         -2.43429141
     8         -4.28439577          3.04665093         -3.70488924
     8         -2.36933242         -1.35003303         -3.70521496
     7         -4.39397109          0.38312449          0.19237694
     1         -4.90175869          1.93044406          1.23073015
     1         -3.60673259         -1.04251972          1.23066827
     9          1.43412137          2.92418812         -3.62902362
     9          1.43925558          0.69084076         -0.19646727
     9         -0.19578062          4.44340657         -0.19337106

 Electric dipole moment (dipole orientation):
 (Debye = 10**-18 statcoulomb cm , SI units = C m)
                  (au)            (Debye)         (10**-30 SI)
   Tot        0.243523D+01      0.618973D+01      0.206467D+02
   x          0.000000D+00      0.000000D+00      0.000000D+00
   y          0.000000D+00      0.000000D+00      0.000000D+00
   z          0.243523D+01      0.618973D+01      0.206467D+02

 Dipole polarizability, Alpha (dipole orientation).
 (esu units = cm**3 , SI units = C**2 m**2 J**-1)
 Alpha(0;0):
               (au)            (10**-24 esu)      (10**-40 SI)
   iso        0.610227D+02      0.904263D+01      0.100613D+02
   aniso      0.461438D+01      0.683780D+00      0.760808D+00
   xx         0.604222D+02      0.895364D+01      0.996227D+01
   yx        -0.119183D+01     -0.176611D+00     -0.196506D+00
   yy         0.626449D+02      0.928302D+01      0.103287D+02
   zx        -0.175336D+01     -0.259822D+00     -0.289090D+00
   zy        -0.764665D+00     -0.113312D+00     -0.126076D+00
   zz         0.600010D+02      0.889123D+01      0.989283D+01

 ----------------------------------------------------------------------
 Unable to Open any file for archive entry.
 1\1\GINC-GADI-CPU-CLX-1439\Freq\RM062X\Gen\C1H2F3N1O2S1\YJ5695\19-May-
 2022\0\\#N Geom=AllCheck Guess=TCheck SCRF=Check GenChk RM062X/ChkBas 
 Freq\\a3 b1\\0,1\C,-1.2069992405,0.6054284633,-0.647961242\S,-1.701246
 9062,0.4657881573,1.1343104272\O,-2.8778449151,1.306057764,1.263097306
 4\O,-1.7447846548,-0.9605763426,1.3999311878\N,-0.494274661,1.12071768
 19,1.9893861816\H,-0.3828727106,2.1301028085,1.8740595115\H,0.38336912
 83,0.5974612882,1.9665422977\F,-2.1583752851,0.084759336,-1.4115877856
 \F,-0.0706962744,-0.051726959,-0.8466692978\F,-1.0364904805,1.88362180
 25,-0.9631745868\\Version=ES64L-G16RevC.01\State=1-A\HF=-941.9544282\R
 MSD=1.259e-09\RMSF=3.909e-05\ZeroPoint=0.0516409\Thermal=0.0594533\ETo
 t=-941.8949748\HTot=-941.8940306\GTot=-941.9356827\Dipole=2.1764638,1.
 091227,0.0506304\DipoleDeriv=1.8390131,-0.0289391,-0.0705826,-0.023900
 6,1.8747652,-0.0274763,0.0131423,0.0142289,2.0182367,2.9370679,-0.0516
 967,0.3234418,-0.0614891,3.0551171,0.1084658,0.1592775,0.0263086,2.197
 5683,-1.3935634,0.3437047,0.1543596,0.4753932,-1.0561291,-0.0993862,0.
 0959463,-0.0557835,-0.8314271,-0.7860873,0.0124662,0.0145705,-0.121957
 ,-1.6296097,0.2547632,0.0272439,0.188364,-0.865425,-1.2065502,-0.23401
 72,-0.3958266,-0.2248908,-0.9117924,-0.2190709,-0.2442009,-0.1432594,-
 1.1374959,0.2531473,-0.0225166,-0.0646454,0.087691,0.4420213,0.074918,
 -0.0341411,0.0458138,0.3981236,0.4031388,-0.0218634,0.0233739,-0.13001
 46,0.276088,-0.0912431,0.0289332,-0.044042,0.4142037,-0.7126212,-0.207
 1417,-0.3457049,-0.2104343,-0.4567872,-0.2102369,-0.4001721,-0.2374176
 ,-0.9663212,-0.9664302,0.3475129,0.2616138,0.3256199,-0.5221233,-0.103
 6283,0.2663977,-0.1194201,-0.5888385,-0.3671148,-0.1375091,0.0993998,-
 0.1160177,-1.0715499,0.3128949,0.0875731,0.3252074,-0.6386245\Polar=60
 .485851,-1.2314969,62.589111,1.7862769,0.6993836,59.9930762\Quadrupole
 =1.4668134,-1.2563141,-0.2104993,2.3563187,5.3214959,2.8039605\PG=C01 
 [X(C1H2F3N1O2S1)]\NImag=0\\0.54554738,-0.00178559,0.55024455,0.0118509
 3,0.00377189,0.51647446,-0.04447629,-0.00467907,0.04501491,0.76562528,
 -0.00489195,-0.03138960,0.01255937,-0.15674778,0.99985829,0.04153278,0
 .01082791,-0.19444304,0.00644285,-0.03192583,0.49880666,-0.00821660,0.
 01391008,-0.02434874,-0.41005233,0.24177034,0.04715845,0.45202981,0.00
 439303,-0.00328719,0.01431653,0.23721495,-0.24656812,-0.03205944,-0.27
 371201,0.25028480,0.01479692,-0.01285934,0.01990837,0.05003354,-0.0307
 2835,-0.08961496,-0.04329993,0.03256511,0.06186576,0.00397541,-0.00589
 476,-0.00343622,-0.07601480,-0.01737976,0.00512774,0.00547173,0.033453
 95,-0.00565761,0.06028025,0.00601887,-0.01571021,-0.02436978,-0.012525
 36,-0.56565354,0.10255535,-0.00318167,-0.01743302,0.00595846,0.0241655
 1,0.62659858,-0.00271001,0.02273071,0.02014942,0.00747157,0.10383886,-
 0.10471281,0.00110174,-0.00314472,0.01706372,-0.00247003,-0.10778904,0
 .07744374,-0.00575050,-0.00460653,0.00998559,-0.18775967,-0.04778081,-
 0.09944439,-0.03667451,-0.00579357,-0.02202823,0.00253674,-0.00436693,
 -0.00562810,0.61762023,-0.00680347,0.00160511,0.00560328,-0.04573145,-
 0.13003442,-0.05010994,0.02547196,0.00946325,0.00927317,-0.03389878,-0
 .03155593,-0.02123388,-0.06659739,0.73147368,-0.02642483,-0.01259671,0
 .01473293,-0.06551927,-0.03314380,-0.11113885,-0.00103558,-0.00032891,
 0.00595052,0.00222620,0.00278718,0.00775294,0.10804580,0.01525544,0.12
 225403,-0.00001306,0.00021466,0.00020858,-0.00176147,-0.02471512,0.008
 16548,0.00072715,0.00273526,-0.00028897,-0.00303784,-0.00514286,-0.003
 99168,-0.06377394,-0.04312934,-0.01334715,0.05788292,0.00162961,0.0003
 7813,-0.00295725,-0.00999064,-0.01163529,-0.00048089,0.00389561,0.0008
 9555,0.00041733,0.00127923,0.00429330,0.00033091,-0.03226339,-0.422590
 13,0.04047374,0.04056203,0.43630474,-0.00035089,-0.00060775,-0.0015340
 9,-0.00804125,-0.02348931,-0.00660405,0.00230552,0.00057171,-0.0005522
 8,-0.00358979,-0.00292001,0.00215069,-0.00390408,0.07009597,-0.0131378
 1,0.01150500,-0.04377362,0.02263729,0.00125837,0.00056176,-0.00216572,
 -0.02374523,0.00727289,0.00301824,0.00010529,-0.00100226,-0.00215009,0
 .00391378,0.00136700,0.00024291,-0.33180251,0.16957964,-0.00745615,0.0
 1003459,-0.00489528,0.00212697,0.34008341,-0.00078666,-0.00057044,0.00
 180891,-0.01003048,0.01258444,0.00449548,-0.00750499,0.00101258,-0.003
 65405,0.00046761,-0.00227666,-0.00029391,0.16111084,-0.16234226,-0.012
 69386,0.02896571,-0.00797251,-0.00139494,-0.17265675,0.15991820,-0.000
 48630,0.00001627,-0.00185599,-0.02357096,0.00610625,-0.00878376,-0.003
 88563,-0.00106863,0.00229068,0.00202378,0.00174057,-0.00056869,0.02283
 872,-0.02244395,-0.00528396,-0.00199546,0.00276476,-0.00321881,0.00393
 778,0.01378657,0.01669000,-0.17521515,-0.06151732,-0.10631099,-0.00785
 225,-0.00535827,0.00082035,0.00505842,-0.00137856,-0.00169742,0.001454
 77,0.00308968,-0.00109546,-0.00090126,-0.00069385,-0.00385691,0.000096
 10,0.00060167,0.00032916,0.00054897,-0.00018262,0.00035394,0.26649756,
 -0.06166771,-0.09914563,-0.06010995,-0.00749630,-0.00074371,0.00004788
 ,0.00092436,-0.00005835,0.00003169,0.00164898,0.00397854,-0.00197678,-
 0.00074438,-0.00052693,-0.00287779,0.00015006,0.00039279,0.00017253,0.
 00034112,-0.00023243,0.00025517,0.10448136,0.13309931,-0.10896617,-0.0
 6144869,-0.18234073,-0.03474851,-0.01770584,-0.00298342,0.00815327,-0.
 00186789,-0.00294694,0.00349016,0.00714659,-0.00339134,-0.00473487,-0.
 00332580,-0.01583939,0.00021268,0.00197810,0.00057622,0.00168139,-0.00
 094526,0.00075075,0.15561410,0.08406047,0.18244136,-0.24507432,0.09813
 310,0.05473449,-0.01770766,0.01702377,-0.01113889,-0.00862758,0.003827
 75,0.00991257,0.00201406,-0.00603471,0.00328430,0.00515581,0.00002323,
 0.00478658,-0.00008408,-0.00071286,-0.00051390,-0.00012487,0.00051678,
 0.00094838,-0.07704565,0.00912018,-0.01724176,0.34205485,0.09902684,-0
 .12053703,-0.02853555,0.00846978,-0.00338279,0.00564274,0.00305020,-0.
 00076612,-0.00377016,-0.00120637,0.00488024,-0.00220608,-0.00145912,0.
 00034408,-0.00041730,-0.00002854,0.00020446,0.00022834,-0.00005767,-0.
 00041376,-0.00058301,0.00018189,0.01553222,0.00446295,-0.15604421,0.16
 707055,0.05565339,-0.02852444,-0.08940864,0.02231224,-0.01549931,0.010
 62568,0.00996560,-0.00447921,-0.01058374,-0.00088386,0.00471667,-0.003
 63014,-0.00338882,0.00044082,-0.00264296,0.00003692,0.00054758,0.00027
 557,0.00028075,-0.00081334,-0.00039385,-0.03315033,0.00798139,0.010166
 31,-0.04207990,0.02740637,0.07202211,-0.07203524,-0.03433633,0.0144671
 6,0.00374442,-0.00919331,-0.00168262,0.00017861,0.00026146,0.00037924,
 -0.00059410,-0.00338954,0.00379475,0.00134961,0.00177944,0.00258130,-0
 .00007036,-0.00010597,0.00013327,-0.00027181,0.00010055,-0.00016426,-0
 .01264151,-0.04675768,-0.00346029,-0.00056057,0.04806720,-0.00874599,0
 .08090094,-0.03513296,-0.28158771,0.07791256,0.00151636,-0.02303528,-0
 .00899326,-0.00462388,0.00645661,0.00276614,-0.00263563,-0.00712129,0.
 00974393,0.00250127,0.00416355,0.00354199,0.00038812,-0.00027104,0.001
 11707,-0.00051045,0.00029282,-0.00057400,-0.03922398,-0.05229581,-0.01
 235462,0.03414697,-0.06293185,0.00822347,0.04357418,0.41632999,0.01510
 419,0.07869014,-0.10168268,0.00060487,0.02998797,0.00884855,0.00388529
 ,-0.00450455,-0.00338113,0.00316963,0.01017401,-0.01225752,-0.00174163
 ,-0.00355511,-0.00264744,-0.00050541,0.00069933,-0.00059274,0.00048394
 ,-0.00029561,0.00037363,-0.01100645,-0.02758460,0.01356717,-0.00269186
 ,-0.00222830,0.01356966,-0.00730257,-0.08138328,0.08420250\\0.00008107
 ,0.00012512,0.00004935,-0.00004011,-0.00005881,-0.00004124,-0.00002428
 ,-0.00001284,-0.00001640,-0.00001936,0.00000385,-0.00000552,-0.0000033
 8,-0.00000187,0.00002800,-0.00002327,-0.00001870,0.00002390,-0.0000216
 9,0.00000150,0.00002641,-0.00001014,0.00000144,-0.00005320,0.00003075,
 0.00002416,-0.00000329,0.00003041,-0.00006385,-0.00000800\\\@
 The archive entry for this job was punched.


 WHEN ALL ELSE FAILS, LOOK AT THE SCHRODINGER EQUATION.
     -- RUSSELL T. PACK, APRIL 1978
 Job cpu time:       0 days  0 hours 14 minutes  9.7 seconds.
 Elapsed time:       0 days  0 hours  0 minutes 53.6 seconds.
 File lengths (MBytes):  RWF=     54 Int=      0 D2E=      0 Chk=      6 Scr=      1
 Normal termination of Gaussian 16 at Thu May 19 20:13:12 2022.
