 Entering Gaussian System, Link 0=g16
 AtFile(1): //home/561/yj5695//Basis/6-31pGd.gbs
 Initial command:
 /apps/gaussian/g16c01/g16/l1.exe "/jobfs/40666076.gadi-pbs/Gau-722982.inp" -scrdir="/jobfs/40666076.gadi-pbs/"
 Entering Link 1 = /apps/gaussian/g16c01/g16/l1.exe PID=    722983.
  
 Copyright (c) 1988-2019, Gaussian, Inc.  All Rights Reserved.
  
 This is part of the Gaussian(R) 16 program.  It is based on
 the Gaussian(R) 09 system (copyright 2009, Gaussian, Inc.),
 the Gaussian(R) 03 system (copyright 2003, Gaussian, Inc.),
 the Gaussian(R) 98 system (copyright 1998, Gaussian, Inc.),
 the Gaussian(R) 94 system (copyright 1995, Gaussian, Inc.),
 the Gaussian 92(TM) system (copyright 1992, Gaussian, Inc.),
 the Gaussian 90(TM) system (copyright 1990, Gaussian, Inc.),
 the Gaussian 88(TM) system (copyright 1988, Gaussian, Inc.),
 the Gaussian 86(TM) system (copyright 1986, Carnegie Mellon
 University), and the Gaussian 82(TM) system (copyright 1983,
 Carnegie Mellon University). Gaussian is a federally registered
 trademark of Gaussian, Inc.
  
 This software contains proprietary and confidential information,
 including trade secrets, belonging to Gaussian, Inc.
  
 This software is provided under written license and may be
 used, copied, transmitted, or stored only in accord with that
 written license.
  
 The following legend is applicable only to US Government
 contracts under FAR:
  
                    RESTRICTED RIGHTS LEGEND
  
 Use, reproduction and disclosure by the US Government is
 subject to restrictions as set forth in subparagraphs (a)
 and (c) of the Commercial Computer Software - Restricted
 Rights clause in FAR 52.227-19.
  
 Gaussian, Inc.
 340 Quinnipiac St., Bldg. 40, Wallingford CT 06492
  
  
 ---------------------------------------------------------------
 Warning -- This program may not be used in any manner that
 competes with the business of Gaussian, Inc. or will provide
 assistance to any competitor of Gaussian, Inc.  The licensee
 of this program is prohibited from giving any competitor of
 Gaussian, Inc. access to this program.  By using this program,
 the user acknowledges that Gaussian, Inc. is engaged in the
 business of creating and licensing software in the field of
 computational chemistry and represents and warrants to the
 licensee that it is not a competitor of Gaussian, Inc. and that
 it will not use this program in any manner prohibited above.
 ---------------------------------------------------------------
  

 Cite this work as:
 Gaussian 16, Revision C.01,
 M. J. Frisch, G. W. Trucks, H. B. Schlegel, G. E. Scuseria, 
 M. A. Robb, J. R. Cheeseman, G. Scalmani, V. Barone, 
 G. A. Petersson, H. Nakatsuji, X. Li, M. Caricato, A. V. Marenich, 
 J. Bloino, B. G. Janesko, R. Gomperts, B. Mennucci, H. P. Hratchian, 
 J. V. Ortiz, A. F. Izmaylov, J. L. Sonnenberg, D. Williams-Young, 
 F. Ding, F. Lipparini, F. Egidi, J. Goings, B. Peng, A. Petrone, 
 T. Henderson, D. Ranasinghe, V. G. Zakrzewski, J. Gao, N. Rega, 
 G. Zheng, W. Liang, M. Hada, M. Ehara, K. Toyota, R. Fukuda, 
 J. Hasegawa, M. Ishida, T. Nakajima, Y. Honda, O. Kitao, H. Nakai, 
 T. Vreven, K. Throssell, J. A. Montgomery, Jr., J. E. Peralta, 
 F. Ogliaro, M. J. Bearpark, J. J. Heyd, E. N. Brothers, K. N. Kudin, 
 V. N. Staroverov, T. A. Keith, R. Kobayashi, J. Normand, 
 K. Raghavachari, A. P. Rendell, J. C. Burant, S. S. Iyengar, 
 J. Tomasi, M. Cossi, J. M. Millam, M. Klene, C. Adamo, R. Cammi, 
 J. W. Ochterski, R. L. Martin, K. Morokuma, O. Farkas, 
 J. B. Foresman, and D. J. Fox, Gaussian, Inc., Wallingford CT, 2019.
 
 ******************************************
 Gaussian 16:  ES64L-G16RevC.01  3-Jul-2019
                19-May-2022 
 ******************************************
 %nproc=16
 Will use up to   16 processors via shared memory.
 %mem=20gb
 ----------------------------------------------------------------------
 #m062X/gen 6D OPT Freq=Noraman INT(grid=ultrafine) SCRF=(SMD,Solvent=h
 2o)
 ----------------------------------------------------------------------
 1/18=20,19=15,26=6,38=1/1,3;
 2/9=110,12=2,17=6,18=5,40=1/2;
 3/5=7,8=2,11=2,25=1,30=1,70=32201,71=1,72=1,74=-55,75=-5/1,2,3;
 4//1;
 5/5=2,38=5,53=1/2;
 6/7=2,8=2,9=2,10=2,28=1/1;
 7//1,2,3,16;
 1/18=20,19=15,26=6/3(2);
 2/9=110/2;
 99//99;
 2/9=110/2;
 3/5=7,6=1,8=2,11=2,25=1,30=1,70=32205,71=1,72=1,74=-55,75=-5,82=7/1,2,3;
 4/5=5,16=3,69=1/1;
 5/5=2,38=5,53=1/2;
 7//1,2,3,16;
 1/18=20,19=15,26=6/3(-5);
 2/9=110/2;
 6/7=2,8=2,9=2,10=2,19=2,28=1/1;
 99/9=1/99;
 -----
 a2 b1
 -----
 Symbolic Z-matrix:
 Charge =  0 Multiplicity = 1
 S                    -1.73695   0.35849   1.26527 
 O                    -0.63642   0.83521   2.10814 
 O                    -3.0297    1.04486   1.3469 
 N                    -2.01475  -1.20732   1.70826 
 H                    -1.16524  -1.77312   1.66817 
 C                    -1.19763   0.37782  -0.4259 
 H                    -0.28366  -0.21443  -0.50059 
 H                    -1.02033   1.41506  -0.71645 
 H                    -1.99537  -0.06283  -1.02905 
 H                    -2.76158  -1.6346    1.1577 
 

 GradGradGradGradGradGradGradGradGradGradGradGradGradGradGradGradGradGrad
 Berny optimization.
 Initialization pass.
                           ----------------------------
                           !    Initial Parameters    !
                           ! (Angstroms and Degrees)  !
 --------------------------                            --------------------------
 ! Name  Definition              Value          Derivative Info.                !
 --------------------------------------------------------------------------------
 ! R1    R(1,2)                  1.4659         estimate D2E/DX2                !
 ! R2    R(1,3)                  1.4659         estimate D2E/DX2                !
 ! R3    R(1,4)                  1.6508         estimate D2E/DX2                !
 ! R4    R(1,6)                  1.7752         estimate D2E/DX2                !
 ! R5    R(4,5)                  1.0215         estimate D2E/DX2                !
 ! R6    R(4,10)                 1.0215         estimate D2E/DX2                !
 ! R7    R(6,7)                  1.0916         estimate D2E/DX2                !
 ! R8    R(6,8)                  1.0917         estimate D2E/DX2                !
 ! R9    R(6,9)                  1.0929         estimate D2E/DX2                !
 ! A1    A(2,1,3)              118.5403         estimate D2E/DX2                !
 ! A2    A(2,1,4)              106.2898         estimate D2E/DX2                !
 ! A3    A(2,1,6)              108.4297         estimate D2E/DX2                !
 ! A4    A(3,1,4)              106.3057         estimate D2E/DX2                !
 ! A5    A(3,1,6)              108.4135         estimate D2E/DX2                !
 ! A6    A(4,1,6)              108.488          estimate D2E/DX2                !
 ! A7    A(1,4,5)              112.0182         estimate D2E/DX2                !
 ! A8    A(1,4,10)             112.0335         estimate D2E/DX2                !
 ! A9    A(5,4,10)             110.805          estimate D2E/DX2                !
 ! A10   A(1,6,7)              108.2789         estimate D2E/DX2                !
 ! A11   A(1,6,8)              108.2555         estimate D2E/DX2                !
 ! A12   A(1,6,9)              107.4343         estimate D2E/DX2                !
 ! A13   A(7,6,8)              111.1805         estimate D2E/DX2                !
 ! A14   A(7,6,9)              110.7706         estimate D2E/DX2                !
 ! A15   A(8,6,9)              110.779          estimate D2E/DX2                !
 ! D1    D(2,1,4,5)            -53.6982         estimate D2E/DX2                !
 ! D2    D(2,1,4,10)          -178.9368         estimate D2E/DX2                !
 ! D3    D(3,1,4,5)            179.1373         estimate D2E/DX2                !
 ! D4    D(3,1,4,10)            53.8988         estimate D2E/DX2                !
 ! D5    D(6,1,4,5)             62.7248         estimate D2E/DX2                !
 ! D6    D(6,1,4,10)           -62.5137         estimate D2E/DX2                !
 ! D7    D(2,1,6,7)             55.369          estimate D2E/DX2                !
 ! D8    D(2,1,6,8)            -65.2701         estimate D2E/DX2                !
 ! D9    D(2,1,6,9)            175.0509         estimate D2E/DX2                !
 ! D10   D(3,1,6,7)           -174.7109         estimate D2E/DX2                !
 ! D11   D(3,1,6,8)             64.6501         estimate D2E/DX2                !
 ! D12   D(3,1,6,9)            -55.0289         estimate D2E/DX2                !
 ! D13   D(4,1,6,7)            -59.6658         estimate D2E/DX2                !
 ! D14   D(4,1,6,8)            179.6951         estimate D2E/DX2                !
 ! D15   D(4,1,6,9)             60.0161         estimate D2E/DX2                !
 --------------------------------------------------------------------------------
 Trust Radius=3.00D-01 FncErr=5.00D-06 GrdErr=5.00D-06 EigMax=2.50D+02 EigMin=1.00D-04
 Number of steps in this run=     49 maximum allowed number of steps=    100.
 GradGradGradGradGradGradGradGradGradGradGradGradGradGradGradGradGradGrad

                          Input orientation:                          
 ---------------------------------------------------------------------
 Center     Atomic      Atomic             Coordinates (Angstroms)
 Number     Number       Type             X           Y           Z
 ---------------------------------------------------------------------
      1         16           0       -1.736952    0.358490    1.265269
      2          8           0       -0.636420    0.835205    2.108144
      3          8           0       -3.029704    1.044861    1.346901
      4          7           0       -2.014748   -1.207316    1.708264
      5          1           0       -1.165237   -1.773115    1.668167
      6          6           0       -1.197625    0.377824   -0.425897
      7          1           0       -0.283658   -0.214434   -0.500592
      8          1           0       -1.020334    1.415055   -0.716454
      9          1           0       -1.995371   -0.062832   -1.029048
     10          1           0       -2.761582   -1.634595    1.157702
 ---------------------------------------------------------------------
                    Distance matrix (angstroms):
                    1          2          3          4          5
     1  S    0.000000
     2  O    1.465901   0.000000
     3  O    1.465939   2.520170   0.000000
     4  N    1.650807   2.496314   2.496602   0.000000
     5  H    2.243418   2.697510   3.394177   1.021472   0.000000
     6  C    1.775187   2.635434   2.635197   2.781187   3.002115
     7  H    2.357662   2.834023   3.541161   2.976833   2.812505
     8  H    2.357350   2.908947   2.903798   3.707418   3.983948
     9  H    2.346952   3.534854   2.818149   2.967001   3.299873
    10  H    2.243619   3.394049   2.699476   1.021492   1.681690
                    6          7          8          9         10
     6  C    0.000000
     7  H    1.091643   0.000000
     8  H    1.091652   1.801256   0.000000
     9  H    1.092871   1.797835   1.797933   0.000000
    10  H    3.000596   3.302560   3.980549   2.799892   0.000000
 Stoichiometry    CH5NO2S
 Framework group  C1[X(CH5NO2S)]
 Deg. of freedom    24
 Full point group                 C1      NOp   1
 Largest Abelian subgroup         C1      NOp   1
 Largest concise Abelian subgroup C1      NOp   1
                         Standard orientation:                         
 ---------------------------------------------------------------------
 Center     Atomic      Atomic             Coordinates (Angstroms)
 Number     Number       Type             X           Y           Z
 ---------------------------------------------------------------------
      1         16           0       -0.050732   -0.149055   -0.000173
      2          8           0       -0.225007   -0.877950   -1.260017
      3          8           0       -0.218630   -0.878704    1.260145
      4          7           0       -1.186775    1.048676    0.002797
      5          1           0       -1.137427    1.625382   -0.838856
      6          6           0        1.558156    0.601116   -0.003750
      7          1           0        1.645144    1.220499   -0.898447
      8          1           0        2.306190   -0.193954   -0.000191
      9          1           0        1.636835    1.211520    0.899346
     10          1           0       -1.131444    1.627246    0.842822
 ---------------------------------------------------------------------
 Rotational constants (GHZ):           4.7226733           4.3215106           4.2963815
 General basis read from cards:  (6D, 7F)
 There are   109 symmetry adapted cartesian basis functions of A   symmetry.
 There are   109 symmetry adapted basis functions of A   symmetry.
   109 basis functions,   204 primitive gaussians,   109 cartesian basis functions
    25 alpha electrons       25 beta electrons
       nuclear repulsion energy       277.3958581510 Hartrees.
 NAtoms=   10 NActive=   10 NUniq=   10 SFac= 1.00D+00 NAtFMM=   60 NAOKFM=F Big=F
 Integral buffers will be    131072 words long.
 Raffenetti 2 integral format.
 Two-electron integral symmetry is turned on.
 ------------------------------------------------------------------------------
 Polarizable Continuum Model (PCM)
 =================================
 Model                : PCM.
 Atomic radii         : SMD-Coulomb.
 Polarization charges : Total charges.
 Charge compensation  : None.
 Solution method      : On-the-fly selection.
 Cavity type          : VdW (van der Waals Surface) (Alpha=1.000).
 Cavity algorithm     : GePol (No added spheres)
                        Default sphere list used, NSphG=   10.
                        Lebedev-Laikov grids with approx.  5.0 points / Ang**2.
                        Smoothing algorithm: York/Karplus (Gamma=1.0000).
                        Polarization charges: spherical gaussians, with
                                              point-specific exponents (IZeta= 3).
                        Self-potential: point-specific (ISelfS= 7).
                        Self-field    : sphere-specific E.n sum rule (ISelfD= 2).
 1st derivatives      : Analytical E(r).r(x)/FMM algorithm (CHGder, D1EAlg=3).
                        Cavity 1st derivative terms included.
 Solvent              : Water, Eps=  78.355300 Eps(inf)=   1.777849
 ------------------------------------------------------------------------------
 Spheres list:
 ISph  on   Nord     Re0    Alpha      Xe            Ye            Ze
    1   S      1    2.4900  1.000     -0.050732     -0.149055     -0.000173
    2   O      2    1.5200  1.000     -0.225007     -0.877950     -1.260017
    3   O      3    1.5200  1.000     -0.218630     -0.878704      1.260145
    4   N      4    1.8900  1.000     -1.186775      1.048676      0.002797
    5   H      5    1.2000  1.000     -1.137427      1.625382     -0.838856
    6   C      6    1.8500  1.000      1.558156      0.601116     -0.003750
    7   H      7    1.2000  1.000      1.645144      1.220499     -0.898447
    8   H      8    1.2000  1.000      2.306190     -0.193954     -0.000191
    9   H      9    1.2000  1.000      1.636835      1.211520      0.899346
   10   H     10    1.2000  1.000     -1.131444      1.627246      0.842822
 ------------------------------------------------------------------------------
 ------------------------------------------------------------------------------
 Atomic radii for non-electrostatic terms: SMD-CDS.
 ------------------------------------------------------------------------------
 Nuclear repulsion after PCM non-electrostatic terms =      277.4003639603 Hartrees.
 One-electron integrals computed using PRISM.
 NBasis=   109 RedAO= T EigKep=  4.53D-04  NBF=   109
 NBsUse=   109 1.00D-06 EigRej= -1.00D+00 NBFU=   109
 ExpMin= 4.05D-02 ExpMax= 2.19D+04 ExpMxC= 3.30D+03 IAcc=3 IRadAn=         5 AccDes= 0.00D+00
 Harris functional with IExCor= 1009 and IRadAn=       5 diagonalized for initial guess.
 HarFok:  IExCor= 1009 AccDes= 0.00D+00 IRadAn=         5 IDoV= 1 UseB2=F ITyADJ=14
 ICtDFT=  3500011 ScaDFX=  1.000000  1.000000  1.000000  1.000000
 FoFCou: FMM=F IPFlag=           0 FMFlag=      100000 FMFlg1=           0
         NFxFlg=           0 DoJE=T BraDBF=F KetDBF=T FulRan=T
         wScrn=  0.000000 ICntrl=       500 IOpCl=  0 I1Cent=   200000004 NGrid=           0
         NMat0=    1 NMatS0=      1 NMatT0=    0 NMatD0=    1 NMtDS0=    0 NMtDT0=    0
 Petite list used in FoFCou.
 Keep R1 ints in memory in canonical form, NReq=32944093.
 Requested convergence on RMS density matrix=1.00D-08 within 128 cycles.
 Requested convergence on MAX density matrix=1.00D-06.
 Requested convergence on             energy=1.00D-06.
 No special actions if energy rises.
 Inv3:  Mode=1 IEnd=     2036928.
 Iteration    1 A*A^-1 deviation from unit magnitude is 3.33D-15 for    823.
 Iteration    1 A*A^-1 deviation from orthogonality  is 1.77D-15 for    660    522.
 Iteration    1 A^-1*A deviation from unit magnitude is 3.55D-15 for    823.
 Iteration    1 A^-1*A deviation from orthogonality  is 1.07D-15 for    746    484.
 Error on total polarization charges =  0.03048
 SCF Done:  E(RM062X) =  -644.330735072     A.U. after   12 cycles
            NFock= 12  Conv=0.74D-08     -V/T= 2.0055
 SMD-CDS (non-electrostatic) energy       (kcal/mol) =       2.83
 (included in total energy above)

 **********************************************************************

            Population analysis using the SCF Density.

 **********************************************************************

 Orbital symmetries:
       Occupied  (A) (A) (A) (A) (A) (A) (A) (A) (A) (A) (A) (A)
                 (A) (A) (A) (A) (A) (A) (A) (A) (A) (A) (A) (A)
                 (A)
       Virtual   (A) (A) (A) (A) (A) (A) (A) (A) (A) (A) (A) (A)
                 (A) (A) (A) (A) (A) (A) (A) (A) (A) (A) (A) (A)
                 (A) (A) (A) (A) (A) (A) (A) (A) (A) (A) (A) (A)
                 (A) (A) (A) (A) (A) (A) (A) (A) (A) (A) (A) (A)
                 (A) (A) (A) (A) (A) (A) (A) (A) (A) (A) (A) (A)
                 (A) (A) (A) (A) (A) (A) (A) (A) (A) (A) (A) (A)
                 (A) (A) (A) (A) (A) (A) (A) (A) (A) (A) (A) (A)
 The electronic state is 1-A.
 Alpha  occ. eigenvalues --  -90.17702 -19.65720 -19.65698 -14.80043 -10.57983
 Alpha  occ. eigenvalues --   -8.48751  -6.40949  -6.40941  -6.40782  -1.25556
 Alpha  occ. eigenvalues --   -1.14003  -1.02980  -0.86994  -0.72049  -0.61727
 Alpha  occ. eigenvalues --   -0.61570  -0.57928  -0.54802  -0.50462  -0.50074
 Alpha  occ. eigenvalues --   -0.43553  -0.41464  -0.39542  -0.39449  -0.38110
 Alpha virt. eigenvalues --    0.01339   0.04603   0.04693   0.05034   0.06752
 Alpha virt. eigenvalues --    0.07975   0.08239   0.09935   0.11484   0.12635
 Alpha virt. eigenvalues --    0.15386   0.16198   0.16559   0.17195   0.17605
 Alpha virt. eigenvalues --    0.20464   0.21224   0.22527   0.23240   0.24296
 Alpha virt. eigenvalues --    0.25870   0.28440   0.29955   0.30216   0.30299
 Alpha virt. eigenvalues --    0.31677   0.34277   0.34719   0.35975   0.52765
 Alpha virt. eigenvalues --    0.57246   0.62341   0.63789   0.65204   0.68629
 Alpha virt. eigenvalues --    0.75920   0.79971   0.81479   0.91395   0.98899
 Alpha virt. eigenvalues --    0.99639   1.01894   1.02599   1.02801   1.10603
 Alpha virt. eigenvalues --    1.11035   1.14814   1.15475   1.18712   1.28070
 Alpha virt. eigenvalues --    1.30284   1.31139   1.32026   1.35564   1.37453
 Alpha virt. eigenvalues --    1.37880   1.40211   1.53878   1.69703   1.70202
 Alpha virt. eigenvalues --    1.70494   1.77885   1.81724   1.84140   1.85464
 Alpha virt. eigenvalues --    1.89069   1.95976   2.08298   2.09817   2.11477
 Alpha virt. eigenvalues --    2.15133   2.22398   2.26124   2.31266   2.35207
 Alpha virt. eigenvalues --    2.43905   2.50254   2.84996   2.90215   3.85783
 Alpha virt. eigenvalues --    4.04082   4.06613   4.11615   4.27677
          Condensed to atoms (all electrons):
               1          2          3          4          5          6
     1  S   13.887374   0.285650   0.286764   0.089894   0.017657   0.198288
     2  O    0.285650   8.837225  -0.162792  -0.122492  -0.005500  -0.157703
     3  O    0.286764  -0.162792   8.835423  -0.121381   0.008016  -0.158559
     4  N    0.089894  -0.122492  -0.121381   7.869258   0.246630  -0.205565
     5  H    0.017657  -0.005500   0.008016   0.246630   0.264374  -0.002866
     6  C    0.198288  -0.157703  -0.158559  -0.205565  -0.002866   6.056406
     7  H   -0.005445  -0.007598   0.009972  -0.007755  -0.000023   0.346393
     8  H   -0.021918  -0.005527  -0.005270   0.013246  -0.000060   0.359895
     9  H   -0.005962   0.010234  -0.007820  -0.008020   0.000215   0.346629
    10  H    0.017664   0.008027  -0.005505   0.246530  -0.016244  -0.002777
               7          8          9         10
     1  S   -0.005445  -0.021918  -0.005962   0.017664
     2  O   -0.007598  -0.005527   0.010234   0.008027
     3  O    0.009972  -0.005270  -0.007820  -0.005505
     4  N   -0.007755   0.013246  -0.008020   0.246530
     5  H   -0.000023  -0.000060   0.000215  -0.016244
     6  C    0.346393   0.359895   0.346629  -0.002777
     7  H    0.395751  -0.015252  -0.018644   0.000214
     8  H   -0.015252   0.380829  -0.015674  -0.000060
     9  H   -0.018644  -0.015674   0.397918  -0.000021
    10  H    0.000214  -0.000060  -0.000021   0.264475
 Mulliken charges:
               1
     1  S    1.250035
     2  O   -0.679523
     3  O   -0.678848
     4  N   -1.000345
     5  H    0.487800
     6  C   -0.780140
     7  H    0.302388
     8  H    0.309791
     9  H    0.301147
    10  H    0.487697
 Sum of Mulliken charges =  -0.00000
 Mulliken charges with hydrogens summed into heavy atoms:
               1
     1  S    1.250035
     2  O   -0.679523
     3  O   -0.678848
     4  N   -0.024849
     6  C    0.133185
 Electronic spatial extent (au):  <R**2>=            432.2043
 Charge=             -0.0000 electrons
 Dipole moment (field-independent basis, Debye):
    X=              3.1783    Y=              7.7304    Z=             -0.0007  Tot=              8.3583
 Quadrupole moment (field-independent basis, Debye-Ang):
   XX=            -34.4603   YY=            -34.1451   ZZ=            -42.8858
   XY=             -2.5334   XZ=             -0.0162   YZ=             -0.0094
 Traceless Quadrupole moment (field-independent basis, Debye-Ang):
   XX=              2.7034   YY=              3.0186   ZZ=             -5.7221
   XY=             -2.5334   XZ=             -0.0162   YZ=             -0.0094
 Octapole moment (field-independent basis, Debye-Ang**2):
  XXX=             13.4311  YYY=             17.3146  ZZZ=              0.0270  XYY=             -3.6907
  XXY=              3.6731  XXZ=             -0.0569  XZZ=              0.1978  YZZ=             14.5451
  YYZ=             -0.0091  XYZ=              0.0033
 Hexadecapole moment (field-independent basis, Debye-Ang**3):
 XXXX=           -214.0283 YYYY=           -154.3368 ZZZZ=           -174.9313 XXXY=             -1.8571
 XXXZ=              0.0140 YYYX=            -14.3244 YYYZ=             -0.0177 ZZZX=             -0.0321
 ZZZY=              0.0089 XXYY=            -54.3835 XXZZ=            -59.8799 YYZZ=            -52.5563
 XXYZ=             -0.1321 YYXZ=             -0.0724 ZZXY=             -4.4269
 N-N= 2.774003639603D+02 E-N=-2.076113817260D+03  KE= 6.408102946298D+02
 D1PCM: PCM CHGder 1st derivatives, ID1Alg=3 FixD1E=F DoIter=F DoCFld=F I1PDM=0.
 Calling FoFJK, ICntrl=      2127 FMM=F ISym2X=0 I1Cent= 0 IOpClX= 0 NMat=1 NMatS=1 NMatT=0.
 ***** Axes restored to original set *****
 -------------------------------------------------------------------
 Center     Atomic                   Forces (Hartrees/Bohr)
 Number     Number              X              Y              Z
 -------------------------------------------------------------------
      1       16           0.000731203    0.001364322    0.000158603
      2        8           0.000103057   -0.000025486    0.000443240
      3        8          -0.000114807   -0.000141800    0.000040278
      4        7           0.000067457    0.000337803   -0.000358071
      5        1           0.000095757   -0.000122303    0.000040917
      6        6          -0.002019193   -0.003133677   -0.000677963
      7        1           0.000328277    0.000487704    0.000066448
      8        1           0.000138895    0.000727631    0.000742411
      9        1           0.000781740    0.000606787   -0.000474427
     10        1          -0.000112386   -0.000100981    0.000018563
 -------------------------------------------------------------------
 Cartesian Forces:  Max     0.003133677 RMS     0.000815899

 GradGradGradGradGradGradGradGradGradGradGradGradGradGradGradGradGradGrad
 Berny optimization.
 FormGI is forming the generalized inverse of G from B-inverse, IUseBI=4.
 Internal  Forces:  Max     0.001747964 RMS     0.000482341
 Search for a local minimum.
 Step number   1 out of a maximum of   49
 All quantities printed in internal units (Hartrees-Bohrs-Radians)
 Mixed Optimization -- En-DIIS/RFO-DIIS
 Second derivative matrix not updated -- first step.
 ITU=  0
     Eigenvalues ---    0.00699   0.01947   0.04506   0.06234   0.06338
     Eigenvalues ---    0.08137   0.08543   0.13798   0.16000   0.16000
     Eigenvalues ---    0.16000   0.16000   0.16000   0.19127   0.25000
     Eigenvalues ---    0.28173   0.34483   0.34622   0.34623   0.42527
     Eigenvalues ---    0.44101   0.44104   0.89161   0.89176
 RFO step:  Lambda=-7.11283819D-05 EMin= 6.98526294D-03
 Linear search not attempted -- first point.
 Iteration  1 RMS(Cart)=  0.00474014 RMS(Int)=  0.00003369
 Iteration  2 RMS(Cart)=  0.00002716 RMS(Int)=  0.00002076
 Iteration  3 RMS(Cart)=  0.00000000 RMS(Int)=  0.00002076
 Variable       Old X    -DE/DX   Delta X   Delta X   Delta X     New X
                                 (Linear)    (Quad)   (Total)
    R1        2.77015   0.00032   0.00000   0.00036   0.00036   2.77052
    R2        2.77022   0.00004   0.00000   0.00004   0.00004   2.77026
    R3        3.11957  -0.00019   0.00000  -0.00046  -0.00046   3.11912
    R4        3.35462   0.00007   0.00000   0.00026   0.00026   3.35488
    R5        1.93030   0.00015   0.00000   0.00033   0.00033   1.93064
    R6        1.93034   0.00012   0.00000   0.00027   0.00027   1.93061
    R7        2.06291   0.00000   0.00000   0.00001   0.00001   2.06292
    R8        2.06292   0.00052   0.00000   0.00150   0.00150   2.06442
    R9        2.06523  -0.00056   0.00000  -0.00161  -0.00161   2.06362
    A1        2.06892  -0.00012   0.00000   0.00065   0.00065   2.06957
    A2        1.85511  -0.00002   0.00000  -0.00066  -0.00066   1.85445
    A3        1.89246   0.00052   0.00000   0.00329   0.00329   1.89575
    A4        1.85538   0.00005   0.00000  -0.00121  -0.00121   1.85417
    A5        1.89217   0.00017   0.00000   0.00074   0.00073   1.89290
    A6        1.89347  -0.00071   0.00000  -0.00345  -0.00345   1.89002
    A7        1.95509   0.00008   0.00000   0.00084   0.00084   1.95593
    A8        1.95535   0.00012   0.00000   0.00107   0.00107   1.95642
    A9        1.93391  -0.00006   0.00000   0.00016   0.00016   1.93407
   A10        1.88982   0.00007   0.00000   0.00035   0.00030   1.89012
   A11        1.88941  -0.00172   0.00000  -0.01308  -0.01308   1.87634
   A12        1.87508   0.00175   0.00000   0.01330   0.01329   1.88837
   A13        1.94047   0.00017   0.00000  -0.00385  -0.00391   1.93656
   A14        1.93331  -0.00023   0.00000   0.00356   0.00350   1.93681
   A15        1.93346  -0.00002   0.00000  -0.00008  -0.00003   1.93343
    D1       -0.93721  -0.00010   0.00000  -0.00032  -0.00032  -0.93753
    D2       -3.12304  -0.00017   0.00000  -0.00203  -0.00203  -3.12507
    D3        3.12654   0.00003   0.00000  -0.00000   0.00000   3.12654
    D4        0.94071  -0.00005   0.00000  -0.00171  -0.00171   0.93900
    D5        1.09476   0.00015   0.00000   0.00147   0.00147   1.09623
    D6       -1.09107   0.00008   0.00000  -0.00024  -0.00024  -1.09131
    D7        0.96637  -0.00065   0.00000  -0.00939  -0.00940   0.95697
    D8       -1.13918   0.00009   0.00000   0.00261   0.00258  -1.13660
    D9        3.05521   0.00009   0.00000   0.00246   0.00249   3.05770
   D10       -3.04928  -0.00031   0.00000  -0.00569  -0.00569  -3.05497
   D11        1.12836   0.00044   0.00000   0.00631   0.00629   1.13464
   D12       -0.96044   0.00044   0.00000   0.00617   0.00620  -0.95424
   D13       -1.04137  -0.00053   0.00000  -0.00854  -0.00854  -1.04990
   D14        3.13627   0.00022   0.00000   0.00347   0.00344   3.13971
   D15        1.04748   0.00021   0.00000   0.00332   0.00335   1.05083
         Item               Value     Threshold  Converged?
 Maximum Force            0.001748     0.000450     NO 
 RMS     Force            0.000482     0.000300     NO 
 Maximum Displacement     0.019355     0.001800     NO 
 RMS     Displacement     0.004739     0.001200     NO 
 Predicted change in Energy=-3.560087D-05
 GradGradGradGradGradGradGradGradGradGradGradGradGradGradGradGradGradGrad

                          Input orientation:                          
 ---------------------------------------------------------------------
 Center     Atomic      Atomic             Coordinates (Angstroms)
 Number     Number       Type             X           Y           Z
 ---------------------------------------------------------------------
      1         16           0       -1.736243    0.359780    1.265166
      2          8           0       -0.635295    0.835695    2.108285
      3          8           0       -3.029610    1.044897    1.347946
      4          7           0       -2.014061   -1.205712    1.708358
      5          1           0       -1.164976   -1.772459    1.668119
      6          6           0       -1.200572    0.372989   -0.427366
      7          1           0       -0.282904   -0.213666   -0.500971
      8          1           0       -1.022494    1.413762   -0.707575
      9          1           0       -1.993150   -0.062757   -1.039290
     10          1           0       -2.762325   -1.633385    1.159785
 ---------------------------------------------------------------------
                    Distance matrix (angstroms):
                    1          2          3          4          5
     1  S    0.000000
     2  O    1.466094   0.000000
     3  O    1.465960   2.520839   0.000000
     4  N    1.650566   2.495653   2.495292   0.000000
     5  H    2.243916   2.697550   3.393651   1.021649   0.000000
     6  C    1.775326   2.638780   2.636015   2.777658   2.999212
     7  H    2.358023   2.834353   3.542156   2.976944   2.812977
     8  H    2.347770   2.900543   2.896506   3.698863   3.976962
     9  H    2.356917   3.543757   2.828435   2.975963   3.307419
    10  H    2.244250   3.394152   2.698156   1.021634   1.682043
                    6          7          8          9         10
     6  C    0.000000
     7  H    1.091649   0.000000
     8  H    1.092445   1.799500   0.000000
     9  H    1.092019   1.799306   1.797864   0.000000
    10  H    2.997276   3.304730   3.974815   2.809704   0.000000
 Stoichiometry    CH5NO2S
 Framework group  C1[X(CH5NO2S)]
 Deg. of freedom    24
 Full point group                 C1      NOp   1
 Largest Abelian subgroup         C1      NOp   1
 Largest concise Abelian subgroup C1      NOp   1
                         Standard orientation:                         
 ---------------------------------------------------------------------
 Center     Atomic      Atomic             Coordinates (Angstroms)
 Number     Number       Type             X           Y           Z
 ---------------------------------------------------------------------
      1         16           0       -0.051486   -0.149479    0.000865
      2          8           0       -0.236767   -0.886809   -1.252709
      3          8           0       -0.224962   -0.865910    1.268016
      4          7           0       -1.175609    1.059114   -0.003611
      5          1           0       -1.123185    1.628912   -0.849984
      6          6           0        1.562229    0.590512   -0.010012
      7          1           0        1.655539    1.195916   -0.913604
      8          1           0        2.295232   -0.219498   -0.004981
      9          1           0        1.660507    1.207457    0.885658
     10          1           0       -1.114595    1.643763    0.831971
 ---------------------------------------------------------------------
 Rotational constants (GHZ):           4.7185357           4.3227231           4.2986730
 Basis read from rwf:  (6D, 7F)
 There are   109 symmetry adapted cartesian basis functions of A   symmetry.
 There are   109 symmetry adapted basis functions of A   symmetry.
   109 basis functions,   204 primitive gaussians,   109 cartesian basis functions
    25 alpha electrons       25 beta electrons
       nuclear repulsion energy       277.3885940474 Hartrees.
 NAtoms=   10 NActive=   10 NUniq=   10 SFac= 1.00D+00 NAtFMM=   60 NAOKFM=F Big=F
 Integral buffers will be    131072 words long.
 Raffenetti 2 integral format.
 Two-electron integral symmetry is turned on.
 ------------------------------------------------------------------------------
 Polarizable Continuum Model (PCM)
 =================================
 Model                : PCM.
 Atomic radii         : SMD-Coulomb.
 Polarization charges : Total charges.
 Charge compensation  : None.
 Solution method      : On-the-fly selection.
 Cavity type          : VdW (van der Waals Surface) (Alpha=1.000).
 Cavity algorithm     : GePol (No added spheres)
                        Default sphere list used, NSphG=   10.
                        Lebedev-Laikov grids with approx.  5.0 points / Ang**2.
                        Smoothing algorithm: York/Karplus (Gamma=1.0000).
                        Polarization charges: spherical gaussians, with
                                              point-specific exponents (IZeta= 3).
                        Self-potential: point-specific (ISelfS= 7).
                        Self-field    : sphere-specific E.n sum rule (ISelfD= 2).
 1st derivatives      : Analytical E(r).r(x)/FMM algorithm (CHGder, D1EAlg=3).
                        Cavity 1st derivative terms included.
 Solvent              : Water, Eps=  78.355300 Eps(inf)=   1.777849
 ------------------------------------------------------------------------------
 Spheres list:
 ISph  on   Nord     Re0    Alpha      Xe            Ye            Ze
    1   S      1    2.4900  1.000     -0.051486     -0.149479      0.000865
    2   O      2    1.5200  1.000     -0.236767     -0.886809     -1.252709
    3   O      3    1.5200  1.000     -0.224962     -0.865910      1.268016
    4   N      4    1.8900  1.000     -1.175609      1.059114     -0.003611
    5   H      5    1.2000  1.000     -1.123185      1.628912     -0.849984
    6   C      6    1.8500  1.000      1.562229      0.590512     -0.010012
    7   H      7    1.2000  1.000      1.655539      1.195916     -0.913604
    8   H      8    1.2000  1.000      2.295232     -0.219498     -0.004981
    9   H      9    1.2000  1.000      1.660507      1.207457      0.885658
   10   H     10    1.2000  1.000     -1.114595      1.643763      0.831971
 ------------------------------------------------------------------------------
 ------------------------------------------------------------------------------
 Atomic radii for non-electrostatic terms: SMD-CDS.
 ------------------------------------------------------------------------------
 Nuclear repulsion after PCM non-electrostatic terms =      277.3930983611 Hartrees.
 One-electron integrals computed using PRISM.
 NBasis=   109 RedAO= T EigKep=  4.53D-04  NBF=   109
 NBsUse=   109 1.00D-06 EigRej= -1.00D+00 NBFU=   109
 Initial guess from the checkpoint file:  "/jobfs/40666076.gadi-pbs/Gau-722983.chk"
 B after Tr=    -0.000000   -0.000000   -0.000000
         Rot=    0.999980    0.004188   -0.001013    0.004615 Ang=   0.72 deg.
 Keep R1 ints in memory in canonical form, NReq=32944093.
 Requested convergence on RMS density matrix=1.00D-08 within 128 cycles.
 Requested convergence on MAX density matrix=1.00D-06.
 Requested convergence on             energy=1.00D-06.
 No special actions if energy rises.
 Inv3:  Mode=1 IEnd=     2022123.
 Iteration    1 A*A^-1 deviation from unit magnitude is 4.11D-15 for    796.
 Iteration    1 A*A^-1 deviation from orthogonality  is 2.55D-15 for    781    248.
 Iteration    1 A^-1*A deviation from unit magnitude is 3.89D-15 for    796.
 Iteration    1 A^-1*A deviation from orthogonality  is 3.49D-15 for    797    577.
 Error on total polarization charges =  0.03046
 SCF Done:  E(RM062X) =  -644.330768671     A.U. after   10 cycles
            NFock= 10  Conv=0.25D-08     -V/T= 2.0055
 SMD-CDS (non-electrostatic) energy       (kcal/mol) =       2.83
 (included in total energy above)
 D1PCM: PCM CHGder 1st derivatives, ID1Alg=3 FixD1E=F DoIter=F DoCFld=F I1PDM=0.
 Calling FoFJK, ICntrl=      2127 FMM=F ISym2X=0 I1Cent= 0 IOpClX= 0 NMat=1 NMatS=1 NMatT=0.
 ***** Axes restored to original set *****
 -------------------------------------------------------------------
 Center     Atomic                   Forces (Hartrees/Bohr)
 Number     Number              X              Y              Z
 -------------------------------------------------------------------
      1       16          -0.000252895   -0.000461660    0.000101699
      2        8          -0.000070767    0.000116247   -0.000370042
      3        8           0.000151297    0.000228844   -0.000061436
      4        7           0.000020780   -0.000234038    0.000156066
      5        1          -0.000057274    0.000029394    0.000013310
      6        6          -0.000258612   -0.000390378   -0.000073741
      7        1           0.000162891    0.000247742    0.000072106
      8        1           0.000180685    0.000176056   -0.000030252
      9        1           0.000052871    0.000207249    0.000160455
     10        1           0.000071024    0.000080545    0.000031835
 -------------------------------------------------------------------
 Cartesian Forces:  Max     0.000461660 RMS     0.000189052

 GradGradGradGradGradGradGradGradGradGradGradGradGradGradGradGradGradGrad
 Berny optimization.
 Using GEDIIS/GDIIS optimizer.
 FormGI is forming the generalized inverse of G from B-inverse, IUseBI=4.
 Internal  Forces:  Max     0.000474255 RMS     0.000165054
 Search for a local minimum.
 Step number   2 out of a maximum of   49
 All quantities printed in internal units (Hartrees-Bohrs-Radians)
 Mixed Optimization -- En-DIIS/RFO-DIIS
 Swapping is turned off.
 Update second derivatives using D2CorX and points    1    2
 DE= -3.36D-05 DEPred=-3.56D-05 R= 9.44D-01
 TightC=F SS=  1.41D+00  RLast= 2.69D-02 DXNew= 5.0454D-01 8.0771D-02
 Trust test= 9.44D-01 RLast= 2.69D-02 DXMaxT set to 3.00D-01
 ITU=  1  0
     Eigenvalues ---    0.00699   0.01947   0.04494   0.05006   0.06312
     Eigenvalues ---    0.08209   0.09111   0.13771   0.15927   0.16000
     Eigenvalues ---    0.16000   0.16000   0.17263   0.19434   0.26986
     Eigenvalues ---    0.28283   0.34090   0.34567   0.34624   0.42691
     Eigenvalues ---    0.44101   0.44210   0.89161   0.89483
 En-DIIS/RFO-DIIS/Sim-DIIS IScMMF=       -3 using points:     2    1
 RFO step:  Lambda=-7.72029356D-06.
 DidBck=F Rises=F RFO-DIIS coefs:    1.16432   -0.16432
 Iteration  1 RMS(Cart)=  0.00241714 RMS(Int)=  0.00000560
 Iteration  2 RMS(Cart)=  0.00000365 RMS(Int)=  0.00000460
 Iteration  3 RMS(Cart)=  0.00000000 RMS(Int)=  0.00000460
 Variable       Old X    -DE/DX   Delta X   Delta X   Delta X     New X
                                 (Linear)    (Quad)   (Total)
    R1        2.77052  -0.00023   0.00006  -0.00027  -0.00021   2.77030
    R2        2.77026  -0.00003   0.00001  -0.00004  -0.00003   2.77023
    R3        3.11912   0.00017  -0.00007   0.00042   0.00035   3.11947
    R4        3.35488  -0.00009   0.00004  -0.00032  -0.00028   3.35460
    R5        1.93064  -0.00006   0.00005  -0.00015  -0.00010   1.93054
    R6        1.93061  -0.00010   0.00004  -0.00024  -0.00019   1.93041
    R7        2.06292  -0.00000   0.00000  -0.00001  -0.00001   2.06290
    R8        2.06442   0.00021   0.00025   0.00051   0.00076   2.06518
    R9        2.06362  -0.00021  -0.00026  -0.00052  -0.00079   2.06283
    A1        2.06957   0.00004   0.00011  -0.00106  -0.00096   2.06861
    A2        1.85445   0.00009  -0.00011   0.00101   0.00091   1.85536
    A3        1.89575  -0.00044   0.00054  -0.00315  -0.00262   1.89313
    A4        1.85417   0.00009  -0.00020   0.00196   0.00176   1.85593
    A5        1.89290  -0.00017   0.00012  -0.00088  -0.00077   1.89213
    A6        1.89002   0.00047  -0.00057   0.00275   0.00218   1.89220
    A7        1.95593   0.00003   0.00014   0.00008   0.00022   1.95614
    A8        1.95642  -0.00008   0.00018  -0.00058  -0.00041   1.95602
    A9        1.93407   0.00002   0.00003   0.00000   0.00003   1.93410
   A10        1.89012  -0.00001   0.00005  -0.00004  -0.00000   1.89012
   A11        1.87634  -0.00002  -0.00215   0.00007  -0.00208   1.87426
   A12        1.88837  -0.00005   0.00218  -0.00054   0.00164   1.89002
   A13        1.93656  -0.00013  -0.00064  -0.00170  -0.00235   1.93420
   A14        1.93681   0.00018   0.00058   0.00204   0.00261   1.93942
   A15        1.93343   0.00003  -0.00001   0.00012   0.00012   1.93355
    D1       -0.93753   0.00012  -0.00005   0.00072   0.00066  -0.93687
    D2       -3.12507   0.00014  -0.00033   0.00111   0.00077  -3.12429
    D3        3.12654  -0.00003   0.00000   0.00024   0.00024   3.12678
    D4        0.93900  -0.00001  -0.00028   0.00063   0.00035   0.93936
    D5        1.09623  -0.00011   0.00024  -0.00108  -0.00084   1.09539
    D6       -1.09131  -0.00010  -0.00004  -0.00069  -0.00073  -1.09204
    D7        0.95697   0.00005  -0.00154   0.00013  -0.00141   0.95556
    D8       -1.13660   0.00022   0.00042   0.00214   0.00255  -1.13405
    D9        3.05770   0.00023   0.00041   0.00225   0.00266   3.06036
   D10       -3.05497  -0.00033  -0.00093  -0.00413  -0.00507  -3.06004
   D11        1.13464  -0.00016   0.00103  -0.00213  -0.00110   1.13354
   D12       -0.95424  -0.00016   0.00102  -0.00202  -0.00099  -0.95523
   D13       -1.04990  -0.00007  -0.00140  -0.00086  -0.00226  -1.05216
   D14        3.13971   0.00010   0.00057   0.00115   0.00171   3.14142
   D15        1.05083   0.00011   0.00055   0.00126   0.00182   1.05265
         Item               Value     Threshold  Converged?
 Maximum Force            0.000474     0.000450     NO 
 RMS     Force            0.000165     0.000300     YES
 Maximum Displacement     0.006797     0.001800     NO 
 RMS     Displacement     0.002417     0.001200     NO 
 Predicted change in Energy=-3.856024D-06
 GradGradGradGradGradGradGradGradGradGradGradGradGradGradGradGradGradGrad

                          Input orientation:                          
 ---------------------------------------------------------------------
 Center     Atomic      Atomic             Coordinates (Angstroms)
 Number     Number       Type             X           Y           Z
 ---------------------------------------------------------------------
      1         16           0       -1.736885    0.358133    1.264403
      2          8           0       -0.634738    0.835934    2.104688
      3          8           0       -3.028918    1.045771    1.346851
      4          7           0       -2.014543   -1.206903    1.709990
      5          1           0       -1.165708   -1.773941    1.669905
      6          6           0       -1.200978    0.372727   -0.427889
      7          1           0       -0.281588   -0.211244   -0.501251
      8          1           0       -1.022502    1.414695   -0.704952
      9          1           0       -1.992574   -0.061156   -1.041662
     10          1           0       -2.763197   -1.634875    1.162373
 ---------------------------------------------------------------------
                    Distance matrix (angstroms):
                    1          2          3          4          5
     1  S    0.000000
     2  O    1.465981   0.000000
     3  O    1.465944   2.520009   0.000000
     4  N    1.650751   2.496564   2.497071   0.000000
     5  H    2.244196   2.698595   3.395098   1.021597   0.000000
     6  C    1.775179   2.636121   2.635157   2.779864   3.001694
     7  H    2.357883   2.830585   3.541665   2.980613   2.817377
     8  H    2.346278   2.894719   2.893390   3.699846   3.978424
     9  H    2.357777   3.542316   2.829185   2.980739   3.312089
    10  H    2.244061   3.394583   2.700093   1.021532   1.681933
                    6          7          8          9         10
     6  C    0.000000
     7  H    1.091642   0.000000
     8  H    1.092847   1.798368   0.000000
     9  H    1.091603   1.800568   1.797929   0.000000
    10  H    2.999988   3.309495   3.977034   2.815710   0.000000
 Stoichiometry    CH5NO2S
 Framework group  C1[X(CH5NO2S)]
 Deg. of freedom    24
 Full point group                 C1      NOp   1
 Largest Abelian subgroup         C1      NOp   1
 Largest concise Abelian subgroup C1      NOp   1
                         Standard orientation:                         
 ---------------------------------------------------------------------
 Center     Atomic      Atomic             Coordinates (Angstroms)
 Number     Number       Type             X           Y           Z
 ---------------------------------------------------------------------
      1         16           0       -0.050894   -0.148894    0.000033
      2          8           0       -0.224641   -0.878318   -1.259671
      3          8           0       -0.218660   -0.878618    1.260331
      4          7           0       -1.186653    1.049031    0.002348
      5          1           0       -1.137938    1.625999   -0.839315
      6          6           0        1.557188    0.602986   -0.002709
      7          1           0        1.648387    1.213737   -0.902902
      8          1           0        2.294747   -0.203437   -0.004036
      9          1           0        1.651720    1.212898    0.897663
     10          1           0       -1.132760    1.627461    0.842610
 ---------------------------------------------------------------------
 Rotational constants (GHZ):           4.7210081           4.3212344           4.2975673
 Basis read from rwf:  (6D, 7F)
 There are   109 symmetry adapted cartesian basis functions of A   symmetry.
 There are   109 symmetry adapted basis functions of A   symmetry.
   109 basis functions,   204 primitive gaussians,   109 cartesian basis functions
    25 alpha electrons       25 beta electrons
       nuclear repulsion energy       277.3881858902 Hartrees.
 NAtoms=   10 NActive=   10 NUniq=   10 SFac= 1.00D+00 NAtFMM=   60 NAOKFM=F Big=F
 Integral buffers will be    131072 words long.
 Raffenetti 2 integral format.
 Two-electron integral symmetry is turned on.
 ------------------------------------------------------------------------------
 Polarizable Continuum Model (PCM)
 =================================
 Model                : PCM.
 Atomic radii         : SMD-Coulomb.
 Polarization charges : Total charges.
 Charge compensation  : None.
 Solution method      : On-the-fly selection.
 Cavity type          : VdW (van der Waals Surface) (Alpha=1.000).
 Cavity algorithm     : GePol (No added spheres)
                        Default sphere list used, NSphG=   10.
                        Lebedev-Laikov grids with approx.  5.0 points / Ang**2.
                        Smoothing algorithm: York/Karplus (Gamma=1.0000).
                        Polarization charges: spherical gaussians, with
                                              point-specific exponents (IZeta= 3).
                        Self-potential: point-specific (ISelfS= 7).
                        Self-field    : sphere-specific E.n sum rule (ISelfD= 2).
 1st derivatives      : Analytical E(r).r(x)/FMM algorithm (CHGder, D1EAlg=3).
                        Cavity 1st derivative terms included.
 Solvent              : Water, Eps=  78.355300 Eps(inf)=   1.777849
 ------------------------------------------------------------------------------
 Spheres list:
 ISph  on   Nord     Re0    Alpha      Xe            Ye            Ze
    1   S      1    2.4900  1.000     -0.050894     -0.148894      0.000033
    2   O      2    1.5200  1.000     -0.224641     -0.878318     -1.259671
    3   O      3    1.5200  1.000     -0.218660     -0.878618      1.260331
    4   N      4    1.8900  1.000     -1.186653      1.049031      0.002348
    5   H      5    1.2000  1.000     -1.137938      1.625999     -0.839315
    6   C      6    1.8500  1.000      1.557188      0.602986     -0.002709
    7   H      7    1.2000  1.000      1.648387      1.213737     -0.902902
    8   H      8    1.2000  1.000      2.294747     -0.203437     -0.004036
    9   H      9    1.2000  1.000      1.651720      1.212898      0.897663
   10   H     10    1.2000  1.000     -1.132760      1.627461      0.842610
 ------------------------------------------------------------------------------
 ------------------------------------------------------------------------------
 Atomic radii for non-electrostatic terms: SMD-CDS.
 ------------------------------------------------------------------------------
 Nuclear repulsion after PCM non-electrostatic terms =      277.3926916147 Hartrees.
 One-electron integrals computed using PRISM.
 NBasis=   109 RedAO= T EigKep=  4.53D-04  NBF=   109
 NBsUse=   109 1.00D-06 EigRej= -1.00D+00 NBFU=   109
 Initial guess from the checkpoint file:  "/jobfs/40666076.gadi-pbs/Gau-722983.chk"
 B after Tr=     0.000000    0.000000    0.000000
         Rot=    0.999982   -0.003993    0.000926   -0.004374 Ang=  -0.69 deg.
 Keep R1 ints in memory in canonical form, NReq=32944093.
 Requested convergence on RMS density matrix=1.00D-08 within 128 cycles.
 Requested convergence on MAX density matrix=1.00D-06.
 Requested convergence on             energy=1.00D-06.
 No special actions if energy rises.
 Inv3:  Mode=1 IEnd=     2041875.
 Iteration    1 A*A^-1 deviation from unit magnitude is 2.44D-15 for    233.
 Iteration    1 A*A^-1 deviation from orthogonality  is 1.48D-15 for    627    263.
 Iteration    1 A^-1*A deviation from unit magnitude is 2.44D-15 for    233.
 Iteration    1 A^-1*A deviation from orthogonality  is 2.28D-15 for    804    215.
 Error on total polarization charges =  0.03048
 SCF Done:  E(RM062X) =  -644.330773801     A.U. after    9 cycles
            NFock=  9  Conv=0.44D-08     -V/T= 2.0055
 SMD-CDS (non-electrostatic) energy       (kcal/mol) =       2.83
 (included in total energy above)
 D1PCM: PCM CHGder 1st derivatives, ID1Alg=3 FixD1E=F DoIter=F DoCFld=F I1PDM=0.
 Calling FoFJK, ICntrl=      2127 FMM=F ISym2X=0 I1Cent= 0 IOpClX= 0 NMat=1 NMatS=1 NMatT=0.
 ***** Axes restored to original set *****
 -------------------------------------------------------------------
 Center     Atomic                   Forces (Hartrees/Bohr)
 Number     Number              X              Y              Z
 -------------------------------------------------------------------
      1       16           0.000052732    0.000051294   -0.000159530
      2        8          -0.000008555   -0.000086407   -0.000019674
      3        8          -0.000044448   -0.000128388    0.000063630
      4        7          -0.000037480    0.000106806    0.000118819
      5        1           0.000015479    0.000038210   -0.000003446
      6        6           0.000046141   -0.000015384    0.000018851
      7        1           0.000032667    0.000055295    0.000003550
      8        1           0.000033410   -0.000034498   -0.000009316
      9        1          -0.000047636    0.000011859    0.000000441
     10        1          -0.000042310    0.000001212   -0.000013324
 -------------------------------------------------------------------
 Cartesian Forces:  Max     0.000159530 RMS     0.000058756

 GradGradGradGradGradGradGradGradGradGradGradGradGradGradGradGradGradGrad
 Berny optimization.
 Using GEDIIS/GDIIS optimizer.
 FormGI is forming the generalized inverse of G from B-inverse, IUseBI=4.
 Internal  Forces:  Max     0.000223810 RMS     0.000064784
 Search for a local minimum.
 Step number   3 out of a maximum of   49
 All quantities printed in internal units (Hartrees-Bohrs-Radians)
 Mixed Optimization -- En-DIIS/RFO-DIIS
 Swapping is turned off.
 Update second derivatives using D2CorX and points    1    2    3
 DE= -5.13D-06 DEPred=-3.86D-06 R= 1.33D+00
 TightC=F SS=  1.41D+00  RLast= 9.76D-03 DXNew= 5.0454D-01 2.9294D-02
 Trust test= 1.33D+00 RLast= 9.76D-03 DXMaxT set to 3.00D-01
 ITU=  1  1  0
     Eigenvalues ---    0.00699   0.01947   0.04199   0.04498   0.06315
     Eigenvalues ---    0.08175   0.09551   0.15379   0.15901   0.15998
     Eigenvalues ---    0.16000   0.16214   0.18335   0.19361   0.25426
     Eigenvalues ---    0.28223   0.34494   0.34603   0.34633   0.43150
     Eigenvalues ---    0.44112   0.44441   0.89158   0.89294
 En-DIIS/RFO-DIIS/Sim-DIIS IScMMF=       -3 using points:     3    2    1
 RFO step:  Lambda=-8.65036697D-07.
 DidBck=F Rises=F RFO-DIIS coefs:    1.05509   -0.00839   -0.04671
 Iteration  1 RMS(Cart)=  0.00080976 RMS(Int)=  0.00000148
 Iteration  2 RMS(Cart)=  0.00000031 RMS(Int)=  0.00000145
 Variable       Old X    -DE/DX   Delta X   Delta X   Delta X     New X
                                 (Linear)    (Quad)   (Total)
    R1        2.77030  -0.00005   0.00001  -0.00007  -0.00007   2.77023
    R2        2.77023  -0.00002   0.00000  -0.00002  -0.00002   2.77021
    R3        3.11947  -0.00010  -0.00000  -0.00018  -0.00018   3.11929
    R4        3.35460   0.00000  -0.00000  -0.00002  -0.00002   3.35458
    R5        1.93054  -0.00001   0.00001  -0.00003  -0.00002   1.93052
    R6        1.93041   0.00004   0.00000   0.00007   0.00007   1.93048
    R7        2.06290  -0.00000  -0.00000  -0.00001  -0.00001   2.06289
    R8        2.06518  -0.00002   0.00011  -0.00008   0.00004   2.06522
    R9        2.06283   0.00003  -0.00012   0.00009  -0.00002   2.06281
    A1        2.06861   0.00006  -0.00002   0.00030   0.00028   2.06888
    A2        1.85536  -0.00009   0.00002  -0.00052  -0.00050   1.85485
    A3        1.89313  -0.00006   0.00001  -0.00035  -0.00034   1.89279
    A4        1.85593  -0.00019   0.00004  -0.00093  -0.00089   1.85504
    A5        1.89213   0.00008  -0.00001   0.00057   0.00057   1.89270
    A6        1.89220   0.00022  -0.00004   0.00100   0.00096   1.89316
    A7        1.95614  -0.00006   0.00005  -0.00037  -0.00032   1.95583
    A8        1.95602  -0.00001   0.00003  -0.00013  -0.00010   1.95592
    A9        1.93410   0.00003   0.00001   0.00015   0.00016   1.93426
   A10        1.89012   0.00002   0.00001   0.00010   0.00011   1.89022
   A11        1.87426   0.00002  -0.00073   0.00043  -0.00030   1.87396
   A12        1.89002  -0.00003   0.00071  -0.00052   0.00019   1.89021
   A13        1.93420  -0.00004  -0.00031  -0.00043  -0.00075   1.93346
   A14        1.93942   0.00004   0.00031   0.00044   0.00074   1.94016
   A15        1.93355   0.00000   0.00001  -0.00001  -0.00001   1.93354
    D1       -0.93687  -0.00004   0.00002  -0.00036  -0.00034  -0.93721
    D2       -3.12429  -0.00003  -0.00005  -0.00018  -0.00023  -3.12453
    D3        3.12678   0.00006   0.00001   0.00013   0.00015   3.12693
    D4        0.93936   0.00006  -0.00006   0.00032   0.00026   0.93961
    D5        1.09539  -0.00004   0.00002  -0.00055  -0.00052   1.09486
    D6       -1.09204  -0.00004  -0.00005  -0.00036  -0.00041  -1.09245
    D7        0.95556  -0.00006  -0.00052  -0.00041  -0.00093   0.95463
    D8       -1.13405  -0.00003   0.00026  -0.00019   0.00007  -1.13398
    D9        3.06036  -0.00003   0.00026  -0.00013   0.00013   3.06050
   D10       -3.06004   0.00003  -0.00054   0.00013  -0.00042  -3.06046
   D11        1.13354   0.00006   0.00023   0.00035   0.00058   1.13412
   D12       -0.95523   0.00007   0.00023   0.00041   0.00065  -0.95458
   D13       -1.05216  -0.00004  -0.00052  -0.00014  -0.00067  -1.05283
   D14        3.14142  -0.00001   0.00025   0.00008   0.00033  -3.14144
   D15        1.05265  -0.00000   0.00026   0.00014   0.00040   1.05304
         Item               Value     Threshold  Converged?
 Maximum Force            0.000224     0.000450     YES
 RMS     Force            0.000065     0.000300     YES
 Maximum Displacement     0.002091     0.001800     NO 
 RMS     Displacement     0.000810     0.001200     YES
 Predicted change in Energy=-4.317812D-07
 GradGradGradGradGradGradGradGradGradGradGradGradGradGradGradGradGradGrad

                          Input orientation:                          
 ---------------------------------------------------------------------
 Center     Atomic      Atomic             Coordinates (Angstroms)
 Number     Number       Type             X           Y           Z
 ---------------------------------------------------------------------
      1         16           0       -1.736920    0.357812    1.263925
      2          8           0       -0.634563    0.835322    2.104036
      3          8           0       -3.029237    1.044801    1.347114
      4          7           0       -2.014796   -1.206769    1.710618
      5          1           0       -1.165980   -1.773808    1.670407
      6          6           0       -1.200824    0.372800   -0.428290
      7          1           0       -0.280968   -0.210426   -0.501645
      8          1           0       -1.022228    1.414930   -0.704738
      9          1           0       -1.992324   -0.060678   -1.042450
     10          1           0       -2.763792   -1.634842    1.163479
 ---------------------------------------------------------------------
                    Distance matrix (angstroms):
                    1          2          3          4          5
     1  S    0.000000
     2  O    1.465945   0.000000
     3  O    1.465932   2.520174   0.000000
     4  N    1.650656   2.495989   2.496156   0.000000
     5  H    2.243882   2.697777   3.394231   1.021586   0.000000
     6  C    1.775166   2.635764   2.635666   2.780740   3.002277
     7  H    2.357950   2.829875   3.542102   2.982108   2.818727
     8  H    2.346043   2.894036   2.893990   3.700331   3.978697
     9  H    2.357908   3.542133   2.829716   2.982183   3.313194
    10  H    2.243931   3.394109   2.699013   1.021569   1.682049
                    6          7          8          9         10
     6  C    0.000000
     7  H    1.091635   0.000000
     8  H    1.092866   1.797914   0.000000
     9  H    1.091590   1.801008   1.797931   0.000000
    10  H    3.001204   3.311497   3.977989   2.817673   0.000000
 Stoichiometry    CH5NO2S
 Framework group  C1[X(CH5NO2S)]
 Deg. of freedom    24
 Full point group                 C1      NOp   1
 Largest Abelian subgroup         C1      NOp   1
 Largest concise Abelian subgroup C1      NOp   1
                         Standard orientation:                         
 ---------------------------------------------------------------------
 Center     Atomic      Atomic             Coordinates (Angstroms)
 Number     Number       Type             X           Y           Z
 ---------------------------------------------------------------------
      1         16           0       -0.050633   -0.148734   -0.000045
      2          8           0       -0.222518   -0.877055   -1.260599
      3          8           0       -0.221152   -0.878968    1.259573
      4          7           0       -1.187218    1.048278    0.001306
      5          1           0       -1.137228    1.625804   -0.839885
      6          6           0        1.557605    0.602789   -0.000252
      7          1           0        1.650516    1.213434   -0.900334
      8          1           0        2.294758   -0.204032   -0.001313
      9          1           0        1.651401    1.211971    0.900674
     10          1           0       -1.135063    1.626068    0.842163
 ---------------------------------------------------------------------
 Rotational constants (GHZ):           4.7233000           4.3217583           4.2956201
 Basis read from rwf:  (6D, 7F)
 There are   109 symmetry adapted cartesian basis functions of A   symmetry.
 There are   109 symmetry adapted basis functions of A   symmetry.
   109 basis functions,   204 primitive gaussians,   109 cartesian basis functions
    25 alpha electrons       25 beta electrons
       nuclear repulsion energy       277.3950576062 Hartrees.
 NAtoms=   10 NActive=   10 NUniq=   10 SFac= 1.00D+00 NAtFMM=   60 NAOKFM=F Big=F
 Integral buffers will be    131072 words long.
 Raffenetti 2 integral format.
 Two-electron integral symmetry is turned on.
 ------------------------------------------------------------------------------
 Polarizable Continuum Model (PCM)
 =================================
 Model                : PCM.
 Atomic radii         : SMD-Coulomb.
 Polarization charges : Total charges.
 Charge compensation  : None.
 Solution method      : On-the-fly selection.
 Cavity type          : VdW (van der Waals Surface) (Alpha=1.000).
 Cavity algorithm     : GePol (No added spheres)
                        Default sphere list used, NSphG=   10.
                        Lebedev-Laikov grids with approx.  5.0 points / Ang**2.
                        Smoothing algorithm: York/Karplus (Gamma=1.0000).
                        Polarization charges: spherical gaussians, with
                                              point-specific exponents (IZeta= 3).
                        Self-potential: point-specific (ISelfS= 7).
                        Self-field    : sphere-specific E.n sum rule (ISelfD= 2).
 1st derivatives      : Analytical E(r).r(x)/FMM algorithm (CHGder, D1EAlg=3).
                        Cavity 1st derivative terms included.
 Solvent              : Water, Eps=  78.355300 Eps(inf)=   1.777849
 ------------------------------------------------------------------------------
 Spheres list:
 ISph  on   Nord     Re0    Alpha      Xe            Ye            Ze
    1   S      1    2.4900  1.000     -0.050633     -0.148734     -0.000045
    2   O      2    1.5200  1.000     -0.222518     -0.877055     -1.260599
    3   O      3    1.5200  1.000     -0.221152     -0.878968      1.259573
    4   N      4    1.8900  1.000     -1.187218      1.048278      0.001306
    5   H      5    1.2000  1.000     -1.137228      1.625804     -0.839885
    6   C      6    1.8500  1.000      1.557605      0.602789     -0.000252
    7   H      7    1.2000  1.000      1.650516      1.213434     -0.900334
    8   H      8    1.2000  1.000      2.294758     -0.204032     -0.001313
    9   H      9    1.2000  1.000      1.651401      1.211971      0.900674
   10   H     10    1.2000  1.000     -1.135063      1.626068      0.842163
 ------------------------------------------------------------------------------
 ------------------------------------------------------------------------------
 Atomic radii for non-electrostatic terms: SMD-CDS.
 ------------------------------------------------------------------------------
 Nuclear repulsion after PCM non-electrostatic terms =      277.3995642988 Hartrees.
 One-electron integrals computed using PRISM.
 NBasis=   109 RedAO= T EigKep=  4.53D-04  NBF=   109
 NBsUse=   109 1.00D-06 EigRej= -1.00D+00 NBFU=   109
 Initial guess from the checkpoint file:  "/jobfs/40666076.gadi-pbs/Gau-722983.chk"
 B after Tr=     0.000000   -0.000000   -0.000000
         Rot=    1.000000   -0.000301    0.000766   -0.000015 Ang=  -0.09 deg.
 Keep R1 ints in memory in canonical form, NReq=32944093.
 Requested convergence on RMS density matrix=1.00D-08 within 128 cycles.
 Requested convergence on MAX density matrix=1.00D-06.
 Requested convergence on             energy=1.00D-06.
 No special actions if energy rises.
 Inv3:  Mode=1 IEnd=     2041875.
 Iteration    1 A*A^-1 deviation from unit magnitude is 3.55D-15 for    216.
 Iteration    1 A*A^-1 deviation from orthogonality  is 2.47D-15 for    319     81.
 Iteration    1 A^-1*A deviation from unit magnitude is 3.33D-15 for    216.
 Iteration    1 A^-1*A deviation from orthogonality  is 1.89D-15 for    788    364.
 Error on total polarization charges =  0.03048
 SCF Done:  E(RM062X) =  -644.330774190     A.U. after    8 cycles
            NFock=  8  Conv=0.49D-08     -V/T= 2.0055
 SMD-CDS (non-electrostatic) energy       (kcal/mol) =       2.83
 (included in total energy above)
 D1PCM: PCM CHGder 1st derivatives, ID1Alg=3 FixD1E=F DoIter=F DoCFld=F I1PDM=0.
 Calling FoFJK, ICntrl=      2127 FMM=F ISym2X=0 I1Cent= 0 IOpClX= 0 NMat=1 NMatS=1 NMatT=0.
 ***** Axes restored to original set *****
 -------------------------------------------------------------------
 Center     Atomic                   Forces (Hartrees/Bohr)
 Number     Number              X              Y              Z
 -------------------------------------------------------------------
      1       16           0.000000002   -0.000004784    0.000050895
      2        8           0.000038251    0.000013144   -0.000016812
      3        8          -0.000028715    0.000004687   -0.000037072
      4        7           0.000009349    0.000017036   -0.000007145
      5        1          -0.000002597   -0.000009489   -0.000003336
      6        6           0.000032906    0.000047116    0.000018159
      7        1          -0.000006928   -0.000008552    0.000008647
      8        1          -0.000005245   -0.000027047   -0.000007523
      9        1          -0.000022380   -0.000016791   -0.000010998
     10        1          -0.000014644   -0.000015321    0.000005184
 -------------------------------------------------------------------
 Cartesian Forces:  Max     0.000050895 RMS     0.000021066

 GradGradGradGradGradGradGradGradGradGradGradGradGradGradGradGradGradGrad
 Berny optimization.
 Using GEDIIS/GDIIS optimizer.
 FormGI is forming the generalized inverse of G from B-inverse, IUseBI=4.
 Internal  Forces:  Max     0.000030332 RMS     0.000015744
 Search for a local minimum.
 Step number   4 out of a maximum of   49
 All quantities printed in internal units (Hartrees-Bohrs-Radians)
 Mixed Optimization -- En-DIIS/RFO-DIIS
 Swapping is turned off.
 Update second derivatives using D2CorX and points    1    2    3    4
 DE= -3.88D-07 DEPred=-4.32D-07 R= 9.00D-01
 Trust test= 9.00D-01 RLast= 2.67D-03 DXMaxT set to 3.00D-01
 ITU=  0  1  1  0
     Eigenvalues ---    0.00699   0.01916   0.04316   0.04512   0.06317
     Eigenvalues ---    0.08188   0.09635   0.15331   0.15936   0.15990
     Eigenvalues ---    0.16002   0.16326   0.18652   0.20419   0.25287
     Eigenvalues ---    0.28369   0.34470   0.34591   0.34630   0.43504
     Eigenvalues ---    0.44107   0.44343   0.89187   0.89821
 En-DIIS/RFO-DIIS/Sim-DIIS IScMMF=       -3 using points:     4    3    2    1
 RFO step:  Lambda=-5.33593902D-08.
 DidBck=F Rises=F RFO-DIIS coefs:    0.99984   -0.01201    0.01099    0.00117
 Iteration  1 RMS(Cart)=  0.00014324 RMS(Int)=  0.00000005
 Iteration  2 RMS(Cart)=  0.00000001 RMS(Int)=  0.00000005
 Variable       Old X    -DE/DX   Delta X   Delta X   Delta X     New X
                                 (Linear)    (Quad)   (Total)
    R1        2.77023   0.00002   0.00000   0.00002   0.00002   2.77026
    R2        2.77021   0.00002   0.00000   0.00002   0.00002   2.77024
    R3        3.11929   0.00001  -0.00000   0.00002   0.00001   3.11930
    R4        3.35458  -0.00001   0.00000  -0.00005  -0.00004   3.35453
    R5        1.93052   0.00001   0.00000   0.00001   0.00001   1.93053
    R6        1.93048   0.00002   0.00000   0.00004   0.00004   1.93053
    R7        2.06289  -0.00000   0.00000  -0.00001  -0.00001   2.06288
    R8        2.06522  -0.00002  -0.00001  -0.00005  -0.00006   2.06515
    R9        2.06281   0.00003   0.00001   0.00007   0.00008   2.06288
    A1        2.06888   0.00003   0.00001   0.00022   0.00023   2.06911
    A2        1.85485   0.00002  -0.00001   0.00013   0.00012   1.85498
    A3        1.89279  -0.00003   0.00003  -0.00018  -0.00015   1.89264
    A4        1.85504   0.00001  -0.00002  -0.00001  -0.00003   1.85502
    A5        1.89270  -0.00002   0.00001  -0.00012  -0.00011   1.89258
    A6        1.89316  -0.00001  -0.00002  -0.00004  -0.00007   1.89310
    A7        1.95583   0.00001  -0.00000   0.00004   0.00004   1.95587
    A8        1.95592   0.00002   0.00000   0.00010   0.00011   1.95603
    A9        1.93426  -0.00001  -0.00000  -0.00005  -0.00006   1.93421
   A10        1.89022  -0.00002  -0.00000  -0.00008  -0.00008   1.89014
   A11        1.87396   0.00002   0.00004   0.00008   0.00012   1.87408
   A12        1.89021  -0.00001  -0.00004  -0.00003  -0.00007   1.89014
   A13        1.93346   0.00000   0.00003   0.00001   0.00004   1.93350
   A14        1.94016   0.00001  -0.00004   0.00004   0.00000   1.94016
   A15        1.93354  -0.00000  -0.00000  -0.00001  -0.00001   1.93354
    D1       -0.93721   0.00002  -0.00001  -0.00004  -0.00005  -0.93726
    D2       -3.12453   0.00002  -0.00001  -0.00008  -0.00009  -3.12461
    D3        3.12693  -0.00003  -0.00000  -0.00037  -0.00038   3.12655
    D4        0.93961  -0.00003  -0.00000  -0.00041  -0.00042   0.93920
    D5        1.09486  -0.00000   0.00001  -0.00020  -0.00020   1.09467
    D6       -1.09245  -0.00001   0.00001  -0.00025  -0.00024  -1.09269
    D7        0.95463   0.00001   0.00003   0.00003   0.00006   0.95468
    D8       -1.13398   0.00000  -0.00003   0.00002  -0.00001  -1.13399
    D9        3.06050   0.00000  -0.00004   0.00001  -0.00003   3.06047
   D10       -3.06046   0.00001   0.00007   0.00009   0.00016  -3.06030
   D11        1.13412   0.00000   0.00001   0.00008   0.00009   1.13421
   D12       -0.95458  -0.00000   0.00000   0.00007   0.00007  -0.95451
   D13       -1.05283  -0.00000   0.00004  -0.00001   0.00003  -1.05280
   D14       -3.14144  -0.00001  -0.00002  -0.00001  -0.00004  -3.14147
   D15        1.05304  -0.00001  -0.00003  -0.00003  -0.00006   1.05299
         Item               Value     Threshold  Converged?
 Maximum Force            0.000030     0.000450     YES
 RMS     Force            0.000016     0.000300     YES
 Maximum Displacement     0.000453     0.001800     YES
 RMS     Displacement     0.000143     0.001200     YES
 Predicted change in Energy=-2.667673D-08
 Optimization completed.
    -- Stationary point found.
                           ----------------------------
                           !   Optimized Parameters   !
                           ! (Angstroms and Degrees)  !
 --------------------------                            --------------------------
 ! Name  Definition              Value          Derivative Info.                !
 --------------------------------------------------------------------------------
 ! R1    R(1,2)                  1.4659         -DE/DX =    0.0                 !
 ! R2    R(1,3)                  1.4659         -DE/DX =    0.0                 !
 ! R3    R(1,4)                  1.6507         -DE/DX =    0.0                 !
 ! R4    R(1,6)                  1.7752         -DE/DX =    0.0                 !
 ! R5    R(4,5)                  1.0216         -DE/DX =    0.0                 !
 ! R6    R(4,10)                 1.0216         -DE/DX =    0.0                 !
 ! R7    R(6,7)                  1.0916         -DE/DX =    0.0                 !
 ! R8    R(6,8)                  1.0929         -DE/DX =    0.0                 !
 ! R9    R(6,9)                  1.0916         -DE/DX =    0.0                 !
 ! A1    A(2,1,3)              118.5382         -DE/DX =    0.0                 !
 ! A2    A(2,1,4)              106.2754         -DE/DX =    0.0                 !
 ! A3    A(2,1,6)              108.449          -DE/DX =    0.0                 !
 ! A4    A(3,1,4)              106.2862         -DE/DX =    0.0                 !
 ! A5    A(3,1,6)              108.4436         -DE/DX =    0.0                 !
 ! A6    A(4,1,6)              108.4702         -DE/DX =    0.0                 !
 ! A7    A(1,4,5)              112.0607         -DE/DX =    0.0                 !
 ! A8    A(1,4,10)             112.0658         -DE/DX =    0.0                 !
 ! A9    A(5,4,10)             110.8251         -DE/DX =    0.0                 !
 ! A10   A(1,6,7)              108.3018         -DE/DX =    0.0                 !
 ! A11   A(1,6,8)              107.37           -DE/DX =    0.0                 !
 ! A12   A(1,6,9)              108.3011         -DE/DX =    0.0                 !
 ! A13   A(7,6,8)              110.7789         -DE/DX =    0.0                 !
 ! A14   A(7,6,9)              111.1628         -DE/DX =    0.0                 !
 ! A15   A(8,6,9)              110.7839         -DE/DX =    0.0                 !
 ! D1    D(2,1,4,5)            -53.6983         -DE/DX =    0.0                 !
 ! D2    D(2,1,4,10)          -179.0222         -DE/DX =    0.0                 !
 ! D3    D(3,1,4,5)            179.1597         -DE/DX =    0.0                 !
 ! D4    D(3,1,4,10)            53.8358         -DE/DX =    0.0                 !
 ! D5    D(6,1,4,5)             62.7311         -DE/DX =    0.0                 !
 ! D6    D(6,1,4,10)           -62.5928         -DE/DX =    0.0                 !
 ! D7    D(2,1,6,7)             54.6961         -DE/DX =    0.0                 !
 ! D8    D(2,1,6,8)            -64.9724         -DE/DX =    0.0                 !
 ! D9    D(2,1,6,9)            175.3536         -DE/DX =    0.0                 !
 ! D10   D(3,1,6,7)           -175.3512         -DE/DX =    0.0                 !
 ! D11   D(3,1,6,8)             64.9804         -DE/DX =    0.0                 !
 ! D12   D(3,1,6,9)            -54.6936         -DE/DX =    0.0                 !
 ! D13   D(4,1,6,7)            -60.3226         -DE/DX =    0.0                 !
 ! D14   D(4,1,6,8)           -179.991          -DE/DX =    0.0                 !
 ! D15   D(4,1,6,9)             60.335          -DE/DX =    0.0                 !
 --------------------------------------------------------------------------------
 GradGradGradGradGradGradGradGradGradGradGradGradGradGradGradGradGradGrad

                          Input orientation:                          
 ---------------------------------------------------------------------
 Center     Atomic      Atomic             Coordinates (Angstroms)
 Number     Number       Type             X           Y           Z
 ---------------------------------------------------------------------
      1         16           0       -1.736920    0.357812    1.263925
      2          8           0       -0.634563    0.835322    2.104036
      3          8           0       -3.029237    1.044801    1.347114
      4          7           0       -2.014796   -1.206769    1.710618
      5          1           0       -1.165980   -1.773808    1.670407
      6          6           0       -1.200824    0.372800   -0.428290
      7          1           0       -0.280968   -0.210426   -0.501645
      8          1           0       -1.022228    1.414930   -0.704738
      9          1           0       -1.992324   -0.060678   -1.042450
     10          1           0       -2.763792   -1.634842    1.163479
 ---------------------------------------------------------------------
                    Distance matrix (angstroms):
                    1          2          3          4          5
     1  S    0.000000
     2  O    1.465945   0.000000
     3  O    1.465932   2.520174   0.000000
     4  N    1.650656   2.495989   2.496156   0.000000
     5  H    2.243882   2.697777   3.394231   1.021586   0.000000
     6  C    1.775166   2.635764   2.635666   2.780740   3.002277
     7  H    2.357950   2.829875   3.542102   2.982108   2.818727
     8  H    2.346043   2.894036   2.893990   3.700331   3.978697
     9  H    2.357908   3.542133   2.829716   2.982183   3.313194
    10  H    2.243931   3.394109   2.699013   1.021569   1.682049
                    6          7          8          9         10
     6  C    0.000000
     7  H    1.091635   0.000000
     8  H    1.092866   1.797914   0.000000
     9  H    1.091590   1.801008   1.797931   0.000000
    10  H    3.001204   3.311497   3.977989   2.817673   0.000000
 Stoichiometry    CH5NO2S
 Framework group  C1[X(CH5NO2S)]
 Deg. of freedom    24
 Full point group                 C1      NOp   1
 Largest Abelian subgroup         C1      NOp   1
 Largest concise Abelian subgroup C1      NOp   1
                         Standard orientation:                         
 ---------------------------------------------------------------------
 Center     Atomic      Atomic             Coordinates (Angstroms)
 Number     Number       Type             X           Y           Z
 ---------------------------------------------------------------------
      1         16           0       -0.050633   -0.148734   -0.000045
      2          8           0       -0.222518   -0.877055   -1.260599
      3          8           0       -0.221152   -0.878968    1.259573
      4          7           0       -1.187218    1.048278    0.001306
      5          1           0       -1.137228    1.625804   -0.839885
      6          6           0        1.557605    0.602789   -0.000252
      7          1           0        1.650516    1.213434   -0.900334
      8          1           0        2.294758   -0.204032   -0.001313
      9          1           0        1.651401    1.211971    0.900674
     10          1           0       -1.135063    1.626068    0.842163
 ---------------------------------------------------------------------
 Rotational constants (GHZ):           4.7233000           4.3217583           4.2956201

 **********************************************************************

            Population analysis using the SCF Density.

 **********************************************************************

 Orbital symmetries:
       Occupied  (A) (A) (A) (A) (A) (A) (A) (A) (A) (A) (A) (A)
                 (A) (A) (A) (A) (A) (A) (A) (A) (A) (A) (A) (A)
                 (A)
       Virtual   (A) (A) (A) (A) (A) (A) (A) (A) (A) (A) (A) (A)
                 (A) (A) (A) (A) (A) (A) (A) (A) (A) (A) (A) (A)
                 (A) (A) (A) (A) (A) (A) (A) (A) (A) (A) (A) (A)
                 (A) (A) (A) (A) (A) (A) (A) (A) (A) (A) (A) (A)
                 (A) (A) (A) (A) (A) (A) (A) (A) (A) (A) (A) (A)
                 (A) (A) (A) (A) (A) (A) (A) (A) (A) (A) (A) (A)
                 (A) (A) (A) (A) (A) (A) (A) (A) (A) (A) (A) (A)
 The electronic state is 1-A.
 Alpha  occ. eigenvalues --  -90.17705 -19.65725 -19.65724 -14.80011 -10.57984
 Alpha  occ. eigenvalues --   -8.48754  -6.40952  -6.40945  -6.40785  -1.25563
 Alpha  occ. eigenvalues --   -1.14013  -1.02955  -0.86997  -0.72048  -0.61735
 Alpha  occ. eigenvalues --   -0.61554  -0.57920  -0.54810  -0.50403  -0.50131
 Alpha  occ. eigenvalues --   -0.43557  -0.41476  -0.39559  -0.39467  -0.38068
 Alpha virt. eigenvalues --    0.01340   0.04602   0.04694   0.05033   0.06775
 Alpha virt. eigenvalues --    0.07981   0.08228   0.09947   0.11482   0.12590
 Alpha virt. eigenvalues --    0.15426   0.16192   0.16562   0.17157   0.17639
 Alpha virt. eigenvalues --    0.20469   0.21286   0.22415   0.23240   0.24408
 Alpha virt. eigenvalues --    0.25854   0.28432   0.29955   0.30217   0.30245
 Alpha virt. eigenvalues --    0.31661   0.34301   0.34776   0.35948   0.52887
[...]
      6        6           0.000032896    0.000047130    0.000018171
      7        1          -0.000006930   -0.000008550    0.000008646
      8        1          -0.000005243   -0.000027046   -0.000007529
      9        1          -0.000022378   -0.000016789   -0.000010997
     10        1          -0.000014641   -0.000015320    0.000005191
 -------------------------------------------------------------------
 Cartesian Forces:  Max     0.000050911 RMS     0.000021068
 FormGI is forming the generalized inverse of G from B-inverse, IUseBI=4.

 GradGradGradGradGradGradGradGradGradGradGradGradGradGradGradGradGradGrad
 Berny optimization.
 Internal  Forces:  Max     0.000030333 RMS     0.000015742
 Search for a local minimum.
 Step number   1 out of a maximum of    2
 All quantities printed in internal units (Hartrees-Bohrs-Radians)
 Second derivative matrix not updated -- analytic derivatives used.
 ITU=  0
     Eigenvalues ---    0.00266   0.00354   0.01988   0.04179   0.04223
     Eigenvalues ---    0.07725   0.09522   0.12431   0.12608   0.12663
     Eigenvalues ---    0.13337   0.16646   0.19256   0.19607   0.23108
     Eigenvalues ---    0.25656   0.33093   0.35660   0.35908   0.36168
     Eigenvalues ---    0.44726   0.45006   0.59162   0.61756
 Angle between quadratic step and forces=  75.20 degrees.
 Linear search not attempted -- first point.
 Iteration  1 RMS(Cart)=  0.00050896 RMS(Int)=  0.00000029
 Iteration  2 RMS(Cart)=  0.00000029 RMS(Int)=  0.00000000
 Variable       Old X    -DE/DX   Delta X   Delta X   Delta X     New X
                                 (Linear)    (Quad)   (Total)
    R1        2.77023   0.00002   0.00000   0.00002   0.00002   2.77025
    R2        2.77021   0.00002   0.00000   0.00004   0.00004   2.77025
    R3        3.11929   0.00001   0.00000  -0.00002  -0.00002   3.11927
    R4        3.35458  -0.00001   0.00000  -0.00003  -0.00003   3.35454
    R5        1.93052   0.00001   0.00000   0.00001   0.00001   1.93052
    R6        1.93048   0.00002   0.00000   0.00004   0.00004   1.93052
    R7        2.06289  -0.00000   0.00000  -0.00001  -0.00001   2.06288
    R8        2.06522  -0.00002   0.00000  -0.00007  -0.00007   2.06515
    R9        2.06281   0.00003   0.00000   0.00008   0.00008   2.06288
    A1        2.06888   0.00003   0.00000   0.00020   0.00020   2.06909
    A2        1.85485   0.00002   0.00000   0.00015   0.00015   1.85500
    A3        1.89279  -0.00003   0.00000  -0.00018  -0.00018   1.89261
    A4        1.85504   0.00001   0.00000  -0.00006  -0.00006   1.85498
    A5        1.89270  -0.00002   0.00000  -0.00005  -0.00005   1.89265
    A6        1.89316  -0.00001   0.00000  -0.00007  -0.00007   1.89309
    A7        1.95583   0.00001   0.00000   0.00017   0.00017   1.95600
    A8        1.95592   0.00002   0.00000   0.00005   0.00005   1.95596
    A9        1.93426  -0.00001   0.00000  -0.00004  -0.00004   1.93423
   A10        1.89022  -0.00002   0.00000  -0.00010  -0.00010   1.89012
   A11        1.87396   0.00002   0.00000   0.00016   0.00016   1.87412
   A12        1.89021  -0.00001   0.00000  -0.00007  -0.00007   1.89014
   A13        1.93346   0.00000   0.00000   0.00007   0.00007   1.93352
   A14        1.94016   0.00001   0.00000  -0.00005  -0.00005   1.94011
   A15        1.93354  -0.00000   0.00000  -0.00001  -0.00001   1.93354
    D1       -0.93721   0.00002   0.00000  -0.00112  -0.00112  -0.93833
    D2       -3.12453   0.00002   0.00000  -0.00124  -0.00124  -3.12577
    D3        3.12693  -0.00003   0.00000  -0.00141  -0.00141   3.12552
    D4        0.93961  -0.00003   0.00000  -0.00153  -0.00153   0.93808
    D5        1.09486  -0.00000   0.00000  -0.00128  -0.00128   1.09358
    D6       -1.09245  -0.00001   0.00000  -0.00141  -0.00141  -1.09386
    D7        0.95463   0.00001   0.00000   0.00012   0.00012   0.95475
    D8       -1.13398   0.00000   0.00000   0.00001   0.00001  -1.13397
    D9        3.06050   0.00000   0.00000  -0.00003  -0.00003   3.06047
   D10       -3.06046   0.00001   0.00000   0.00022   0.00022  -3.06024
   D11        1.13412   0.00000   0.00000   0.00011   0.00011   1.13423
   D12       -0.95458  -0.00000   0.00000   0.00006   0.00006  -0.95452
   D13       -1.05283  -0.00000   0.00000   0.00008   0.00008  -1.05274
   D14       -3.14144  -0.00001   0.00000  -0.00003  -0.00003  -3.14147
   D15        1.05304  -0.00001   0.00000  -0.00007  -0.00007   1.05297
         Item               Value     Threshold  Converged?
 Maximum Force            0.000030     0.000450     YES
 RMS     Force            0.000016     0.000300     YES
 Maximum Displacement     0.002016     0.001800     NO 
 RMS     Displacement     0.000509     0.001200     YES
 Predicted change in Energy=-4.171486D-08
                           ----------------------------
                           ! Non-Optimized Parameters !
                           ! (Angstroms and Degrees)  !
 --------------------------                            --------------------------
 ! Name  Definition              Value          Derivative Info.                !
 --------------------------------------------------------------------------------
 ! R1    R(1,2)                  1.466          -DE/DX =    0.0                 !
 ! R2    R(1,3)                  1.466          -DE/DX =    0.0                 !
 ! R3    R(1,4)                  1.6506         -DE/DX =    0.0                 !
 ! R4    R(1,6)                  1.7751         -DE/DX =    0.0                 !
 ! R5    R(4,5)                  1.0216         -DE/DX =    0.0                 !
 ! R6    R(4,10)                 1.0216         -DE/DX =    0.0                 !
 ! R7    R(6,7)                  1.0916         -DE/DX =    0.0                 !
 ! R8    R(6,8)                  1.0928         -DE/DX =    0.0                 !
 ! R9    R(6,9)                  1.0916         -DE/DX =    0.0                 !
 ! A1    A(2,1,3)              118.5499         -DE/DX =    0.0                 !
 ! A2    A(2,1,4)              106.2837         -DE/DX =    0.0                 !
 ! A3    A(2,1,6)              108.4388         -DE/DX =    0.0                 !
 ! A4    A(3,1,4)              106.2827         -DE/DX =    0.0                 !
 ! A5    A(3,1,6)              108.4407         -DE/DX =    0.0                 !
 ! A6    A(4,1,6)              108.4662         -DE/DX =    0.0                 !
 ! A7    A(1,4,5)              112.0705         -DE/DX =    0.0                 !
 ! A8    A(1,4,10)             112.0685         -DE/DX =    0.0                 !
 ! A9    A(5,4,10)             110.8231         -DE/DX =    0.0                 !
 ! A10   A(1,6,7)              108.296          -DE/DX =    0.0                 !
 ! A11   A(1,6,8)              107.3791         -DE/DX =    0.0                 !
 ! A12   A(1,6,9)              108.2969         -DE/DX =    0.0                 !
 ! A13   A(7,6,8)              110.7828         -DE/DX =    0.0                 !
 ! A14   A(7,6,9)              111.1602         -DE/DX =    0.0                 !
 ! A15   A(8,6,9)              110.7835         -DE/DX =    0.0                 !
 ! D1    D(2,1,4,5)            -53.7623         -DE/DX =    0.0                 !
 ! D2    D(2,1,4,10)          -179.0932         -DE/DX =    0.0                 !
 ! D3    D(3,1,4,5)            179.079          -DE/DX =    0.0                 !
 ! D4    D(3,1,4,10)            53.7481         -DE/DX =    0.0                 !
 ! D5    D(6,1,4,5)             62.6575         -DE/DX =    0.0                 !
 ! D6    D(6,1,4,10)           -62.6734         -DE/DX =    0.0                 !
 ! D7    D(2,1,6,7)             54.7032         -DE/DX =    0.0                 !
 ! D8    D(2,1,6,8)            -64.9718         -DE/DX =    0.0                 !
 ! D9    D(2,1,6,9)            175.3519         -DE/DX =    0.0                 !
 ! D10   D(3,1,6,7)           -175.3386         -DE/DX =    0.0                 !
 ! D11   D(3,1,6,8)             64.9864         -DE/DX =    0.0                 !
 ! D12   D(3,1,6,9)            -54.69           -DE/DX =    0.0                 !
 ! D13   D(4,1,6,7)            -60.3177         -DE/DX =    0.0                 !
 ! D14   D(4,1,6,8)           -179.9927         -DE/DX =    0.0                 !
 ! D15   D(4,1,6,9)             60.3309         -DE/DX =    0.0                 !
 --------------------------------------------------------------------------------
 GradGradGradGradGradGradGradGradGradGradGradGradGradGradGradGradGradGrad


 ----------------------------------------------------------------------

 Electric dipole moment (input orientation):
 (Debye = 10**-18 statcoulomb cm , SI units = C m)
                  (au)            (Debye)         (10**-30 SI)
   Tot        0.328411D+01      0.834739D+01      0.278439D+02
   x          0.561309D+00      0.142671D+01      0.475898D+01
   y         -0.219234D+01     -0.557238D+01     -0.185875D+02
   z         -0.237991D+01     -0.604912D+01     -0.201777D+02

 Dipole polarizability, Alpha (input orientation).
 (esu units = cm**3 , SI units = C**2 m**2 J**-1)
 Alpha(0;0):
               (au)            (10**-24 esu)      (10**-40 SI)
   iso        0.596740D+02      0.884278D+01      0.983892D+01
   aniso      0.334953D+01      0.496348D+00      0.552262D+00
   xx         0.611738D+02      0.906503D+01      0.100862D+02
   yx         0.124428D+00      0.184383D-01      0.205153D-01
   yy         0.583441D+02      0.864571D+01      0.961964D+01
   zx         0.465258D+00      0.689442D-01      0.767108D-01
   zy        -0.121833D+01     -0.180538D+00     -0.200875D+00
   zz         0.595041D+02      0.881760D+01      0.981091D+01

 ----------------------------------------------------------------------

 Dipole orientation:
    16         -2.77374533          1.31013942         -2.74324250
     8         -0.39483707          1.56293022         -4.14005595
     8         -5.06175259          0.61386924         -4.14120497
     7         -3.34128369          4.10105408         -1.47097985
     1         -1.84830044          4.73888374         -0.42643587
     6         -2.32251721         -0.91262507         -0.27162417
     1         -0.71029095         -0.30280326          0.86167482
     1         -1.94974143         -2.74417837         -1.15001573
     1         -4.04545729         -0.98094828          0.86062001
     1         -4.96294114          4.10439084         -0.42360820

 Electric dipole moment (dipole orientation):
 (Debye = 10**-18 statcoulomb cm , SI units = C m)
                  (au)            (Debye)         (10**-30 SI)
   Tot        0.328411D+01      0.834739D+01      0.278439D+02
   x          0.000000D+00      0.000000D+00      0.000000D+00
   y          0.000000D+00      0.000000D+00      0.000000D+00
   z          0.328411D+01      0.834739D+01      0.278439D+02

 Dipole polarizability, Alpha (dipole orientation).
 (esu units = cm**3 , SI units = C**2 m**2 J**-1)
 Alpha(0;0):
               (au)            (10**-24 esu)      (10**-40 SI)
   iso        0.596740D+02      0.884278D+01      0.983892D+01
   aniso      0.334953D+01      0.496348D+00      0.552262D+00
   xx         0.612577D+02      0.907745D+01      0.101000D+02
   yx         0.257753D+00      0.381950D-01      0.424977D-01
   yy         0.600509D+02      0.889862D+01      0.990105D+01
   zx         0.131087D+00      0.194252D-01      0.216134D-01
   zy        -0.639884D+00     -0.948211D-01     -0.105503D+00
   zz         0.577135D+02      0.855227D+01      0.951568D+01

 ----------------------------------------------------------------------
 Unable to Open any file for archive entry.
 1\1\GINC-GADI-CPU-CLX-2563\Freq\RM062X\Gen\C1H5N1O2S1\YJ5695\19-May-20
 22\0\\#N Geom=AllCheck Guess=TCheck SCRF=Check GenChk RM062X/ChkBas Fr
 eq\\a2 b1\\0,1\S,-1.7369196624,0.3578122535,1.2639247195\O,-0.63456292
 02,0.8353224367,2.1040361713\O,-3.0292368894,1.0448011667,1.3471139175
 \N,-2.0147958419,-1.206769225,1.710618126\H,-1.165980337,-1.7738080284
 ,1.6704073609\C,-1.2008238044,0.3728001455,-0.4282896927\H,-0.28096845
 11,-0.2104260805,-0.5016453018\H,-1.0222275826,1.4149301831,-0.7047384
 183\H,-1.9923235633,-0.0606777916,-1.0424503012\H,-2.7637919478,-1.634
 8420598,1.1634794189\\Version=ES64L-G16RevC.01\State=1-A\HF=-644.33077
 42\RMSD=2.465e-09\RMSF=2.107e-05\ZeroPoint=0.0751763\Thermal=0.0809326
 \ETot=-644.2498416\HTot=-644.2488974\GTot=-644.2843842\Dipole=0.561309
 4,-2.1923446,-2.3799084\DipoleDeriv=3.1699114,-0.0681648,0.1927582,-0.
 0006618,2.988078,-0.0674077,0.2113087,0.1461544,2.608422,-1.3769382,-0
 .2791541,-0.44591,-0.1792975,-0.9676755,-0.1872946,-0.4105308,-0.23904
 67,-1.2930821,-1.6367101,0.4667038,0.1347149,0.3573692,-1.0777213,-0.0
 757463,0.0967062,-0.0548547,-0.9234593,-0.8079628,-0.1107416,0.08219,-
 0.1527256,-1.4500356,0.2960227,0.0705583,0.1637708,-0.9498932,0.271732
 8,-0.0986722,0.028881,-0.0219271,0.2860508,-0.0218838,0.0300048,-0.066
 2288,0.4037236,-0.2641795,-0.0142926,0.0282453,-0.0270784,-0.3550949,0
 .0576036,0.0247405,0.0172884,-0.3276183,0.0726068,0.0495474,0.00333,0.
 0439993,0.1194837,0.0164045,0.0166181,0.0061764,0.0509724,0.1440803,-0
 .0194084,0.0321394,-0.0050687,0.0594535,-0.0106706,0.0361239,0.0347113
 ,0.0512469,0.0619457,-0.0353383,0.0097077,-0.0359559,0.133998,-0.00971
 9,-0.0052765,-0.0190018,0.0471435,0.3655136,0.1095209,-0.0660565,0.021
 3465,0.2634633,0.0026911,-0.0702531,0.0110307,0.3325444\Polar=61.17384
 82,0.1244276,58.3441131,0.4652584,-1.2183295,59.50413\Quadrupole=-3.70
 19661,3.5975855,0.1043806,0.945627,-1.4420574,-0.8312819\PG=C01 [X(C1H
 5N1O2S1)]\NImag=0\\0.93009416,-0.04914457,0.60332652,0.12672090,0.0527
 1285,0.58809319,-0.32800980,-0.10685288,-0.19447922,0.36280166,-0.1109
 1537,-0.12228931,-0.08251013,0.13678355,0.12161733,-0.19692096,-0.0850
 2367,-0.23768371,0.23074228,0.10178460,0.23551092,-0.43077635,0.184421
 84,0.02968644,-0.02794546,0.01657942,-0.00306348,0.47452589,0.18621485
 ,-0.17296965,-0.01109113,-0.00916429,0.01231803,-0.00429494,-0.2258222
 8,0.18417563,0.03148836,-0.01581439,-0.08438594,-0.02508751,0.00576696
 ,0.01201384,-0.02712244,0.01283952,0.06136623,-0.09529618,-0.01582479,
 -0.00132596,-0.01233009,-0.03750845,-0.00182927,-0.00458070,0.04280054
 ,-0.00812147,0.67239098,-0.02862298,-0.20204912,0.06067094,-0.01230717
 ,-0.01688462,0.00142625,0.00727432,-0.02564700,0.00839154,-0.03574732,
 0.54804717,-0.00481872,0.02039565,-0.07355742,-0.01245006,-0.02371802,
 0.00633187,-0.00038059,0.00087649,0.00737594,0.16966507,0.06302492,0.2
 1199573,0.00853175,-0.00079520,0.00124088,-0.00117681,-0.00115654,-0.0
 0039896,0.00369712,-0.00559161,0.00048171,-0.32305677,0.17171922,-0.00
 257622,0.32903167,0.02814370,-0.02094488,-0.00334231,-0.00152908,0.003
 63714,0.00108053,0.00128550,-0.00615226,0.00182717,0.16751716,-0.17046
 050,-0.00811089,-0.17906802,0.17900581,-0.00595237,0.01612821,-0.00547
 526,-0.00110881,-0.00137921,-0.00140854,-0.00072093,0.00126099,0.00325
 465,0.02735437,-0.03554116,-0.01183797,-0.00549227,0.00840320,0.017115
 19,-0.07484994,0.00001776,0.03106671,0.00016761,-0.00625114,-0.0315386
 3,-0.01350821,0.00780272,0.02619208,0.00689748,-0.00137040,0.00510681,
 -0.00065894,-0.00088853,0.00055095,0.59261796,-0.00073590,-0.06611856,
 0.00201069,-0.00316196,0.00561639,-0.01643580,0.01547551,0.00286486,-0
 .01596990,-0.01133059,-0.01135129,0.03033108,-0.00111848,0.00203780,-0
 .00163149,-0.00361255,0.60026015,0.03085880,-0.00037395,-0.16276792,0.
 00385094,-0.00164501,-0.01181252,-0.00622173,0.00329882,0.00460970,0.0
 0235264,-0.00117653,0.00086510,0.00003678,-0.00070419,0.00008996,0.062
 95343,0.00816053,0.41591806,-0.00875892,0.00343405,-0.00021585,0.00116
 787,-0.00095560,-0.00103765,0.00022559,0.00051988,0.00174437,0.0009335
 8,-0.00031289,-0.00045558,0.00003162,-0.00044799,0.00048461,-0.2546871
 9,0.13283136,0.01537424,0.26815870,-0.00244809,-0.00172761,0.00000365,
 -0.00033625,0.00014812,-0.00008421,-0.00094157,0.00201354,0.00135696,0
 .00008262,-0.00007837,-0.00020622,-0.00018785,-0.00007861,0.00023129,0
 .13313612,-0.13041343,-0.01027779,-0.14200814,0.13419501,0.02480863,-0
 .01703129,-0.00126965,-0.00188523,0.00199896,0.00078603,0.00704510,-0.
 00209071,-0.00741220,-0.00265017,0.00019629,0.00099459,0.00027184,0.00
 082812,-0.00074663,0.01288353,-0.00885539,-0.04701440,-0.01756752,0.01
 002483,0.05008213,-0.00394829,-0.00921257,0.00177443,-0.00008119,0.000
 59680,-0.00085750,0.00015627,0.00102637,-0.00022537,0.00027254,-0.0011
 0536,0.00251488,-0.00013086,-0.00004384,0.00017991,-0.05321933,-0.0447
 7737,0.01147120,0.00725395,0.02425482,-0.00850332,0.05172353,0.0001027
 9,0.00050637,0.00052621,0.00024545,0.00032164,-0.00017603,-0.00000258,
 0.00030418,-0.00030454,0.00053186,0.00180644,-0.00150704,0.00005139,0.
 00000150,0.00003842,-0.04500139,-0.31184058,0.06864685,-0.00424667,-0.
 01166088,0.00349206,0.04836874,0.32872050,0.00435590,0.03000178,-0.008
 04465,-0.00010714,-0.00254865,0.00155608,-0.00135949,-0.00229845,0.001
 33359,0.00297005,0.00367710,-0.00722089,0.00032098,-0.00063192,0.00050
 050,0.01141073,0.06793846,-0.06297330,-0.00160484,-0.00385737,0.001089
 61,-0.01386589,-0.07391779,0.06651038,0.00657240,0.00544549,0.00534258
 ,0.00194333,0.00054146,0.00502883,-0.00033452,-0.00031122,0.00024304,-
 0.00047006,0.00023530,-0.00062766,-0.00003646,0.00001659,-0.00000012,-
 0.20314879,-0.08570431,-0.12058451,-0.01429305,-0.01153117,-0.01438646
 ,-0.00238807,0.00004562,-0.00158997,0.21204708,0.00179348,-0.00240284,
 0.00127950,0.00003637,0.00191209,0.00142629,0.00032793,0.00004508,-0.0
 0002775,0.00003325,-0.00011228,-0.00024827,0.00001467,0.00001169,0.000
 02738,-0.08526476,-0.09260704,-0.06599965,0.01114752,0.00758973,0.0115
 0579,-0.01946675,-0.00813427,-0.01794392,0.09141425,0.09381713,-0.0223
 2203,-0.01185241,-0.01594761,-0.00081537,-0.00134732,-0.00902937,0.001
 43804,0.00187180,0.00239235,0.00162200,-0.00004099,0.00242857,-0.00008
 350,-0.00007136,0.00009352,-0.11789130,-0.06507619,-0.13645172,0.00336
 143,0.00278551,0.00340478,0.00779946,0.00315518,0.00721098,0.12640037,
 0.06966978,0.14668322,-0.00355882,-0.01148914,0.00018908,0.00346290,0.
 00228587,-0.00012467,-0.00145962,0.00252503,0.00040724,-0.24476077,-0.
 09976271,-0.15597792,-0.01623232,-0.01498549,-0.01529534,0.00038935,0.
 00213430,-0.00009180,-0.00003216,-0.00002050,-0.00001640,0.00036145,-0
 .00009521,-0.00053031,0.00010816,-0.00003596,0.00049089,0.26172183,-0.
 02438792,-0.01533090,-0.02026027,-0.00371374,-0.00639681,0.00029698,0.
 00140192,0.00304758,0.00193441,-0.11055429,-0.12327041,-0.08083770,0.0
 1613243,0.01294232,0.01246236,0.00143217,0.00155170,0.00007092,0.00003
 848,0.00001249,-0.00006866,0.00035916,-0.00002489,-0.00041924,-0.00015
 201,-0.00011929,0.00090600,0.11944381,0.12758821,0.01178149,0.01085722
 ,0.00103898,0.00134011,0.00359782,0.00373541,0.00069908,-0.00037238,-0
 .00054815,-0.19003725,-0.10062836,-0.13737551,0.00619876,0.00072164,-0
 .00158541,-0.00073431,-0.00047201,-0.00046295,-0.00008321,0.00002335,0
 .00008575,-0.00028779,0.00004666,0.00003770,0.00017391,0.00031085,-0.0
 0078472,0.17094923,0.08591521,0.13585890\\-0.00000005,0.00000485,-0.00
 005091,-0.00003822,-0.00001315,0.00001683,0.00002872,-0.00000469,0.000
 03707,-0.00000934,-0.00001707,0.00000716,0.00000260,0.00000948,0.00000
 333,-0.00003290,-0.00004713,-0.00001817,0.00000693,0.00000855,-0.00000
 865,0.00000524,0.00002705,0.00000753,0.00002238,0.00001679,0.00001100,
 0.00001464,0.00001532,-0.00000519\\\@
 The archive entry for this job was punched.


 MY DESCRIPTION OF EXPERIENCE IS NOT WHAT HAPPENS
 TO A MAN.  EXPERIENCE IS WHAT A MAN DOES WITH WHAT
 HAPPENS TO HIM.
                         - CHUCK KNOX, SEATTLE SEAHAWKS, 1985
 Job cpu time:       0 days  0 hours  7 minutes 54.5 seconds.
 Elapsed time:       0 days  0 hours  0 minutes 32.5 seconds.
 File lengths (MBytes):  RWF=     32 Int=      0 D2E=      0 Chk=      5 Scr=      1
 Normal termination of Gaussian 16 at Thu May 19 20:16:48 2022.
