 Entering Gaussian System, Link 0=g16
 AtFile(1): /home/561/yj5695/Basis/6-31pGd.gbs
 Initial command:
 /apps/gaussian/g16c01/g16/l1.exe "/jobfs/40912865.gadi-pbs/Gau-1159921.inp" -scrdir="/jobfs/40912865.gadi-pbs/"
 Entering Link 1 = /apps/gaussian/g16c01/g16/l1.exe PID=   1159940.
  
 Copyright (c) 1988-2019, Gaussian, Inc.  All Rights Reserved.
  
 This is part of the Gaussian(R) 16 program.  It is based on
 the Gaussian(R) 09 system (copyright 2009, Gaussian, Inc.),
 the Gaussian(R) 03 system (copyright 2003, Gaussian, Inc.),
 the Gaussian(R) 98 system (copyright 1998, Gaussian, Inc.),
 the Gaussian(R) 94 system (copyright 1995, Gaussian, Inc.),
 the Gaussian 92(TM) system (copyright 1992, Gaussian, Inc.),
 the Gaussian 90(TM) system (copyright 1990, Gaussian, Inc.),
 the Gaussian 88(TM) system (copyright 1988, Gaussian, Inc.),
 the Gaussian 86(TM) system (copyright 1986, Carnegie Mellon
 University), and the Gaussian 82(TM) system (copyright 1983,
 Carnegie Mellon University). Gaussian is a federally registered
 trademark of Gaussian, Inc.
  
 This software contains proprietary and confidential information,
 including trade secrets, belonging to Gaussian, Inc.
  
 This software is provided under written license and may be
 used, copied, transmitted, or stored only in accord with that
 written license.
  
 The following legend is applicable only to US Government
 contracts under FAR:
  
                    RESTRICTED RIGHTS LEGEND
  
 Use, reproduction and disclosure by the US Government is
 subject to restrictions as set forth in subparagraphs (a)
 and (c) of the Commercial Computer Software - Restricted
 Rights clause in FAR 52.227-19.
  
 Gaussian, Inc.
 340 Quinnipiac St., Bldg. 40, Wallingford CT 06492
  
  
 ---------------------------------------------------------------
 Warning -- This program may not be used in any manner that
 competes with the business of Gaussian, Inc. or will provide
 assistance to any competitor of Gaussian, Inc.  The licensee
 of this program is prohibited from giving any competitor of
 Gaussian, Inc. access to this program.  By using this program,
 the user acknowledges that Gaussian, Inc. is engaged in the
 business of creating and licensing software in the field of
 computational chemistry and represents and warrants to the
 licensee that it is not a competitor of Gaussian, Inc. and that
 it will not use this program in any manner prohibited above.
 ---------------------------------------------------------------
  

 Cite this work as:
 Gaussian 16, Revision C.01,
 M. J. Frisch, G. W. Trucks, H. B. Schlegel, G. E. Scuseria, 
 M. A. Robb, J. R. Cheeseman, G. Scalmani, V. Barone, 
 G. A. Petersson, H. Nakatsuji, X. Li, M. Caricato, A. V. Marenich, 
 J. Bloino, B. G. Janesko, R. Gomperts, B. Mennucci, H. P. Hratchian, 
 J. V. Ortiz, A. F. Izmaylov, J. L. Sonnenberg, D. Williams-Young, 
 F. Ding, F. Lipparini, F. Egidi, J. Goings, B. Peng, A. Petrone, 
 T. Henderson, D. Ranasinghe, V. G. Zakrzewski, J. Gao, N. Rega, 
 G. Zheng, W. Liang, M. Hada, M. Ehara, K. Toyota, R. Fukuda, 
 J. Hasegawa, M. Ishida, T. Nakajima, Y. Honda, O. Kitao, H. Nakai, 
 T. Vreven, K. Throssell, J. A. Montgomery, Jr., J. E. Peralta, 
 F. Ogliaro, M. J. Bearpark, J. J. Heyd, E. N. Brothers, K. N. Kudin, 
 V. N. Staroverov, T. A. Keith, R. Kobayashi, J. Normand, 
 K. Raghavachari, A. P. Rendell, J. C. Burant, S. S. Iyengar, 
 J. Tomasi, M. Cossi, J. M. Millam, M. Klene, C. Adamo, R. Cammi, 
 J. W. Ochterski, R. L. Martin, K. Morokuma, O. Farkas, 
 J. B. Foresman, and D. J. Fox, Gaussian, Inc., Wallingford CT, 2019.
 
 ******************************************
 Gaussian 16:  ES64L-G16RevC.01  3-Jul-2019
                22-May-2022 
 ******************************************
 %nproc=16
 Will use up to   16 processors via shared memory.
 %mem=20gb
 -----------------------------------------------------
 #m062X/gen 6D OPT Freq=noraman SCRF=(SMD,Solvent=h2o)
 -----------------------------------------------------
 1/18=20,19=15,26=3,38=1/1,3;
 2/9=110,12=2,17=6,18=5,40=1/2;
 3/5=7,8=2,11=2,25=1,30=1,70=32201,71=1,72=1,74=-55/1,2,3;
 4//1;
 5/5=2,38=5,53=1/2;
 6/7=2,8=2,9=2,10=2,28=1/1;
 7//1,2,3,16;
 1/18=20,19=15,26=3/3(2);
 2/9=110/2;
 99//99;
 2/9=110/2;
 3/5=7,6=1,8=2,11=2,25=1,30=1,70=32205,71=1,72=1,74=-55,82=7/1,2,3;
 4/5=5,16=3,69=1/1;
 5/5=2,38=5,53=1/2;
 7//1,2,3,16;
 1/18=20,19=15,26=3/3(-5);
 2/9=110/2;
 6/7=2,8=2,9=2,10=2,19=2,28=1/1;
 99/9=1/99;
 ------------------
 HA.14.smd.a2d2.smd
 ------------------
 Symbolic Z-matrix:
 Charge =  0 Multiplicity = 1
 C                    -1.13366   0.67937  -0.84997 
 C                    -2.34994   0.62011  -1.55144 
 C                    -3.65364   0.31085  -0.88789 
 C                    -2.33154   0.77727  -2.937 
 H                    -3.26555   0.73324  -3.48748 
 C                    -1.12638   0.96372  -3.61444 
 C                     0.07062   1.00733  -2.90914 
 H                     1.01104   1.15623  -3.42984 
 C                     0.06858   0.87454  -1.5196 
 H                     0.99556   0.93829  -0.96041 
 S                    -1.05967   0.61622   0.94155 
 O                    -1.4167   -0.74562   1.33929 
 O                     0.23925   1.15098   1.34819 
 N                    -2.21769   1.59287   1.58501 
 H                    -3.15597   1.23984   1.38709 
 H                    -2.10209   2.55436   1.25413 
 O                    -4.62722  -0.12993  -1.47284 
 O                    -3.6499    0.61402   0.40247 
 C                    -4.89446   0.42094   1.1011 
 H                    -1.13021   1.07434  -4.69394 
 H                    -4.69788   0.72581   2.12672 
 H                    -5.18125  -0.63112   1.05865 
 H                    -5.66952   1.04531   0.65333 
 

 GradGradGradGradGradGradGradGradGradGradGradGradGradGradGradGradGradGrad
 Berny optimization.
 Initialization pass.
                           ----------------------------
                           !    Initial Parameters    !
                           ! (Angstroms and Degrees)  !
 --------------------------                            --------------------------
 ! Name  Definition              Value          Derivative Info.                !
 --------------------------------------------------------------------------------
 ! R1    R(1,2)                  1.4053         estimate D2E/DX2                !
 ! R2    R(1,9)                  1.3899         estimate D2E/DX2                !
 ! R3    R(1,11)                 1.7942         estimate D2E/DX2                !
 ! R4    R(2,3)                  1.4952         estimate D2E/DX2                !
 ! R5    R(2,4)                  1.3946         estimate D2E/DX2                !
 ! R6    R(3,17)                 1.2183         estimate D2E/DX2                !
 ! R7    R(3,18)                 1.3255         estimate D2E/DX2                !
 ! R8    R(4,5)                  1.0851         estimate D2E/DX2                !
 ! R9    R(4,6)                  1.395          estimate D2E/DX2                !
 ! R10   R(6,7)                  1.39           estimate D2E/DX2                !
 ! R11   R(6,20)                 1.0852         estimate D2E/DX2                !
 ! R12   R(7,8)                  1.0852         estimate D2E/DX2                !
 ! R13   R(7,9)                  1.3959         estimate D2E/DX2                !
 ! R14   R(9,10)                 1.0845         estimate D2E/DX2                !
 ! R15   R(11,12)                1.463          estimate D2E/DX2                !
 ! R16   R(11,13)                1.4624         estimate D2E/DX2                !
 ! R17   R(11,14)                1.6459         estimate D2E/DX2                !
 ! R18   R(14,15)                1.0218         estimate D2E/DX2                !
 ! R19   R(14,16)                1.0234         estimate D2E/DX2                !
 ! R20   R(18,19)                1.4402         estimate D2E/DX2                !
 ! R21   R(19,21)                1.0879         estimate D2E/DX2                !
 ! R22   R(19,22)                1.0913         estimate D2E/DX2                !
 ! R23   R(19,23)                1.0914         estimate D2E/DX2                !
 ! A1    A(2,1,9)              120.9346         estimate D2E/DX2                !
 ! A2    A(2,1,11)             122.1834         estimate D2E/DX2                !
 ! A3    A(9,1,11)             116.7654         estimate D2E/DX2                !
 ! A4    A(1,2,3)              122.8091         estimate D2E/DX2                !
 ! A5    A(1,2,4)              118.6703         estimate D2E/DX2                !
 ! A6    A(3,2,4)              118.4073         estimate D2E/DX2                !
 ! A7    A(2,3,17)             123.9539         estimate D2E/DX2                !
 ! A8    A(2,3,18)             112.474          estimate D2E/DX2                !
 ! A9    A(17,3,18)            123.5319         estimate D2E/DX2                !
 ! A10   A(2,4,5)              119.2178         estimate D2E/DX2                !
 ! A11   A(2,4,6)              120.5925         estimate D2E/DX2                !
 ! A12   A(5,4,6)              120.1785         estimate D2E/DX2                !
 ! A13   A(4,6,7)              120.1142         estimate D2E/DX2                !
 ! A14   A(4,6,20)             119.5805         estimate D2E/DX2                !
 ! A15   A(7,6,20)             120.3053         estimate D2E/DX2                !
 ! A16   A(6,7,8)              120.4698         estimate D2E/DX2                !
 ! A17   A(6,7,9)              120.057          estimate D2E/DX2                !
 ! A18   A(8,7,9)              119.4692         estimate D2E/DX2                !
 ! A19   A(1,9,7)              119.6177         estimate D2E/DX2                !
 ! A20   A(1,9,10)             119.9469         estimate D2E/DX2                !
 ! A21   A(7,9,10)             120.4284         estimate D2E/DX2                !
 ! A22   A(1,11,12)            107.1076         estimate D2E/DX2                !
 ! A23   A(1,11,13)            107.5426         estimate D2E/DX2                !
 ! A24   A(1,11,14)            109.9059         estimate D2E/DX2                !
 ! A25   A(12,11,13)           118.788          estimate D2E/DX2                !
 ! A26   A(12,11,14)           105.9252         estimate D2E/DX2                !
 ! A27   A(13,11,14)           107.4128         estimate D2E/DX2                !
 ! A28   A(11,14,15)           111.4275         estimate D2E/DX2                !
 ! A29   A(11,14,16)           110.5869         estimate D2E/DX2                !
 ! A30   A(15,14,16)           111.45           estimate D2E/DX2                !
 ! A31   A(3,18,19)            116.0482         estimate D2E/DX2                !
 ! A32   A(18,19,21)           105.2844         estimate D2E/DX2                !
 ! A33   A(18,19,22)           109.7226         estimate D2E/DX2                !
 ! A34   A(18,19,23)           109.7531         estimate D2E/DX2                !
 ! A35   A(21,19,22)           110.7526         estimate D2E/DX2                !
 ! A36   A(21,19,23)           110.7819         estimate D2E/DX2                !
 ! A37   A(22,19,23)           110.4227         estimate D2E/DX2                !
 ! D1    D(9,1,2,3)            175.3081         estimate D2E/DX2                !
 ! D2    D(9,1,2,4)             -0.7579         estimate D2E/DX2                !
 ! D3    D(11,1,2,3)            -8.7462         estimate D2E/DX2                !
 ! D4    D(11,1,2,4)           175.1879         estimate D2E/DX2                !
 ! D5    D(2,1,9,7)             -0.312          estimate D2E/DX2                !
 ! D6    D(2,1,9,10)           178.7301         estimate D2E/DX2                !
 ! D7    D(11,1,9,7)          -176.4693         estimate D2E/DX2                !
 ! D8    D(11,1,9,10)            2.5728         estimate D2E/DX2                !
 ! D9    D(2,1,11,12)           70.3924         estimate D2E/DX2                !
 ! D10   D(2,1,11,13)         -160.8713         estimate D2E/DX2                !
 ! D11   D(2,1,11,14)          -44.2391         estimate D2E/DX2                !
 ! D12   D(9,1,11,12)         -113.5022         estimate D2E/DX2                !
 ! D13   D(9,1,11,13)           15.2341         estimate D2E/DX2                !
 ! D14   D(9,1,11,14)          131.8663         estimate D2E/DX2                !
 ! D15   D(1,2,3,17)          -157.4586         estimate D2E/DX2                !
 ! D16   D(1,2,3,18)            24.7803         estimate D2E/DX2                !
 ! D17   D(4,2,3,17)            18.6172         estimate D2E/DX2                !
 ! D18   D(4,2,3,18)          -159.144          estimate D2E/DX2                !
 ! D19   D(1,2,4,5)           -179.9909         estimate D2E/DX2                !
 ! D20   D(1,2,4,6)              1.2201         estimate D2E/DX2                !
 ! D21   D(3,2,4,5)              3.768          estimate D2E/DX2                !
 ! D22   D(3,2,4,6)           -175.0211         estimate D2E/DX2                !
 ! D23   D(2,3,18,19)          176.4581         estimate D2E/DX2                !
 ! D24   D(17,3,18,19)          -1.3141         estimate D2E/DX2                !
 ! D25   D(2,4,6,7)             -0.6161         estimate D2E/DX2                !
 ! D26   D(2,4,6,20)           179.3891         estimate D2E/DX2                !
 ! D27   D(5,4,6,7)           -179.3934         estimate D2E/DX2                !
 ! D28   D(5,4,6,20)             0.6118         estimate D2E/DX2                !
 ! D29   D(4,6,7,8)           -179.7436         estimate D2E/DX2                !
 ! D30   D(4,6,7,9)             -0.4774         estimate D2E/DX2                !
 ! D31   D(20,6,7,8)             0.2511         estimate D2E/DX2                !
 ! D32   D(20,6,7,9)           179.5174         estimate D2E/DX2                !
 ! D33   D(6,7,9,1)              0.9343         estimate D2E/DX2                !
 ! D34   D(6,7,9,10)          -178.1031         estimate D2E/DX2                !
 ! D35   D(8,7,9,1)           -179.7921         estimate D2E/DX2                !
 ! D36   D(8,7,9,10)             1.1705         estimate D2E/DX2                !
 ! D37   D(1,11,14,15)          66.8934         estimate D2E/DX2                !
 ! D38   D(1,11,14,16)         -57.6514         estimate D2E/DX2                !
 ! D39   D(12,11,14,15)        -48.4897         estimate D2E/DX2                !
 ! D40   D(12,11,14,16)       -173.0345         estimate D2E/DX2                !
 ! D41   D(13,11,14,15)       -176.393          estimate D2E/DX2                !
 ! D42   D(13,11,14,16)         59.0622         estimate D2E/DX2                !
 ! D43   D(3,18,19,21)        -179.5691         estimate D2E/DX2                !
 ! D44   D(3,18,19,22)          61.2095         estimate D2E/DX2                !
 ! D45   D(3,18,19,23)         -60.2974         estimate D2E/DX2                !
 --------------------------------------------------------------------------------
 Trust Radius=3.00D-01 FncErr=1.00D-07 GrdErr=1.00D-06 EigMax=2.50D+02 EigMin=1.00D-04
 Number of steps in this run=    115 maximum allowed number of steps=    138.
 GradGradGradGradGradGradGradGradGradGradGradGradGradGradGradGradGradGrad

                          Input orientation:                          
 ---------------------------------------------------------------------
 Center     Atomic      Atomic             Coordinates (Angstroms)
 Number     Number       Type             X           Y           Z
 ---------------------------------------------------------------------
      1          6           0       -1.133663    0.679372   -0.849969
      2          6           0       -2.349935    0.620108   -1.551441
      3          6           0       -3.653639    0.310852   -0.887885
      4          6           0       -2.331544    0.777272   -2.936997
      5          1           0       -3.265554    0.733235   -3.487483
      6          6           0       -1.126376    0.963724   -3.614440
      7          6           0        0.070619    1.007327   -2.909137
      8          1           0        1.011039    1.156232   -3.429836
      9          6           0        0.068579    0.874541   -1.519597
     10          1           0        0.995555    0.938294   -0.960407
     11         16           0       -1.059675    0.616223    0.941554
     12          8           0       -1.416700   -0.745620    1.339286
     13          8           0        0.239253    1.150981    1.348190
     14          7           0       -2.217694    1.592866    1.585007
     15          1           0       -3.155972    1.239836    1.387089
     16          1           0       -2.102093    2.554361    1.254129
     17          8           0       -4.627223   -0.129927   -1.472841
     18          8           0       -3.649904    0.614020    0.402465
     19          6           0       -4.894455    0.420941    1.101103
     20          1           0       -1.130215    1.074341   -4.693940
     21          1           0       -4.697881    0.725805    2.126716
     22          1           0       -5.181246   -0.631124    1.058647
     23          1           0       -5.669518    1.045309    0.653329
 ---------------------------------------------------------------------
                    Distance matrix (angstroms):
                    1          2          3          4          5
     1  C    0.000000
     2  C    1.405309   0.000000
     3  C    2.547062   1.495189   0.000000
     4  C    2.408358   1.394562   2.482809   0.000000
     5  H    3.391805   2.144625   2.662128   1.085057   0.000000
     6  C    2.779066   2.423042   3.774573   1.395035   2.155302
     7  C    2.407908   2.802206   4.294256   2.413315   3.397008
     8  H    3.388636   3.887408   5.379164   3.399906   4.297848
     9  C    1.389920   2.432069   3.817291   2.789099   3.874143
    10  H    2.147745   3.412165   4.691902   3.873296   4.958348
    11  S    1.794162   2.807100   3.188847   4.084941   4.949340
    12  O    2.627461   3.330532   3.328711   4.630630   5.376148
    13  O    2.634239   3.923465   4.567325   5.011136   5.986812
    14  N    2.817570   3.286495   3.133798   4.596376   5.250441
    15  H    3.067292   3.109456   2.507228   4.426214   4.902051
    16  H    2.980045   3.416721   3.468263   4.558095   5.210857
    17  O    3.639766   2.398910   1.218329   2.870001   2.580305
    18  O    2.811464   2.346850   1.325492   3.593985   3.910707
    19  C    4.244647   3.681065   2.346874   4.796013   4.879136
    20  H    3.864211   3.401374   4.629972   2.149021   2.476200
    21  H    4.643970   4.364958   3.217211   5.589579   5.794035
    22  H    4.662954   4.049008   2.647619   5.105835   5.118462
    23  H    4.792473   4.007672   2.641692   4.909619   4.798204
                    6          7          8          9         10
     6  C    0.000000
     7  C    1.390018   0.000000
     8  H    2.153992   1.085214   0.000000
     9  C    2.413346   1.395872   2.148626   0.000000
    10  H    3.398107   2.158199   2.479076   1.084455   0.000000
    11  S    4.569714   4.032164   4.867085   2.719733   2.818715
    12  O    5.248385   4.830532   5.679391   3.606132   3.734050
    13  O    5.150505   4.263087   4.839960   2.886131   2.438616
    14  N    5.349864   5.077062   5.980302   3.921938   4.151213
    15  H    5.404701   5.377965   6.369752   4.356603   4.778791
    16  H    5.213935   4.944368   5.795333   3.902200   4.136577
    17  O    4.247169   5.042421   6.105246   4.802260   5.746244
    18  O    4.756681   4.996368   6.058458   4.193961   4.852099
    19  C    6.060477   6.409199   7.479634   5.630766   6.261765
    20  H    1.085159   2.152212   2.487897   3.399041   4.298450
    21  H    6.765584   6.941013   7.978239   6.003071   6.480023
    22  H    6.389308   6.783061   7.854013   6.039456   6.685247
    23  H    6.233831   6.755870   7.830350   6.138121   6.858483
                   11         12         13         14         15
    11  S    0.000000
    12  O    1.462968   0.000000
    13  O    1.462372   2.517808   0.000000
    14  N    1.645865   2.484046   2.507575   0.000000
    15  H    2.232007   2.639960   3.396610   1.021845   0.000000
    16  H    2.222772   3.371482   2.731341   1.023385   1.690064
    17  O    4.371892   4.312145   5.769015   4.257262   3.495716
    18  O    2.645734   2.777311   4.038349   2.099469   1.266925
    19  C    3.843062   3.675918   5.191240   2.961861   1.942859
    20  H    5.654524   6.308260   6.195858   6.393485   6.411708
    21  H    3.827945   3.681207   5.016191   2.682643   1.785710
    22  H    4.307776   3.776728   5.713278   3.742436   2.776707
    23  H    4.638733   4.665236   5.950426   3.617034   2.625673
                   16         17         18         19         20
    16  H    0.000000
    17  O    4.584545   0.000000
    18  O    2.624114   2.241736   0.000000
    19  C    3.517411   2.645762   1.440237   0.000000
    20  H    6.206008   4.904570   5.703865   6.941106   0.000000
    21  H    3.292892   3.700551   2.020840   1.087872   7.705262
    22  H    4.434717   2.639426   2.079896   1.091280   7.239594
    23  H    3.919786   2.643512   2.080333   1.091357   7.014228
                   21         22         23
    21  H    0.000000
    22  H    1.793229   0.000000
    23  H    1.793608   1.792518   0.000000
 Stoichiometry    C8H9NO4S
 Framework group  C1[X(C8H9NO4S)]
 Deg. of freedom    63
 Full point group                 C1      NOp   1
 Largest Abelian subgroup         C1      NOp   1
 Largest concise Abelian subgroup C1      NOp   1
                         Standard orientation:                         
 ---------------------------------------------------------------------
 Center     Atomic      Atomic             Coordinates (Angstroms)
 Number     Number       Type             X           Y           Z
 ---------------------------------------------------------------------
      1          6           0       -0.867731   -0.422147    0.073432
      2          6           0       -0.697339    0.970041   -0.014160
      3          6           0        0.637227    1.632402    0.111541
      4          6           0       -1.828232    1.775652   -0.144062
      5          1           0       -1.706938    2.851729   -0.212587
      6          6           0       -3.103893    1.211259   -0.160605
      7          6           0       -3.258305   -0.166492   -0.060060
      8          1           0       -4.247722   -0.611997   -0.076486
      9          6           0       -2.136214   -0.989748    0.047734
     10          1           0       -2.248183   -2.067342    0.095651
     11         16           0        0.523400   -1.554411    0.115263
     12          8           0        1.178534   -1.383517    1.412132
     13          8           0        0.024847   -2.878997   -0.252771
     14          7           0        1.637021   -1.115886   -1.014522
     15          1           0        2.070544   -0.219925   -0.783264
     16          1           0        1.215836   -1.098214   -1.947050
     17          8           0        0.791036    2.797789    0.431764
     18          8           0        1.636694    0.823491   -0.210415
     19          6           0        2.953338    1.406946   -0.192786
     20          1           0       -3.973072    1.854426   -0.252448
     21          1           0        3.626532    0.604571   -0.486842
     22          1           0        3.186960    1.758401    0.813590
     23          1           0        3.000493    2.232529   -0.905000
 ---------------------------------------------------------------------
 Rotational constants (GHZ):           0.8217516           0.6983645           0.4139770
 General basis read from cards:  (6D, 7F)
 There are   288 symmetry adapted cartesian basis functions of A   symmetry.
 There are   288 symmetry adapted basis functions of A   symmetry.
   288 basis functions,   508 primitive gaussians,   288 cartesian basis functions
    56 alpha electrons       56 beta electrons
       nuclear repulsion energy      1098.3751942723 Hartrees.
 NAtoms=   23 NActive=   23 NUniq=   23 SFac= 1.00D+00 NAtFMM=   60 NAOKFM=F Big=F
 Integral buffers will be    131072 words long.
 Raffenetti 2 integral format.
 Two-electron integral symmetry is turned on.
 ------------------------------------------------------------------------------
 Polarizable Continuum Model (PCM)
 =================================
 Model                : PCM.
 Atomic radii         : SMD-Coulomb.
 Polarization charges : Total charges.
 Charge compensation  : None.
 Solution method      : On-the-fly selection.
 Cavity type          : VdW (van der Waals Surface) (Alpha=1.000).
 Cavity algorithm     : GePol (No added spheres)
                        Default sphere list used, NSphG=   23.
                        Lebedev-Laikov grids with approx.  5.0 points / Ang**2.
                        Smoothing algorithm: York/Karplus (Gamma=1.0000).
                        Polarization charges: spherical gaussians, with
                                              point-specific exponents (IZeta= 3).
                        Self-potential: point-specific (ISelfS= 7).
                        Self-field    : sphere-specific E.n sum rule (ISelfD= 2).
 1st derivatives      : Analytical E(r).r(x)/FMM algorithm (CHGder, D1EAlg=3).
                        Cavity 1st derivative terms included.
 Solvent              : Water, Eps=  78.355300 Eps(inf)=   1.777849
 ------------------------------------------------------------------------------
 ------------------------------------------------------------------------------
 Atomic radii for non-electrostatic terms: SMD-CDS.
 ------------------------------------------------------------------------------
 Nuclear repulsion after PCM non-electrostatic terms =     1098.3840666768 Hartrees.
 One-electron integrals computed using PRISM.
 NBasis=   288 RedAO= T EigKep=  2.40D-06  NBF=   288
 NBsUse=   287 1.00D-06 EigRej=  8.12D-07 NBFU=   287
 ExpMin= 4.05D-02 ExpMax= 2.19D+04 ExpMxC= 3.30D+03 IAcc=3 IRadAn=         5 AccDes= 0.00D+00
 Harris functional with IExCor= 1009 and IRadAn=       5 diagonalized for initial guess.
 HarFok:  IExCor= 1009 AccDes= 0.00D+00 IRadAn=         5 IDoV= 1 UseB2=F ITyADJ=14
 ICtDFT=  3500011 ScaDFX=  1.000000  1.000000  1.000000  1.000000
 FoFCou: FMM=F IPFlag=           0 FMFlag=      100000 FMFlg1=           0
         NFxFlg=           0 DoJE=T BraDBF=F KetDBF=T FulRan=T
         wScrn=  0.000000 ICntrl=       500 IOpCl=  0 I1Cent=   200000004 NGrid=           0
         NMat0=    1 NMatS0=      1 NMatT0=    0 NMatD0=    1 NMtDS0=    0 NMtDT0=    0
 Petite list used in FoFCou.
 Requested convergence on RMS density matrix=1.00D-08 within 128 cycles.
 Requested convergence on MAX density matrix=1.00D-06.
 Requested convergence on             energy=1.00D-06.
 No special actions if energy rises.
 Inv3:  Mode=1 IEnd=     8916528.
 Iteration    1 A*A^-1 deviation from unit magnitude is 4.00D-15 for   1719.
 Iteration    1 A*A^-1 deviation from orthogonality  is 2.52D-15 for   1692    468.
 Iteration    1 A^-1*A deviation from unit magnitude is 4.22D-15 for   1719.
 Iteration    1 A^-1*A deviation from orthogonality  is 1.35D-12 for   1627   1522.
 Error on total polarization charges =  0.04830
 SCF Done:  E(RM062X) =  -1063.71075716     A.U. after   16 cycles
            NFock= 16  Conv=0.40D-08     -V/T= 2.0061
 SMD-CDS (non-electrostatic) energy       (kcal/mol) =       5.57
 (included in total energy above)

 **********************************************************************

            Population analysis using the SCF Density.

 **********************************************************************

 Orbital symmetries:
       Occupied  (A) (A) (A) (A) (A) (A) (A) (A) (A) (A) (A) (A)
                 (A) (A) (A) (A) (A) (A) (A) (A) (A) (A) (A) (A)
                 (A) (A) (A) (A) (A) (A) (A) (A) (A) (A) (A) (A)
                 (A) (A) (A) (A) (A) (A) (A) (A) (A) (A) (A) (A)
                 (A) (A) (A) (A) (A) (A) (A) (A)
       Virtual   (A) (A) (A) (A) (A) (A) (A) (A) (A) (A) (A) (A)
                 (A) (A) (A) (A) (A) (A) (A) (A) (A) (A) (A) (A)
                 (A) (A) (A) (A) (A) (A) (A) (A) (A) (A) (A) (A)
                 (A) (A) (A) (A) (A) (A) (A) (A) (A) (A) (A) (A)
                 (A) (A) (A) (A) (A) (A) (A) (A) (A) (A) (A) (A)
                 (A) (A) (A) (A) (A) (A) (A) (A) (A) (A) (A) (A)
                 (A) (A) (A) (A) (A) (A) (A) (A) (A) (A) (A) (A)
                 (A) (A) (A) (A) (A) (A) (A) (A) (A) (A) (A) (A)
                 (A) (A) (A) (A) (A) (A) (A) (A) (A) (A) (A) (A)
                 (A) (A) (A) (A) (A) (A) (A) (A) (A) (A) (A) (A)
                 (A) (A) (A) (A) (A) (A) (A) (A) (A) (A) (A) (A)
                 (A) (A) (A) (A) (A) (A) (A) (A) (A) (A) (A) (A)
                 (A) (A) (A) (A) (A) (A) (A) (A) (A) (A) (A) (A)
                 (A) (A) (A) (A) (A) (A) (A) (A) (A) (A) (A) (A)
                 (A) (A) (A) (A) (A) (A) (A) (A) (A) (A) (A) (A)
                 (A) (A) (A) (A) (A) (A) (A) (A) (A) (A) (A) (A)
                 (A) (A) (A) (A) (A) (A) (A) (A) (A) (A) (A) (A)
                 (A) (A) (A) (A) (A) (A) (A) (A) (A) (A) (A) (A)
                 (A) (A) (A) (A) (A) (A) (A) (A) (A) (A) (A) (A)
                 (A) (A) (A)
 The electronic state is 1-A.
 Alpha  occ. eigenvalues --  -90.17775 -19.72560 -19.66900 -19.65983 -19.65496
 Alpha  occ. eigenvalues --  -14.76635 -10.72395 -10.61323 -10.60995 -10.60400
 Alpha  occ. eigenvalues --  -10.58325 -10.58186 -10.57732 -10.57510  -8.48749
 Alpha  occ. eigenvalues --   -6.40950  -6.40912  -6.40838  -1.29188  -1.25575
 Alpha  occ. eigenvalues --   -1.18123  -1.14225  -1.02274  -0.99906  -0.90641
 Alpha  occ. eigenvalues --   -0.88388  -0.84789  -0.77840  -0.74643  -0.72111
 Alpha  occ. eigenvalues --   -0.69286  -0.66653  -0.62180  -0.60581  -0.60120
 Alpha  occ. eigenvalues --   -0.58596  -0.57452  -0.56225  -0.54222  -0.53669
 Alpha  occ. eigenvalues --   -0.52434  -0.49717  -0.49372  -0.46710  -0.46224
 Alpha  occ. eigenvalues --   -0.45652  -0.43711  -0.43039  -0.41947  -0.41741
 Alpha  occ. eigenvalues --   -0.39790  -0.39377  -0.38256  -0.35157  -0.33471
 Alpha  occ. eigenvalues --   -0.33014
 Alpha virt. eigenvalues --   -0.04550  -0.00954   0.01437   0.03080   0.03388
 Alpha virt. eigenvalues --    0.03844   0.04640   0.04805   0.05376   0.06130
 Alpha virt. eigenvalues --    0.06232   0.06653   0.07345   0.07588   0.08500
 Alpha virt. eigenvalues --    0.09651   0.09826   0.10656   0.10868   0.11436
 Alpha virt. eigenvalues --    0.11660   0.11977   0.13091   0.13529   0.14046
 Alpha virt. eigenvalues --    0.14661   0.15226   0.16222   0.16662   0.16937
 Alpha virt. eigenvalues --    0.17240   0.18590   0.18980   0.19461   0.19959
 Alpha virt. eigenvalues --    0.20107   0.21403   0.21785   0.22013   0.22135
 Alpha virt. eigenvalues --    0.22826   0.23485   0.23931   0.24258   0.24953
 Alpha virt. eigenvalues --    0.25182   0.26063   0.26136   0.26998   0.27174
 Alpha virt. eigenvalues --    0.27868   0.28403   0.29026   0.29494   0.30261
 Alpha virt. eigenvalues --    0.30575   0.30814   0.31460   0.31923   0.32156
 Alpha virt. eigenvalues --    0.32588   0.33592   0.34374   0.34411   0.35830
 Alpha virt. eigenvalues --    0.36869   0.37292   0.37411   0.37953   0.39486
 Alpha virt. eigenvalues --    0.39840   0.40305   0.41874   0.42599   0.45351
 Alpha virt. eigenvalues --    0.45995   0.48250   0.51010   0.51728   0.55906
 Alpha virt. eigenvalues --    0.57069   0.60886   0.63274   0.67725   0.68737
 Alpha virt. eigenvalues --    0.69154   0.70034   0.71321   0.72095   0.72679
 Alpha virt. eigenvalues --    0.74628   0.76076   0.77478   0.77927   0.78546
 Alpha virt. eigenvalues --    0.79081   0.80666   0.82157   0.82491   0.84301
 Alpha virt. eigenvalues --    0.85990   0.88114   0.90058   0.92988   0.94065
 Alpha virt. eigenvalues --    0.95188   0.97604   0.98652   0.99775   0.99915
 Alpha virt. eigenvalues --    1.02955   1.04164   1.05381   1.05925   1.08721
 Alpha virt. eigenvalues --    1.09944   1.10456   1.12248   1.13723   1.15071
 Alpha virt. eigenvalues --    1.15645   1.16481   1.18094   1.19046   1.20864
 Alpha virt. eigenvalues --    1.21386   1.23411   1.25358   1.26442   1.28553
 Alpha virt. eigenvalues --    1.29043   1.31950   1.34002   1.34719   1.35800
 Alpha virt. eigenvalues --    1.36183   1.36977   1.38118   1.39838   1.41000
 Alpha virt. eigenvalues --    1.41102   1.42547   1.43586   1.45086   1.46733
 Alpha virt. eigenvalues --    1.47902   1.49573   1.51244   1.52088   1.53620
 Alpha virt. eigenvalues --    1.54902   1.57749   1.59478   1.63838   1.64962
 Alpha virt. eigenvalues --    1.71648   1.73493   1.77472   1.78314   1.80172
 Alpha virt. eigenvalues --    1.82501   1.82844   1.84560   1.86371   1.86981
 Alpha virt. eigenvalues --    1.90630   1.91692   1.92359   1.93794   1.94921
 Alpha virt. eigenvalues --    1.99902   2.01470   2.03058   2.03893   2.05361
 Alpha virt. eigenvalues --    2.06151   2.09789   2.10771   2.13652   2.14949
 Alpha virt. eigenvalues --    2.16115   2.16790   2.17505   2.19223   2.21468
 Alpha virt. eigenvalues --    2.23525   2.24431   2.26450   2.28805   2.31085
 Alpha virt. eigenvalues --    2.31356   2.31902   2.36891   2.39120   2.44165
 Alpha virt. eigenvalues --    2.47249   2.49760   2.50933   2.56812   2.62312
 Alpha virt. eigenvalues --    2.63768   2.64904   2.67912   2.71138   2.75369
 Alpha virt. eigenvalues --    2.76555   2.77572   2.81686   2.86748   2.89150
 Alpha virt. eigenvalues --    2.95187   2.99790   3.02497   3.13519   3.18290
 Alpha virt. eigenvalues --    3.26175   3.39639   4.01487   4.10499   4.22693
 Alpha virt. eigenvalues --    4.24425   4.28647   4.29201   4.31737   4.39149
 Alpha virt. eigenvalues --    4.42869   4.43954   4.50738   4.66602   4.71929
 Alpha virt. eigenvalues --    4.77934
          Condensed to atoms (all electrons):
               1          2          3          4          5          6
     1  C   17.087075  -5.245738  -1.728439  -0.168244   0.085892   0.242170
     2  C   -5.245738  24.376627  -4.248108  -5.211063  -0.020836   1.296034
     3  C   -1.728439  -4.248108  11.335562   1.271496  -0.039993  -0.893625
     4  C   -0.168244  -5.211063   1.271496   9.954261   0.309065  -1.344233
     5  H    0.085892  -0.020836  -0.039993   0.309065   0.415030  -0.026769
     6  C    0.242170   1.296034  -0.893625  -1.344233  -0.026769   7.468372
     7  C   -0.977109  -1.780181   0.261057   0.274528   0.007467   0.260047
     8  H    0.019856  -0.001390   0.001043   0.002279  -0.000105  -0.003095
     9  C   -1.459399  -2.674609  -0.157157   1.302731  -0.018135  -1.306708
    10  H   -0.045005  -0.012130   0.009678  -0.000493   0.000010  -0.016127
    11  S   -0.296793   0.025431  -1.184903  -0.129494   0.001802   0.218320
    12  O   -0.076221   0.120742  -0.086980  -0.024842   0.000000   0.014279
    13  O   -0.287495  -0.186115  -0.056571   0.002501   0.000017   0.021484
    14  N    0.147597  -0.624658   0.145488   0.090508   0.000079  -0.054341
    15  H   -0.009271   0.097623  -0.044659  -0.010104  -0.000002   0.003908
    16  H   -0.055884   0.039183  -0.014658  -0.003528  -0.000000   0.002005
    17  O   -0.127639  -0.038721   0.571476   0.005851   0.005546  -0.002870
    18  O   -0.092267  -0.032506   0.185317  -0.085708   0.000992   0.020149
    19  C    0.092587  -0.427383   0.145907   0.073505   0.000249  -0.024795
    20  H    0.006572   0.012147  -0.008203  -0.031928  -0.002709   0.343551
    21  H   -0.007195   0.006444  -0.003150   0.001484   0.000000   0.000296
    22  H   -0.012762   0.012649  -0.002725   0.006525   0.000001   0.001597
    23  H    0.017638  -0.010309  -0.016330  -0.010195  -0.000001  -0.002120
               7          8          9         10         11         12
     1  C   -0.977109   0.019856  -1.459399  -0.045005  -0.296793  -0.076221
     2  C   -1.780181  -0.001390  -2.674609  -0.012130   0.025431   0.120742
     3  C    0.261057   0.001043  -0.157157   0.009678  -1.184903  -0.086980
     4  C    0.274528   0.002279   1.302731  -0.000493  -0.129494  -0.024842
     5  H    0.007467  -0.000105  -0.018135   0.000010   0.001802   0.000000
     6  C    0.260047  -0.003095  -1.306708  -0.016127   0.218320   0.014279
     7  C    7.337678   0.324383   0.211534   0.015705  -0.025063  -0.027819
     8  H    0.324383   0.421352  -0.028963  -0.003142  -0.001522   0.000034
     9  C    0.211534  -0.028963   9.442761   0.356064   0.136573  -0.084056
    10  H    0.015705  -0.003142   0.356064   0.409400  -0.003925  -0.000946
    11  S   -0.025063  -0.001522   0.136573  -0.003925  15.425384   0.416932
    12  O   -0.027819   0.000034  -0.084056  -0.000946   0.416932   8.741348
    13  O    0.186395   0.000136   0.247834   0.002959   0.096800  -0.148524
    14  N    0.038663  -0.000008   0.171943   0.000272  -0.236618  -0.180579
    15  H   -0.002397  -0.000000  -0.013627  -0.000005  -0.010454   0.006568
    16  H   -0.001245   0.000000  -0.001772  -0.000010   0.070729   0.007577
    17  O   -0.000679  -0.000002   0.002503   0.000019  -0.014330  -0.000389
    18  O   -0.013654  -0.000000  -0.098715   0.000202   0.028939  -0.001837
    19  C    0.002856  -0.000010   0.003237   0.000085  -0.091169  -0.024429
    20  H   -0.014983  -0.002738   0.005585  -0.000098   0.000613   0.000000
    21  H   -0.000253  -0.000000  -0.001157   0.000000   0.002796   0.000422
    22  H   -0.000188   0.000000  -0.001871   0.000000  -0.006468  -0.000030
    23  H    0.000138  -0.000000   0.001180  -0.000000   0.002481  -0.000220
              13         14         15         16         17         18
     1  C   -0.287495   0.147597  -0.009271  -0.055884  -0.127639  -0.092267
     2  C   -0.186115  -0.624658   0.097623   0.039183  -0.038721  -0.032506
     3  C   -0.056571   0.145488  -0.044659  -0.014658   0.571476   0.185317
     4  C    0.002501   0.090508  -0.010104  -0.003528   0.005851  -0.085708
     5  H    0.000017   0.000079  -0.000002  -0.000000   0.005546   0.000992
     6  C    0.021484  -0.054341   0.003908   0.002005  -0.002870   0.020149
     7  C    0.186395   0.038663  -0.002397  -0.001245  -0.000679  -0.013654
     8  H    0.000136  -0.000008  -0.000000   0.000000  -0.000002  -0.000000
     9  C    0.247834   0.171943  -0.013627  -0.001772   0.002503  -0.098715
    10  H    0.002959   0.000272  -0.000005  -0.000010   0.000019   0.000202
    11  S    0.096800  -0.236618  -0.010454   0.070729  -0.014330   0.028939
    12  O   -0.148524  -0.180579   0.006568   0.007577  -0.000389  -0.001837
    13  O    8.898584  -0.088370   0.012100  -0.004155  -0.000358  -0.028373
    14  N   -0.088370   8.634524   0.147569   0.205560  -0.006222  -0.261800
    15  H    0.012100   0.147569   0.361130  -0.008263   0.000461  -0.114158
    16  H   -0.004155   0.205560  -0.008263   0.254741   0.000190   0.001216
    17  O   -0.000358  -0.006222   0.000461   0.000190   8.298984  -0.152143
    18  O   -0.028373  -0.261800  -0.114158   0.001216  -0.152143   9.304399
    19  C    0.006005  -0.002984   0.068420  -0.004172  -0.010750  -0.086606
    20  H   -0.000003   0.000021  -0.000000  -0.000000   0.000023   0.000030
    21  H   -0.000122   0.002269   0.033095  -0.000060   0.000639  -0.097747
    22  H   -0.000052   0.000712  -0.002852  -0.000017   0.000759  -0.026344
    23  H    0.000006  -0.004309  -0.004561   0.000063   0.002525  -0.020826
              19         20         21         22         23
     1  C    0.092587   0.006572  -0.007195  -0.012762   0.017638
     2  C   -0.427383   0.012147   0.006444   0.012649  -0.010309
     3  C    0.145907  -0.008203  -0.003150  -0.002725  -0.016330
     4  C    0.073505  -0.031928   0.001484   0.006525  -0.010195
     5  H    0.000249  -0.002709   0.000000   0.000001  -0.000001
     6  C   -0.024795   0.343551   0.000296   0.001597  -0.002120
     7  C    0.002856  -0.014983  -0.000253  -0.000188   0.000138
     8  H   -0.000010  -0.002738  -0.000000   0.000000  -0.000000
     9  C    0.003237   0.005585  -0.001157  -0.001871   0.001180
    10  H    0.000085  -0.000098   0.000000   0.000000  -0.000000
    11  S   -0.091169   0.000613   0.002796  -0.006468   0.002481
    12  O   -0.024429   0.000000   0.000422  -0.000030  -0.000220
    13  O    0.006005  -0.000003  -0.000122  -0.000052   0.000006
    14  N   -0.002984   0.000021   0.002269   0.000712  -0.004309
    15  H    0.068420  -0.000000   0.033095  -0.002852  -0.004561
    16  H   -0.004172  -0.000000  -0.000060  -0.000017   0.000063
    17  O   -0.010750   0.000023   0.000639   0.000759   0.002525
    18  O   -0.086606   0.000030  -0.097747  -0.026344  -0.020826
    19  C    5.574165  -0.000026   0.409524   0.378191   0.393613
    20  H   -0.000026   0.420359   0.000000  -0.000000   0.000000
    21  H    0.409524   0.000000   0.419678  -0.019786  -0.019112
    22  H    0.378191  -0.000000  -0.019786   0.418480  -0.026547
    23  H    0.393613   0.000000  -0.019112  -0.026547   0.418889
 Mulliken charges:
               1
     1  C   -1.109927
     2  C    0.526868
     3  C    0.558479
     4  C   -0.274902
     5  H    0.282401
     6  C   -0.217530
     7  C   -0.076880
     8  H    0.271894
     9  C   -0.035776
    10  H    0.287488
    11  S    1.573940
    12  O   -0.651031
    13  O   -0.674684
    14  N   -1.125317
    15  H    0.489480
    16  H    0.512498
    17  O   -0.534870
    18  O   -0.428561
    19  C   -0.476018
    20  H    0.271789
    21  H    0.271937
    22  H    0.280726
    23  H    0.277995
 Sum of Mulliken charges =  -0.00000
 Mulliken charges with hydrogens summed into heavy atoms:
               1
     1  C   -1.109927
     2  C    0.526868
     3  C    0.558479
     4  C    0.007499
     6  C    0.054260
     7  C    0.195014
     9  C    0.251712
    11  S    1.573940
    12  O   -0.651031
    13  O   -0.674684
    14  N   -0.123338
    17  O   -0.534870
    18  O   -0.428561
    19  C    0.354641
 Electronic spatial extent (au):  <R**2>=           2679.5422
 Charge=             -0.0000 electrons
 Dipole moment (field-independent basis, Debye):
    X=             -2.6212    Y=              5.8808    Z=             -5.0344  Tot=              8.1732
 Quadrupole moment (field-independent basis, Debye-Ang):
   XX=            -61.3879   YY=           -110.1105   ZZ=            -91.2978
   XY=              6.7608   XZ=             -5.6897   YZ=             -1.5250
 Traceless Quadrupole moment (field-independent basis, Debye-Ang):
   XX=             26.2109   YY=            -22.5117   ZZ=             -3.6991
   XY=              6.7608   XZ=             -5.6897   YZ=             -1.5250
 Octapole moment (field-independent basis, Debye-Ang**2):
  XXX=             -5.8934  YYY=             27.3857  ZZZ=            -16.9239  XYY=            -21.7428
  XXY=             32.6106  XXZ=            -11.0968  XZZ=             13.6557  YZZ=              3.4305
  YYZ=             -9.9857  XYZ=              2.3475
 Hexadecapole moment (field-independent basis, Debye-Ang**3):
 XXXX=          -1428.4027 YYYY=          -1666.5157 ZZZZ=           -227.4778 XXXY=             72.5684
 XXXZ=             -1.6861 YYYX=            -12.2601 YYYZ=            -49.0220 ZZZX=            -20.8959
 ZZZY=             20.4739 XXYY=           -485.8682 XXZZ=           -368.3171 YYZZ=           -290.1028
 XXYZ=            -12.0184 YYXZ=             -8.3462 ZZXY=             19.8477
 N-N= 1.098384066677D+03 E-N=-4.694749045106D+03  KE= 1.057248180361D+03
 D1PCM: PCM CHGder 1st derivatives, ID1Alg=3 FixD1E=F DoIter=F DoCFld=F I1PDM=0.
 Calling FoFJK, ICntrl=      2127 FMM=F ISym2X=0 I1Cent= 0 IOpClX= 0 NMat=1 NMatS=1 NMatT=0.
 ***** Axes restored to original set *****
 -------------------------------------------------------------------
 Center     Atomic                   Forces (Hartrees/Bohr)
 Number     Number              X              Y              Z
 -------------------------------------------------------------------
      1        6           0.000950308    0.009550317    0.000248320
      2        6           0.000310638   -0.006906400    0.001836418
      3        6          -0.005345094    0.000595149   -0.028003034
      4        6          -0.000177533   -0.003967081   -0.000553016
      5        1          -0.000686176   -0.000185057    0.000471209
      6        6          -0.001976239    0.001176773    0.000166181
      7        6           0.000494570   -0.000835674    0.000808901
      8        1          -0.000007526   -0.000285686   -0.000071012
      9        6          -0.000022059    0.001182111    0.000067088
     10        1           0.000143524   -0.000071926    0.000007206
     11       16          -0.010643500    0.004518803    0.011718990
     12        8           0.002254718   -0.006616056    0.002721103
     13        8           0.002887425    0.000085759   -0.003582799
     14        7           0.070554278    0.041586528    0.047792939
     15        1           0.041489808    0.029915103    0.027309912
     16        1           0.001373439    0.000806532    0.004488273
     17        8           0.008914214    0.004054754    0.006004731
     18        8          -0.095058459   -0.066498221   -0.073287424
     19        6          -0.015757086   -0.009173232   -0.001674600
     20        1          -0.000131008    0.000429995    0.000122645
     21        1          -0.001953955   -0.000397607    0.002273654
     22        1           0.000985861    0.000626837    0.000991785
     23        1           0.001399853    0.000408281    0.000142528
 -------------------------------------------------------------------
 Cartesian Forces:  Max     0.095058459 RMS     0.021874714

 GradGradGradGradGradGradGradGradGradGradGradGradGradGradGradGradGradGrad
 Berny optimization.
 FormGI is forming the generalized inverse of G from B-inverse, IUseBI=4.
 Internal  Forces:  Max     0.396529982 RMS     0.086745407
 Search for a local minimum.
 Step number   1 out of a maximum of  115
 All quantities printed in internal units (Hartrees-Bohrs-Radians)
 Mixed Optimization -- RFO/linear search
 Second derivative matrix not updated -- first step.
 ITU=  0
     Eigenvalues ---    0.00448   0.00830   0.01160   0.01448   0.01470
     Eigenvalues ---    0.01710   0.02012   0.02085   0.02158   0.02167
     Eigenvalues ---    0.02174   0.02185   0.02191   0.02201   0.02677
     Eigenvalues ---    0.04742   0.09128   0.10271   0.10337   0.10719
     Eigenvalues ---    0.14522   0.15997   0.15998   0.15999   0.16000
     Eigenvalues ---    0.16000   0.16000   0.16000   0.16000   0.16000
     Eigenvalues ---    0.20020   0.21999   0.22487   0.24440   0.24923
     Eigenvalues ---    0.24958   0.24990   0.25000   0.25000   0.25000
     Eigenvalues ---    0.26582   0.32887   0.34656   0.34665   0.35060
     Eigenvalues ---    0.35372   0.35378   0.35390   0.35461   0.39553
     Eigenvalues ---    0.41933   0.42353   0.43282   0.43802   0.44045
     Eigenvalues ---    0.45673   0.46424   0.46805   0.47191   0.60583
     Eigenvalues ---    0.90375   0.90621   0.96127
 RFO step:  Lambda=-7.78750392D-01 EMin= 4.47529261D-03
 Linear search not attempted -- first point.
 Maximum step size (   0.300) exceeded in Quadratic search.
    -- Step size scaled by   0.367
 Iteration  1 RMS(Cart)=  0.28811459 RMS(Int)=  0.01188057
 Iteration  2 RMS(Cart)=  0.06044053 RMS(Int)=  0.00058655
 Iteration  3 RMS(Cart)=  0.00121950 RMS(Int)=  0.00036895
 Iteration  4 RMS(Cart)=  0.00000080 RMS(Int)=  0.00036895
 Variable       Old X    -DE/DX   Delta X   Delta X   Delta X     New X
                                 (Linear)    (Quad)   (Total)
    R1        2.65565   0.19360   0.00000   0.05874   0.05879   2.71444
    R2        2.62657   0.02645   0.00000   0.00819   0.00823   2.63480
    R3        3.39047   0.09229   0.00000   0.03238   0.03238   3.42286
    R4        2.82550   0.06618   0.00000   0.02190   0.02190   2.84740
    R5        2.63534   0.02246   0.00000   0.00702   0.00704   2.64238
    R6        2.30231  -0.01147   0.00000  -0.00242  -0.00242   2.29989
    R7        2.50482  -0.08714   0.00000  -0.02307  -0.02307   2.48175
    R8        2.05046   0.00036   0.00000   0.00012   0.00012   2.05058
    R9        2.63623  -0.02780   0.00000  -0.00864  -0.00868   2.62756
   R10        2.62675  -0.04965   0.00000  -0.01539  -0.01545   2.61131
   R11        2.05065  -0.00008   0.00000  -0.00003  -0.00003   2.05063
   R12        2.05076  -0.00001   0.00000  -0.00000  -0.00000   2.05075
   R13        2.63782  -0.02468   0.00000  -0.00771  -0.00772   2.63009
   R14        2.04932   0.00012   0.00000   0.00004   0.00004   2.04936
   R15        2.76461   0.00634   0.00000   0.00138   0.00138   2.76599
   R16        2.76348   0.00160   0.00000   0.00035   0.00035   2.76383
   R17        3.11023  -0.00577   0.00000  -0.00175  -0.00175   3.10849
   R18        1.93101  -0.05372   0.00000  -0.01615  -0.01615   1.91486
   R19        1.93392  -0.00054   0.00000  -0.00016  -0.00016   1.93375
   R20        2.72165   0.01523   0.00000   0.00475   0.00475   2.72641
   R21        2.05578   0.00168   0.00000   0.00054   0.00054   2.05632
   R22        2.06222  -0.00089   0.00000  -0.00029  -0.00029   2.06193
   R23        2.06237  -0.00083   0.00000  -0.00027  -0.00027   2.06210
    A1        2.11071  -0.07767   0.00000  -0.02627  -0.02619   2.08451
    A2        2.13250   0.39653   0.00000   0.14068   0.14064   2.27314
    A3        2.03794  -0.31833   0.00000  -0.11418  -0.11419   1.92375
    A4        2.14342   0.35659   0.00000   0.12635   0.12613   2.26955
    A5        2.07119  -0.05955   0.00000  -0.01994  -0.01987   2.05131
    A6        2.06660  -0.29957   0.00000  -0.10759  -0.10757   1.95903
    A7        2.16340  -0.11023   0.00000  -0.03925  -0.03926   2.12414
    A8        1.96304   0.22234   0.00000   0.07924   0.07922   2.04226
    A9        2.15604  -0.11137   0.00000  -0.03965  -0.03966   2.11637
   A10        2.08074  -0.03586   0.00000  -0.01304  -0.01304   2.06771
   A11        2.10474   0.07060   0.00000   0.02564   0.02561   2.13034
   A12        2.09751  -0.03495   0.00000  -0.01270  -0.01268   2.08483
   A13        2.09639  -0.00523   0.00000  -0.00378  -0.00390   2.09249
   A14        2.08707   0.00252   0.00000   0.00186   0.00191   2.08898
   A15        2.09972   0.00271   0.00000   0.00193   0.00198   2.10170
   A16        2.10259   0.00149   0.00000   0.00146   0.00151   2.10410
   A17        2.09539  -0.00301   0.00000  -0.00295  -0.00304   2.09235
   A18        2.08513   0.00151   0.00000   0.00148   0.00152   2.08665
   A19        2.08772   0.07472   0.00000   0.02724   0.02724   2.11496
   A20        2.09347  -0.03731   0.00000  -0.01360  -0.01361   2.07986
   A21        2.10187  -0.03758   0.00000  -0.01372  -0.01372   2.08815
   A22        1.86938  -0.04430   0.00000  -0.01353  -0.01495   1.85443
   A23        1.87697  -0.06927   0.00000  -0.02648  -0.02554   1.85143
   A24        1.91822   0.23126   0.00000   0.08362   0.08355   2.00177
   A25        2.07324   0.01993   0.00000   0.00451   0.00410   2.07734
   A26        1.84874   0.01897   0.00000   0.01070   0.00992   1.85866
   A27        1.87471  -0.12652   0.00000  -0.04778  -0.04704   1.82767
   A28        1.94478   0.03422   0.00000   0.01353   0.01351   1.95829
   A29        1.93011  -0.00195   0.00000  -0.00059  -0.00060   1.92950
   A30        1.94517  -0.00876   0.00000  -0.00312  -0.00315   1.94202
   A31        2.02542  -0.02632   0.00000  -0.00938  -0.00938   2.01605
   A32        1.83756   0.00389   0.00000   0.00152   0.00152   1.83908
   A33        1.91502  -0.00053   0.00000  -0.00021  -0.00021   1.91481
   A34        1.91555  -0.00182   0.00000  -0.00071  -0.00071   1.91484
   A35        1.93300  -0.00170   0.00000  -0.00067  -0.00067   1.93233
   A36        1.93351  -0.00087   0.00000  -0.00033  -0.00033   1.93317
   A37        1.92724   0.00109   0.00000   0.00042   0.00042   1.92766
    D1        3.05970  -0.08536   0.00000  -0.03832  -0.03942   3.02028
    D2       -0.01323  -0.02898   0.00000  -0.01337  -0.01338  -0.02661
    D3       -0.15265  -0.08898   0.00000  -0.03898  -0.03962  -0.19227
    D4        3.05761  -0.03259   0.00000  -0.01403  -0.01358   3.04403
    D5       -0.00545   0.02782   0.00000   0.01267   0.01259   0.00715
    D6        3.11943   0.01612   0.00000   0.00689   0.00692   3.12635
    D7       -3.07997   0.00369   0.00000   0.00348   0.00323  -3.07674
    D8        0.04490  -0.00800   0.00000  -0.00230  -0.00244   0.04246
    D9        1.22858  -0.01359   0.00000  -0.00945  -0.00951   1.21907
   D10       -2.80773  -0.06281   0.00000  -0.02989  -0.02959  -2.83733
   D11       -0.77212  -0.12871   0.00000  -0.05695  -0.05705  -0.82917
   D12       -1.98099  -0.00929   0.00000  -0.00724  -0.00739  -1.98837
   D13        0.26588  -0.05852   0.00000  -0.02767  -0.02747   0.23842
   D14        2.30150  -0.12442   0.00000  -0.05473  -0.05493   2.24657
   D15       -2.74817   0.02347   0.00000   0.01069   0.01098  -2.73719
   D16        0.43250   0.00430   0.00000   0.00183   0.00213   0.43462
   D17        0.32493  -0.02389   0.00000  -0.01095  -0.01125   0.31368
   D18       -2.77759  -0.04306   0.00000  -0.01981  -0.02010  -2.79769
   D19       -3.14143  -0.00001   0.00000  -0.00041   0.00020  -3.14124
   D20        0.02129   0.01161   0.00000   0.00533   0.00583   0.02712
   D21        0.06576   0.02811   0.00000   0.01424   0.01290   0.07866
   D22       -3.05469   0.03973   0.00000   0.01999   0.01853  -3.03617
   D23        3.07977   0.01440   0.00000   0.00662   0.00662   3.08640
   D24       -0.02294  -0.00465   0.00000  -0.00219  -0.00219  -0.02512
   D25       -0.01075   0.00753   0.00000   0.00362   0.00327  -0.00749
   D26        3.13093  -0.00367   0.00000  -0.00173  -0.00188   3.12905
   D27       -3.13101   0.01925   0.00000   0.00942   0.00895  -3.12206
   D28        0.01068   0.00805   0.00000   0.00407   0.00380   0.01448
   D29       -3.13712  -0.00876   0.00000  -0.00398  -0.00393  -3.14104
   D30       -0.00833  -0.01027   0.00000  -0.00486  -0.00490  -0.01324
   D31        0.00438   0.00252   0.00000   0.00141   0.00126   0.00564
   D32        3.13317   0.00102   0.00000   0.00054   0.00028   3.13345
   D33        0.01631  -0.00729   0.00000  -0.00322  -0.00312   0.01318
   D34       -3.10848   0.00445   0.00000   0.00258   0.00257  -3.10592
   D35       -3.13796  -0.00878   0.00000  -0.00409  -0.00409   3.14113
   D36        0.02043   0.00296   0.00000   0.00171   0.00160   0.02203
   D37        1.16751   0.04092   0.00000   0.01800   0.01889   1.18640
   D38       -1.00621   0.02887   0.00000   0.01266   0.01353  -0.99268
   D39       -0.84631  -0.03019   0.00000  -0.01268  -0.01312  -0.85943
   D40       -3.02002  -0.04224   0.00000  -0.01802  -0.01848  -3.03851
   D41       -3.07864   0.01059   0.00000   0.00418   0.00376  -3.07488
   D42        1.03083  -0.00147   0.00000  -0.00117  -0.00160   1.02923
   D43       -3.13407  -0.00001   0.00000  -0.00000   0.00000  -3.13407
   D44        1.06831   0.00007   0.00000   0.00004   0.00004   1.06834
   D45       -1.05239   0.00023   0.00000   0.00010   0.00010  -1.05229
         Item               Value     Threshold  Converged?
 Maximum Force            0.396530     0.000450     NO 
 RMS     Force            0.086745     0.000300     NO 
 Maximum Displacement     1.138337     0.001800     NO 
 RMS     Displacement     0.342615     0.001200     NO 
 Predicted change in Energy=-2.735474D-01
 GradGradGradGradGradGradGradGradGradGradGradGradGradGradGradGradGradGrad

                          Input orientation:                          
 ---------------------------------------------------------------------
 Center     Atomic      Atomic             Coordinates (Angstroms)
 Number     Number       Type             X           Y           Z
 ---------------------------------------------------------------------
      1          6           0       -1.122608    0.704764   -0.775968
      2          6           0       -2.386589    0.620235   -1.453099
      3          6           0       -3.756144    0.299812   -0.912706
      4          6           0       -2.383947    0.750068   -2.845344
      5          1           0       -3.330515    0.688965   -3.372371
      6          6           0       -1.208779    0.922175   -3.568320
      7          6           0        0.003936    0.977932   -2.908240
      8          1           0        0.927654    1.112447   -3.461716
      9          6           0        0.043422    0.877471   -1.520647
     10          1           0        0.993812    0.955063   -1.004094
     11         16           0       -0.742619    0.720537    0.994952
     12          8           0       -1.036484   -0.625581    1.488941
     13          8           0        0.620480    1.237540    1.112183
     14          7           0       -1.660131    1.755428    1.885460
     15          1           0       -2.629461    1.463980    1.932718
     16          1           0       -1.576574    2.709851    1.525968
     17          8           0       -4.640030   -0.135222   -1.627339
     18          8           0       -3.967128    0.543697    0.360371
     19          6           0       -5.308875    0.292072    0.827204
     20          1           0       -1.250345    1.007173   -4.649333
     21          1           0       -5.300263    0.552409    1.883728
     22          1           0       -5.554016   -0.762471    0.691552
     23          1           0       -6.013038    0.920627    0.279644
 ---------------------------------------------------------------------
                    Distance matrix (angstroms):
                    1          2          3          4          5
     1  C    0.000000
     2  C    1.436420   0.000000
     3  C    2.667995   1.506777   0.000000
     4  C    2.423912   1.398288   2.412622   0.000000
     5  H    3.408286   2.139936   2.526372   1.085119   0.000000
     6  C    2.802128   2.439787   3.732116   1.390444   2.143489
     7  C    2.426995   2.821346   4.310476   2.399555   3.378977
     8  H    3.403384   3.906536   5.394052   3.387910   4.280108
     9  C    1.394274   2.444522   3.891013   2.768244   3.853294
    10  H    2.143344   3.426489   4.795809   3.852464   4.937545
    11  S    1.811297   2.950535   3.591309   4.176447   5.076585
    12  O    2.628126   3.468493   3.744437   4.742794   5.533802
    13  O    2.624370   4.000525   4.912671   4.992618   6.001877
    14  N    2.911361   3.600331   3.787059   4.890314   5.618925
    15  H    3.191237   3.497806   3.274314   4.837336   5.407041
    16  H    3.086320   3.727930   4.062751   4.858083   5.581578
    17  O    3.715195   2.383080   1.217050   2.712413   2.332220
    18  O    3.067329   2.406789   1.313285   3.581293   3.789425
    19  C    4.501701   3.721187   2.332020   4.717263   4.659170
    20  H    3.887252   3.414188   4.554314   2.146051   2.461503
    21  H    4.954795   4.430408   3.204395   5.559504   5.614724
    22  H    4.893238   4.067432   2.633332   4.984651   4.854493
    23  H    5.007716   4.030356   2.626915   4.792175   4.537269
                    6          7          8          9         10
     6  C    0.000000
     7  C    1.381844   0.000000
     8  H    2.147537   1.085212   0.000000
     9  C    2.400619   1.391785   2.145887   0.000000
    10  H    3.380494   2.146194   2.463545   1.084476   0.000000
    11  S    4.591450   3.982274   4.775489   2.640214   2.658266
    12  O    5.291608   4.794677   5.602462   3.533126   3.582703
    13  O    5.035152   4.075700   4.585909   2.719272   2.167441
    14  N    5.535498   5.133535   5.975144   3.908256   4.004188
    15  H    5.707302   5.532259   6.471210   4.406135   4.691691
    16  H    5.411361   5.015950   5.805158   3.906900   4.010908
    17  O    4.081541   4.944314   5.993390   4.792876   5.772117
    18  O    4.815220   5.161562   6.236242   4.442313   5.161580
    19  C    6.043876   6.530689   7.613288   5.873856   6.596747
    20  H    1.085146   2.146038   2.482981   3.388116   4.280972
    21  H    6.826550   7.160904   8.226443   6.344321   6.936644
    22  H    6.313923   6.846776   7.923194   6.238153   6.978481
    23  H    6.155301   6.809542   7.887191   6.318514   7.123561
                   11         12         13         14         15
    11  S    0.000000
    12  O    1.463699   0.000000
    13  O    1.462557   2.521645   0.000000
    14  N    1.644941   2.493063   2.463199   0.000000
    15  H    2.234342   2.664728   3.359563   1.013300   0.000000
    16  H    2.221448   3.379079   2.676932   1.023299   1.681134
    17  O    4.774783   4.789279   6.087891   4.979369   4.390198
    18  O    3.291113   3.351053   4.700296   3.019342   2.260210
    19  C    4.589381   4.419650   6.011020   4.071198   3.126466
    20  H    5.674319   6.355315   6.062023   6.590245   6.740477
    21  H    4.646537   4.441095   6.009981   3.833774   2.822507
    22  H    5.043898   4.589408   6.503951   4.788275   3.879510
    23  H    5.322501   5.349696   6.693064   4.714163   3.804796
                   16         17         18         19         20
    16  H    0.000000
    17  O    5.236655   0.000000
    18  O    3.430100   2.205611   0.000000
    19  C    4.501555   2.579674   1.442752   0.000000
    20  H    6.414038   4.682679   5.717766   6.853867   0.000000
    21  H    4.318380   3.638177   2.024337   1.088160   7.699969
    22  H    5.345402   2.570227   2.081819   1.091126   7.083663
    23  H    4.943365   2.576151   2.081908   1.091214   6.854601
                   21         22         23
    21  H    0.000000
    22  H    1.792926   0.000000
    23  H    1.793521   1.792537   0.000000
 Stoichiometry    C8H9NO4S
 Framework group  C1[X(C8H9NO4S)]
 Deg. of freedom    63
 Full point group                 C1      NOp   1
 Largest Abelian subgroup         C1      NOp   1
 Largest concise Abelian subgroup C1      NOp   1
                         Standard orientation:                         
 ---------------------------------------------------------------------
 Center     Atomic      Atomic             Coordinates (Angstroms)
 Number     Number       Type             X           Y           Z
 ---------------------------------------------------------------------
      1          6           0       -0.828112    0.319029    0.066320
      2          6           0        0.388718    1.075440   -0.035998
      3          6           0        1.822055    0.626449    0.083698
      4          6           0        0.277998    2.463015   -0.168611
      5          1           0        1.187658    3.049344   -0.247476
      6          6           0       -0.953634    3.108316   -0.170420
      7          6           0       -2.116771    2.372512   -0.047145
      8          1           0       -3.083811    2.864974   -0.047760
      9          6           0       -2.052201    0.986557    0.062518
     10          1           0       -2.968694    0.410233    0.125590
     11         16           0       -1.091994   -1.472367    0.111732
     12          8           0       -0.575156   -1.929936    1.402438
     13          8           0       -2.505251   -1.681703   -0.201247
     14          7           0       -0.278863   -2.316228   -1.042629
     15          1           0        0.723476   -2.298674   -0.895030
     16          1           0       -0.522681   -1.974716   -1.975937
     17          8           0        2.711959    1.400741    0.383290
     18          8           0        2.076705   -0.633769   -0.184110
     19          6           0        3.467902   -1.011966   -0.128678
     20          1           0       -0.994246    4.188649   -0.264086
     21          1           0        3.489455   -2.070117   -0.381548
     22          1           0        3.854006   -0.847922    0.878580
     23          1           0        4.036997   -0.429069   -0.854701
 ---------------------------------------------------------------------
 Rotational constants (GHZ):           0.7341945           0.6544709           0.3759823
 Basis read from rwf:  (6D, 7F)
 There are   288 symmetry adapted cartesian basis functions of A   symmetry.
 There are   288 symmetry adapted basis functions of A   symmetry.
   288 basis functions,   508 primitive gaussians,   288 cartesian basis functions
    56 alpha electrons       56 beta electrons
       nuclear repulsion energy      1063.5316018506 Hartrees.
 NAtoms=   23 NActive=   23 NUniq=   23 SFac= 1.00D+00 NAtFMM=   60 NAOKFM=F Big=F
 Integral buffers will be    131072 words long.
 Raffenetti 2 integral format.
 Two-electron integral symmetry is turned on.
 ------------------------------------------------------------------------------
 Polarizable Continuum Model (PCM)
 =================================
 Model                : PCM.
 Atomic radii         : SMD-Coulomb.
 Polarization charges : Total charges.
 Charge compensation  : None.
 Solution method      : On-the-fly selection.
 Cavity type          : VdW (van der Waals Surface) (Alpha=1.000).
 Cavity algorithm     : GePol (No added spheres)
                        Default sphere list used, NSphG=   23.
                        Lebedev-Laikov grids with approx.  5.0 points / Ang**2.
                        Smoothing algorithm: York/Karplus (Gamma=1.0000).
                        Polarization charges: spherical gaussians, with
                                              point-specific exponents (IZeta= 3).
                        Self-potential: point-specific (ISelfS= 7).
                        Self-field    : sphere-specific E.n sum rule (ISelfD= 2).
 1st derivatives      : Analytical E(r).r(x)/FMM algorithm (CHGder, D1EAlg=3).
                        Cavity 1st derivative terms included.
 Solvent              : Water, Eps=  78.355300 Eps(inf)=   1.777849
 ------------------------------------------------------------------------------
 ------------------------------------------------------------------------------
 Atomic radii for non-electrostatic terms: SMD-CDS.
 ------------------------------------------------------------------------------
 Nuclear repulsion after PCM non-electrostatic terms =     1063.5412021810 Hartrees.
 One-electron integrals computed using PRISM.
 NBasis=   288 RedAO= T EigKep=  2.21D-06  NBF=   288
 NBsUse=   287 1.00D-06 EigRej=  9.86D-07 NBFU=   287
 Initial guess from the checkpoint file:  "/jobfs/40912865.gadi-pbs/Gau-1159940.chk"
 B after Tr=     0.000000   -0.000000    0.000000
         Rot=    0.903929    0.005203    0.000820    0.427651 Ang=  50.64 deg.
 ExpMin= 4.05D-02 ExpMax= 2.19D+04 ExpMxC= 3.30D+03 IAcc=3 IRadAn=         5 AccDes= 0.00D+00
 Harris functional with IExCor= 1009 and IRadAn=       5 diagonalized for initial guess.
 HarFok:  IExCor= 1009 AccDes= 0.00D+00 IRadAn=         5 IDoV= 1 UseB2=F ITyADJ=14
 ICtDFT=  3500011 ScaDFX=  1.000000  1.000000  1.000000  1.000000
 FoFCou: FMM=F IPFlag=           0 FMFlag=      100000 FMFlg1=           0
         NFxFlg=           0 DoJE=T BraDBF=F KetDBF=T FulRan=T
         wScrn=  0.000000 ICntrl=       500 IOpCl=  0 I1Cent=   200000004 NGrid=           0
         NMat0=    1 NMatS0=      1 NMatT0=    0 NMatD0=    1 NMtDS0=    0 NMtDT0=    0
 Petite list used in FoFCou.
 Requested convergence on RMS density matrix=1.00D-08 within 128 cycles.
 Requested convergence on MAX density matrix=1.00D-06.
 Requested convergence on             energy=1.00D-06.
 No special actions if energy rises.
 Inv3:  Mode=1 IEnd=     9473187.
 Iteration    1 A*A^-1 deviation from unit magnitude is 3.55D-15 for   1763.
 Iteration    1 A*A^-1 deviation from orthogonality  is 2.82D-15 for   1765   1705.
 Iteration    1 A^-1*A deviation from unit magnitude is 3.44D-15 for   1763.
 Iteration    1 A^-1*A deviation from orthogonality  is 2.33D-13 for    797    794.
 Error on total polarization charges =  0.04819
 SCF Done:  E(RM062X) =  -1063.77707600     A.U. after   15 cycles
            NFock= 15  Conv=0.79D-08     -V/T= 2.0067
 SMD-CDS (non-electrostatic) energy       (kcal/mol) =       6.02
 (included in total energy above)
 D1PCM: PCM CHGder 1st derivatives, ID1Alg=3 FixD1E=F DoIter=F DoCFld=F I1PDM=0.
 Calling FoFJK, ICntrl=      2127 FMM=F ISym2X=0 I1Cent= 0 IOpClX= 0 NMat=1 NMatS=1 NMatT=0.
 ***** Axes restored to original set *****
 -------------------------------------------------------------------
 Center     Atomic                   Forces (Hartrees/Bohr)
 Number     Number              X              Y              Z
 -------------------------------------------------------------------
      1        6          -0.009547980    0.013089481   -0.008990164
      2        6           0.010298021   -0.004214163    0.006674626
      3        6          -0.000051302    0.000436685   -0.005609119
      4        6           0.000715446   -0.002956854    0.001779357
      5        1           0.000488222   -0.000173336    0.001157772
      6        6          -0.001146254    0.001770365   -0.003871130
      7        6           0.003419111   -0.001202343   -0.001746180
      8        1           0.000299650   -0.000417912    0.000342891
      9        6          -0.000678613    0.001121389    0.000523817
     10        1          -0.000976972    0.000011252   -0.002232781
     11       16          -0.005822866   -0.009947426    0.003066680
     12        8          -0.001490668   -0.002017565    0.003223228
     13        8          -0.001193719   -0.001157327    0.001539305
     14        7           0.005514758    0.003379594   -0.008456178
     15        1          -0.008085065   -0.002065938   -0.001785665
     16        1          -0.001352523    0.000935520    0.002755378
     17        8           0.000477827   -0.001806986   -0.005679242
     18        8           0.007258326    0.004832850    0.014278611
     19        6           0.000939482   -0.000761840    0.003037056
     20        1          -0.000434633    0.000656150   -0.000052425
     21        1           0.000626158    0.000171789   -0.000029175
     22        1           0.000145950    0.000312954    0.000093393
     23        1           0.000597646    0.000003662   -0.000020054
 -------------------------------------------------------------------
 Cartesian Forces:  Max     0.014278611 RMS     0.004323381

 GradGradGradGradGradGradGradGradGradGradGradGradGradGradGradGradGradGrad
 Berny optimization.
 Using GEDIIS/GDIIS optimizer.
 FormGI is forming the generalized inverse of G from B-inverse, IUseBI=4.
 Internal  Forces:  Max     0.037886749 RMS     0.008298290
 Search for a local minimum.
 Step number   2 out of a maximum of  115
 All quantities printed in internal units (Hartrees-Bohrs-Radians)
 Mixed Optimization -- RFO/linear search
 Update second derivatives using D2CorX and points    1    2
 DE= -6.63D-02 DEPred=-2.74D-01 R= 2.42D-01
 Trust test= 2.42D-01 RLast= 3.22D-01 DXMaxT set to 3.00D-01
 ITU=  0  0
 Use linear search instead of GDIIS.
     Eigenvalues ---    0.00471   0.00830   0.01160   0.01440   0.01447
     Eigenvalues ---    0.01723   0.02012   0.02144   0.02158   0.02169
     Eigenvalues ---    0.02174   0.02185   0.02192   0.02202   0.02678
     Eigenvalues ---    0.04673   0.08525   0.10261   0.10274   0.10713
     Eigenvalues ---    0.15596   0.15995   0.15996   0.15999   0.15999
     Eigenvalues ---    0.16000   0.16000   0.16000   0.16000   0.16012
     Eigenvalues ---    0.20744   0.21999   0.22555   0.24400   0.24931
     Eigenvalues ---    0.24981   0.24993   0.24999   0.25000   0.26558
     Eigenvalues ---    0.32818   0.34656   0.34665   0.35060   0.35372
     Eigenvalues ---    0.35378   0.35390   0.35461   0.39537   0.40488
     Eigenvalues ---    0.42285   0.43281   0.43802   0.43981   0.45584
     Eigenvalues ---    0.46425   0.46804   0.47186   0.60059   0.90370
     Eigenvalues ---    0.90620   0.96103   3.02523
 RFO step:  Lambda=-3.52827001D-03 EMin= 4.70574952D-03
 Quartic linear search produced a step of -0.33150.
 Iteration  1 RMS(Cart)=  0.14165756 RMS(Int)=  0.00711708
 Iteration  2 RMS(Cart)=  0.01004653 RMS(Int)=  0.00034230
 Iteration  3 RMS(Cart)=  0.00004715 RMS(Int)=  0.00034113
 Iteration  4 RMS(Cart)=  0.00000000 RMS(Int)=  0.00034113
 Variable       Old X    -DE/DX   Delta X   Delta X   Delta X     New X
                                 (Linear)    (Quad)   (Total)
    R1        2.71444  -0.02884  -0.01949   0.01713  -0.00223   2.71221
    R2        2.63480   0.00089  -0.00273   0.00910   0.00641   2.64121
    R3        3.42286  -0.00237  -0.01073   0.02573   0.01499   3.43785
    R4        2.84740  -0.00759  -0.00726   0.00693  -0.00033   2.84707
    R5        2.64238  -0.00230  -0.00233   0.00301   0.00076   2.64314
    R6        2.29989   0.00363   0.00080  -0.00018   0.00062   2.30051
    R7        2.48175   0.01613   0.00765  -0.00736   0.00029   2.48204
    R8        2.05058  -0.00098  -0.00004  -0.00172  -0.00176   2.04882
    R9        2.62756   0.00353   0.00288  -0.00326  -0.00042   2.62714
   R10        2.61131   0.00591   0.00512  -0.00607  -0.00108   2.61023
   R11        2.05063   0.00012   0.00001   0.00019   0.00020   2.05083
   R12        2.05075   0.00003   0.00000   0.00005   0.00005   2.05081
   R13        2.63009   0.00451   0.00256  -0.00049   0.00197   2.63207
   R14        2.04936  -0.00192  -0.00001  -0.00354  -0.00355   2.04581
   R15        2.76599   0.00324  -0.00046   0.00393   0.00347   2.76946
   R16        2.76383  -0.00140  -0.00012  -0.00064  -0.00076   2.76308
   R17        3.10849  -0.00043   0.00058  -0.00250  -0.00192   3.10657
   R18        1.91486   0.00825   0.00535  -0.00460   0.00076   1.91562
   R19        1.93375  -0.00020   0.00005  -0.00047  -0.00041   1.93334
   R20        2.72641  -0.00110  -0.00158   0.00310   0.00152   2.72793
   R21        2.05632   0.00002  -0.00018   0.00059   0.00041   2.05673
   R22        2.06193  -0.00035   0.00010  -0.00097  -0.00088   2.06105
   R23        2.06210  -0.00036   0.00009  -0.00097  -0.00088   2.06121
    A1        2.08451   0.00559   0.00868  -0.01478  -0.00614   2.07837
    A2        2.27314  -0.03789  -0.04662   0.03876  -0.00846   2.26468
    A3        1.92375   0.03235   0.03786  -0.02092   0.01634   1.94009
    A4        2.26955  -0.03113  -0.04181   0.04407   0.00136   2.27091
    A5        2.05131   0.00718   0.00659  -0.00408   0.00223   2.05355
    A6        1.95903   0.02399   0.03566  -0.03518  -0.00043   1.95860
    A7        2.12414   0.00613   0.01301  -0.02095  -0.00939   2.11475
    A8        2.04226  -0.02301  -0.02626   0.01645  -0.01130   2.03097
    A9        2.11637   0.01695   0.01315   0.00727   0.01891   2.13528
   A10        2.06771   0.00110   0.00432  -0.00934  -0.00525   2.06245
   A11        2.13034  -0.00380  -0.00849   0.01229   0.00394   2.13429
   A12        2.08483   0.00271   0.00420  -0.00235   0.00162   2.08645
   A13        2.09249  -0.00260   0.00129  -0.00500  -0.00368   2.08881
   A14        2.08898   0.00093  -0.00063   0.00096   0.00031   2.08929
   A15        2.10170   0.00167  -0.00066   0.00405   0.00338   2.10509
   A16        2.10410   0.00132  -0.00050   0.00234   0.00186   2.10596
   A17        2.09235  -0.00170   0.00101  -0.00079   0.00020   2.09255
   A18        2.08665   0.00037  -0.00050  -0.00157  -0.00206   2.08459
   A19        2.11496  -0.00466  -0.00903   0.01251   0.00353   2.11850
   A20        2.07986   0.00387   0.00451   0.00026   0.00461   2.08448
   A21        2.08815   0.00080   0.00455  -0.01233  -0.00794   2.08021
   A22        1.85443   0.00655   0.00496  -0.00493   0.00039   1.85482
   A23        1.85143   0.00759   0.00847   0.00561   0.01366   1.86509
   A24        2.00177  -0.02161  -0.02770   0.01530  -0.01240   1.98937
   A25        2.07734  -0.00236  -0.00136   0.01550   0.01417   2.09152
   A26        1.85866   0.00263  -0.00329  -0.00148  -0.00454   1.85412
   A27        1.82767   0.00469   0.01559  -0.02800  -0.01261   1.81506
   A28        1.95829  -0.00262  -0.00448  -0.00017  -0.00464   1.95365
   A29        1.92950   0.00515   0.00020   0.01962   0.01983   1.94933
   A30        1.94202  -0.00147   0.00104  -0.01032  -0.00926   1.93277
   A31        2.01605   0.01004   0.00311   0.01745   0.02056   2.03660
   A32        1.83908  -0.00095  -0.00050  -0.00281  -0.00331   1.83577
   A33        1.91481   0.00027   0.00007   0.00113   0.00119   1.91601
   A34        1.91484  -0.00057   0.00024  -0.00292  -0.00269   1.91215
   A35        1.93233   0.00035   0.00022   0.00086   0.00108   1.93341
   A36        1.93317   0.00045   0.00011   0.00112   0.00122   1.93440
   A37        1.92766   0.00039  -0.00014   0.00235   0.00221   1.92987
    D1        3.02028   0.00239   0.01307   0.07757   0.09111   3.11139
    D2       -0.02661   0.00027   0.00444   0.01068   0.01515  -0.01146
    D3       -0.19227   0.00500   0.01313   0.13738   0.15045  -0.04182
    D4        3.04403   0.00288   0.00450   0.07049   0.07448   3.11851
    D5        0.00715  -0.00031  -0.00417  -0.00989  -0.01403  -0.00688
    D6        3.12635  -0.00010  -0.00229   0.01291   0.01078   3.13713
    D7       -3.07674   0.00011  -0.00107  -0.06084  -0.06215  -3.13889
    D8        0.04246   0.00033   0.00081  -0.03805  -0.03735   0.00511
    D9        1.21907  -0.00471   0.00315   0.10109   0.10412   1.32319
   D10       -2.83733   0.00080   0.00981   0.12003   0.12972  -2.70760
   D11       -0.82917  -0.00011   0.01891   0.09755   0.11637  -0.71280
   D12       -1.98837  -0.00287   0.00245   0.15654   0.15908  -1.82929
   D13        0.23842   0.00264   0.00911   0.17548   0.18468   0.42310
   D14        2.24657   0.00173   0.01821   0.15300   0.17133   2.41790
   D15       -2.73719  -0.00030  -0.00364  -0.03320  -0.03728  -2.77447
   D16        0.43462  -0.00356  -0.00071  -0.13642  -0.13692   0.29770
   D17        0.31368   0.00118   0.00373   0.03198   0.03551   0.34920
   D18       -2.79769  -0.00208   0.00666  -0.07124  -0.06413  -2.86182
   D19       -3.14124  -0.00027  -0.00007   0.01367   0.01330  -3.12793
   D20        0.02712  -0.00063  -0.00193  -0.01225  -0.01447   0.01266
   D21        0.07866   0.00080  -0.00428  -0.04562  -0.04952   0.02914
   D22       -3.03617   0.00044  -0.00614  -0.07154  -0.07729  -3.11346
   D23        3.08640   0.00302  -0.00219   0.08282   0.08117  -3.11562
   D24       -0.02512  -0.00003   0.00072  -0.01939  -0.01921  -0.04433
   D25       -0.00749   0.00093  -0.00108   0.01325   0.01230   0.00481
   D26        3.12905   0.00057   0.00062   0.01500   0.01573  -3.13840
   D27       -3.12206   0.00059  -0.00297  -0.01282  -0.01574  -3.13780
   D28        0.01448   0.00023  -0.00126  -0.01107  -0.01231   0.00217
   D29       -3.14104  -0.00044   0.00130  -0.01089  -0.00957   3.13257
   D30       -0.01324  -0.00069   0.00163  -0.01202  -0.01031  -0.02355
   D31        0.00564  -0.00007  -0.00042  -0.01265  -0.01303  -0.00739
   D32        3.13345  -0.00032  -0.00009  -0.01377  -0.01377   3.11968
   D33        0.01318   0.00049   0.00104   0.01059   0.01157   0.02476
   D34       -3.10592   0.00023  -0.00085  -0.01248  -0.01333  -3.11925
   D35        3.14113   0.00025   0.00136   0.00951   0.01087  -3.13118
   D36        0.02203  -0.00001  -0.00053  -0.01356  -0.01403   0.00800
   D37        1.18640  -0.00198  -0.00626  -0.02166  -0.02824   1.15816
   D38       -0.99268  -0.00202  -0.00449  -0.02290  -0.02769  -1.02037
   D39       -0.85943   0.00045   0.00435  -0.02328  -0.01880  -0.87823
   D40       -3.03851   0.00041   0.00613  -0.02451  -0.01826  -3.05676
   D41       -3.07488  -0.00088  -0.00125  -0.02484  -0.02590  -3.10078
   D42        1.02923  -0.00092   0.00053  -0.02608  -0.02536   1.00387
   D43       -3.13407   0.00013  -0.00000   0.00172   0.00172  -3.13235
[...]
 0004600,-0.00006713,-0.00027608,0.00046994,0.00063034,-0.00031782,-0.0
 0001998,0.00010805,-0.00030276,-0.00138104,-0.00052239,-0.00264300,-0.
 00018615,-0.00034822,0.00011225,0.03888742,-0.16498922,-0.07967804,0.0
 0275090,-0.03624483,-0.01770171,0.00631642,-0.00080068,-0.00598301,0.0
 6352564,0.58154466,0.01082476,-0.02068957,-0.00526591,0.00216312,0.000
 00218,-0.00017335,0.00329628,0.00090311,-0.00092393,0.00002620,0.00190
 897,-0.00152569,-0.00009794,0.00014413,-0.00038577,-0.00074736,-0.0002
 4238,-0.00091943,0.00002750,0.00230948,-0.00010405,0.00004685,0.000147
 44,-0.00055267,-0.00325682,-0.00197950,-0.00346798,0.00023814,-0.00091
 731,-0.00009865,0.02166438,-0.05017251,-0.09168299,0.00130869,0.005671
 75,0.00701694,-0.00735256,0.00431603,0.00788896,0.03010403,0.02782972,
 0.14964875,0.00139472,-0.00163269,-0.00006097,0.00024137,0.00024434,0.
 00018334,0.00219128,-0.00202384,-0.00272194,-0.00011364,0.00015386,-0.
 00011906,-0.00001477,0.00001622,-0.00005894,-0.00001863,-0.00001469,-0
 .00015934,-0.00003501,0.00023938,-0.00006496,0.00000434,0.00002374,-0.
 00008533,-0.00044951,-0.00019238,-0.00049056,-0.00002562,-0.00010748,0
 .00001045,-0.01254678,0.01202367,0.00168916,-0.00018959,-0.00285334,-0
 .00004919,0.00300766,-0.00067306,-0.00051155,-0.39287911,0.05284659,-0
 .08433645,0.42008271,-0.00088246,-0.00003303,-0.00005089,0.00007718,0.
 00006990,-0.00029194,0.00100285,-0.00298616,-0.00307687,-0.00015132,-0
 .00011206,-0.00006710,0.00000513,0.00000526,0.00000331,-0.00001033,0.0
 0001568,0.00005975,-0.00005067,-0.00008300,0.00005356,-0.00000312,-0.0
 0001257,0.00001712,0.00002422,0.00015065,0.00010867,-0.00004594,-0.000
 03289,0.00003117,0.02684684,-0.00235323,0.01123929,-0.00309275,0.00100
 888,-0.00072279,0.00579986,-0.00366726,-0.00372406,0.06612150,-0.07263
 156,0.00419545,-0.06429973,0.06830185,-0.00167101,0.00009706,-0.000363
 66,0.00005168,0.00002168,-0.00038948,0.00081664,-0.00266000,-0.0031675
 5,-0.00022611,-0.00002430,-0.00014606,0.00001461,0.00002238,0.00000037
 ,-0.00006703,-0.00011871,0.00011502,-0.00002733,-0.00012979,0.00014909
 ,-0.00000513,-0.00001436,0.00004234,0.00021051,0.00020678,0.00031913,-
 0.00001510,0.00003071,0.00008702,0.02258262,-0.00775863,-0.00126439,-0
 .00076871,0.00138983,-0.00107090,0.00471610,-0.00476243,0.00147793,-0.
 12244072,0.01527393,-0.03949218,0.09105489,-0.00518066,0.04280293,-0.0
 0063466,0.00034849,0.00005406,-0.00022293,-0.00011787,-0.00008296,-0.0
 0055200,0.00032894,0.00037840,-0.00001913,-0.00004168,0.00007441,0.000
 00321,-0.00000204,0.00003132,0.00006494,0.00002920,0.00007987,-0.00005
 722,-0.00007405,-0.00004631,-0.00000285,-0.00000409,0.00004711,0.00025
 585,0.00003451,0.00029774,-0.00002429,-0.00000995,-0.00004994,0.010910
 80,0.00857360,-0.00456716,0.00108558,0.00744004,0.00237014,-0.00191821
 ,-0.00025596,0.00021459,-0.17845158,-0.16577283,0.03148948,-0.01175639
 ,-0.02986299,0.00700565,0.18140740,0.00035334,0.00164961,0.00044652,-0
 .00024194,-0.00003667,-0.00006929,-0.00028201,-0.00049692,-0.00027221,
 -0.00005953,-0.00015350,0.00028023,0.00000857,-0.00001795,0.00005141,0
 .00021763,0.00007301,0.00014708,0.00001548,-0.00015868,-0.00014179,-0.
 00001830,-0.00000933,0.00004094,0.00016532,0.00008880,0.00013390,0.000
 04736,0.00006190,-0.00005334,-0.01297724,-0.02601306,0.00511135,0.0009
 1084,-0.00286368,-0.00248002,-0.00093371,0.00439285,-0.00017648,-0.173
 85725,-0.30771640,0.03018881,0.00595937,0.01007037,0.00017169,0.180001
 21,0.32030369,0.00127684,0.00133907,-0.00000895,-0.00028657,0.00011097
 ,-0.00004536,-0.00037295,0.00011020,0.00047516,-0.00003542,-0.00018435
 ,0.00026509,0.00000491,-0.00002376,0.00002891,0.00021978,0.00004889,0.
 00011206,0.00012233,-0.00001420,-0.00016720,-0.00002707,0.00001086,-0.
 00000833,-0.00001564,0.00008772,-0.00016717,0.00006955,0.00003985,0.00
 002402,-0.00687236,-0.02283431,-0.00590939,0.00028759,-0.00419277,0.00
 236121,-0.00160727,0.00180997,-0.00086549,0.04919247,0.06532969,-0.018
 69654,-0.00537963,-0.00701904,-0.00201451,-0.03616407,-0.03432796,0.02
 536908,0.00131570,-0.00050188,0.00518841,-0.02557744,-0.04115370,-0.00
 840531,-0.30877114,-0.27396068,-0.09053611,-0.00349288,-0.00172452,-0.
 00258103,0.00048753,-0.00050322,0.00023578,0.00111319,0.00214592,0.000
 53803,-0.00184143,-0.00051937,-0.00195175,-0.00003678,-0.00029897,0.00
 000926,-0.00401384,0.00061409,0.00208725,-0.00059464,0.00004946,0.0004
 3974,0.00221506,-0.00195438,0.00608094,0.00000950,0.00113571,-0.001579
 37,-0.00158247,0.00025286,-0.00159748,0.00023301,-0.00082857,-0.002075
 32,0.00012349,0.00042930,0.00059367,0.00009297,0.00030324,0.00014400,0
 .31358562,-0.00013603,0.00057667,0.00573760,-0.03053232,-0.01015664,-0
 .00940548,-0.28263345,-0.42846490,-0.13263338,0.00004455,-0.00039436,-
 0.00392774,0.00052125,0.00010284,0.00029943,0.00034976,0.00038764,0.00
 036257,-0.00059192,-0.00001917,-0.00073961,-0.00005285,-0.00007389,0.0
 0006773,-0.00234360,-0.00054585,-0.00031496,-0.00040641,-0.00026704,0.
 00038636,0.00384279,-0.00218056,0.00367862,-0.00042678,0.00186125,-0.0
 0084924,-0.00162766,0.00037349,-0.00106469,-0.00082358,-0.00104834,-0.
 00158304,0.00141169,0.00172547,0.00173179,-0.00017366,0.00043523,-0.00
 001933,0.33369092,0.50609491,0.00176509,0.00161115,-0.00192880,0.00630
 889,0.00168362,0.01946751,-0.09732718,-0.14039899,-0.14205849,-0.00004
 773,0.00016842,-0.00200852,0.00066471,0.00031956,0.00047614,-0.0009611
 7,-0.00005031,0.00112876,0.00064270,0.00004586,0.00051785,0.00005812,-
 0.00003204,0.00001788,0.00097383,0.00029019,0.00051733,0.00019391,-0.0
 0006637,-0.00016951,0.00201135,-0.00014631,-0.00111174,-0.00118256,-0.
 00002168,-0.00010079,-0.00037100,-0.00001963,0.00022864,-0.00065837,-0
 .00018938,-0.00015887,0.00105430,0.00081276,0.00100197,-0.00012521,0.0
 0014306,-0.00006227,0.10979723,0.20964631,0.15390984,0.00146519,0.0007
 8685,0.00130051,-0.01197877,0.01915685,0.03699040,-0.12582167,0.015805
 12,0.06365909,-0.00634594,-0.00132674,-0.00103410,0.00005329,0.0007423
 2,0.00012974,0.00084267,-0.00131908,0.00161309,-0.00082023,-0.00004143
 ,-0.00012999,-0.00014298,0.00009385,0.00003227,-0.00058558,-0.00076359
 ,0.00070691,-0.00015275,-0.00012824,0.00010440,0.00435092,0.00131386,0
 .00225039,-0.00657166,0.00413690,-0.00389464,-0.00240282,-0.00024669,-
 0.00090370,-0.00167869,-0.00312326,-0.00337177,-0.00666097,-0.00001533
 ,-0.00154441,-0.00033858,0.00062880,-0.00056586,0.02839994,-0.01387877
 ,-0.01251862,0.34351223,-0.00090056,-0.00071815,0.00059621,-0.00163909
 ,0.00962508,-0.00192031,0.01237991,-0.14035998,-0.08092927,0.00048184,
 0.00067621,0.00108219,0.00000107,0.00007760,0.00013028,-0.00043303,-0.
 00082512,-0.00017170,0.00036462,0.00003591,0.00057996,0.00000499,0.000
 07074,0.00002854,0.00065544,-0.00006156,-0.00080619,0.00001804,-0.0000
 1235,0.00001056,0.00142007,-0.00457869,-0.00061068,0.00442331,-0.00025
 030,0.00176047,-0.00019562,0.00075222,0.00031289,-0.00257389,-0.000399
 69,-0.00166354,-0.00003155,0.00107942,0.00115314,-0.00049404,0.0004322
 1,-0.00027277,-0.02220285,-0.06644036,-0.07199769,0.05427663,0.2888909
 7,-0.00165019,-0.00163091,-0.00285277,0.02033629,-0.01668027,-0.022074
 44,0.06059822,-0.09048196,-0.19726557,0.00389951,0.00105912,0.00180070
 ,0.00004844,-0.00076431,-0.00004459,-0.00075327,0.00112429,-0.00074987
 ,0.00092964,-0.00006441,0.00080749,0.00014449,-0.00013084,0.00002263,0
 .00170435,0.00125731,-0.00076893,0.00023321,0.00026614,-0.00017816,0.0
 0446526,0.00054647,-0.00650931,-0.00621057,0.00213834,0.00010891,-0.00
 083020,-0.00010301,0.00132991,-0.00337336,-0.00231207,-0.00041420,-0.0
 0018390,0.00266806,0.00105181,-0.00094408,0.00068451,-0.00063352,-0.01
 812527,-0.07961349,-0.03239085,-0.16721209,0.14340226,0.38211778,0.000
 18485,-0.00031473,-0.00084229,0.00491721,-0.00263462,0.00086142,-0.016
 71859,0.02066744,0.03539872,-0.00003794,0.00059640,0.00040373,0.000058
 80,-0.00016768,-0.00006382,-0.00008721,0.00024998,0.00006619,0.0003680
 4,0.00008123,0.00009804,0.00003172,-0.00002325,-0.00003105,0.00028543,
 0.00025238,-0.00025710,0.00006316,0.00006707,-0.00005825,-0.00373213,0
 .00022470,-0.00070938,0.00237520,-0.00105448,0.00078283,0.00112388,-0.
 00006363,0.00027642,0.00036535,0.00074235,0.00043293,-0.00234290,-0.00
 217322,-0.00095289,0.00018039,-0.00031144,0.00005099,-0.00549495,-0.01
 131471,-0.01190088,-0.16077781,-0.03534135,0.05420017,0.51014798,-0.00
 043787,0.00009969,-0.00006453,-0.00100453,-0.00074890,-0.00521147,0.02
 211796,0.00976997,-0.01097631,0.00147273,0.00048006,-0.00039348,-0.000
 02475,-0.00006118,0.00002210,-0.00031120,0.00012306,-0.00043899,0.0000
 5850,-0.00001236,0.00007717,0.00002133,-0.00000049,-0.00000119,0.00012
 748,-0.00002184,-0.00000413,0.00002162,-0.00000201,-0.00002015,-0.0006
 8577,0.00012752,-0.00003255,0.00040557,-0.00031230,0.00034522,0.000284
 01,-0.00004468,0.00008906,0.00007596,0.00014749,0.00006177,-0.00161262
 ,-0.00071765,0.00037490,0.00005163,-0.00008639,-0.00000620,0.00327332,
 -0.00410246,-0.00230097,-0.05171360,-0.09329119,0.02184755,-0.03501580
 ,0.62416189,0.00016804,0.00027914,-0.00002905,0.00091953,-0.00333518,0
 .00210373,0.03395531,-0.00913956,-0.03960673,-0.00049358,-0.00014423,-
 0.00006190,0.00005167,-0.00006487,-0.00000558,0.00000203,0.00015665,0.
 00026476,-0.00006136,-0.00003594,0.00009791,-0.00000558,-0.00004816,0.
 00001951,0.00004620,0.00031826,-0.00004565,-0.00001617,-0.00000401,0.0
 0001442,0.00334889,-0.00057498,0.00060359,-0.00168341,0.00066496,-0.00
 080579,-0.00078833,0.00003222,-0.00012117,-0.00090926,-0.00063164,-0.0
 0089499,-0.00015568,0.00116777,0.00123278,-0.00009283,0.00018698,-0.00
 009039,0.00300198,0.01160507,0.00399428,0.04302069,0.00610532,-0.10114
 266,0.07307772,0.04201364,0.58386127,-0.00113369,-0.00024830,-0.000121
 83,-0.00353981,-0.00349035,0.00212488,0.00119468,0.00017438,0.00090015
 ,0.00435712,-0.00331726,0.02680275,0.00080342,0.00150319,-0.00052625,-
 0.05780431,-0.00385827,-0.00629627,0.00426001,0.00290338,-0.02705530,0
 .00083134,0.00137049,0.00087103,-0.00365355,-0.00300071,-0.00268954,0.
 00017106,0.00032361,-0.00119674,-0.00023517,0.00025016,0.00015944,0.00
 015098,0.00009252,-0.00006270,0.00010175,0.00002610,-0.00011355,-0.000
 00223,0.00002029,0.00007712,-0.00000802,-0.00002216,-0.00001763,0.0000
 0223,-0.00000232,-0.00000200,-0.00034045,-0.00020189,-0.00014360,-0.00
 056425,0.00007287,0.00038951,0.00005740,0.00011819,-0.00005433,0.05542
 546,-0.00022445,-0.00049495,-0.00004928,-0.00321673,0.00586632,0.00189
 060,0.00058566,0.00003793,0.00025121,0.00038715,0.00375902,0.00913493,
 0.00144489,-0.00359919,-0.00069394,-0.00401879,-0.04717348,0.03506093,
 -0.00029638,0.00580134,-0.00617873,0.00142645,-0.00387289,-0.00034087,
 -0.00317610,0.00684040,0.00010704,0.00012439,-0.00021212,-0.00038546,0
 .00024810,-0.00096234,-0.00046831,-0.00018499,-0.00008105,0.00019601,0
 .00015179,0.00006231,0.00010499,0.00007532,-0.00009368,-0.00032402,-0.
 00003642,-0.00000248,0.00000671,0.00000412,0.00001655,0.00001260,-0.00
 023336,-0.00013959,0.00001633,-0.00029752,0.00003074,0.00021807,-0.000
 03353,0.00004741,-0.00006330,0.00730510,0.03417251,-0.00008636,-0.0001
 8346,0.00061958,0.00205171,0.00141446,0.00068196,-0.00098456,-0.000283
 66,-0.00006290,-0.00201733,0.00103572,-0.00878235,-0.00000430,-0.00055
 354,0.00064761,-0.00619835,0.03506943,-0.35097487,0.00174414,0.0022635
 7,-0.00942339,0.00031053,-0.00051548,0.00067199,-0.00267648,0.00009991
 ,0.00034841,0.00025162,0.00010233,-0.00047468,0.00000383,-0.00017607,0
 .00028371,0.00001496,0.00009612,-0.00010526,-0.00004681,0.00005252,-0.
 00017098,0.00003683,-0.00007665,-0.00013420,-0.00001092,0.00001285,0.0
 0002015,0.00000698,0.00001618,0.00000567,0.00036064,0.00021363,0.00001
 324,0.00036838,-0.00001157,-0.00030572,-0.00008688,-0.00005988,0.00004
 623,0.00690266,-0.03853063,0.36713923,0.00010581,0.00002483,0.00013838
 ,-0.00010826,0.00079307,0.00095377,-0.00453211,-0.00509899,-0.00017973
 ,-0.00039288,-0.00012638,0.00001842,-0.00000139,0.00003822,0.00000267,
 0.00007207,-0.00006707,0.00009416,-0.00005450,-0.00000509,-0.00003349,
 -0.00000992,0.00000633,0.00000145,-0.00008176,-0.00006490,0.00002728,-
 0.00001530,-0.00001325,0.00001200,0.00017736,0.00007612,0.00031758,-0.
 00005960,0.00007179,-0.00017703,-0.00007879,-0.00001122,-0.00008557,0.
 00001449,-0.00003101,-0.00009719,-0.00020997,-0.00008159,0.00012479,0.
 00000716,-0.00000711,-0.00000060,0.00188647,0.00111358,-0.00042008,-0.
 01201887,0.02160423,0.03241983,-0.04901654,0.00500690,0.00097445,-0.00
 003624,-0.00001164,0.00002558,0.05858207,0.00003494,0.00000661,0.00007
 018,-0.00013176,0.00041846,0.00014336,-0.00258751,-0.00087375,0.001095
 42,-0.00006972,-0.00003001,0.00002276,0.00000090,0.00001599,0.00000590
 ,0.00003556,-0.00003334,0.00001295,-0.00002087,0.00000283,-0.00001882,
 -0.00000185,0.00000311,-0.00000019,-0.00002606,-0.00003517,0.00001058,
 -0.00000391,-0.00000546,0.00000328,-0.00000328,0.00000588,0.00004920,0
 .00004613,0.00000792,-0.00002062,0.00000697,0.00000231,-0.00002248,0.0
 0000686,0.00001703,-0.00000117,0.00031456,0.00003585,-0.00008188,0.000
 00640,-0.00000308,0.00000678,0.00107590,0.00059543,-0.00069085,-0.0038
 9798,0.00892522,0.01267376,0.01381590,-0.19273695,-0.15047139,-0.00000
 652,0.00000149,0.00000510,-0.00889167,0.19618979,-0.00007073,-0.000022
 66,-0.00008477,0.00016976,-0.00060606,-0.00044238,0.00207667,0.0038477
 1,0.00173530,0.00024309,0.00008572,-0.00001279,0.00000110,-0.00003206,
 -0.00000300,-0.00007574,0.00004456,-0.00004486,0.00006686,0.00000784,0
 .00004730,0.00000862,-0.00000687,-0.00000265,0.00007660,0.00006192,-0.
 00005761,0.00001198,0.00001176,-0.00000983,-0.00025202,-0.00001264,-0.
 00023560,0.00014523,-0.00008213,0.00009077,0.00010021,-0.00000157,0.00
 005711,0.00004952,0.00011466,0.00008784,0.00030752,-0.00007373,-0.0001
 0187,0.00001018,-0.00002973,0.00001031,-0.00053683,-0.00088268,-0.0000
 2553,0.00781909,-0.01217752,-0.01887948,0.00954559,-0.14148875,-0.2027
 0807,0.00002277,0.00000767,-0.00001769,-0.01974688,0.15551955,0.219267
 15,0.00001583,0.00010337,0.00013515,-0.00077001,0.00063015,-0.00059577
 ,0.00154778,-0.00512752,-0.00386580,0.00003300,-0.00005072,-0.00013844
 ,-0.00000049,0.00002950,0.00000894,0.00000539,-0.00001923,-0.00002434,
 -0.00007301,-0.00002075,-0.00003887,-0.00000547,0.00000337,0.00000302,
 -0.00008219,-0.00006909,0.00004995,-0.00001793,-0.00001749,0.00001203,
 0.00021725,-0.00026855,0.00042255,0.00006447,0.00015013,0.00000912,-0.
 00008148,0.00003427,-0.00007866,-0.00003772,-0.00003913,-0.00013283,0.
 00010771,0.00012716,0.00019082,-0.00001367,0.00003060,-0.00000864,0.00
 068252,0.00163525,0.00146583,-0.00702304,-0.03071052,0.02242800,-0.057
 54601,0.04753851,-0.02049704,-0.00000767,0.00000021,0.00001411,0.00058
 398,0.00054684,-0.00130222,0.06296886,0.00007794,0.00006675,0.00000238
 ,-0.00001418,-0.00010452,0.00047358,0.00074819,-0.00129643,-0.00376250
 ,-0.00005651,0.00000675,-0.00003531,-0.00000357,0.00001090,0.00000540,
 -0.00000018,-0.00003968,0.00000926,-0.00001248,-0.00000220,0.00000336,
 -0.00000248,0.00000337,0.00000160,0.00000232,0.00000605,0.00003869,0.0
 0000182,0.00000229,0.00000033,0.00020942,-0.00003454,0.00001335,-0.000
 25698,0.00005409,-0.00013738,-0.00004574,0.00001068,-0.00000602,-0.000
 06834,-0.00004031,-0.00004948,0.00009510,0.00006701,0.00012587,-0.0000
 0705,0.00001360,-0.00000633,0.00077114,0.00124887,0.00025777,-0.007464
 87,-0.00384420,0.00686620,0.04013690,-0.29004468,0.09459998,-0.0000053
 4,-0.00000221,0.00000522,0.00380497,-0.01536827,0.00815843,-0.03835809
 ,0.30798641,0.00000030,-0.00007385,-0.00014156,0.00049709,-0.00050805,
 0.00037813,0.00022971,0.00535324,0.00311688,-0.00002421,0.00001321,0.0
 0010363,-0.00000066,-0.00001871,-0.00000717,0.00000647,0.00002760,0.00
 001570,0.00004811,0.00001591,0.00001537,0.00000467,-0.00000564,-0.0000
 0398,0.00004309,0.00006510,-0.00003064,0.00001041,0.00001385,-0.000009
 10,-0.00026779,0.00006146,-0.00019724,0.00005409,-0.00009593,0.0001515
 7,0.00008285,-0.00001175,0.00004198,0.00006062,0.00005462,0.00006010,-
 0.00002072,-0.00009032,-0.00009782,0.00000767,-0.00002547,-0.00000562,
 -0.00153748,-0.00115913,-0.00049998,0.00693335,0.01676744,-0.01429502,
 -0.01614099,0.08880858,-0.08719010,0.00000569,-0.00000088,-0.00001015,
 0.00307430,-0.02141922,0.01219521,0.00995950,-0.10508163,0.09165259,0.
 00009431,0.00006203,0.00005005,0.00023863,-0.00008012,0.00082061,0.000
 09855,-0.00573926,-0.00600427,-0.00029292,-0.00001668,-0.00007826,0.00
 001230,0.00000558,0.00001160,0.00001428,-0.00003365,0.00011891,-0.0000
 1443,0.00000818,0.00002353,-0.00000652,-0.00000436,0.00000609,-0.00000
 862,0.00001525,-0.00002444,-0.00001042,-0.00000816,0.00000808,0.000921
 10,-0.00017309,0.00028312,-0.00032963,0.00021964,-0.00020908,-0.000216
 31,0.00002146,-0.00006248,-0.00019583,-0.00015024,-0.00023124,0.000097
 61,0.00025759,0.00037410,-0.00001903,0.00004909,-0.00003039,0.00160101
 ,0.00253386,0.00072043,-0.03473965,-0.00118050,-0.00251399,-0.22440535
 ,0.01023244,-0.13380892,-0.00003008,-0.00002325,0.00002004,0.00518670,
 -0.00024982,0.00132962,-0.00056812,0.00044801,-0.00302608,0.25257239,-
 0.00000480,-0.00002342,0.00004158,-0.00004449,0.00003710,0.00008420,0.
 00137691,-0.00058518,-0.00162146,-0.00001636,-0.00000560,-0.00003954,0
 .00000146,0.00000300,0.00000024,-0.00002246,-0.00002085,0.00002832,0.0
 0001002,-0.00000215,0.00002956,-0.00000163,-0.00000108,0.00000253,0.00
 000198,0.00002141,-0.00003842,-0.00000524,-0.00000152,0.00000480,0.000
 26754,-0.00007268,0.00005610,-0.00014354,0.00011764,-0.00011840,-0.000
 07108,0.00000990,-0.00001824,-0.00004580,-0.00002437,-0.00005632,0.000
 14929,0.00010156,0.00012427,-0.00000192,0.00001784,-0.00000559,0.00013
 964,0.00043138,0.00091920,-0.01272406,0.00018528,-0.00297081,0.0116140
 9,-0.05277400,0.00738329,-0.00000717,-0.00000206,0.00000389,-0.0181301
 2,0.00285809,-0.01244340,0.02385173,0.00130027,0.01730960,-0.00619398,
 0.04842944,-0.00018181,-0.00011923,0.00004840,-0.00067202,0.00069887,-
 0.00098488,0.00113367,0.00205597,0.00299741,0.00034439,0.00003747,-0.0
 0004359,-0.00001191,0.00000331,-0.00000012,-0.00006915,-0.00004969,-0.
 00010309,0.00004704,-0.00000013,0.00003971,0.00000468,0.00000619,-0.00
 000117,0.00004139,-0.00000133,-0.00005914,0.00000526,0.00000125,-0.000
 00359,-0.00050578,0.00011299,-0.00025019,0.00019939,-0.00017303,0.0001
 9422,0.00012386,-0.00001678,0.00004868,0.00009565,0.00011063,0.0001888
 2,0.00010949,-0.00007237,-0.00019214,0.00000496,-0.00002636,0.00002321
 ,0.00044902,-0.00153632,-0.00075811,0.02624687,-0.00136799,0.01126585,
 -0.14415122,0.00735861,-0.15953640,0.00002373,0.00002834,-0.00001561,-
 0.01744407,0.00310780,-0.01086488,-0.00801641,-0.00148280,-0.00524279,
 0.14222297,-0.00867541,0.16324941\\0.00002866,0.00001027,-0.00000043,0
 .00000173,-0.00001317,0.00002471,0.00000199,0.00001341,0.00000662,-0.0
 0000013,-0.00000508,0.00000237,0.00001164,-0.00001614,-0.00000436,0.00
 001624,-0.00000489,0.00000007,0.00000382,-0.00000081,-0.00000538,0.000
 00436,0.00000488,0.00000837,-0.00001908,0.00000808,0.00000167,0.000000
 13,0.00000884,0.00000922,0.00001603,-0.00003778,-0.00002214,0.00001111
 ,0.00003878,0.00000550,-0.00002115,0.00002384,0.00001175,-0.00003155,0
 .00002648,0.00002156,-0.00001699,0.00000697,-0.00001297,-0.00000664,0.
 00000810,-0.00000403,0.00000340,-0.00001862,-0.00000141,0.00000006,-0.
 00001839,-0.00000836,0.00000118,0.00000106,-0.00001167,0.00000673,-0.0
 0001194,0.00000133,-0.00000862,-0.00000490,-0.00001096,-0.00000029,-0.
 00000503,-0.00000224,-0.00000266,-0.00001394,-0.00000923\\\@
 The archive entry for this job was punched.


 NEVER LISTEN TO CRITICISM
 OR YOU'LL BE DOIN' EVERYBODY ELSE'S THING BUT BUT YOUR OWN.

                                               -- ANDY CAPP
 Job cpu time:       0 days  1 hours 37 minutes 31.1 seconds.
 Elapsed time:       0 days  0 hours  6 minutes 34.6 seconds.
 File lengths (MBytes):  RWF=    279 Int=      0 D2E=      0 Chk=     13 Scr=      1
 Normal termination of Gaussian 16 at Sun May 22 14:13:33 2022.
