 Entering Gaussian System, Link 0=g16
 AtFile(1): /home/561/yj5695/Basis/6-31pGd.gbs
 Initial command:
 /apps/gaussian/g16c01/g16/l1.exe "/jobfs/41414963.gadi-pbs/Gau-2939743.inp" -scrdir="/jobfs/41414963.gadi-pbs/"
 Entering Link 1 = /apps/gaussian/g16c01/g16/l1.exe PID=   2939762.
  
 Copyright (c) 1988-2019, Gaussian, Inc.  All Rights Reserved.
  
 This is part of the Gaussian(R) 16 program.  It is based on
 the Gaussian(R) 09 system (copyright 2009, Gaussian, Inc.),
 the Gaussian(R) 03 system (copyright 2003, Gaussian, Inc.),
 the Gaussian(R) 98 system (copyright 1998, Gaussian, Inc.),
 the Gaussian(R) 94 system (copyright 1995, Gaussian, Inc.),
 the Gaussian 92(TM) system (copyright 1992, Gaussian, Inc.),
 the Gaussian 90(TM) system (copyright 1990, Gaussian, Inc.),
 the Gaussian 88(TM) system (copyright 1988, Gaussian, Inc.),
 the Gaussian 86(TM) system (copyright 1986, Carnegie Mellon
 University), and the Gaussian 82(TM) system (copyright 1983,
 Carnegie Mellon University). Gaussian is a federally registered
 trademark of Gaussian, Inc.
  
 This software contains proprietary and confidential information,
 including trade secrets, belonging to Gaussian, Inc.
  
 This software is provided under written license and may be
 used, copied, transmitted, or stored only in accord with that
 written license.
  
 The following legend is applicable only to US Government
 contracts under FAR:
  
                    RESTRICTED RIGHTS LEGEND
  
 Use, reproduction and disclosure by the US Government is
 subject to restrictions as set forth in subparagraphs (a)
 and (c) of the Commercial Computer Software - Restricted
 Rights clause in FAR 52.227-19.
  
 Gaussian, Inc.
 340 Quinnipiac St., Bldg. 40, Wallingford CT 06492
  
  
 ---------------------------------------------------------------
 Warning -- This program may not be used in any manner that
 competes with the business of Gaussian, Inc. or will provide
 assistance to any competitor of Gaussian, Inc.  The licensee
 of this program is prohibited from giving any competitor of
 Gaussian, Inc. access to this program.  By using this program,
 the user acknowledges that Gaussian, Inc. is engaged in the
 business of creating and licensing software in the field of
 computational chemistry and represents and warrants to the
 licensee that it is not a competitor of Gaussian, Inc. and that
 it will not use this program in any manner prohibited above.
 ---------------------------------------------------------------
  

 Cite this work as:
 Gaussian 16, Revision C.01,
 M. J. Frisch, G. W. Trucks, H. B. Schlegel, G. E. Scuseria, 
 M. A. Robb, J. R. Cheeseman, G. Scalmani, V. Barone, 
 G. A. Petersson, H. Nakatsuji, X. Li, M. Caricato, A. V. Marenich, 
 J. Bloino, B. G. Janesko, R. Gomperts, B. Mennucci, H. P. Hratchian, 
 J. V. Ortiz, A. F. Izmaylov, J. L. Sonnenberg, D. Williams-Young, 
 F. Ding, F. Lipparini, F. Egidi, J. Goings, B. Peng, A. Petrone, 
 T. Henderson, D. Ranasinghe, V. G. Zakrzewski, J. Gao, N. Rega, 
 G. Zheng, W. Liang, M. Hada, M. Ehara, K. Toyota, R. Fukuda, 
 J. Hasegawa, M. Ishida, T. Nakajima, Y. Honda, O. Kitao, H. Nakai, 
 T. Vreven, K. Throssell, J. A. Montgomery, Jr., J. E. Peralta, 
 F. Ogliaro, M. J. Bearpark, J. J. Heyd, E. N. Brothers, K. N. Kudin, 
 V. N. Staroverov, T. A. Keith, R. Kobayashi, J. Normand, 
 K. Raghavachari, A. P. Rendell, J. C. Burant, S. S. Iyengar, 
 J. Tomasi, M. Cossi, J. M. Millam, M. Klene, C. Adamo, R. Cammi, 
 J. W. Ochterski, R. L. Martin, K. Morokuma, O. Farkas, 
 J. B. Foresman, and D. J. Fox, Gaussian, Inc., Wallingford CT, 2019.
 
 ******************************************
 Gaussian 16:  ES64L-G16RevC.01  3-Jul-2019
                27-May-2022 
 ******************************************
 %nproc=16
 Will use up to   16 processors via shared memory.
 %mem=60gb
 -----------------------------------------------------
 #m062X/gen 6D OPT Freq=noraman SCRF=(SMD,Solvent=h2o)
 -----------------------------------------------------
 1/18=20,19=15,26=3,38=1/1,3;
 2/9=110,12=2,17=6,18=5,40=1/2;
 3/5=7,8=2,11=2,25=1,30=1,70=32201,71=1,72=1,74=-55/1,2,3;
 4//1;
 5/5=2,38=5,53=1/2;
 6/7=2,8=2,9=2,10=2,28=1/1;
 7//1,2,3,16;
 1/18=20,19=15,26=3/3(2);
 2/9=110/2;
 99//99;
 2/9=110/2;
 3/5=7,6=1,8=2,11=2,25=1,30=1,70=32205,71=1,72=1,74=-55,82=7/1,2,3;
 4/5=5,16=3,69=1/1;
 5/5=2,38=5,53=1/2;
 7//1,2,3,16;
 1/18=20,19=15,26=3/3(-5);
 2/9=110/2;
 6/7=2,8=2,9=2,10=2,19=2,28=1/1;
 99/9=1/99;
 ----------------
 HA.19.smd.a1.smd
 ----------------
 Symbolic Z-matrix:
 Charge =  0 Multiplicity = 1
 C                    -1.4804    1.35585  -1.90297 
 S                    -1.77562   1.55799  -0.1885 
 O                    -0.75867   2.46215   0.33981 
 O                    -3.19229   1.88201  -0.06951 
 N                    -1.54342   0.11986   0.57146 
 H                    -0.56631  -0.17888   0.54395 
 H                    -2.165    -0.61117   0.21979 
 C                    -2.33274   1.33422  -2.96249 
 C                    -1.49732   1.0831   -4.10179 
 C                    -0.2236    0.96846  -3.59854 
 O                    -0.16899   1.13052  -2.2596 
 C                    -1.50063   0.93151  -5.53136 
 C                    -0.24913   0.7121   -6.02085 
 S                     1.00299   0.69052  -4.7685 
 H                    -3.40323   1.48321  -2.92104 
 H                    -2.37726   0.98148  -6.16749 
 C                     0.14517   0.47679  -7.44638 
 N                     1.14907   1.4256   -7.92918 
 C                     0.61239   2.78973  -7.92472 
 C                     1.62547   3.75866  -8.50471 
 O                     1.98502   3.39367  -9.83383 
 C                     2.5158    2.07207  -9.85867 
 C                     1.51549   1.07504  -9.30474 
 H                    -0.77782   0.52914  -8.05079 
 H                     0.55623  -0.53247  -7.56374 
 H                     0.3786    3.08997  -6.89829 
 H                    -0.32139   2.83789  -8.51523 
 H                     2.52976   3.78285  -7.87918 
 H                     1.20316   4.76449  -8.55718 
 H                     3.44687   2.04451  -9.27417 
 H                     2.74397   1.843    -10.90183 
 H                     1.95447   0.07224  -9.31641 
 H                     0.61987   1.06469  -9.95272 
 

 GradGradGradGradGradGradGradGradGradGradGradGradGradGradGradGradGradGrad
 Berny optimization.
 Initialization pass.
                           ----------------------------
                           !    Initial Parameters    !
                           ! (Angstroms and Degrees)  !
 --------------------------                            --------------------------
 ! Name  Definition              Value          Derivative Info.                !
 --------------------------------------------------------------------------------
 ! R1    R(1,2)                  1.7514         estimate D2E/DX2                !
 ! R2    R(1,8)                  1.36           estimate D2E/DX2                !
 ! R3    R(1,11)                 1.3776         estimate D2E/DX2                !
 ! R4    R(2,3)                  1.4597         estimate D2E/DX2                !
 ! R5    R(2,4)                  1.4581         estimate D2E/DX2                !
 ! R6    R(2,5)                  1.6431         estimate D2E/DX2                !
 ! R7    R(5,6)                  1.0221         estimate D2E/DX2                !
 ! R8    R(5,7)                  1.022          estimate D2E/DX2                !
 ! R9    R(8,9)                  1.4349         estimate D2E/DX2                !
 ! R10   R(8,15)                 1.0816         estimate D2E/DX2                !
 ! R11   R(9,10)                 1.3743         estimate D2E/DX2                !
 ! R12   R(9,12)                 1.4376         estimate D2E/DX2                !
 ! R13   R(10,11)                1.3498         estimate D2E/DX2                !
 ! R14   R(10,14)                1.7177         estimate D2E/DX2                !
 ! R15   R(12,13)                1.3616         estimate D2E/DX2                !
 ! R16   R(12,16)                1.0843         estimate D2E/DX2                !
 ! R17   R(13,14)                1.7711         estimate D2E/DX2                !
 ! R18   R(13,17)                1.4977         estimate D2E/DX2                !
 ! R19   R(17,18)                1.4633         estimate D2E/DX2                !
 ! R20   R(17,24)                1.1045         estimate D2E/DX2                !
 ! R21   R(17,25)                1.0961         estimate D2E/DX2                !
 ! R22   R(18,19)                1.4659         estimate D2E/DX2                !
 ! R23   R(18,23)                1.4661         estimate D2E/DX2                !
 ! R24   R(19,20)                1.5171         estimate D2E/DX2                !
 ! R25   R(19,26)                1.0947         estimate D2E/DX2                !
 ! R26   R(19,27)                1.1059         estimate D2E/DX2                !
 ! R27   R(20,21)                1.4244         estimate D2E/DX2                !
 ! R28   R(20,28)                1.0998         estimate D2E/DX2                !
 ! R29   R(20,29)                1.0921         estimate D2E/DX2                !
 ! R30   R(21,22)                1.4244         estimate D2E/DX2                !
 ! R31   R(22,23)                1.5171         estimate D2E/DX2                !
 ! R32   R(22,30)                1.0997         estimate D2E/DX2                !
 ! R33   R(22,31)                1.0921         estimate D2E/DX2                !
 ! R34   R(23,32)                1.0947         estimate D2E/DX2                !
 ! R35   R(23,33)                1.1055         estimate D2E/DX2                !
 ! A1    A(2,1,8)              131.211          estimate D2E/DX2                !
 ! A2    A(2,1,11)             115.6432         estimate D2E/DX2                !
 ! A3    A(8,1,11)             113.0998         estimate D2E/DX2                !
 ! A4    A(1,2,3)              107.9597         estimate D2E/DX2                !
 ! A5    A(1,2,4)              105.623          estimate D2E/DX2                !
 ! A6    A(1,2,5)              109.1431         estimate D2E/DX2                !
 ! A7    A(3,2,4)              120.6437         estimate D2E/DX2                !
 ! A8    A(3,2,5)              106.0386         estimate D2E/DX2                !
 ! A9    A(4,2,5)              107.101          estimate D2E/DX2                !
 ! A10   A(2,5,6)              112.2391         estimate D2E/DX2                !
 ! A11   A(2,5,7)              112.3944         estimate D2E/DX2                !
 ! A12   A(6,5,7)              111.2902         estimate D2E/DX2                !
 ! A13   A(1,8,9)              104.8603         estimate D2E/DX2                !
 ! A14   A(1,8,15)             126.0325         estimate D2E/DX2                !
 ! A15   A(9,8,15)             129.1065         estimate D2E/DX2                !
 ! A16   A(8,9,10)             105.2746         estimate D2E/DX2                !
 ! A17   A(8,9,12)             143.7714         estimate D2E/DX2                !
 ! A18   A(10,9,12)            110.9454         estimate D2E/DX2                !
 ! A19   A(9,10,11)            112.9988         estimate D2E/DX2                !
 ! A20   A(9,10,14)            115.207          estimate D2E/DX2                !
 ! A21   A(11,10,14)           131.7715         estimate D2E/DX2                !
 ! A22   A(1,11,10)            103.7639         estimate D2E/DX2                !
 ! A23   A(9,12,13)            111.8613         estimate D2E/DX2                !
 ! A24   A(9,12,16)            125.48           estimate D2E/DX2                !
 ! A25   A(13,12,16)           122.6587         estimate D2E/DX2                !
 ! A26   A(12,13,14)           113.4268         estimate D2E/DX2                !
 ! A27   A(12,13,17)           127.5519         estimate D2E/DX2                !
 ! A28   A(14,13,17)           119.0136         estimate D2E/DX2                !
 ! A29   A(10,14,13)            88.5566         estimate D2E/DX2                !
 ! A30   A(13,17,18)           113.1289         estimate D2E/DX2                !
 ! A31   A(13,17,24)           107.0621         estimate D2E/DX2                !
 ! A32   A(13,17,25)           110.2018         estimate D2E/DX2                !
 ! A33   A(18,17,24)           111.2254         estimate D2E/DX2                !
 ! A34   A(18,17,25)           107.7247         estimate D2E/DX2                !
 ! A35   A(24,17,25)           107.3639         estimate D2E/DX2                !
 ! A36   A(17,18,19)           110.5617         estimate D2E/DX2                !
 ! A37   A(17,18,23)           109.026          estimate D2E/DX2                !
 ! A38   A(19,18,23)           108.4739         estimate D2E/DX2                !
 ! A39   A(18,19,20)           110.4069         estimate D2E/DX2                !
 ! A40   A(18,19,26)           109.6493         estimate D2E/DX2                !
 ! A41   A(18,19,27)           110.367          estimate D2E/DX2                !
 ! A42   A(20,19,26)           109.0207         estimate D2E/DX2                !
 ! A43   A(20,19,27)           109.3848         estimate D2E/DX2                !
 ! A44   A(26,19,27)           107.9633         estimate D2E/DX2                !
 ! A45   A(19,20,21)           111.2004         estimate D2E/DX2                !
 ! A46   A(19,20,28)           110.2228         estimate D2E/DX2                !
 ! A47   A(19,20,29)           110.3865         estimate D2E/DX2                !
 ! A48   A(21,20,28)           109.1951         estimate D2E/DX2                !
 ! A49   A(21,20,29)           106.7833         estimate D2E/DX2                !
 ! A50   A(28,20,29)           108.9656         estimate D2E/DX2                !
 ! A51   A(20,21,22)           110.3689         estimate D2E/DX2                !
 ! A52   A(21,22,23)           110.9594         estimate D2E/DX2                !
 ! A53   A(21,22,30)           109.2368         estimate D2E/DX2                !
 ! A54   A(21,22,31)           106.8053         estimate D2E/DX2                !
 ! A55   A(23,22,30)           110.3485         estimate D2E/DX2                !
 ! A56   A(23,22,31)           110.4062         estimate D2E/DX2                !
 ! A57   A(30,22,31)           108.9979         estimate D2E/DX2                !
 ! A58   A(18,23,22)           110.5018         estimate D2E/DX2                !
 ! A59   A(18,23,32)           109.2239         estimate D2E/DX2                !
 ! A60   A(18,23,33)           110.4699         estimate D2E/DX2                !
 ! A61   A(22,23,32)           109.4949         estimate D2E/DX2                !
 ! A62   A(22,23,33)           109.0456         estimate D2E/DX2                !
 ! A63   A(32,23,33)           108.0617         estimate D2E/DX2                !
 ! D1    D(8,1,2,3)           -137.2254         estimate D2E/DX2                !
 ! D2    D(8,1,2,4)             -6.9094         estimate D2E/DX2                !
 ! D3    D(8,1,2,5)            107.9429         estimate D2E/DX2                !
 ! D4    D(11,1,2,3)            45.4484         estimate D2E/DX2                !
 ! D5    D(11,1,2,4)           175.7644         estimate D2E/DX2                !
 ! D6    D(11,1,2,5)           -69.3833         estimate D2E/DX2                !
 ! D7    D(2,1,8,9)           -177.8323         estimate D2E/DX2                !
 ! D8    D(2,1,8,15)             2.4624         estimate D2E/DX2                !
 ! D9    D(11,1,8,9)            -0.4529         estimate D2E/DX2                !
 ! D10   D(11,1,8,15)          179.8418         estimate D2E/DX2                !
 ! D11   D(2,1,11,10)          178.0184         estimate D2E/DX2                !
 ! D12   D(8,1,11,10)            0.2049         estimate D2E/DX2                !
 ! D13   D(1,2,5,6)             66.7391         estimate D2E/DX2                !
 ! D14   D(1,2,5,7)            -59.6137         estimate D2E/DX2                !
 ! D15   D(3,2,5,6)            -49.3268         estimate D2E/DX2                !
 ! D16   D(3,2,5,7)           -175.6796         estimate D2E/DX2                !
 ! D17   D(4,2,5,6)           -179.3664         estimate D2E/DX2                !
 ! D18   D(4,2,5,7)             54.2808         estimate D2E/DX2                !
 ! D19   D(1,8,9,10)             0.5068         estimate D2E/DX2                !
 ! D20   D(1,8,9,12)          -178.2258         estimate D2E/DX2                !
 ! D21   D(15,8,9,10)         -179.8003         estimate D2E/DX2                !
 ! D22   D(15,8,9,12)            1.467          estimate D2E/DX2                !
 ! D23   D(8,9,10,11)           -0.4199         estimate D2E/DX2                !
 ! D24   D(8,9,10,14)         -178.8914         estimate D2E/DX2                !
 ! D25   D(12,9,10,11)         178.7781         estimate D2E/DX2                !
 ! D26   D(12,9,10,14)           0.3066         estimate D2E/DX2                !
 ! D27   D(8,9,12,13)          178.7852         estimate D2E/DX2                !
 ! D28   D(8,9,12,16)           -1.1887         estimate D2E/DX2                !
 ! D29   D(10,9,12,13)           0.0943         estimate D2E/DX2                !
 ! D30   D(10,9,12,16)        -179.8796         estimate D2E/DX2                !
 ! D31   D(9,10,11,1)            0.1509         estimate D2E/DX2                !
 ! D32   D(14,10,11,1)         178.2964         estimate D2E/DX2                !
 ! D33   D(9,10,14,13)          -0.4601         estimate D2E/DX2                !
 ! D34   D(11,10,14,13)       -178.5734         estimate D2E/DX2                !
 ! D35   D(9,12,13,14)          -0.4396         estimate D2E/DX2                !
 ! D36   D(9,12,13,17)         178.5268         estimate D2E/DX2                !
 ! D37   D(16,12,13,14)        179.5352         estimate D2E/DX2                !
 ! D38   D(16,12,13,17)         -1.4984         estimate D2E/DX2                !
 ! D39   D(12,13,14,10)          0.5102         estimate D2E/DX2                !
 ! D40   D(17,13,14,10)       -178.5528         estimate D2E/DX2                !
 ! D41   D(12,13,17,18)        123.7743         estimate D2E/DX2                !
 ! D42   D(12,13,17,24)          0.8931         estimate D2E/DX2                !
 ! D43   D(12,13,17,25)       -115.5671         estimate D2E/DX2                !
 ! D44   D(14,13,17,18)        -57.3102         estimate D2E/DX2                !
 ! D45   D(14,13,17,24)        179.8086         estimate D2E/DX2                !
 ! D46   D(14,13,17,25)         63.3484         estimate D2E/DX2                !
 ! D47   D(13,17,18,19)        -63.5556         estimate D2E/DX2                !
 ! D48   D(13,17,18,23)        177.2784         estimate D2E/DX2                !
 ! D49   D(24,17,18,19)         56.9858         estimate D2E/DX2                !
 ! D50   D(24,17,18,23)        -62.1801         estimate D2E/DX2                !
 ! D51   D(25,17,18,19)        174.3888         estimate D2E/DX2                !
 ! D52   D(25,17,18,23)         55.2229         estimate D2E/DX2                !
 ! D53   D(17,18,19,20)       -176.5591         estimate D2E/DX2                !
 ! D54   D(17,18,19,26)         63.3038         estimate D2E/DX2                !
 ! D55   D(17,18,19,27)        -55.5037         estimate D2E/DX2                !
 ! D56   D(23,18,19,20)        -57.0597         estimate D2E/DX2                !
 ! D57   D(23,18,19,26)       -177.1968         estimate D2E/DX2                !
 ! D58   D(23,18,19,27)         63.9958         estimate D2E/DX2                !
 ! D59   D(17,18,23,22)        177.7501         estimate D2E/DX2                !
 ! D60   D(17,18,23,32)        -61.7379         estimate D2E/DX2                !
 ! D61   D(17,18,23,33)         56.9898         estimate D2E/DX2                !
 ! D62   D(19,18,23,22)         57.2925         estimate D2E/DX2                !
 ! D63   D(19,18,23,32)        177.8045         estimate D2E/DX2                !
 ! D64   D(19,18,23,33)        -63.4678         estimate D2E/DX2                !
 ! D65   D(18,19,20,21)         58.252          estimate D2E/DX2                !
 ! D66   D(18,19,20,28)        -62.9935         estimate D2E/DX2                !
 ! D67   D(18,19,20,29)        176.5825         estimate D2E/DX2                !
 ! D68   D(26,19,20,21)        178.7662         estimate D2E/DX2                !
 ! D69   D(26,19,20,28)         57.5206         estimate D2E/DX2                !
 ! D70   D(26,19,20,29)        -62.9033         estimate D2E/DX2                !
 ! D71   D(27,19,20,21)        -63.3863         estimate D2E/DX2                !
 ! D72   D(27,19,20,28)        175.3681         estimate D2E/DX2                !
 ! D73   D(27,19,20,29)         54.9442         estimate D2E/DX2                !
 ! D74   D(19,20,21,22)        -58.0166         estimate D2E/DX2                !
 ! D75   D(28,20,21,22)         63.8287         estimate D2E/DX2                !
 ! D76   D(29,20,21,22)       -178.4972         estimate D2E/DX2                !
 ! D77   D(20,21,22,23)         58.0523         estimate D2E/DX2                !
 ! D78   D(20,21,22,30)        -63.8219         estimate D2E/DX2                !
 ! D79   D(20,21,22,31)        178.4317         estimate D2E/DX2                !
 ! D80   D(21,22,23,18)        -58.5298         estimate D2E/DX2                !
 ! D81   D(21,22,23,32)       -178.8797         estimate D2E/DX2                !
 ! D82   D(21,22,23,33)         63.0758         estimate D2E/DX2                !
 ! D83   D(30,22,23,18)         62.6928         estimate D2E/DX2                !
 ! D84   D(30,22,23,32)        -57.6571         estimate D2E/DX2                !
 ! D85   D(30,22,23,33)       -175.7016         estimate D2E/DX2                !
 ! D86   D(31,22,23,18)       -176.7485         estimate D2E/DX2                !
 ! D87   D(31,22,23,32)         62.9015         estimate D2E/DX2                !
 ! D88   D(31,22,23,33)        -55.143          estimate D2E/DX2                !
 --------------------------------------------------------------------------------
 Trust Radius=3.00D-01 FncErr=1.00D-07 GrdErr=1.00D-06 EigMax=2.50D+02 EigMin=1.00D-04
 Number of steps in this run=    196 maximum allowed number of steps=    198.
 GradGradGradGradGradGradGradGradGradGradGradGradGradGradGradGradGradGrad

                          Input orientation:                          
 ---------------------------------------------------------------------
 Center     Atomic      Atomic             Coordinates (Angstroms)
 Number     Number       Type             X           Y           Z
 ---------------------------------------------------------------------
      1          6           0       -1.480400    1.355853   -1.902972
      2         16           0       -1.775622    1.557994   -0.188502
      3          8           0       -0.758665    2.462147    0.339811
      4          8           0       -3.192294    1.882009   -0.069506
      5          7           0       -1.543418    0.119862    0.571460
      6          1           0       -0.566310   -0.178883    0.543953
      7          1           0       -2.164998   -0.611174    0.219792
      8          6           0       -2.332742    1.334223   -2.962494
      9          6           0       -1.497318    1.083104   -4.101794
     10          6           0       -0.223598    0.968455   -3.598538
     11          8           0       -0.168990    1.130517   -2.259604
     12          6           0       -1.500629    0.931505   -5.531361
     13          6           0       -0.249126    0.712100   -6.020849
     14         16           0        1.002991    0.690516   -4.768502
     15          1           0       -3.403227    1.483207   -2.921041
     16          1           0       -2.377260    0.981476   -6.167490
     17          6           0        0.145172    0.476794   -7.446384
     18          7           0        1.149074    1.425601   -7.929176
     19          6           0        0.612385    2.789734   -7.924721
     20          6           0        1.625469    3.758660   -8.504710
     21          8           0        1.985024    3.393671   -9.833830
     22          6           0        2.515796    2.072069   -9.858668
     23          6           0        1.515491    1.075037   -9.304738
     24          1           0       -0.777820    0.529137   -8.050791
     25          1           0        0.556228   -0.532467   -7.563744
     26          1           0        0.378599    3.089974   -6.898292
     27          1           0       -0.321386    2.837885   -8.515228
     28          1           0        2.529760    3.782850   -7.879181
     29          1           0        1.203164    4.764485   -8.557183
     30          1           0        3.446873    2.044514   -9.274170
     31          1           0        2.743974    1.842995  -10.901826
     32          1           0        1.954468    0.072242   -9.316407
     33          1           0        0.619868    1.064688   -9.952716
 ---------------------------------------------------------------------
                    Distance matrix (angstroms):
                    1          2          3          4          5
     1  C    0.000000
     2  S    1.751406   0.000000
     3  O    2.602857   1.459729   0.000000
     4  O    2.563010   1.458117   2.535084   0.000000
     5  N    2.766669   1.643072   2.481088   2.496956   0.000000
     6  H    3.029590   2.239569   2.655883   3.394024   1.022128
     7  H    2.973886   2.241341   3.381934   2.712009   1.021981
     8  C    1.359979   2.838219   3.828204   3.067292   3.819232
     9  C    2.215738   3.951813   4.709058   4.446407   4.771715
    10  C    2.145827   3.792714   4.245940   4.701256   4.455437
    11  O    1.377592   2.655836   2.979583   3.808101   3.305359
    12  C    3.653175   5.386488   6.112613   5.796296   6.156705
    13  C    4.345960   6.087857   6.616668   6.741618   6.744218
    14  S    3.849827   5.426749   5.686560   6.410978   5.943487
    15  H    2.179437   3.181424   4.311054   2.887003   4.185112
    16  H    4.373858   6.036774   6.867110   6.217769   6.844788
    17  C    5.843342   7.585202   8.085999   8.217764   8.201497
    18  N    6.575267   8.275833   8.549271   8.990562   9.011952
    19  C    6.534311   8.189557   8.383888   8.775189   9.163012
    20  C    7.681331   9.250387   9.251518   9.893701  10.279083
    21  O    8.891590  10.514015  10.578211  11.154899  11.464632
    22  C    8.931721  10.592103  10.718359  11.333407  11.361158
    23  C    7.990016   9.704145  10.005658  10.397305  10.383091
    24  H    6.242816   7.991855   8.610406   8.447536   8.665844
    25  H    6.305390   8.012599   8.553528   8.720362   8.427075
    26  H    5.605022   7.211721   7.353752   7.800178   8.265162
    27  H    6.874712   8.549110   8.873788   8.971401   9.562892
    28  H    7.595181   9.090261   8.950409   9.866414  10.070829
    29  H    7.943476   9.444023   9.397129   9.983455  10.604167
    30  H    8.893078  10.490973  10.501885  11.350365  11.204629
    31  H    9.952990  11.631134  11.790939  12.352326  12.368800
    32  H    8.270731   9.971945  10.310930  10.736368  10.488441
    33  H    8.324319  10.065863  10.478042  10.624426  10.785675
                    6          7          8          9         10
     6  H    0.000000
     7  H    1.687530   0.000000
     8  C    4.207724   3.733584   0.000000
     9  C    4.903300   4.689614   1.434921   0.000000
    10  C    4.312084   4.565513   2.233120   1.374327   0.000000
    11  O    3.119667   3.628352   2.284157   2.271644   1.349811
    12  C    6.246227   5.991411   2.730141   1.437587   2.316890
    13  C    6.632577   6.660872   3.752603   2.319138   2.435972
    14  S    5.607204   6.050920   3.847485   2.617283   1.717727
    15  H    4.776696   3.972968   1.081597   2.277444   3.291506
    16  H    7.047655   6.586271   3.224657   2.247605   3.352304
    17  C    8.048702   8.080273   5.194277   3.775138   3.896619
    18  N    8.792658   9.029795   6.066245   4.665785   4.565921
    19  C    9.050992   9.252736   5.951133   4.688092   4.767786
    20  C   10.108731  10.468048   7.229211   6.024622   5.939261
    21  O   11.268133  11.590375   8.372556   7.093776   7.045463
    22  C   11.080645  11.431753   8.462266   7.086941   6.921811
    23  C   10.144108  10.349202   7.422946   6.012297   5.966281
    24  H    8.626451   8.463280   5.381144   4.052053   4.508073
    25  H    8.192671   8.245890   5.744752   4.337305   4.310888
    26  H    8.183232   8.416383   5.091614   3.920076   3.968861
    27  H    9.551421   9.570553   6.094211   4.892900   5.261005
    28  H    9.809697  10.341255   7.335769   6.146108   5.815987
    29  H   10.507074  10.829474   7.454520   6.379315   6.405752
    30  H   10.837189  11.343769   8.587533   7.219613   6.844199
    31  H   12.085190  12.402070   9.437420   8.050244   7.931540
    32  H   10.180574  10.410387   7.768203   6.334734   6.183947
    33  H   10.636425  10.679134   7.593007   6.222227   6.410638
                   11         12         13         14         15
    11  O    0.000000
    12  C    3.537974   0.000000
    13  C    3.785295   1.361616   0.000000
    14  S    2.803874   2.628335   1.771055   0.000000
    15  H    3.319967   3.276893   4.489072   4.843163   0.000000
    16  H    4.491129   1.084269   2.150121   3.669867   3.441478
    17  C    5.237245   2.565684   1.497661   2.820032   5.838042
    18  N    5.828243   3.607572   2.470983   3.248315   6.768174
    19  C    5.954586   3.694051   2.946777   3.810644   6.547440
    20  C    7.009177   5.158110   4.354905   4.874447   7.851295
    21  O    8.193323   6.059973   5.169243   5.824859   8.970495
    22  C    8.114208   6.013164   4.921703   5.486990   9.138504
    23  C    7.243926   4.832800   3.745601   4.581261   8.069199
    24  H    5.854074   2.651769   2.105625   3.737747   5.841006
    25  H    5.605833   3.241058   2.139642   3.083612   6.426112
    26  H    5.065249   3.171591   2.611174   3.268527   5.718604
    27  H    6.486229   3.732072   3.278126   4.516982   6.528999
    28  H    6.774789   5.466851   4.539285   4.644338   8.066712
    29  H    7.399191   5.581920   4.996395   5.566992   7.984467
    30  H    7.944432   6.302792   5.100964   5.301595   9.359550
    31  H    9.147731   6.905749   5.836224   6.478958  10.080201
    32  H    7.444964   5.196403   4.015713   4.687325   8.461467
    33  H    7.733731   4.905367   4.042159   5.211800   8.112022
                   16         17         18         19         20
    16  H    0.000000
    17  C    2.872793   0.000000
    18  N    3.966840   1.463264   0.000000
    19  C    3.910963   2.407651   1.465917   0.000000
    20  C    5.403442   3.752596   2.449766   1.517084   0.000000
    21  O    6.187912   4.194416   2.863533   2.427669   1.424450
    22  C    6.225447   3.739502   2.451283   2.806807   2.338904
    23  C    5.000459   2.385194   1.466058   2.379124   2.802494
    24  H    2.511900   1.104519   2.128699   2.656852   4.051131
    25  H    3.584257   1.096060   2.078229   3.342226   4.521334
    26  H    3.546067   2.680224   2.103923   1.094695   2.140655
    27  H    3.631081   2.633411   2.121381   1.105869   2.153644
    28  H    5.903933   4.099217   2.732291   2.159787   1.099824
    29  H    5.730726   4.553846   3.397862   2.156077   1.092144
    30  H    6.685958   4.086536   2.733485   3.226560   2.616845
    31  H    7.027317   4.534353   3.399202   3.781949   3.266036
    32  H    5.431966   2.633287   2.098726   3.335077   3.789033
    33  H    4.828834   2.617758   2.122506   2.662443   3.219540
                   21         22         23         24         25
    21  O    0.000000
    22  C    1.424418   0.000000
    23  C    2.424142   1.517077   0.000000
    24  H    4.360974   4.061646   2.670143   0.000000
    25  H    4.754925   3.986250   2.556426   1.773105   0.000000
    26  H    3.360092   3.790457   3.338185   3.037013   3.687337
    27  H    2.714247   3.231239   2.665535   2.398823   3.610374
    28  H    2.066120   2.616359   3.223850   4.642864   4.755659
    29  H    2.029843   3.265880   3.777355   4.703074   5.427997
    30  H    2.066506   1.099682   2.161263   4.651995   4.233464
    31  H    2.030078   1.092117   2.156298   4.717802   4.644550
    32  H    3.361629   2.146729   1.094730   3.045642   2.322192
    33  H    2.702211   2.149001   1.105497   2.420261   2.874394
                   26         27         28         29         30
    26  H    0.000000
    27  H    1.779890   0.000000
    28  H    2.463679   3.070268   0.000000
    29  H    2.497161   2.457194   1.784139   0.000000
    30  H    4.018966   3.924947   2.410167   3.598130   0.000000
    31  H    4.814378   4.010248   3.597959   4.050500   1.784360
    32  H    4.175805   3.670174   4.020596   4.812278   2.473644
    33  H    3.672805   2.469121   3.916075   3.997029   3.067970
                   31         32         33
    31  H    0.000000
    32  H    2.504484   0.000000
    33  H    2.453242   1.780729   0.000000
 Stoichiometry    C11H14N2O4S2
 Framework group  C1[X(C11H14N2O4S2)]
 Deg. of freedom    93
 Full point group                 C1      NOp   1
 Largest Abelian subgroup         C1      NOp   1
 Largest concise Abelian subgroup C1      NOp   1
                         Standard orientation:                         
 ---------------------------------------------------------------------
 Center     Atomic      Atomic             Coordinates (Angstroms)
 Number     Number       Type             X           Y           Z
 ---------------------------------------------------------------------
      1          6           0        2.955312    0.027923    0.245178
      2         16           0        4.637022    0.472808    0.041828
      3          8           0        4.684799    1.712744   -0.726993
      4          8           0        5.226020    0.401035    1.373757
      5          7           0        5.386920   -0.662009   -0.879871
      6          1           0        5.038023   -0.672404   -1.840552
      7          1           0        5.346676   -1.593055   -0.460373
      8          6           0        2.277184   -0.441821    1.326393
      9          6           0        0.941212   -0.666858    0.853600
     10          6           0        0.963426   -0.316022   -0.475006
     11          8           0        2.174378    0.115768   -0.886275
     12          6           0       -0.373272   -1.092245    1.250883
     13          6           0       -1.256802   -1.041943    0.216069
     14         16           0       -0.538649   -0.461991   -1.295403
     15          1           0        2.685626   -0.595615    2.316027
     16          1           0       -0.655397   -1.418058    2.245816
     17          6           0       -2.702435   -1.433009    0.230289
     18          7           0       -3.593891   -0.354365   -0.197466
     19          6           0       -3.517697    0.775969    0.732832
     20          6           0       -4.504567    1.856911    0.333838
     21          8           0       -5.836732    1.353315    0.305837
     22          6           0       -5.933498    0.257223   -0.598700
     23          6           0       -4.972955   -0.851647   -0.212327
     24          1           0       -2.938692   -1.763407    1.257412
     25          1           0       -2.869850   -2.287859   -0.434957
     26          1           0       -2.506234    1.194502    0.721503
     27          1           0       -3.736806    0.441339    1.763831
     28          1           0       -4.248714    2.258061   -0.657742
     29          1           0       -4.490711    2.671847    1.060795
     30          1           0       -5.720823    0.609245   -1.618578
     31          1           0       -6.964766   -0.099375   -0.553494
     32          1           0       -5.052672   -1.671695   -0.933161
     33          1           0       -5.253996   -1.241788    0.783127
 ---------------------------------------------------------------------
 Rotational constants (GHZ):           1.0951657           0.1103412           0.1093118
 General basis read from cards:  (6D, 7F)
 There are   397 symmetry adapted cartesian basis functions of A   symmetry.
 There are   397 symmetry adapted basis functions of A   symmetry.
   397 basis functions,   712 primitive gaussians,   397 cartesian basis functions
    79 alpha electrons       79 beta electrons
       nuclear repulsion energy      1724.4267763463 Hartrees.
 NAtoms=   33 NActive=   33 NUniq=   33 SFac= 1.00D+00 NAtFMM=   60 NAOKFM=F Big=F
 Integral buffers will be    131072 words long.
 Raffenetti 2 integral format.
 Two-electron integral symmetry is turned on.
 ------------------------------------------------------------------------------
 Polarizable Continuum Model (PCM)
 =================================
 Model                : PCM.
 Atomic radii         : SMD-Coulomb.
 Polarization charges : Total charges.
 Charge compensation  : None.
 Solution method      : On-the-fly selection.
 Cavity type          : VdW (van der Waals Surface) (Alpha=1.000).
 Cavity algorithm     : GePol (No added spheres)
                        Default sphere list used, NSphG=   33.
                        Lebedev-Laikov grids with approx.  5.0 points / Ang**2.
                        Smoothing algorithm: York/Karplus (Gamma=1.0000).
                        Polarization charges: spherical gaussians, with
                                              point-specific exponents (IZeta= 3).
                        Self-potential: point-specific (ISelfS= 7).
                        Self-field    : sphere-specific E.n sum rule (ISelfD= 2).
 1st derivatives      : Analytical E(r).r(x)/FMM algorithm (CHGder, D1EAlg=3).
                        Cavity 1st derivative terms included.
 Solvent              : Water, Eps=  78.355300 Eps(inf)=   1.777849
 ------------------------------------------------------------------------------
 ------------------------------------------------------------------------------
 Atomic radii for non-electrostatic terms: SMD-CDS.
 ------------------------------------------------------------------------------
 Nuclear repulsion after PCM non-electrostatic terms =     1724.4322382900 Hartrees.
 One-electron integrals computed using PRISM.
 NBasis=   397 RedAO= T EigKep=  1.71D-06  NBF=   397
 NBsUse=   396 1.00D-06 EigRej=  4.67D-07 NBFU=   396
 ExpMin= 4.05D-02 ExpMax= 2.19D+04 ExpMxC= 3.30D+03 IAcc=3 IRadAn=         5 AccDes= 0.00D+00
 Harris functional with IExCor= 1009 and IRadAn=       5 diagonalized for initial guess.
 HarFok:  IExCor= 1009 AccDes= 0.00D+00 IRadAn=         5 IDoV= 1 UseB2=F ITyADJ=14
 ICtDFT=  3500011 ScaDFX=  1.000000  1.000000  1.000000  1.000000
 FoFCou: FMM=F IPFlag=           0 FMFlag=      100000 FMFlg1=           0
         NFxFlg=           0 DoJE=T BraDBF=F KetDBF=T FulRan=T
         wScrn=  0.000000 ICntrl=       500 IOpCl=  0 I1Cent=   200000004 NGrid=           0
         NMat0=    1 NMatS0=      1 NMatT0=    0 NMatD0=    1 NMtDS0=    0 NMtDT0=    0
 Petite list used in FoFCou.
 Requested convergence on RMS density matrix=1.00D-08 within 128 cycles.
 Requested convergence on MAX density matrix=1.00D-06.
 Requested convergence on             energy=1.00D-06.
 No special actions if energy rises.
 Inv3:  Mode=1 IEnd=    18525675.
 Iteration    1 A*A^-1 deviation from unit magnitude is 7.33D-15 for   2474.
 Iteration    1 A*A^-1 deviation from orthogonality  is 3.15D-15 for   2482    663.
 Iteration    1 A^-1*A deviation from unit magnitude is 7.77D-15 for   2474.
 Iteration    1 A^-1*A deviation from orthogonality  is 6.10D-15 for   2458   1793.
 Error on total polarization charges =  0.05663
 SCF Done:  E(RM062X) =  -1633.89780531     A.U. after   15 cycles
            NFock= 15  Conv=0.59D-08     -V/T= 2.0059
 SMD-CDS (non-electrostatic) energy       (kcal/mol) =       3.43
 (included in total energy above)

 **********************************************************************

            Population analysis using the SCF Density.

 **********************************************************************

 Orbital symmetries:
       Occupied  (A) (A) (A) (A) (A) (A) (A) (A) (A) (A) (A) (A)
                 (A) (A) (A) (A) (A) (A) (A) (A) (A) (A) (A) (A)
                 (A) (A) (A) (A) (A) (A) (A) (A) (A) (A) (A) (A)
                 (A) (A) (A) (A) (A) (A) (A) (A) (A) (A) (A) (A)
                 (A) (A) (A) (A) (A) (A) (A) (A) (A) (A) (A) (A)
                 (A) (A) (A) (A) (A) (A) (A) (A) (A) (A) (A) (A)
                 (A) (A) (A) (A) (A) (A) (A)
       Virtual   (A) (A) (A) (A) (A) (A) (A) (A) (A) (A) (A) (A)
                 (A) (A) (A) (A) (A) (A) (A) (A) (A) (A) (A) (A)
                 (A) (A) (A) (A) (A) (A) (A) (A) (A) (A) (A) (A)
                 (A) (A) (A) (A) (A) (A) (A) (A) (A) (A) (A) (A)
                 (A) (A) (A) (A) (A) (A) (A) (A) (A) (A) (A) (A)
                 (A) (A) (A) (A) (A) (A) (A) (A) (A) (A) (A) (A)
                 (A) (A) (A) (A) (A) (A) (A) (A) (A) (A) (A) (A)
                 (A) (A) (A) (A) (A) (A) (A) (A) (A) (A) (A) (A)
                 (A) (A) (A) (A) (A) (A) (A) (A) (A) (A) (A) (A)
                 (A) (A) (A) (A) (A) (A) (A) (A) (A) (A) (A) (A)
                 (A) (A) (A) (A) (A) (A) (A) (A) (A) (A) (A) (A)
                 (A) (A) (A) (A) (A) (A) (A) (A) (A) (A) (A) (A)
                 (A) (A) (A) (A) (A) (A) (A) (A) (A) (A) (A) (A)
                 (A) (A) (A) (A) (A) (A) (A) (A) (A) (A) (A) (A)
                 (A) (A) (A) (A) (A) (A) (A) (A) (A) (A) (A) (A)
                 (A) (A) (A) (A) (A) (A) (A) (A) (A) (A) (A) (A)
                 (A) (A) (A) (A) (A) (A) (A) (A) (A) (A) (A) (A)
                 (A) (A) (A) (A) (A) (A) (A) (A) (A) (A) (A) (A)
                 (A) (A) (A) (A) (A) (A) (A) (A) (A) (A) (A) (A)
                 (A) (A) (A) (A) (A) (A) (A) (A) (A) (A) (A) (A)
                 (A) (A) (A) (A) (A) (A) (A) (A) (A) (A) (A) (A)
                 (A) (A) (A) (A) (A) (A) (A) (A) (A) (A) (A) (A)
                 (A) (A) (A) (A) (A) (A) (A) (A) (A) (A) (A) (A)
                 (A) (A) (A) (A) (A) (A) (A) (A) (A) (A) (A) (A)
                 (A) (A) (A) (A) (A) (A) (A) (A) (A) (A) (A) (A)
                 (A) (A) (A) (A) (A) (A) (A) (A) (A) (A) (A) (A)
                 (A) (A) (A) (A) (A)
 The electronic state is 1-A.
 Alpha  occ. eigenvalues --  -90.19448 -89.97318 -19.75192 -19.66920 -19.66811
 Alpha  occ. eigenvalues --  -19.65584 -14.80749 -14.76532 -10.64975 -10.64759
 Alpha  occ. eigenvalues --  -10.59770 -10.59043 -10.58883 -10.58881 -10.58327
 Alpha  occ. eigenvalues --  -10.57489 -10.56927 -10.56630 -10.56541  -8.50316
 Alpha  occ. eigenvalues --   -8.31675  -6.42517  -6.42506  -6.42430  -6.23699
 Alpha  occ. eigenvalues --   -6.23479  -6.23179  -1.28266  -1.26434  -1.16698
 Alpha  occ. eigenvalues --   -1.15536  -1.04328  -1.03771  -0.99810  -0.93167
 Alpha  occ. eigenvalues --   -0.87871  -0.86908  -0.84045  -0.82123  -0.76634
 Alpha  occ. eigenvalues --   -0.74071  -0.73584  -0.69819  -0.67350  -0.65927
 Alpha  occ. eigenvalues --   -0.64645  -0.62085  -0.61074  -0.59963  -0.58302
 Alpha  occ. eigenvalues --   -0.57573  -0.57228  -0.55367  -0.54882  -0.54063
 Alpha  occ. eigenvalues --   -0.53532  -0.52089  -0.51563  -0.50456  -0.48901
 Alpha  occ. eigenvalues --   -0.46848  -0.46590  -0.44746  -0.44538  -0.43904
 Alpha  occ. eigenvalues --   -0.43516  -0.42890  -0.41641  -0.41554  -0.41329
 Alpha  occ. eigenvalues --   -0.40944  -0.40329  -0.39619  -0.37893  -0.37283
 Alpha  occ. eigenvalues --   -0.33346  -0.30351  -0.29436  -0.28475
 Alpha virt. eigenvalues --   -0.00548   0.00562   0.00959   0.02342   0.02869
 Alpha virt. eigenvalues --    0.02948   0.03507   0.03876   0.04195   0.04279
 Alpha virt. eigenvalues --    0.05051   0.05397   0.05744   0.06119   0.06395
 Alpha virt. eigenvalues --    0.06973   0.07341   0.07971   0.08003   0.08415
 Alpha virt. eigenvalues --    0.09094   0.09202   0.09244   0.10129   0.10430
 Alpha virt. eigenvalues --    0.10799   0.11013   0.11672   0.11920   0.12377
 Alpha virt. eigenvalues --    0.12694   0.13156   0.13952   0.14002   0.14213
 Alpha virt. eigenvalues --    0.14970   0.15221   0.15608   0.15855   0.16479
 Alpha virt. eigenvalues --    0.16964   0.17600   0.17688   0.18048   0.18378
 Alpha virt. eigenvalues --    0.18841   0.18934   0.19665   0.20045   0.20118
 Alpha virt. eigenvalues --    0.20557   0.20961   0.21224   0.22005   0.22303
 Alpha virt. eigenvalues --    0.22350   0.22670   0.23243   0.23506   0.24011
 Alpha virt. eigenvalues --    0.24191   0.24637   0.25094   0.25481   0.25937
 Alpha virt. eigenvalues --    0.26110   0.26225   0.26700   0.27201   0.27719
 Alpha virt. eigenvalues --    0.28341   0.28743   0.29318   0.29509   0.29701
 Alpha virt. eigenvalues --    0.30072   0.30614   0.30814   0.31495   0.31571
 Alpha virt. eigenvalues --    0.31715   0.32340   0.32461   0.33072   0.33507
 Alpha virt. eigenvalues --    0.33716   0.34179   0.34535   0.34881   0.35139
 Alpha virt. eigenvalues --    0.35727   0.35984   0.36512   0.36908   0.38000
 Alpha virt. eigenvalues --    0.38117   0.38220   0.39275   0.39990   0.40310
 Alpha virt. eigenvalues --    0.40636   0.41572   0.42410   0.43088   0.43632
 Alpha virt. eigenvalues --    0.44146   0.45127   0.45827   0.47241   0.48493
 Alpha virt. eigenvalues --    0.51523   0.51907   0.56331   0.57404   0.57712
 Alpha virt. eigenvalues --    0.58885   0.60413   0.65981   0.66359   0.67548
 Alpha virt. eigenvalues --    0.67827   0.70119   0.70710   0.71439   0.72103
 Alpha virt. eigenvalues --    0.73120   0.73682   0.74265   0.75076   0.75858
 Alpha virt. eigenvalues --    0.76431   0.77118   0.77796   0.78907   0.80838
 Alpha virt. eigenvalues --    0.82181   0.82566   0.83566   0.84570   0.85425
 Alpha virt. eigenvalues --    0.86816   0.87049   0.88145   0.90003   0.91810
 Alpha virt. eigenvalues --    0.93322   0.94181   0.94346   0.94929   0.95146
 Alpha virt. eigenvalues --    0.97980   0.99321   1.00156   1.00791   1.01939
 Alpha virt. eigenvalues --    1.01988   1.02803   1.03019   1.04642   1.05009
 Alpha virt. eigenvalues --    1.05593   1.05854   1.07519   1.09608   1.10272
 Alpha virt. eigenvalues --    1.10562   1.10673   1.11664   1.12481   1.13621
 Alpha virt. eigenvalues --    1.14114   1.15005   1.16409   1.17060   1.17894
 Alpha virt. eigenvalues --    1.18681   1.19158   1.20636   1.21703   1.22720
 Alpha virt. eigenvalues --    1.24449   1.25477   1.26100   1.27228   1.29443
 Alpha virt. eigenvalues --    1.30305   1.30979   1.31790   1.33172   1.34926
 Alpha virt. eigenvalues --    1.35668   1.35727   1.36655   1.37028   1.37626
 Alpha virt. eigenvalues --    1.37767   1.39115   1.40071   1.41871   1.43190
 Alpha virt. eigenvalues --    1.44417   1.46496   1.47113   1.47870   1.48239
 Alpha virt. eigenvalues --    1.50644   1.51292   1.52652   1.53472   1.54377
 Alpha virt. eigenvalues --    1.57304   1.59210   1.61598   1.63165   1.64320
 Alpha virt. eigenvalues --    1.67731   1.69117   1.69311   1.71742   1.72991
 Alpha virt. eigenvalues --    1.76292   1.77737   1.79979   1.80503   1.82022
 Alpha virt. eigenvalues --    1.82984   1.83885   1.84805   1.85719   1.87850
 Alpha virt. eigenvalues --    1.90743   1.91876   1.92826   1.94540   1.95304
 Alpha virt. eigenvalues --    1.95952   1.97494   1.98299   2.00590   2.01866
 Alpha virt. eigenvalues --    2.03355   2.05947   2.06699   2.08273   2.10709
 Alpha virt. eigenvalues --    2.11357   2.13589   2.14364   2.14661   2.15008
 Alpha virt. eigenvalues --    2.16054   2.18065   2.18339   2.20879   2.21475
 Alpha virt. eigenvalues --    2.21906   2.22999   2.23616   2.24599   2.28177
 Alpha virt. eigenvalues --    2.29783   2.32952   2.34110   2.37094   2.39007
 Alpha virt. eigenvalues --    2.40548   2.41058   2.42136   2.43081   2.45990
 Alpha virt. eigenvalues --    2.46787   2.49613   2.50353   2.51562   2.52905
 Alpha virt. eigenvalues --    2.55116   2.56587   2.58002   2.59483   2.61539
 Alpha virt. eigenvalues --    2.68992   2.72540   2.75173   2.80142   2.81558
 Alpha virt. eigenvalues --    2.83640   2.86610   2.87495   2.89476   2.91554
 Alpha virt. eigenvalues --    2.92000   2.93417   2.98175   3.00406   3.03015
 Alpha virt. eigenvalues --    3.09153   3.15470   3.24285   3.88143   4.03184
 Alpha virt. eigenvalues --    4.04782   4.18099   4.23565   4.24090   4.24932
 Alpha virt. eigenvalues --    4.29087   4.33169   4.35564   4.37686   4.46843
 Alpha virt. eigenvalues --    4.46866   4.48824   4.54740   4.61211   4.68132
 Alpha virt. eigenvalues --    4.68604   4.71183
          Condensed to atoms (all electrons):
               1          2          3          4          5          6
     1  C   15.294578   0.131184  -0.001752  -0.076945  -0.522168  -0.008304
     2  S    0.131184  16.164968   0.363116   0.120360  -0.194720   0.045195
     3  O   -0.001752   0.363116   8.789119  -0.188995  -0.170433  -0.004422
     4  O   -0.076945   0.120360  -0.188995   8.757688  -0.138170   0.009243
     5  N   -0.522168  -0.194720  -0.170433  -0.138170   7.994109   0.232249
     6  H   -0.008304   0.045195  -0.004422   0.009243   0.232249   0.253830
     7  H   -0.000330   0.067472   0.008927  -0.005828   0.236209  -0.013732
     8  C   -1.953795  -0.018361  -0.232347  -0.000611   0.331368  -0.008076
     9  C   -0.843973  -1.676063  -0.008491   0.174933   0.149974   0.001063
    10  C   -1.413336  -0.379786   0.051061  -0.034142   0.013643  -0.012024
    11  O   -0.128992  -0.109896   0.009537  -0.000729   0.002458  -0.000069
    12  C   -3.349549  -0.498080  -0.032958  -0.024533   0.033350  -0.000916
    13  C   -0.959154  -0.015382   0.007515   0.013098   0.009294   0.000120
    14  S   -0.356345  -0.008244   0.001461   0.003517   0.002033  -0.000561
    15  H    0.005498   0.015977   0.000263   0.001769  -0.000257   0.000001
    16  H   -0.006676  -0.000357  -0.000000  -0.000001  -0.000004   0.000000
    17  C    1.022153   0.089613   0.001374   0.001469  -0.000699   0.000040
    18  N    0.014603   0.000423   0.000000   0.000000   0.000029  -0.000000
    19  C   -0.011427  -0.001167  -0.000008  -0.000019   0.000006  -0.000000
    20  C   -0.007670  -0.000397   0.000004  -0.000003  -0.000002   0.000000
    21  O   -0.000018  -0.000001  -0.000000   0.000000   0.000000  -0.000000
    22  C    0.005038   0.000209   0.000001   0.000000  -0.000002   0.000000
    23  C    0.015921   0.000776   0.000001   0.000005  -0.000001   0.000000
    24  H    0.000035   0.000002   0.000000  -0.000000  -0.000000  -0.000000
    25  H    0.000744   0.000014   0.000000   0.000000   0.000000   0.000000
    26  H   -0.000135  -0.000002  -0.000000  -0.000000   0.000000  -0.000000
    27  H   -0.000118  -0.000005   0.000000  -0.000000   0.000000  -0.000000
    28  H   -0.000046  -0.000001   0.000000  -0.000000  -0.000000   0.000000
    29  H    0.000027   0.000000   0.000000   0.000000   0.000000   0.000000
    30  H    0.000004   0.000000   0.000000  -0.000000   0.000000  -0.000000
    31  H    0.000001   0.000000   0.000000   0.000000   0.000000   0.000000
    32  H    0.000010   0.000000   0.000000   0.000000   0.000000  -0.000000
    33  H    0.000021   0.000000   0.000000  -0.000000   0.000000  -0.000000
               7          8          9         10         11         12
     1  C   -0.000330  -1.953795  -0.843973  -1.413336  -0.128992  -3.349549
     2  S    0.067472  -0.018361  -1.676063  -0.379786  -0.109896  -0.498080
     3  O    0.008927  -0.232347  -0.008491   0.051061   0.009537  -0.032958
     4  O   -0.005828  -0.000611   0.174933  -0.034142  -0.000729  -0.024533
     5  N    0.236209   0.331368   0.149974   0.013643   0.002458   0.033350
     6  H   -0.013732  -0.008076   0.001063  -0.012024  -0.000069  -0.000916
     7  H    0.254456  -0.029064  -0.023523   0.004726   0.000006  -0.003220
     8  C   -0.029064  19.708947 -10.331406  -1.539537  -0.363381   5.006102
     9  C   -0.023523 -10.331406  19.784991   0.241907   0.409972  -5.455306
    10  C    0.004726  -1.539537   0.241907  11.097354   0.057699   1.406051
    11  O    0.000006  -0.363381   0.409972   0.057699   8.299107  -0.061335
    12  C   -0.003220   5.006102  -5.455306   1.406051  -0.061335  18.513645
    13  C    0.000643  -4.405931   0.826636  -0.221283   0.160600  -1.495440
    14  S    0.000347   0.063330  -0.342204  -0.805185  -0.069314  -1.618165
    15  H    0.000006   0.373242  -0.058045   0.002330   0.005502  -0.042306
    16  H    0.000000  -0.047117  -0.022735   0.040425  -0.000448   0.373024
    17  C    0.000098  -0.259083   2.346811  -1.536767   0.020606  -6.199444
    18  N    0.000000  -0.007805   0.074940  -0.080931   0.001290  -0.245188
    19  C   -0.000000  -0.020504  -0.086057   0.090764  -0.001213   0.122834
    20  C   -0.000000  -0.005534  -0.005586  -0.021369   0.000417  -0.054499
    21  O   -0.000000  -0.000190  -0.001417  -0.001117   0.000001  -0.007084
    22  C    0.000000   0.006152   0.049266  -0.007653  -0.000029   0.002416
    23  C    0.000000   0.009023   0.062375  -0.030313   0.000201  -0.121802
    24  H   -0.000000   0.002916   0.021802  -0.003044   0.000041  -0.061197
    25  H    0.000000  -0.005721  -0.009457  -0.013696  -0.000013  -0.057788
    26  H   -0.000000  -0.006468  -0.008358  -0.003650  -0.000013  -0.018838
    27  H   -0.000000  -0.000315  -0.000575   0.002057   0.000001  -0.007872
    28  H   -0.000000   0.000144   0.000402  -0.000284   0.000000   0.001497
    29  H    0.000000  -0.000188  -0.000102  -0.000563   0.000000  -0.003600
    30  H   -0.000000   0.000009   0.000313  -0.000173   0.000000  -0.000092
    31  H    0.000000  -0.000002   0.000011  -0.000006  -0.000000  -0.000286
    32  H    0.000000  -0.000054  -0.000154  -0.000763  -0.000000  -0.004155
    33  H   -0.000000  -0.000095   0.000754  -0.000045   0.000000  -0.003750
              13         14         15         16         17         18
     1  C   -0.959154  -0.356345   0.005498  -0.006676   1.022153   0.014603
     2  S   -0.015382  -0.008244   0.015977  -0.000357   0.089613   0.000423
     3  O    0.007515   0.001461   0.000263  -0.000000   0.001374   0.000000
     4  O    0.013098   0.003517   0.001769  -0.000001   0.001469   0.000000
     5  N    0.009294   0.002033  -0.000257  -0.000004  -0.000699   0.000029
     6  H    0.000120  -0.000561   0.000001   0.000000   0.000040  -0.000000
     7  H    0.000643   0.000347   0.000006   0.000000   0.000098   0.000000
     8  C   -4.405931   0.063330   0.373242  -0.047117  -0.259083  -0.007805
     9  C    0.826636  -0.342204  -0.058045  -0.022735   2.346811   0.074940
    10  C   -0.221283  -0.805185   0.002330   0.040425  -1.536767  -0.080931
    11  O    0.160600  -0.069314   0.005502  -0.000448   0.020606   0.001290
    12  C   -1.495440  -1.618165  -0.042306   0.373024  -6.199444  -0.245188
    13  C   17.221837   0.537090   0.000889  -0.004607  -4.750190  -0.445459
    14  S    0.537090  16.978670  -0.000256  -0.005599   1.026403   0.148573
    15  H    0.000889  -0.000256   0.378016   0.000407   0.002400   0.000002
    16  H   -0.004607  -0.005599   0.000407   0.415029  -0.028432   0.000892
    17  C   -4.750190   1.026403   0.002400  -0.028432  13.374637   0.600232
    18  N   -0.445459   0.148573   0.000002   0.000892   0.600232   7.325519
    19  C    0.306281  -0.120920   0.000024   0.002246  -0.399428   0.157369
    20  C    0.023592   0.009914   0.000003   0.001042   0.042432   0.001744
    21  O   -0.011839   0.004298  -0.000000   0.000000   0.014621  -0.026380
    22  C   -0.175761  -0.008784   0.000000   0.000046   0.016632  -0.022668
    23  C   -0.308005   0.031909   0.000007   0.001088   0.026669   0.212965
    24  H   -0.147701   0.024465   0.000000   0.001106   0.497551  -0.035792
    25  H   -0.056907   0.001228   0.000000   0.000077   0.506371  -0.055002
    26  H    0.048310  -0.009678  -0.000000   0.000038  -0.006203  -0.047556
    27  H   -0.012552   0.003911  -0.000000  -0.000050   0.005976  -0.044193
    28  H    0.002381   0.000719  -0.000000  -0.000000  -0.003528   0.019221
    29  H   -0.003933   0.001175   0.000000   0.000000   0.004346   0.005433
    30  H   -0.003288   0.000033  -0.000000  -0.000000  -0.002873   0.021250
    31  H   -0.004208   0.000291   0.000000  -0.000000   0.001611   0.000213
    32  H   -0.020812   0.003471   0.000000  -0.000000  -0.007239  -0.054070
    33  H   -0.032860   0.001507  -0.000000   0.000000   0.013217  -0.037123
              19         20         21         22         23         24
     1  C   -0.011427  -0.007670  -0.000018   0.005038   0.015921   0.000035
     2  S   -0.001167  -0.000397  -0.000001   0.000209   0.000776   0.000002
     3  O   -0.000008   0.000004  -0.000000   0.000001   0.000001   0.000000
     4  O   -0.000019  -0.000003   0.000000   0.000000   0.000005  -0.000000
     5  N    0.000006  -0.000002   0.000000  -0.000002  -0.000001  -0.000000
     6  H   -0.000000   0.000000  -0.000000   0.000000   0.000000  -0.000000
     7  H   -0.000000  -0.000000  -0.000000   0.000000   0.000000  -0.000000
     8  C   -0.020504  -0.005534  -0.000190   0.006152   0.009023   0.002916
     9  C   -0.086057  -0.005586  -0.001417   0.049266   0.062375   0.021802
    10  C    0.090764  -0.021369  -0.001117  -0.007653  -0.030313  -0.003044
    11  O   -0.001213   0.000417   0.000001  -0.000029   0.000201   0.000041
    12  C    0.122834  -0.054499  -0.007084   0.002416  -0.121802  -0.061197
    13  C    0.306281   0.023592  -0.011839  -0.175761  -0.308005  -0.147701
    14  S   -0.120920   0.009914   0.004298  -0.008784   0.031909   0.024465
    15  H    0.000024   0.000003  -0.000000   0.000000   0.000007   0.000000
    16  H    0.002246   0.001042   0.000000   0.000046   0.001088   0.001106
    17  C   -0.399428   0.042432   0.014621   0.016632   0.026669   0.497551
    18  N    0.157369   0.001744  -0.026380  -0.022668   0.212965  -0.035792
    19  C    6.526190  -0.577299  -0.073647   0.096283  -0.350961  -0.023307
    20  C   -0.577299   6.153632   0.139267  -0.296989   0.158404   0.002518
    21  O   -0.073647   0.139267   8.497941   0.140960  -0.053495  -0.000045
    22  C    0.096283  -0.296989   0.140960   6.207690  -0.434413  -0.005152
    23  C   -0.350961   0.158404  -0.053495  -0.434413   6.353053   0.002588
    24  H   -0.023307   0.002518  -0.000045  -0.005152   0.002588   0.489030
    25  H    0.014810   0.000728   0.000108   0.003664  -0.018815  -0.033106
    26  H    0.331283   0.010189   0.006375   0.001465   0.019079  -0.001082
    27  H    0.392307  -0.047620   0.004988  -0.014225  -0.004372   0.008974
    28  H   -0.156275   0.499787  -0.047140  -0.015059   0.000867   0.000004
    29  H   -0.072761   0.437601  -0.051830   0.013393  -0.002877   0.000008
    30  H   -0.015889  -0.000984  -0.047711   0.487986  -0.134626   0.000004
    31  H   -0.004019   0.012624  -0.051199   0.427523  -0.057541   0.000012
    32  H    0.018758  -0.002878   0.006769   0.019327   0.362102  -0.001212
    33  H   -0.027710   0.006311   0.003569  -0.080210   0.435824   0.008297
              25         26         27         28         29         30
     1  C    0.000744  -0.000135  -0.000118  -0.000046   0.000027   0.000004
     2  S    0.000014  -0.000002  -0.000005  -0.000001   0.000000   0.000000
     3  O    0.000000  -0.000000   0.000000   0.000000   0.000000   0.000000
     4  O    0.000000  -0.000000  -0.000000  -0.000000   0.000000  -0.000000
     5  N    0.000000   0.000000   0.000000  -0.000000   0.000000   0.000000
     6  H    0.000000  -0.000000  -0.000000   0.000000   0.000000  -0.000000
     7  H    0.000000  -0.000000  -0.000000  -0.000000   0.000000  -0.000000
     8  C   -0.005721  -0.006468  -0.000315   0.000144  -0.000188   0.000009
     9  C   -0.009457  -0.008358  -0.000575   0.000402  -0.000102   0.000313
    10  C   -0.013696  -0.003650   0.002057  -0.000284  -0.000563  -0.000173
    11  O   -0.000013  -0.000013   0.000001   0.000000   0.000000   0.000000
    12  C   -0.057788  -0.018838  -0.007872   0.001497  -0.003600  -0.000092
    13  C   -0.056907   0.048310  -0.012552   0.002381  -0.003933  -0.003288
    14  S    0.001228  -0.009678   0.003911   0.000719   0.001175   0.000033
    15  H    0.000000  -0.000000  -0.000000  -0.000000   0.000000  -0.000000
    16  H    0.000077   0.000038  -0.000050  -0.000000   0.000000  -0.000000
    17  C    0.506371  -0.006203   0.005976  -0.003528   0.004346  -0.002873
    18  N   -0.055002  -0.047556  -0.044193   0.019221   0.005433   0.021250
    19  C    0.014810   0.331283   0.392307  -0.156275  -0.072761  -0.015889
    20  C    0.000728   0.010189  -0.047620   0.499787   0.437601  -0.000984
    21  O    0.000108   0.006375   0.004988  -0.047140  -0.051830  -0.047711
    22  C    0.003664   0.001465  -0.014225  -0.015059   0.013393   0.487986
    23  C   -0.018815   0.019079  -0.004372   0.000867  -0.002877  -0.134626
    24  H   -0.033106  -0.001082   0.008974   0.000004   0.000008   0.000004
    25  H    0.456095  -0.000011  -0.000266   0.000008   0.000002   0.000012
    26  H   -0.000011   0.468620  -0.034360  -0.002097  -0.001310   0.000017
    27  H   -0.000266  -0.034360   0.505049   0.003495  -0.002526   0.000087
    28  H    0.000008  -0.002097   0.003495   0.491498  -0.028595   0.005900
    29  H    0.000002  -0.001310  -0.002526  -0.028595   0.470671  -0.000183
    30  H    0.000012   0.000017   0.000087   0.005900  -0.000183   0.490532
    31  H   -0.000009   0.000014   0.000021  -0.000189  -0.000076  -0.028506
    32  H    0.004603  -0.000067  -0.000330   0.000016   0.000014  -0.002151
    33  H   -0.001587  -0.000324   0.007508   0.000075   0.000017   0.003451
              31         32         33
     1  C    0.000001   0.000010   0.000021
     2  S    0.000000   0.000000   0.000000
     3  O    0.000000   0.000000   0.000000
     4  O    0.000000   0.000000  -0.000000
     5  N    0.000000   0.000000   0.000000
     6  H    0.000000  -0.000000  -0.000000
     7  H    0.000000   0.000000  -0.000000
     8  C   -0.000002  -0.000054  -0.000095
     9  C    0.000011  -0.000154   0.000754
    10  C   -0.000006  -0.000763  -0.000045
    11  O   -0.000000  -0.000000   0.000000
    12  C   -0.000286  -0.004155  -0.003750
    13  C   -0.004208  -0.020812  -0.032860
    14  S    0.000291   0.003471   0.001507
    15  H    0.000000   0.000000  -0.000000
    16  H   -0.000000  -0.000000   0.000000
    17  C    0.001611  -0.007239   0.013217
    18  N    0.000213  -0.054070  -0.037123
    19  C   -0.004019   0.018758  -0.027710
    20  C    0.012624  -0.002878   0.006311
    21  O   -0.051199   0.006769   0.003569
    22  C    0.427523   0.019327  -0.080210
    23  C   -0.057541   0.362102   0.435824
    24  H    0.000012  -0.001212   0.008297
    25  H   -0.000009   0.004603  -0.001587
    26  H    0.000014  -0.000067  -0.000324
    27  H    0.000021  -0.000330   0.007508
    28  H   -0.000189   0.000016   0.000075
    29  H   -0.000076   0.000014   0.000017
    30  H   -0.028506  -0.002151   0.003451
    31  H    0.471403  -0.000958  -0.002324
    32  H   -0.000958   0.473082  -0.034652
    33  H   -0.002324  -0.034652   0.503373
 Mulliken charges:
               1
     1  C   -0.849085
     2  S    1.903152
     3  O   -0.592977
     4  O   -0.612107
     5  N   -0.978267
     6  H    0.506364
     7  H    0.502807
     8  C   -0.265647
     9  C    0.727302
    10  C   -0.902349
    11  O   -0.232003
    12  C   -0.091515
    13  C   -0.082971
    14  S    0.500910
    15  H    0.314529
    16  H    0.280607
    17  C   -0.421376
    18  N   -0.482529
    19  C   -0.116545
    20  C   -0.479377
    21  O   -0.445783
    22  C   -0.417105
    23  C   -0.175637
    24  H    0.252284
    25  H    0.263916
    26  H    0.254764
    27  H    0.235004
    28  H    0.227200
    29  H    0.235857
    30  H    0.226879
    31  H    0.235600
    32  H    0.241345
    33  H    0.236756
 Sum of Mulliken charges =  -0.00000
 Mulliken charges with hydrogens summed into heavy atoms:
               1
     1  C   -0.849085
     2  S    1.903152
     3  O   -0.592977
     4  O   -0.612107
     5  N    0.030905
     8  C    0.048882
     9  C    0.727302
    10  C   -0.902349
    11  O   -0.232003
    12  C    0.189091
    13  C   -0.082971
    14  S    0.500910
    17  C    0.094823
    18  N   -0.482529
    19  C    0.373223
    20  C   -0.016320
    21  O   -0.445783
    22  C    0.045373
    23  C    0.302464
 Electronic spatial extent (au):  <R**2>=           9525.7107
 Charge=              0.0000 electrons
 Dipole moment (field-independent basis, Debye):
    X=             -4.9386    Y=             -8.3337    Z=             -0.2258  Tot=              9.6898
 Quadrupole moment (field-independent basis, Debye-Ang):
   XX=           -164.6105   YY=           -126.1147   ZZ=           -121.8663
   XY=            -15.7843   XZ=             -6.8882   YZ=              1.2717
 Traceless Quadrupole moment (field-independent basis, Debye-Ang):
   XX=            -27.0800   YY=             11.4158   ZZ=             15.6642
   XY=            -15.7843   XZ=             -6.8882   YZ=              1.2717
 Octapole moment (field-independent basis, Debye-Ang**2):
  XXX=           -121.0504  YYY=             -6.7364  ZZZ=             -3.2885  XYY=             -8.0498
  XXY=           -219.1104  XXZ=           -104.4867  XZZ=              5.0378  YZZ=            -11.0934
  YYZ=              3.2426  XYZ=             16.5189
 Hexadecapole moment (field-independent basis, Debye-Ang**3):
 XXXX=         -12873.2471 YYYY=           -800.8550 ZZZZ=           -627.6940 XXXY=           -145.6765
 XXXZ=            -60.9924 YYYX=            -85.6504 YYYZ=             25.7762 ZZZX=            -63.5989
 ZZZY=            -12.7757 XXYY=          -2015.5551 XXZZ=          -1964.2993 YYZZ=           -238.5855
 XXYZ=             53.0137 YYXZ=              8.8879 ZZXY=            -42.7441
 N-N= 1.724432238290D+03 E-N=-7.290746617735D+03  KE= 1.624265198426D+03
 D1PCM: PCM CHGder 1st derivatives, ID1Alg=3 FixD1E=F DoIter=F DoCFld=F I1PDM=0.
 Calling FoFJK, ICntrl=      2127 FMM=F ISym2X=0 I1Cent= 0 IOpClX= 0 NMat=1 NMatS=1 NMatT=0.
 ***** Axes restored to original set *****
 -------------------------------------------------------------------
 Center     Atomic                   Forces (Hartrees/Bohr)
 Number     Number              X              Y              Z
 -------------------------------------------------------------------
      1        6          -0.000010478    0.000020614    0.000001113
      2       16           0.000019674    0.000015130    0.000003934
      3        8          -0.000008894    0.000002273   -0.000003192
      4        8          -0.000005094   -0.000002456   -0.000000442
      5        7           0.000009833   -0.000001531   -0.000010315
      6        1          -0.000000190   -0.000016392    0.000011699
      7        1          -0.000001229   -0.000014662    0.000000750
      8        6          -0.000003615   -0.000017331   -0.000003934
      9        6           0.000001084   -0.000009106    0.000001714
     10        6           0.000000079    0.000001715   -0.000002251
     11        8           0.000014241   -0.000019865    0.000001640
     12        6          -0.000001497    0.000014404    0.000004323
     13        6           0.000004319    0.000000153   -0.000005392
     14       16           0.000004780   -0.000000820   -0.000003138
     15        1           0.000001799   -0.000005790    0.000001373
     16        1          -0.000000374   -0.000002976   -0.000000613
     17        6          -0.000006716   -0.000000138    0.000003330
     18        7           0.000003163    0.000006745    0.000000685
     19        6          -0.000001546   -0.000004829   -0.000001427
     20        6          -0.000001580   -0.000001040    0.000003177
     21        8          -0.000001796    0.000007042    0.000000574
     22        6          -0.000001838    0.000001445    0.000001367
     23        6          -0.000001476    0.000001598    0.000000306
     24        1           0.000001303    0.000000603   -0.000001148
     25        1           0.000002665    0.000002015   -0.000000686
     26        1          -0.000003048    0.000001359    0.000000976
     27        1          -0.000002684    0.000003168    0.000000257
     28        1          -0.000002604    0.000002382    0.000000312
     29        1          -0.000003477    0.000001895    0.000000166
     30        1          -0.000002094    0.000005323   -0.000000835
     31        1          -0.000001829    0.000003271   -0.000001845
     32        1          -0.000000211    0.000003548   -0.000001559
     33        1          -0.000000670    0.000002251   -0.000000918
 -------------------------------------------------------------------
 Cartesian Forces:  Max     0.000020614 RMS     0.000006250

 GradGradGradGradGradGradGradGradGradGradGradGradGradGradGradGradGradGrad
 Berny optimization.
 FormGI is forming the generalized inverse of G from B-inverse, IUseBI=4.
 Internal  Forces:  Max     0.000027333 RMS     0.000004538
 Search for a local minimum.
 Step number   1 out of a maximum of  196
 All quantities printed in internal units (Hartrees-Bohrs-Radians)
 Mixed Optimization -- En-DIIS/RFO-DIIS
 Second derivative matrix not updated -- first step.
 ITU=  0
     Eigenvalues ---    0.00797   0.00855   0.00855   0.01013   0.01095
     Eigenvalues ---    0.01401   0.01531   0.01609   0.01693   0.01778
     Eigenvalues ---    0.02003   0.02049   0.02069   0.02103   0.02207
     Eigenvalues ---    0.02323   0.02814   0.03346   0.04489   0.04604
     Eigenvalues ---    0.04997   0.05133   0.05205   0.05648   0.05875
     Eigenvalues ---    0.06379   0.06408   0.06560   0.08557   0.09072
     Eigenvalues ---    0.09095   0.09401   0.09605   0.10111   0.10698
     Eigenvalues ---    0.10855   0.11604   0.11661   0.13349   0.13364
     Eigenvalues ---    0.14361   0.14477   0.15979   0.16000   0.16000
     Eigenvalues ---    0.16000   0.16000   0.17694   0.19901   0.21164
     Eigenvalues ---    0.22008   0.23571   0.23913   0.24975   0.24979
     Eigenvalues ---    0.24996   0.24997   0.25000   0.28178   0.29073
     Eigenvalues ---    0.30352   0.30649   0.32624   0.32927   0.33041
     Eigenvalues ---    0.33081   0.33187   0.33702   0.33717   0.34122
     Eigenvalues ---    0.34272   0.34276   0.34465   0.34566   0.34569
     Eigenvalues ---    0.34844   0.35483   0.35802   0.36559   0.38376
     Eigenvalues ---    0.38969   0.40410   0.40704   0.42127   0.43716
     Eigenvalues ---    0.44000   0.44023   0.48312   0.50015   0.51396
     Eigenvalues ---    0.53916   0.91723   0.92404
 RFO step:  Lambda=-5.28446628D-08 EMin= 7.96881865D-03
 Linear search not attempted -- first point.
 Iteration  1 RMS(Cart)=  0.00047031 RMS(Int)=  0.00000007
 Iteration  2 RMS(Cart)=  0.00000015 RMS(Int)=  0.00000001
 Variable       Old X    -DE/DX   Delta X   Delta X   Delta X     New X
                                 (Linear)    (Quad)   (Total)
    R1        3.30968   0.00000   0.00000   0.00001   0.00001   3.30968
    R2        2.56999   0.00000   0.00000   0.00000   0.00000   2.56999
    R3        2.60327   0.00002   0.00000   0.00003   0.00003   2.60331
    R4        2.75849  -0.00000   0.00000  -0.00001  -0.00001   2.75848
    R5        2.75544   0.00001   0.00000   0.00001   0.00001   2.75545
    R6        3.10496   0.00002   0.00000   0.00005   0.00005   3.10500
    R7        1.93154   0.00000   0.00000   0.00000   0.00000   1.93154
    R8        1.93126   0.00001   0.00000   0.00002   0.00002   1.93129
    R9        2.71161  -0.00001   0.00000  -0.00002  -0.00002   2.71159
   R10        2.04392  -0.00000   0.00000  -0.00000  -0.00000   2.04392
   R11        2.59710   0.00000   0.00000   0.00000   0.00000   2.59710
   R12        2.71664  -0.00001   0.00000  -0.00001  -0.00001   2.71663
   R13        2.55077   0.00001   0.00000   0.00001   0.00001   2.55079
   R14        3.24603   0.00000   0.00000   0.00001   0.00001   3.24605
   R15        2.57308  -0.00000   0.00000  -0.00000  -0.00000   2.57308
   R16        2.04897   0.00000   0.00000   0.00000   0.00000   2.04897
   R17        3.34681   0.00000   0.00000   0.00001   0.00001   3.34682
   R18        2.83017  -0.00001   0.00000  -0.00002  -0.00002   2.83015
   R19        2.76517  -0.00000   0.00000  -0.00000  -0.00000   2.76516
   R20        2.08724  -0.00000   0.00000  -0.00000  -0.00000   2.08724
   R21        2.07125  -0.00000   0.00000  -0.00000  -0.00000   2.07125
   R22        2.77018  -0.00000   0.00000  -0.00001  -0.00001   2.77017
   R23        2.77045  -0.00000   0.00000  -0.00000  -0.00000   2.77045
   R24        2.86687  -0.00000   0.00000  -0.00001  -0.00001   2.86686
   R25        2.06867   0.00000   0.00000   0.00000   0.00000   2.06868
   R26        2.08979   0.00000   0.00000   0.00000   0.00000   2.08979
   R27        2.69182  -0.00000   0.00000  -0.00000  -0.00000   2.69182
   R28        2.07837  -0.00000   0.00000  -0.00000  -0.00000   2.07837
   R29        2.06385   0.00000   0.00000   0.00000   0.00000   2.06385
   R30        2.69176   0.00000   0.00000   0.00001   0.00001   2.69177
   R31        2.86686  -0.00000   0.00000   0.00000   0.00000   2.86686
   R32        2.07810  -0.00000   0.00000  -0.00000  -0.00000   2.07810
   R33        2.06380   0.00000   0.00000   0.00000   0.00000   2.06381
   R34        2.06874  -0.00000   0.00000  -0.00000  -0.00000   2.06874
   R35        2.08909   0.00000   0.00000   0.00000   0.00000   2.08909
    A1        2.29006  -0.00001   0.00000  -0.00004  -0.00004   2.29002
    A2        2.01835   0.00001   0.00000   0.00004   0.00004   2.01839
    A3        1.97396  -0.00000   0.00000  -0.00000  -0.00000   1.97396
    A4        1.88425  -0.00000   0.00000   0.00002   0.00002   1.88427
    A5        1.84347  -0.00001   0.00000  -0.00006  -0.00006   1.84341
    A6        1.90491   0.00001   0.00000   0.00004   0.00004   1.90494
    A7        2.10563  -0.00000   0.00000  -0.00004  -0.00004   2.10559
    A8        1.85072   0.00001   0.00000   0.00009   0.00009   1.85082
    A9        1.86927  -0.00000   0.00000  -0.00004  -0.00004   1.86923
   A10        1.95894   0.00003   0.00000   0.00021   0.00021   1.95915
   A11        1.96165   0.00000   0.00000   0.00006   0.00006   1.96172
   A12        1.94238  -0.00001   0.00000  -0.00002  -0.00002   1.94236
   A13        1.83016   0.00000   0.00000   0.00000   0.00000   1.83016
   A14        2.19968  -0.00000   0.00000  -0.00000  -0.00000   2.19968
   A15        2.25333  -0.00000   0.00000   0.00000   0.00000   2.25333
   A16        1.83739   0.00000   0.00000   0.00001   0.00001   1.83740
   A17        2.50929  -0.00001   0.00000  -0.00003  -0.00003   2.50926
   A18        1.93636   0.00000   0.00000   0.00001   0.00001   1.93638
   A19        1.97220  -0.00000   0.00000  -0.00000  -0.00000   1.97220
   A20        2.01074  -0.00000   0.00000  -0.00001  -0.00001   2.01073
   A21        2.29985   0.00000   0.00000   0.00001   0.00001   2.29986
   A22        1.81102  -0.00000   0.00000  -0.00001  -0.00001   1.81101
   A23        1.95235  -0.00000   0.00000  -0.00000  -0.00000   1.95234
   A24        2.19004   0.00000   0.00000   0.00001   0.00001   2.19004
   A25        2.14080  -0.00000   0.00000  -0.00000  -0.00000   2.14080
   A26        1.97967   0.00000   0.00000   0.00000   0.00000   1.97967
   A27        2.22620  -0.00000   0.00000  -0.00001  -0.00001   2.22619
   A28        2.07718   0.00000   0.00000   0.00000   0.00000   2.07718
   A29        1.54560  -0.00000   0.00000  -0.00000  -0.00000   1.54560
   A30        1.97447  -0.00001   0.00000  -0.00004  -0.00004   1.97443
   A31        1.86859   0.00000   0.00000   0.00002   0.00002   1.86860
   A32        1.92338   0.00000   0.00000   0.00001   0.00001   1.92340
   A33        1.94125   0.00000   0.00000  -0.00002  -0.00002   1.94123
   A34        1.88015   0.00000   0.00000   0.00002   0.00002   1.88017
   A35        1.87385  -0.00000   0.00000   0.00001   0.00001   1.87387
   A36        1.92966  -0.00000   0.00000  -0.00003  -0.00003   1.92963
   A37        1.90286   0.00000   0.00000   0.00001   0.00001   1.90288
   A38        1.89323   0.00000   0.00000  -0.00001  -0.00001   1.89321
   A39        1.92696  -0.00000   0.00000  -0.00002  -0.00002   1.92695
   A40        1.91374   0.00000   0.00000   0.00000   0.00000   1.91375
   A41        1.92627   0.00000   0.00000   0.00002   0.00002   1.92629
   A42        1.90277  -0.00000   0.00000   0.00000   0.00000   1.90277
   A43        1.90913   0.00000   0.00000  -0.00000  -0.00000   1.90912
   A44        1.88431  -0.00000   0.00000  -0.00001  -0.00001   1.88431
   A45        1.94081   0.00000   0.00000  -0.00000  -0.00000   1.94081
   A46        1.92375  -0.00000   0.00000   0.00000   0.00000   1.92375
   A47        1.92661  -0.00000   0.00000  -0.00000  -0.00000   1.92660
   A48        1.90581   0.00000   0.00000   0.00001   0.00001   1.90582
   A49        1.86372  -0.00000   0.00000  -0.00001  -0.00001   1.86371
   A50        1.90181   0.00000   0.00000   0.00001   0.00001   1.90181
   A51        1.92630  -0.00000   0.00000  -0.00000  -0.00000   1.92630
   A52        1.93661   0.00000   0.00000   0.00001   0.00001   1.93662
   A53        1.90654  -0.00000   0.00000  -0.00002  -0.00002   1.90652
   A54        1.86410   0.00000   0.00000   0.00000   0.00000   1.86411
   A55        1.92594   0.00000   0.00000   0.00000   0.00000   1.92594
   A56        1.92695  -0.00000   0.00000  -0.00000  -0.00000   1.92695
   A57        1.90237   0.00000   0.00000   0.00000   0.00000   1.90238
   A58        1.92862  -0.00000   0.00000  -0.00001  -0.00001   1.92861
   A59        1.90632   0.00000   0.00000   0.00001   0.00001   1.90632
   A60        1.92806   0.00000   0.00000   0.00001   0.00001   1.92807
   A61        1.91105   0.00000   0.00000  -0.00000  -0.00000   1.91105
   A62        1.90320  -0.00000   0.00000  -0.00000  -0.00000   1.90320
   A63        1.88603  -0.00000   0.00000  -0.00000  -0.00000   1.88603
    D1       -2.39504   0.00001   0.00000  -0.00007  -0.00007  -2.39511
    D2       -0.12059  -0.00000   0.00000  -0.00015  -0.00015  -0.12074
    D3        1.88396  -0.00001   0.00000  -0.00021  -0.00021   1.88375
    D4        0.79322   0.00001   0.00000   0.00004   0.00004   0.79327
    D5        3.06767  -0.00000   0.00000  -0.00004  -0.00004   3.06763
    D6       -1.21097  -0.00001   0.00000  -0.00010  -0.00010  -1.21107
    D7       -3.10376  -0.00001   0.00000  -0.00040  -0.00040  -3.10416
    D8        0.04298  -0.00000   0.00000  -0.00001  -0.00001   0.04296
    D9       -0.00790  -0.00001   0.00000  -0.00051  -0.00051  -0.00841
   D10        3.13883  -0.00000   0.00000  -0.00012  -0.00012   3.13871
   D11        3.10701   0.00001   0.00000   0.00038   0.00038   3.10739
   D12        0.00358   0.00001   0.00000   0.00047   0.00047   0.00405
   D13        1.16482   0.00001   0.00000   0.00019   0.00019   1.16501
   D14       -1.04045   0.00000   0.00000  -0.00000  -0.00000  -1.04046
   D15       -0.86092   0.00000   0.00000   0.00010   0.00010  -0.86081
   D16       -3.06619  -0.00001   0.00000  -0.00010  -0.00010  -3.06628
   D17       -3.13053   0.00000   0.00000   0.00012   0.00012  -3.13042
   D18        0.94738  -0.00001   0.00000  -0.00008  -0.00008   0.94730
   D19        0.00885   0.00001   0.00000   0.00033   0.00033   0.00917
   D20       -3.11063   0.00001   0.00000   0.00049   0.00049  -3.11014
   D21       -3.13811  -0.00000   0.00000  -0.00008  -0.00008  -3.13818
   D22        0.02560   0.00000   0.00000   0.00008   0.00008   0.02569
   D23       -0.00733  -0.00000   0.00000  -0.00005  -0.00005  -0.00738
[...]
 0354,-0.00010050,0.00006594,0.00059565,0.00032863,0.00001465,-0.002413
 02,-0.00371680,0.00189931,0.24727210,0.00000546,-0.00000044,0.00000639
 ,0.00000038,-0.00000069,-0.00000668,0.00000092,0.00000052,0.00000195,-
 0.00000067,0.00000029,0.00000121,0.00000041,-0.00000092,0.00000197,-0.
 00000031,0.00000021,0.00000003,0.,0.00000015,-0.00000031,0.00000226,-0
 .00000077,-0.00000494,0.00000427,-0.00000167,0.00000854,-0.00000502,0.
 00000893,0.00000504,-0.00000328,0.00000055,0.00000739,0.00001915,-0.00
 001133,-0.00001321,-0.00002223,-0.00000159,0.00002872,0.00000747,0.000
 01149,-0.00000694,-0.00000005,0.00000004,0.00000006,0.00000186,0.00000
 343,-0.00000365,-0.00012849,0.00002890,0.00012651,-0.00066758,0.001512
 95,-0.00105869,-0.01925890,-0.00075085,-0.01041985,0.00059646,-0.05582
 942,0.00097880,-0.00490988,0.00037747,-0.01020545,-0.00244474,0.001287
 17,-0.00167775,-0.00002185,-0.00027456,0.00002778,0.00015235,-0.000089
 87,0.00008522,0.00009481,-0.00004737,0.00003304,0.00074877,0.00062697,
 0.00002501,-0.00269192,-0.00194122,0.00146903,0.00411705,0.05190357,-0
 .00000153,0.00000186,0.00000635,0.00000029,-0.00000223,-0.00000943,0.0
 0000160,0.00000146,0.00000265,-0.00000153,0.00000053,0.00000188,0.0000
 0018,-0.00000072,0.00000236,-0.00000032,-0.00000003,-0.00000019,0.0000
 0035,0.00000024,-0.00000006,0.00000089,0.00000098,-0.00000084,-0.00000
 595,-0.00000051,-0.00000383,0.00000615,-0.00000856,-0.00000836,0.00000
 113,0.00000136,0.00000598,0.00000305,-0.00001178,0.00002050,-0.0000372
 7,-0.00002334,0.00001396,-0.00003964,-0.00004892,0.00002429,-0.0000002
 1,0.00000017,0.00000040,0.,0.00000168,0.00000201,0.00014903,0.00002505
 ,-0.00004261,0.00010389,-0.00074488,0.00011978,0.01101913,0.00132689,0
 .00846882,-0.11471771,-0.00200652,-0.11904498,-0.02044024,-0.00886306,
 -0.04117141,-0.00273053,0.00478760,0.00067327,0.00061234,-0.00044629,-
 0.00017570,-0.00009014,0.00005588,-0.00005709,-0.00006035,0.00001364,-
 0.00001824,-0.00061481,-0.00074736,0.00062241,0.00183990,0.00254095,-0
 .00014470,0.12577789,0.00435089,0.14900479,0.00001544,0.00000446,0.000
 04189,0.00000895,-0.00000569,-0.00004556,0.00000481,0.00000475,0.00001
 225,-0.00000987,0.00000205,0.00000890,-0.00000021,-0.00000613,0.000012
 94,-0.00000154,0.00000065,-0.00000101,0.00000149,0.00000166,-0.0000009
 1,0.00000780,-0.00000171,-0.00002338,-0.00001517,0.00001057,0.00003817
 ,-0.00000995,-0.00001094,-0.00000475,-0.00001717,0.00000438,0.00004106
 ,0.00000136,0.00001884,0.00001703,-0.00000832,-0.00002193,-0.00015956,
 -0.00001102,0.00001754,-0.00001555,-0.00000030,0.00000038,0.00000213,0
 .00000214,-0.00000353,0.00000154,0.00097209,-0.00106368,-0.00017403,-0
 .00329895,-0.00303175,0.00235514,0.01055332,-0.02139864,0.00041756,-0.
 09402090,0.09830939,-0.00858430,-0.00406380,0.00987856,0.00244690,0.00
 059047,-0.00093815,0.00224650,-0.00041897,0.00031156,0.00054687,-0.000
 06560,0.00004446,-0.00005444,-0.00031353,-0.00041189,0.00014385,0.0006
 6162,0.00087114,-0.00014089,0.00085099,0.00058735,-0.00063805,-0.00839
 395,0.02403266,-0.00188065,0.09666117,0.00002442,0.00000886,0.00007033
 ,0.00001381,-0.00001427,-0.00007677,0.00000928,0.00001035,0.00002097,-
 0.00001743,0.00000489,0.00001505,-0.00000033,-0.00000881,0.00002202,-0
 .00000218,0.00000086,-0.00000188,0.00000228,0.00000245,-0.00000184,0.0
 0001207,-0.00000580,-0.00003791,-0.00002534,0.00002757,0.00005947,-0.0
 0000980,-0.00001550,-0.00001598,-0.00002778,0.00000862,0.00006975,0.00
 002914,-0.00000865,0.00001454,-0.00005568,-0.00004481,-0.00017939,-0.0
 0002218,0.00003119,-0.00003989,-0.00000158,0.00000062,0.00000356,0.000
 00212,-0.00000694,0.00000148,0.00106384,-0.00065952,-0.00061225,-0.004
 10984,-0.00168795,0.00226418,0.00977603,-0.01677945,0.00167988,0.09731
 769,-0.28524869,0.01727654,0.00496844,-0.00815667,-0.00458338,-0.00075
 085,0.00244842,-0.00187046,0.00005289,0.00052166,0.00064840,-0.0001472
 2,-0.00002853,-0.00002525,-0.00028943,-0.00036529,0.00013717,0.0000281
 1,0.00039723,0.00017185,0.00014550,0.00069571,-0.00058280,-0.00062790,
 0.00291310,0.00073598,-0.10763960,0.30669592,-0.00001813,-0.00000619,-
 0.00004746,-0.00000909,0.00000934,0.00005088,-0.00000627,-0.00000696,-
 0.00001368,0.00001134,-0.00000314,-0.00000989,0.00000028,0.00000608,-0
 .00001439,0.00000150,-0.00000058,0.00000124,-0.00000148,-0.00000167,0.
 00000122,-0.00000737,0.00000504,0.00002700,0.00001352,-0.00001856,-0.0
 0004069,0.00001110,0.00000792,0.00000939,0.00001928,-0.00000382,-0.000
 04890,-0.00001668,0.00001209,-0.00000952,0.00001442,-0.00000634,0.0000
 9654,0.00000638,-0.00003086,0.00003158,0.00000075,-0.00000046,-0.00000
 235,-0.00000179,0.00000383,-0.00000087,-0.00044273,0.00067441,0.000734
 81,0.00287492,0.00286488,-0.00078479,-0.00788217,0.00889718,0.00042858
 ,-0.01290868,0.02863149,-0.05121035,0.01826184,-0.03976362,-0.00597655
 ,0.00056761,0.00086839,-0.00580714,0.00055697,-0.00029662,-0.00080085,
 0.00014343,0.00009404,-0.00002346,0.00022609,0.00025632,-0.00012255,-0
 .00048246,-0.00030271,0.00022415,0.00022994,-0.00046725,0.00037219,-0.
 00538367,0.01570804,0.00073817,0.00346731,-0.01515306,0.06178572,0.000
 00618,0.00000630,0.00002173,0.,-0.00000404,-0.00002466,0.00000458,0.00
 000323,0.00000711,-0.00000366,0.00000094,0.00000506,0.00000093,-0.0000
 0316,0.00000700,-0.00000102,0.00000023,-0.00000047,0.00000038,0.000000
 69,-0.00000058,0.00000497,0.00000026,-0.00001106,-0.00001037,-0.000004
 15,0.00002116,-0.00000110,-0.00000319,0.00000787,-0.00000765,0.0000051
 3,0.00002367,0.00001672,0.00000046,-0.00000151,-0.00002555,-0.00003413
 ,0.00007914,-0.00003014,0.00000970,-0.00000707,-0.00000044,0.00000005,
 0.00000069,0.00000040,0.00000093,-0.00000261,0.00041404,-0.00001644,0.
 00021245,0.00102367,0.00113967,-0.00080727,0.00003269,0.00011399,0.000
 23867,0.00074348,-0.00103086,-0.00186974,-0.01220385,0.01481914,-0.005
 73755,-0.23082574,-0.00434912,-0.11217904,-0.01865901,-0.00221538,-0.0
 1327573,0.00013500,0.00008553,-0.00006376,-0.00001728,-0.00000857,-0.0
 0001293,-0.00009615,-0.00001676,0.00008381,-0.00005219,-0.00007217,-0.
 00016227,-0.00032406,0.00015953,0.00083852,0.00018332,0.00010951,0.000
 35781,0.25366220,-0.00000141,0.00000406,0.00000499,0.,-0.00000167,-0.0
 0000681,0.00000105,0.00000093,0.00000190,-0.00000122,0.00000040,0.0000
 0182,0.00000044,-0.00000098,0.00000208,-0.00000032,0.00000016,0.000000
 01,-0.00000002,0.00000024,-0.00000027,0.00000015,0.00000233,-0.0000005
 4,-0.00001164,-0.00000756,0.00000139,0.00001261,-0.00001037,0.00000592
 ,-0.00000394,0.00000422,0.00000843,-0.00000360,0.00001509,0.00000760,0
 .00003612,-0.00000861,0.00005465,-0.00001529,0.00000843,0.00001099,-0.
 00000022,-0.00000017,0.00000043,-0.00000091,0.00000148,-0.00000174,0.0
 0021752,-0.00004580,0.00011104,0.00113954,0.00066788,-0.00060266,-0.00
 003368,-0.00046120,-0.00062246,0.00025604,0.00196842,0.00570731,0.0382
 3794,-0.01887598,0.01612892,-0.00520395,-0.04735511,-0.00484059,-0.020
 19965,0.00040833,-0.01269107,0.00011964,0.00006289,0.00000427,0.000006
 03,0.00000030,-0.00001924,0.00007248,0.00025884,-0.00009682,-0.0000628
 8,-0.00010135,-0.00005520,-0.00111778,0.00032457,-0.00069055,-0.000293
 92,-0.00006001,-0.00019864,-0.00492199,0.06326287,0.00000354,0.0000026
 1,0.00001362,0.00000224,-0.00000126,-0.00001668,0.00000228,0.00000178,
 0.00000459,-0.00000281,0.00000022,0.00000311,0.00000007,-0.00000253,0.
 00000491,-0.00000055,0.00000026,-0.00000036,0.00000040,0.00000061,-0.0
 0000051,0.00000394,0.00000159,-0.00000683,-0.00000423,0.00000663,0.000
 01475,-0.00001223,-0.00000746,-0.00000206,-0.00000315,0.00000096,0.000
 00665,0.00000365,-0.00000420,0.00001307,-0.00010024,-0.00005316,-0.000
 08515,-0.00000471,0.00000548,-0.00001705,-0.00000017,0.00000013,0.0000
 0028,0.00000003,-0.00000173,0.00000199,0.00026151,0.00018275,0.0002094
 0,0.00064919,0.00014244,0.00168704,0.00020193,0.00011243,-0.00010705,0
 .00260606,-0.00072876,0.00178591,-0.00048528,0.00370741,0.00243093,-0.
 11571179,-0.00277001,-0.13010742,0.01109829,0.00072132,0.00539138,-0.0
 0002761,0.00003987,-0.00022036,-0.00002574,0.00001765,0.00002585,-0.00
 005172,0.00000914,-0.00002866,-0.00015802,-0.00011251,-0.00019340,-0.0
 0076321,0.00039781,0.00070439,0.00001275,0.00010948,0.00020833,0.12700
 157,-0.00210238,0.13171458,0.00002370,0.00000497,0.00006505,0.00001348
 ,-0.00001069,-0.00007233,0.00000828,0.00000809,0.00001956,-0.00001549,
 0.00000359,0.00001404,-0.00000040,-0.00001023,0.00002174,-0.00000239,0
 .00000100,-0.00000176,0.00000232,0.00000262,-0.00000158,0.00001495,-0.
 00000127,-0.00003207,-0.00003677,0.00005035,0.00006476,-0.00002485,-0.
 00001681,-0.00000817,-0.00002247,0.00001555,0.00006478,0.00004334,0.00
 000187,0.00008506,-0.00044158,-0.00028719,0.00002384,-0.00001802,0.000
 02380,-0.00003845,-0.00000088,0.00000059,0.00000301,0.00000060,-0.0000
 1524,-0.00000048,0.00030282,0.00071435,0.00107522,-0.00227553,-0.00393
 510,0.00090249,0.00037084,-0.00034665,-0.00016011,-0.00011274,0.001767
 67,-0.00143242,-0.00411219,0.00781160,0.01482099,-0.06313276,0.0082703
 8,0.04709008,-0.00393889,0.00490009,0.02172830,-0.00007284,0.00003460,
 -0.00006514,0.00001248,0.00000022,0.00002718,-0.00007149,-0.00001366,0
 .00006533,-0.00008470,0.00004319,-0.00006139,0.00014552,0.00006009,0.0
 0047590,0.00005827,0.00021976,0.00067216,0.00764405,-0.00530484,-0.025
 39834,0.06444978,0.00002910,0.00000538,0.00007117,0.00001438,-0.000013
 81,-0.00007861,0.00000902,0.00000936,0.00002101,-0.00001687,0.00000429
 ,0.00001533,-0.00000042,-0.00001091,0.00002393,-0.00000264,0.00000112,
 -0.00000195,0.00000253,0.00000291,-0.00000175,0.00001695,0.00000006,-0
 .00003680,-0.00003230,0.00006739,0.00007045,-0.00003205,-0.00002390,-0
 .00000734,-0.00002641,0.00001812,0.00007646,0.00003121,0.00001581,0.00
 009433,-0.00044996,-0.00035583,-0.00001301,-0.00000815,0.00002830,-0.0
 0003290,-0.00000091,0.00000088,0.00000330,0.00000108,-0.00002784,0.000
 00304,-0.00024124,0.00101943,0.00102047,-0.00421310,-0.00358566,0.0022
 1226,0.00012464,-0.00114739,-0.00032233,0.00188596,-0.00518422,0.00312
 961,0.01169392,-0.01666658,-0.03819788,0.00715495,-0.05768437,-0.04210
 583,-0.00175024,0.00758027,0.02056933,-0.00017060,-0.00006239,0.000006
 21,0.00005285,-0.00000386,-0.00000822,0.00006966,0.00031938,-0.0000423
 2,-0.00003588,0.00018030,-0.00001074,-0.00021643,0.00003473,-0.0001554
 4,0.00072603,-0.00053814,-0.00172791,-0.00082287,0.00139192,-0.0005631
 9,-0.01494243,0.07340653,-0.00002044,-0.00000700,-0.00005581,-0.000012
 60,0.00000844,0.00006455,-0.00000689,-0.00000698,-0.00001783,0.0000144
 5,-0.00000310,-0.00001289,0.00000023,0.00000910,-0.00001890,0.00000197
 ,-0.00000089,0.00000160,-0.00000204,-0.00000223,0.00000147,-0.00001226
 ,0.00000071,0.00002848,0.00002808,-0.00003148,-0.00004876,0.00001146,0
 .00001829,0.00001133,0.00002230,-0.00001168,-0.00006229,-0.00003008,0.
 00001264,-0.00006247,0.00025418,0.00015471,0.00004452,0.00001673,-0.00
 002265,0.00002277,0.00000087,-0.00000110,-0.00000273,-0.00000241,0.000
 01286,-0.00000222,0.00004112,-0.00087139,-0.00027752,0.00212294,0.0024
 9941,0.00003375,-0.00049804,0.00047787,0.00010671,-0.00014875,0.000139
 52,0.00254539,0.00032384,-0.00239525,0.00254988,0.05397182,-0.05203152
 ,-0.31024603,-0.00075522,-0.00288489,-0.00928133,0.00016635,0.00007418
 ,-0.00002008,-0.00001006,0.00000117,-0.00000661,0.00002775,-0.00005161
 ,-0.00006863,0.00007951,-0.00005810,0.00002187,-0.00000707,0.00007462,
 0.00014879,0.00015969,0.00001955,-0.00015337,0.00329730,-0.00226227,-0
 .01373029,-0.05916697,0.05702231,0.32780246,-0.00000546,-0.00000023,-0
 .00000549,-0.00000058,0.00000036,0.00000208,-0.00000109,-0.00000039,-0
 .00000153,0.00000111,-0.00000028,-0.00000011,0.00000033,-0.00000039,-0
 .00000054,0.00000017,0.00000008,0.00000010,-0.00000023,0.,0.00000019,-
 0.00000350,0.00001005,0.00000298,0.00000274,0.00000235,-0.00002005,0.0
 0001261,-0.00001555,-0.00001333,-0.00000024,0.00000376,0.00000089,-0.0
 0001798,0.00000251,-0.00001548,0.00006180,-0.00011340,-0.00012497,-0.0
 0002110,0.00000186,0.00000857,0.,0.00000050,0.00000068,-0.00000150,-0.
 00001031,0.00000328,-0.00002018,0.00120312,0.00000403,-0.00316992,0.00
 679366,0.00164636,0.00022040,-0.00012530,0.00259949,-0.00062021,0.0001
 9684,0.00115652,-0.00185938,-0.00639052,0.00171134,0.01078231,-0.01835
 199,-0.00197861,-0.09508680,0.10004500,-0.00112594,-0.00011200,0.00004
 611,-0.00015350,-0.00025274,-0.00021276,0.00043771,0.00013265,0.000725
 45,0.00009085,0.00018587,-0.00047655,-0.00004754,0.00003239,0.00000624
 ,-0.00016075,0.00007047,0.00000946,-0.00020011,0.00063419,0.00079609,-
 0.00065582,0.00061524,0.00082149,0.00001262,0.09818935,-0.00001586,-0.
 00000598,-0.00005264,-0.00000837,0.00000591,0.00005560,-0.00000580,-0.
 00000508,-0.00001428,0.00001108,-0.00000182,-0.00001078,-0.00000037,0.
 00000814,-0.00001653,0.00000184,-0.00000082,0.00000101,-0.00000152,-0.
 00000190,0.00000133,-0.00000856,-0.00000544,0.00003689,-0.00001614,-0.
 00004318,-0.00005903,0.00003483,0.00002607,0.00000295,0.00001639,-0.00
 000485,-0.00003253,-0.00003228,0.00004266,0.00009114,-0.00011892,0.000
 45010,-0.00013131,0.00005384,-0.00003612,-0.00005675,0.00000083,0.0000
 0005,-0.00000201,-0.00000220,0.00000467,-0.00000401,-0.00110531,0.0008
 7355,0.00123951,0.00294376,-0.00857217,-0.00308185,-0.00025007,0.00205
 585,-0.00186952,0.00003257,0.00082791,0.00118613,-0.00324104,-0.004702
 43,0.00133076,0.01108199,-0.01614118,-0.00078510,0.09903301,-0.2764818
 3,0.00115704,0.00013607,-0.00015491,-0.00007026,0.00052197,0.00026371,
 0.00012288,0.00019714,-0.00048588,0.00016182,0.00015838,-0.00003637,0.
 00010277,-0.00002855,-0.00007230,-0.00015751,-0.00000490,-0.00012095,-
 0.00007582,-0.00001832,0.00080498,-0.00042720,0.00002229,0.00054531,0.
 00018609,-0.10893620,0.29937372,-0.00000820,0.00000139,-0.00001492,-0.
 00000235,0.00000103,0.00001887,-0.00000222,-0.00000172,-0.00000469,0.0
 0000288,-0.00000077,-0.00000308,0.00000009,0.00000321,-0.00000539,0.00
 000066,-0.00000039,0.00000074,-0.00000057,-0.00000063,0.00000020,0.000
 00104,0.00000281,0.00001513,-0.00002647,-0.00001632,0.00000431,0.00000
 012,0.00000692,0.00001178,0.00000839,-0.00000178,-0.00002816,0.0000089
 1,-0.00001640,0.00007455,-0.00034211,-0.00002138,0.00016110,0.00000420
 ,-0.00002739,0.00003537,0.,-0.00000140,-0.00000110,0.00000075,0.000019
 38,-0.00000705,-0.00016471,-0.00216696,0.00083557,0.01508752,-0.035003
 96,-0.00518040,0.00210091,0.00029923,-0.00595837,0.00061606,0.00006439
 ,-0.00122018,0.00218380,0.00468394,0.00035060,-0.00790011,0.00775561,0
 .00028199,-0.00359636,0.00943048,-0.04913237,0.00011076,0.00029655,-0.
 00012934,-0.00006372,0.00072013,-0.00019653,0.00068668,-0.00173307,-0.
 00012189,0.00031632,-0.00025948,0.00014949,-0.00014294,0.00003900,0.00
 016891,-0.00012475,-0.00001731,0.00022834,0.00017003,-0.00042076,0.000
 31409,-0.00043385,-0.00035898,0.00003630,-0.00236147,0.00060245,0.0587
 1677,-0.00002195,-0.00000372,-0.00003663,-0.00001448,0.00001115,0.0000
 5171,-0.00000400,-0.00000649,-0.00001428,0.00001262,-0.00000314,-0.000
 00992,0.00000064,0.00000804,-0.00001630,0.00000152,-0.00000088,0.00000
 119,-0.00000181,-0.00000180,0.00000143,-0.00000566,-0.00000988,0.00002
 243,0.00003748,0.00000066,-0.00003090,0.00003640,-0.00001945,0.0001196
 0,-0.00000551,-0.00001648,-0.00007226,-0.00000412,-0.00003839,-0.00011
 367,0.00029951,0.00013408,0.00021707,-0.00013297,-0.00000427,-0.000060
 96,0.00000107,-0.00000195,-0.00000470,-0.00000899,0.00002570,-0.000007
 37,0.00372164,0.00027110,0.00249759,0.00658967,-0.00067509,0.00164875,
 0.00240295,-0.00080568,0.00175693,0.00017410,0.00015791,0.00016045,0.0
 0287126,0.00049588,0.00005984,-0.02112398,0.00208233,-0.01271591,-0.21
 395866,0.00119092,-0.10853829,0.00017290,0.00093226,-0.00173552,-0.000
 24528,0.00001448,-0.00016764,0.00002476,-0.00018367,-0.00011328,-0.000
 27193,-0.00130444,-0.00073395,-0.00027965,0.00014478,-0.00004861,0.000
 00553,-0.00005720,-0.00007602,-0.00224858,-0.00371840,0.00155818,0.000
 65834,0.00032872,0.00011962,-0.00976871,-0.00045159,-0.00612931,0.2310
 8591,-0.00000065,-0.00000231,-0.00003551,-0.00000741,0.00000380,0.0000
 3959,-0.00000487,-0.00000412,-0.00001099,0.00000838,-0.00000204,-0.000
 00703,0.00000011,0.00000546,-0.00001094,0.00000108,-0.00000067,0.00000
 122,-0.00000137,-0.00000128,0.00000066,-0.00000277,-0.00000316,0.00002
 267,0.00001250,-0.00001443,-0.00004454,0.00002779,0.00003807,0.0000344
 6,0.00000349,0.00000644,-0.00001914,-0.00000675,0.00002385,0.00000614,
 0.00011242,-0.00007811,0.00002296,-0.00004653,-0.00004772,0.00000872,0
 .00000076,-0.00000018,-0.00000260,-0.00000341,-0.00000541,-0.00000046,
 0.00025208,0.00015794,0.00103241,-0.00599955,0.00008212,-0.00813020,-0
 .00243001,0.00123912,-0.00179541,0.00005385,-0.00015118,-0.00008540,0.
 00041449,0.00242577,-0.00028327,-0.01983983,-0.00153145,-0.01149243,0.
 00301527,-0.05346546,0.00100145,0.00031125,0.00005253,0.00006722,0.000
 26179,-0.00014011,-0.00015073,0.00012903,0.00004372,0.00007794,0.00014
 342,0.00044137,0.00036149,0.00012263,-0.00001207,0.00006254,0.00000604
 ,-0.00001748,0.00002517,-0.00293412,-0.00225954,0.00131383,0.00092742,
 0.00067341,-0.00006934,0.02396893,0.00159056,0.01612221,0.00150453,0.0
 5095255,-0.00001442,-0.00002995,-0.00018707,-0.00003754,0.00002118,0.0
 0021463,-0.00002252,-0.00002164,-0.00005621,0.00004636,-0.00000866,-0.
 00004205,0.00000025,0.00002860,-0.00005977,0.00000609,-0.00000299,0.00
 000487,-0.00000654,-0.00000748,0.00000467,-0.00001781,-0.00000636,0.00
 009421,0.00009472,-0.00009820,-0.00016527,0.00004267,0.00020136,0.0001
 3003,0.00004780,0.00000747,-0.00011843,0.00000371,0.00007441,-0.000022
 67,0.00058997,0.00002088,0.00036449,0.00004018,-0.00023108,0.00028229,
 0.00000344,-0.00000281,-0.00001089,0.00000739,0.00000811,-0.00001468,-
 0.00408566,-0.00309599,0.00087368,-0.02052829,-0.00489923,-0.04032714,
 -0.00206346,0.00419081,0.00064933,0.00049228,-0.00018904,-0.00026992,-
 0.00060414,-0.00112450,-0.00011539,0.01148881,0.00070828,0.00759917,-0
 .11147132,0.00037505,-0.12130946,0.00135667,0.00039226,0.00051437,0.00
 015599,0.00017862,-0.00006847,0.00054783,-0.00003510,0.00015042,0.0010
 3209,-0.00074470,0.00086556,-0.00001441,0.00002042,-0.00005227,-0.0001
 2465,-0.00012206,0.00012867,0.00178265,0.00256024,-0.00001905,-0.00034
 642,-0.00067397,0.00064785,-0.00081246,0.00056877,0.00059936,0.1224107
 5,0.00193730,0.14971513\\0.00000322,0.00002941,-0.00000692,0.00000174,
 0.00001675,-0.00000207,0.00000146,0.00001112,0.00000291,0.00000403,0.0
 0000513,-0.00000417,-0.00000836,-0.00000475,0.00000297,-0.00000296,-0.
 00000296,-0.00000156,-0.00000435,0.00000227,0.00000050,-0.00000337,-0.
 00003265,0.00000362,-0.00000026,0.00002187,-0.00000174,0.00000048,0.00
 000749,-0.00000079,-0.00000837,-0.00001952,0.00000446,0.00000040,-0.00
 000367,-0.00000199,-0.00000026,0.00000591,0.00000101,0.00000018,-0.000
 00413,0.00000101,-0.00000109,0.00000426,-0.00000050,0.00000018,0.00000
 290,-0.00000048,0.00000334,0.00000121,-0.00000348,-0.00000074,-0.00000
 586,0.00000311,-0.00000122,-0.00000185,-0.00000169,0.00000417,-0.00000
 443,-0.00000141,0.00000300,-0.00000577,0.00000230,-0.00000110,-0.00000
 054,-0.00000052,0.00000085,-0.00000231,0.00000096,-0.00000060,0.000000
 76,0.00000046,-0.00000250,-0.00000075,0.00000221,0.00000185,-0.0000014
 0,-0.00000005,0.00000151,-0.00000039,-0.00000035,0.00000242,-0.0000018
 7,-0.00000014,0.00000238,-0.00000268,-0.00000080,0.00000151,-0.0000035
 2,0.00000082,0.00000184,-0.00000434,0.00000085,-0.00000043,-0.00000338
 ,0.00000125,0.00000103,-0.00000227,0.00000023\\\@
 The archive entry for this job was punched.


 A politician is a person who can make waves and then
 make you think he's the only one who can save the ship.
 -- Ivern Ball
 Job cpu time:       0 days  3 hours 59 minutes  5.8 seconds.
 Elapsed time:       0 days  0 hours 15 minutes 15.4 seconds.
 File lengths (MBytes):  RWF=    701 Int=      0 D2E=      0 Chk=     24 Scr=      1
 Normal termination of Gaussian 16 at Fri May 27 00:27:26 2022.
