 Entering Gaussian System, Link 0=g16
 AtFile(1): /home/561/yj5695/Basis/6-31pGd.gbs
 Initial command:
 /apps/gaussian/g16c01/g16/l1.exe "/jobfs/40913393.gadi-pbs/Gau-3835967.inp" -scrdir="/jobfs/40913393.gadi-pbs/"
 Entering Link 1 = /apps/gaussian/g16c01/g16/l1.exe PID=   3835974.
  
 Copyright (c) 1988-2019, Gaussian, Inc.  All Rights Reserved.
  
 This is part of the Gaussian(R) 16 program.  It is based on
 the Gaussian(R) 09 system (copyright 2009, Gaussian, Inc.),
 the Gaussian(R) 03 system (copyright 2003, Gaussian, Inc.),
 the Gaussian(R) 98 system (copyright 1998, Gaussian, Inc.),
 the Gaussian(R) 94 system (copyright 1995, Gaussian, Inc.),
 the Gaussian 92(TM) system (copyright 1992, Gaussian, Inc.),
 the Gaussian 90(TM) system (copyright 1990, Gaussian, Inc.),
 the Gaussian 88(TM) system (copyright 1988, Gaussian, Inc.),
 the Gaussian 86(TM) system (copyright 1986, Carnegie Mellon
 University), and the Gaussian 82(TM) system (copyright 1983,
 Carnegie Mellon University). Gaussian is a federally registered
 trademark of Gaussian, Inc.
  
 This software contains proprietary and confidential information,
 including trade secrets, belonging to Gaussian, Inc.
  
 This software is provided under written license and may be
 used, copied, transmitted, or stored only in accord with that
 written license.
  
 The following legend is applicable only to US Government
 contracts under FAR:
  
                    RESTRICTED RIGHTS LEGEND
  
 Use, reproduction and disclosure by the US Government is
 subject to restrictions as set forth in subparagraphs (a)
 and (c) of the Commercial Computer Software - Restricted
 Rights clause in FAR 52.227-19.
  
 Gaussian, Inc.
 340 Quinnipiac St., Bldg. 40, Wallingford CT 06492
  
  
 ---------------------------------------------------------------
 Warning -- This program may not be used in any manner that
 competes with the business of Gaussian, Inc. or will provide
 assistance to any competitor of Gaussian, Inc.  The licensee
 of this program is prohibited from giving any competitor of
 Gaussian, Inc. access to this program.  By using this program,
 the user acknowledges that Gaussian, Inc. is engaged in the
 business of creating and licensing software in the field of
 computational chemistry and represents and warrants to the
 licensee that it is not a competitor of Gaussian, Inc. and that
 it will not use this program in any manner prohibited above.
 ---------------------------------------------------------------
  

 Cite this work as:
 Gaussian 16, Revision C.01,
 M. J. Frisch, G. W. Trucks, H. B. Schlegel, G. E. Scuseria, 
 M. A. Robb, J. R. Cheeseman, G. Scalmani, V. Barone, 
 G. A. Petersson, H. Nakatsuji, X. Li, M. Caricato, A. V. Marenich, 
 J. Bloino, B. G. Janesko, R. Gomperts, B. Mennucci, H. P. Hratchian, 
 J. V. Ortiz, A. F. Izmaylov, J. L. Sonnenberg, D. Williams-Young, 
 F. Ding, F. Lipparini, F. Egidi, J. Goings, B. Peng, A. Petrone, 
 T. Henderson, D. Ranasinghe, V. G. Zakrzewski, J. Gao, N. Rega, 
 G. Zheng, W. Liang, M. Hada, M. Ehara, K. Toyota, R. Fukuda, 
 J. Hasegawa, M. Ishida, T. Nakajima, Y. Honda, O. Kitao, H. Nakai, 
 T. Vreven, K. Throssell, J. A. Montgomery, Jr., J. E. Peralta, 
 F. Ogliaro, M. J. Bearpark, J. J. Heyd, E. N. Brothers, K. N. Kudin, 
 V. N. Staroverov, T. A. Keith, R. Kobayashi, J. Normand, 
 K. Raghavachari, A. P. Rendell, J. C. Burant, S. S. Iyengar, 
 J. Tomasi, M. Cossi, J. M. Millam, M. Klene, C. Adamo, R. Cammi, 
 J. W. Ochterski, R. L. Martin, K. Morokuma, O. Farkas, 
 J. B. Foresman, and D. J. Fox, Gaussian, Inc., Wallingford CT, 2019.
 
 ******************************************
 Gaussian 16:  ES64L-G16RevC.01  3-Jul-2019
                22-May-2022 
 ******************************************
 %nproc=16
 Will use up to   16 processors via shared memory.
 %mem=20gb
 -----------------------------------------------------
 #m062X/gen 6D OPT Freq=noraman SCRF=(SMD,Solvent=h2o)
 -----------------------------------------------------
 1/18=20,19=15,26=3,38=1/1,3;
 2/9=110,12=2,17=6,18=5,40=1/2;
 3/5=7,8=2,11=2,25=1,30=1,70=32201,71=1,72=1,74=-55/1,2,3;
 4//1;
 5/5=2,38=5,53=1/2;
 6/7=2,8=2,9=2,10=2,28=1/1;
 7//1,2,3,16;
 1/18=20,19=15,26=3/3(2);
 2/9=110/2;
 99//99;
 2/9=110/2;
 3/5=7,6=1,8=2,11=2,25=1,30=1,70=32205,71=1,72=1,74=-55,82=7/1,2,3;
 4/5=5,16=3,69=1/1;
 5/5=2,38=5,53=1/2;
 7//1,2,3,16;
 1/18=20,19=15,26=3/3(-5);
 2/9=110/2;
 6/7=2,8=2,9=2,10=2,19=2,28=1/1;
 99/9=1/99;
 ------------------
 HA.15.smd.a3d3.smd
 ------------------
 Symbolic Z-matrix:
 Charge =  0 Multiplicity = 1
 C                    -1.34801   0.77176  -0.82387 
 C                    -2.52941   0.75116  -1.5623 
 H                    -3.48697   0.58377  -1.07872 
 C                    -2.45756   0.9596   -2.93471 
 H                    -3.36342   0.95733  -3.53199 
 C                    -1.22152   1.16808  -3.55394 
 C                    -1.21988   1.39335  -5.03988 
 C                    -0.04889   1.18506  -2.79284 
 H                     0.91648   1.37742  -3.25142 
 C                    -0.10704   0.98737  -1.41596 
 H                     0.79772   1.01479  -0.81705 
 S                    -1.42551   0.4611    0.92766 
 O                    -2.62043   1.12075   1.45189 
 O                    -1.23913  -0.97377   1.14101 
 N                    -0.13519   1.20179   1.64323 
 H                    -0.15563   2.21462   1.50417 
 H                     0.75075   0.81341   1.31209 
 N                    -2.1494    0.75592  -5.76057 
 O                    -0.38671   2.15215  -5.56309 
 C                    -2.21902   0.91092  -7.20423 
 H                    -3.02715   0.28343  -7.57704 
 H                    -1.27848   0.60112  -7.66656 
 H                    -2.41711   1.95239  -7.47268 
 H                    -2.85448   0.19899  -5.29431 
 

 GradGradGradGradGradGradGradGradGradGradGradGradGradGradGradGradGradGrad
 Berny optimization.
 Initialization pass.
                           ----------------------------
                           !    Initial Parameters    !
                           ! (Angstroms and Degrees)  !
 --------------------------                            --------------------------
 ! Name  Definition              Value          Derivative Info.                !
 --------------------------------------------------------------------------------
 ! R1    R(1,2)                  1.3933         estimate D2E/DX2                !
 ! R2    R(1,10)                 1.3918         estimate D2E/DX2                !
 ! R3    R(1,12)                 1.7806         estimate D2E/DX2                !
 ! R4    R(2,3)                  1.0857         estimate D2E/DX2                !
 ! R5    R(2,4)                  1.39           estimate D2E/DX2                !
 ! R6    R(4,5)                  1.0851         estimate D2E/DX2                !
 ! R7    R(4,6)                  1.3981         estimate D2E/DX2                !
 ! R8    R(6,7)                  1.5029         estimate D2E/DX2                !
 ! R9    R(6,8)                  1.3981         estimate D2E/DX2                !
 ! R10   R(7,18)                 1.3378         estimate D2E/DX2                !
 ! R11   R(7,19)                 1.2425         estimate D2E/DX2                !
 ! R12   R(8,9)                  1.0859         estimate D2E/DX2                !
 ! R13   R(8,10)                 1.3922         estimate D2E/DX2                !
 ! R14   R(10,11)                1.0854         estimate D2E/DX2                !
 ! R15   R(12,13)                1.4621         estimate D2E/DX2                !
 ! R16   R(12,14)                1.4626         estimate D2E/DX2                !
 ! R17   R(12,15)                1.6509         estimate D2E/DX2                !
 ! R18   R(15,16)                1.0225         estimate D2E/DX2                !
 ! R19   R(15,17)                1.0224         estimate D2E/DX2                !
 ! R20   R(18,20)                1.4536         estimate D2E/DX2                !
 ! R21   R(18,24)                1.0123         estimate D2E/DX2                !
 ! R22   R(20,21)                1.0889         estimate D2E/DX2                !
 ! R23   R(20,22)                1.0929         estimate D2E/DX2                !
 ! R24   R(20,23)                1.0936         estimate D2E/DX2                !
 ! A1    A(2,1,10)             122.1983         estimate D2E/DX2                !
 ! A2    A(2,1,12)             118.8056         estimate D2E/DX2                !
 ! A3    A(10,1,12)            118.9679         estimate D2E/DX2                !
 ! A4    A(1,2,3)              120.9333         estimate D2E/DX2                !
 ! A5    A(1,2,4)              118.5031         estimate D2E/DX2                !
 ! A6    A(3,2,4)              120.562          estimate D2E/DX2                !
 ! A7    A(2,4,5)              120.0018         estimate D2E/DX2                !
 ! A8    A(2,4,6)              120.3554         estimate D2E/DX2                !
 ! A9    A(5,4,6)              119.6424         estimate D2E/DX2                !
 ! A10   A(4,6,7)              117.4656         estimate D2E/DX2                !
 ! A11   A(4,6,8)              120.1469         estimate D2E/DX2                !
 ! A12   A(7,6,8)              122.378          estimate D2E/DX2                !
 ! A13   A(6,7,18)             117.416          estimate D2E/DX2                !
 ! A14   A(6,7,19)             120.5723         estimate D2E/DX2                !
 ! A15   A(18,7,19)            122.01           estimate D2E/DX2                !
 ! A16   A(6,8,9)              121.1908         estimate D2E/DX2                !
 ! A17   A(6,8,10)             120.1081         estimate D2E/DX2                !
 ! A18   A(9,8,10)             118.6807         estimate D2E/DX2                !
 ! A19   A(1,10,8)             118.6834         estimate D2E/DX2                !
 ! A20   A(1,10,11)            120.8263         estimate D2E/DX2                !
 ! A21   A(8,10,11)            120.4852         estimate D2E/DX2                !
 ! A22   A(1,12,13)            108.0324         estimate D2E/DX2                !
 ! A23   A(1,12,14)            108.0056         estimate D2E/DX2                !
 ! A24   A(1,12,15)            108.3046         estimate D2E/DX2                !
 ! A25   A(13,12,14)           119.6342         estimate D2E/DX2                !
 ! A26   A(13,12,15)           106.3155         estimate D2E/DX2                !
 ! A27   A(14,12,15)           106.1011         estimate D2E/DX2                !
 ! A28   A(12,15,16)           111.7051         estimate D2E/DX2                !
 ! A29   A(12,15,17)           111.4956         estimate D2E/DX2                !
 ! A30   A(16,15,17)           110.4587         estimate D2E/DX2                !
 ! A31   A(7,18,20)            121.1641         estimate D2E/DX2                !
 ! A32   A(7,18,24)            119.8658         estimate D2E/DX2                !
 ! A33   A(20,18,24)           118.865          estimate D2E/DX2                !
 ! A34   A(18,20,21)           108.3071         estimate D2E/DX2                !
 ! A35   A(18,20,22)           110.4073         estimate D2E/DX2                !
 ! A36   A(18,20,23)           110.7326         estimate D2E/DX2                !
 ! A37   A(21,20,22)           109.3001         estimate D2E/DX2                !
 ! A38   A(21,20,23)           109.2872         estimate D2E/DX2                !
 ! A39   A(22,20,23)           108.7843         estimate D2E/DX2                !
 ! D1    D(10,1,2,3)          -179.8323         estimate D2E/DX2                !
 ! D2    D(10,1,2,4)            -0.2852         estimate D2E/DX2                !
 ! D3    D(12,1,2,3)             2.1213         estimate D2E/DX2                !
 ! D4    D(12,1,2,4)          -178.3316         estimate D2E/DX2                !
 ! D5    D(2,1,10,8)            -0.174          estimate D2E/DX2                !
 ! D6    D(2,1,10,11)          179.0086         estimate D2E/DX2                !
 ! D7    D(12,1,10,8)          177.8693         estimate D2E/DX2                !
 ! D8    D(12,1,10,11)          -2.948          estimate D2E/DX2                !
 ! D9    D(2,1,12,13)          -39.2306         estimate D2E/DX2                !
 ! D10   D(2,1,12,14)           91.5067         estimate D2E/DX2                !
 ! D11   D(2,1,12,15)         -153.9943         estimate D2E/DX2                !
 ! D12   D(10,1,12,13)         142.6589         estimate D2E/DX2                !
 ! D13   D(10,1,12,14)         -86.6038         estimate D2E/DX2                !
 ! D14   D(10,1,12,15)          27.8953         estimate D2E/DX2                !
 ! D15   D(1,2,4,5)           -179.462          estimate D2E/DX2                !
 ! D16   D(1,2,4,6)              0.7724         estimate D2E/DX2                !
 ! D17   D(3,2,4,5)              0.0869         estimate D2E/DX2                !
 ! D18   D(3,2,4,6)           -179.6787         estimate D2E/DX2                !
 ! D19   D(2,4,6,7)           -179.711          estimate D2E/DX2                !
 ! D20   D(2,4,6,8)             -0.8077         estimate D2E/DX2                !
 ! D21   D(5,4,6,7)              0.5225         estimate D2E/DX2                !
 ! D22   D(5,4,6,8)            179.4258         estimate D2E/DX2                !
 ! D23   D(4,6,7,18)           -33.1973         estimate D2E/DX2                !
 ! D24   D(4,6,7,19)           146.3379         estimate D2E/DX2                !
 ! D25   D(8,6,7,18)           147.9256         estimate D2E/DX2                !
 ! D26   D(8,6,7,19)           -32.5392         estimate D2E/DX2                !
 ! D27   D(4,6,8,9)           -177.9983         estimate D2E/DX2                !
 ! D28   D(4,6,8,10)             0.3367         estimate D2E/DX2                !
 ! D29   D(7,6,8,9)              0.8495         estimate D2E/DX2                !
 ! D30   D(7,6,8,10)           179.1845         estimate D2E/DX2                !
 ! D31   D(6,7,18,20)         -179.7606         estimate D2E/DX2                !
 ! D32   D(6,7,18,24)            4.01           estimate D2E/DX2                !
 ! D33   D(19,7,18,20)           0.7113         estimate D2E/DX2                !
 ! D34   D(19,7,18,24)        -175.5181         estimate D2E/DX2                !
 ! D35   D(6,8,10,1)             0.1475         estimate D2E/DX2                !
 ! D36   D(6,8,10,11)         -179.038          estimate D2E/DX2                !
 ! D37   D(9,8,10,1)           178.524          estimate D2E/DX2                !
 ! D38   D(9,8,10,11)           -0.6616         estimate D2E/DX2                !
 ! D39   D(1,12,15,16)          61.4282         estimate D2E/DX2                !
 ! D40   D(1,12,15,17)         -62.7031         estimate D2E/DX2                !
 ! D41   D(13,12,15,16)        -54.4568         estimate D2E/DX2                !
 ! D42   D(13,12,15,17)       -178.588          estimate D2E/DX2                !
 ! D43   D(14,12,15,16)        177.1733         estimate D2E/DX2                !
 ! D44   D(14,12,15,17)         53.042          estimate D2E/DX2                !
 ! D45   D(7,18,20,21)         178.4393         estimate D2E/DX2                !
 ! D46   D(7,18,20,22)          58.7997         estimate D2E/DX2                !
 ! D47   D(7,18,20,23)         -61.7433         estimate D2E/DX2                !
 ! D48   D(24,18,20,21)         -5.2944         estimate D2E/DX2                !
 ! D49   D(24,18,20,22)       -124.934          estimate D2E/DX2                !
 ! D50   D(24,18,20,23)        114.523          estimate D2E/DX2                !
 --------------------------------------------------------------------------------
 Trust Radius=3.00D-01 FncErr=1.00D-07 GrdErr=1.00D-06 EigMax=2.50D+02 EigMin=1.00D-04
 Number of steps in this run=    123 maximum allowed number of steps=    144.
 GradGradGradGradGradGradGradGradGradGradGradGradGradGradGradGradGradGrad

                          Input orientation:                          
 ---------------------------------------------------------------------
 Center     Atomic      Atomic             Coordinates (Angstroms)
 Number     Number       Type             X           Y           Z
 ---------------------------------------------------------------------
      1          6           0       -1.348007    0.771756   -0.823874
      2          6           0       -2.529414    0.751160   -1.562298
      3          1           0       -3.486969    0.583765   -1.078725
      4          6           0       -2.457558    0.959603   -2.934707
      5          1           0       -3.363416    0.957325   -3.531994
      6          6           0       -1.221521    1.168080   -3.553935
      7          6           0       -1.219884    1.393354   -5.039880
      8          6           0       -0.048888    1.185056   -2.792840
      9          1           0        0.916477    1.377424   -3.251418
     10          6           0       -0.107041    0.987373   -1.415955
     11          1           0        0.797719    1.014786   -0.817048
     12         16           0       -1.425511    0.461101    0.927663
     13          8           0       -2.620434    1.120749    1.451890
     14          8           0       -1.239131   -0.973773    1.141007
     15          7           0       -0.135194    1.201794    1.643225
     16          1           0       -0.155633    2.214618    1.504174
     17          1           0        0.750746    0.813411    1.312092
     18          7           0       -2.149400    0.755919   -5.760569
     19          8           0       -0.386705    2.152149   -5.563094
     20          6           0       -2.219023    0.910916   -7.204233
     21          1           0       -3.027149    0.283432   -7.577037
     22          1           0       -1.278476    0.601120   -7.666555
     23          1           0       -2.417113    1.952386   -7.472679
     24          1           0       -2.854478    0.198987   -5.294313
 ---------------------------------------------------------------------
                    Distance matrix (angstroms):
                    1          2          3          4          5
     1  C    0.000000
     2  C    1.393347   0.000000
     3  H    2.162278   1.085714   0.000000
     4  C    2.392071   1.390007   2.155368   0.000000
     5  H    3.380861   2.148899   2.484621   1.085051   0.000000
     6  C    2.761576   2.418889   3.405928   1.398104   2.152351
     7  C    4.263509   3.771055   4.635284   2.480268   2.656797
     8  C    2.394860   2.802768   3.888463   2.423354   3.403573
     9  H    3.374565   3.888380   4.974015   3.414527   4.309604
    10  C    1.391778   2.438258   3.420605   2.798626   3.883620
    11  H    2.159456   3.419753   4.314256   3.883858   4.968831
    12  S    1.780560   2.739095   2.879279   4.028837   4.887766
    13  O    2.630583   3.038126   2.728231   4.392577   5.041610
    14  O    2.630491   3.456600   3.522202   4.672681   5.484402
    15  N    2.782521   4.026256   4.361808   5.139017   6.104431
    16  H    2.987208   4.144852   4.519828   5.155345   6.101938
    17  H    2.994804   4.361816   4.871034   5.324461   6.357060
    18  N    5.001344   4.215437   4.872206   2.849903   2.545770
    19  O    5.028896   4.749773   5.672833   3.552325   3.796548
    20  C    6.441041   5.652725   6.263910   4.276461   3.846704
    21  H    6.975901   6.053395   6.521479   4.725766   4.114557
    22  H    6.845161   6.232922   6.948183   4.889696   4.644185
    23  H    6.836921   6.032260   6.625735   4.645476   4.173084
    24  H    4.752088   3.786621   4.280103   2.510741   1.984909
                    6          7          8          9         10
     6  C    0.000000
     7  C    1.502925   0.000000
     8  C    1.398078   2.542402   0.000000
     9  H    2.169419   2.786196   1.085923   0.000000
    10  C    2.417784   3.812620   1.392219   2.137441   0.000000
    11  H    3.404612   4.695354   2.156267   2.464096   1.085372
    12  S    4.541602   6.043422   4.032536   4.877425   2.740049
    13  O    5.197834   6.646723   4.963337   5.890393   3.815687
    14  O    5.160458   6.618688   4.642453   5.428459   3.415520
    15  N    5.309587   6.773267   4.436936   5.009430   3.066815
    16  H    5.274071   6.680700   4.419923   4.946309   3.167909
    17  H    5.262494   6.675872   4.198571   4.601217   2.865013
    18  N    2.429006   1.337803   3.661110   4.010201   4.806295
    19  O    2.387892   1.242461   2.953590   2.764476   4.316674
    20  C    3.792864   2.432170   4.923924   5.066926   6.162019
    21  H    4.497582   3.306856   5.707145   5.954829   6.854305
    22  H    4.151907   2.744174   5.060234   4.991383   6.371142
    23  H    4.171466   2.768463   5.300771   5.409478   6.553746
    24  H    2.575773   2.040379   3.886005   4.447722   4.817844
                   11         12         13         14         15
    11  H    0.000000
    12  S    2.879815   0.000000
    13  O    4.104032   1.462118   0.000000
    14  O    3.455011   1.462572   2.528175   0.000000
    15  N    2.637848   1.650931   2.493912   2.490781   0.000000
    16  H    2.781465   2.240486   2.697133   3.386989   1.022529
    17  H    2.139158   2.237857   3.388046   2.680095   1.022438
    18  N    5.761156   6.733749   7.237026   7.173017   7.685831
    19  O    5.022092   6.787392   7.433931   7.446005   7.273064
    20  C    7.064535   8.182892   8.667966   8.611346   9.094200
    21  H    7.801407   8.656023   9.076786   8.987873   9.706700
    22  H    7.169202   8.596616   9.231300   8.947345   9.398931
    23  H    7.450615   8.589118   8.965539   9.173093   9.427102
    24  H    5.835235   6.389338   6.812905   6.737808   7.518614
                   16         17         18         19         20
    16  H    0.000000
    17  H    1.679821   0.000000
    18  N    7.673291   7.644389   0.000000
    19  O    7.071321   7.096069   2.257332   0.000000
    20  C    9.043980   9.019802   1.453629   2.755247   0.000000
    21  H    9.718203   9.673158   2.072014   3.810514   1.088938
    22  H    9.379042   9.207546   2.101251   2.761430   1.092860
    23  H    9.261045   9.407699   2.105831   2.794455   1.093601
    24  H    7.587223   7.551142   1.012276   3.158637   2.135050
                   21         22         23         24
    21  H    0.000000
    22  H    1.779549   0.000000
    23  H    1.780012   1.777639   0.000000
    24  H    2.290802   2.876287   2.830367   0.000000
 Stoichiometry    C8H10N2O3S
 Framework group  C1[X(C8H10N2O3S)]
 Deg. of freedom    66
 Full point group                 C1      NOp   1
 Largest Abelian subgroup         C1      NOp   1
 Largest concise Abelian subgroup C1      NOp   1
                         Standard orientation:                         
 ---------------------------------------------------------------------
 Center     Atomic      Atomic             Coordinates (Angstroms)
 Number     Number       Type             X           Y           Z
 ---------------------------------------------------------------------
      1          6           0       -1.176897   -0.026751   -0.019985
      2          6           0       -0.387977   -1.144254   -0.284954
      3          1           0       -0.838937   -2.113462   -0.474811
      4          6           0        0.993217   -0.990121   -0.310722
      5          1           0        1.630366   -1.842291   -0.523284
      6          6           0        1.569629    0.258512   -0.059008
      7          6           0        3.068719    0.352915   -0.110023
      8          6           0        0.758241    1.366206    0.204212
      9          1           0        1.186439    2.350246    0.370166
     10          6           0       -0.627003    1.228380    0.223555
     11          1           0       -1.263234    2.087324    0.411851
     12         16           0       -2.944726   -0.223896    0.059457
     13          8           0       -3.343210   -1.161171   -0.989599
     14          8           0       -3.307062   -0.497769    1.449717
     15          7           0       -3.645268    1.222087   -0.319945
     16          1           0       -3.406338    1.520788   -1.268236
     17          1           0       -3.397101    1.947545    0.356447
     18          7           0        3.767124   -0.718028    0.283713
     19          8           0        3.623313    1.389092   -0.513100
     20          6           0        5.220704   -0.713888    0.272524
     21          1           0        5.568447   -1.671692    0.656545
     22          1           0        5.604373    0.089956    0.905752
     23          1           0        5.599636   -0.573046   -0.743614
     24          1           0        3.282843   -1.568668    0.541757
 ---------------------------------------------------------------------
 Rotational constants (GHZ):           1.9680847           0.2608881           0.2448871
 General basis read from cards:  (6D, 7F)
 There are   290 symmetry adapted cartesian basis functions of A   symmetry.
 There are   290 symmetry adapted basis functions of A   symmetry.
   290 basis functions,   512 primitive gaussians,   290 cartesian basis functions
    56 alpha electrons       56 beta electrons
       nuclear repulsion energy      1002.3251438497 Hartrees.
 NAtoms=   24 NActive=   24 NUniq=   24 SFac= 1.00D+00 NAtFMM=   60 NAOKFM=F Big=F
 Integral buffers will be    131072 words long.
 Raffenetti 2 integral format.
 Two-electron integral symmetry is turned on.
 ------------------------------------------------------------------------------
 Polarizable Continuum Model (PCM)
 =================================
 Model                : PCM.
 Atomic radii         : SMD-Coulomb.
 Polarization charges : Total charges.
 Charge compensation  : None.
 Solution method      : On-the-fly selection.
 Cavity type          : VdW (van der Waals Surface) (Alpha=1.000).
 Cavity algorithm     : GePol (No added spheres)
                        Default sphere list used, NSphG=   24.
                        Lebedev-Laikov grids with approx.  5.0 points / Ang**2.
                        Smoothing algorithm: York/Karplus (Gamma=1.0000).
                        Polarization charges: spherical gaussians, with
                                              point-specific exponents (IZeta= 3).
                        Self-potential: point-specific (ISelfS= 7).
                        Self-field    : sphere-specific E.n sum rule (ISelfD= 2).
 1st derivatives      : Analytical E(r).r(x)/FMM algorithm (CHGder, D1EAlg=3).
                        Cavity 1st derivative terms included.
 Solvent              : Water, Eps=  78.355300 Eps(inf)=   1.777849
 ------------------------------------------------------------------------------
 ------------------------------------------------------------------------------
 Atomic radii for non-electrostatic terms: SMD-CDS.
 ------------------------------------------------------------------------------
 Nuclear repulsion after PCM non-electrostatic terms =     1002.3329672388 Hartrees.
 One-electron integrals computed using PRISM.
 NBasis=   290 RedAO= T EigKep=  1.40D-06  NBF=   290
 NBsUse=   290 1.00D-06 EigRej= -1.00D+00 NBFU=   290
 ExpMin= 4.05D-02 ExpMax= 2.19D+04 ExpMxC= 3.30D+03 IAcc=3 IRadAn=         5 AccDes= 0.00D+00
 Harris functional with IExCor= 1009 and IRadAn=       5 diagonalized for initial guess.
 HarFok:  IExCor= 1009 AccDes= 0.00D+00 IRadAn=         5 IDoV= 1 UseB2=F ITyADJ=14
 ICtDFT=  3500011 ScaDFX=  1.000000  1.000000  1.000000  1.000000
 FoFCou: FMM=F IPFlag=           0 FMFlag=      100000 FMFlg1=           0
         NFxFlg=           0 DoJE=T BraDBF=F KetDBF=T FulRan=T
         wScrn=  0.000000 ICntrl=       500 IOpCl=  0 I1Cent=   200000004 NGrid=           0
         NMat0=    1 NMatS0=      1 NMatT0=    0 NMatD0=    1 NMtDS0=    0 NMtDT0=    0
 Petite list used in FoFCou.
 Requested convergence on RMS density matrix=1.00D-08 within 128 cycles.
 Requested convergence on MAX density matrix=1.00D-06.
 Requested convergence on             energy=1.00D-06.
 No special actions if energy rises.
 Inv3:  Mode=1 IEnd=    10682307.
 Iteration    1 A*A^-1 deviation from unit magnitude is 5.55D-15 for   1881.
 Iteration    1 A*A^-1 deviation from orthogonality  is 4.05D-15 for   1874    514.
 Iteration    1 A^-1*A deviation from unit magnitude is 5.11D-15 for   1881.
 Iteration    1 A^-1*A deviation from orthogonality  is 5.47D-15 for   1616    961.
 Error on total polarization charges =  0.05099
 SCF Done:  E(RM062X) =  -1043.93743401     A.U. after   16 cycles
            NFock= 16  Conv=0.48D-08     -V/T= 2.0067
 SMD-CDS (non-electrostatic) energy       (kcal/mol) =       4.91
 (included in total energy above)

 **********************************************************************

            Population analysis using the SCF Density.

 **********************************************************************

 Orbital symmetries:
       Occupied  (A) (A) (A) (A) (A) (A) (A) (A) (A) (A) (A) (A)
                 (A) (A) (A) (A) (A) (A) (A) (A) (A) (A) (A) (A)
                 (A) (A) (A) (A) (A) (A) (A) (A) (A) (A) (A) (A)
                 (A) (A) (A) (A) (A) (A) (A) (A) (A) (A) (A) (A)
                 (A) (A) (A) (A) (A) (A) (A) (A)
       Virtual   (A) (A) (A) (A) (A) (A) (A) (A) (A) (A) (A) (A)
                 (A) (A) (A) (A) (A) (A) (A) (A) (A) (A) (A) (A)
                 (A) (A) (A) (A) (A) (A) (A) (A) (A) (A) (A) (A)
                 (A) (A) (A) (A) (A) (A) (A) (A) (A) (A) (A) (A)
                 (A) (A) (A) (A) (A) (A) (A) (A) (A) (A) (A) (A)
                 (A) (A) (A) (A) (A) (A) (A) (A) (A) (A) (A) (A)
                 (A) (A) (A) (A) (A) (A) (A) (A) (A) (A) (A) (A)
                 (A) (A) (A) (A) (A) (A) (A) (A) (A) (A) (A) (A)
                 (A) (A) (A) (A) (A) (A) (A) (A) (A) (A) (A) (A)
                 (A) (A) (A) (A) (A) (A) (A) (A) (A) (A) (A) (A)
                 (A) (A) (A) (A) (A) (A) (A) (A) (A) (A) (A) (A)
                 (A) (A) (A) (A) (A) (A) (A) (A) (A) (A) (A) (A)
                 (A) (A) (A) (A) (A) (A) (A) (A) (A) (A) (A) (A)
                 (A) (A) (A) (A) (A) (A) (A) (A) (A) (A) (A) (A)
                 (A) (A) (A) (A) (A) (A) (A) (A) (A) (A) (A) (A)
                 (A) (A) (A) (A) (A) (A) (A) (A) (A) (A) (A) (A)
                 (A) (A) (A) (A) (A) (A) (A) (A) (A) (A) (A) (A)
                 (A) (A) (A) (A) (A) (A) (A) (A) (A) (A) (A) (A)
                 (A) (A) (A) (A) (A) (A) (A) (A) (A) (A) (A) (A)
                 (A) (A) (A) (A) (A) (A)
 The electronic state is 1-A.
 Alpha  occ. eigenvalues --  -90.18426 -19.66416 -19.66381 -19.63148 -14.80592
 Alpha  occ. eigenvalues --  -14.80123 -10.67245 -10.60751 -10.58931 -10.58579
 Alpha  occ. eigenvalues --  -10.58499 -10.57969 -10.57894 -10.57416  -8.49428
 Alpha  occ. eigenvalues --   -6.41626  -6.41613  -6.41486  -1.26347  -1.17409
 Alpha  occ. eigenvalues --   -1.14845  -1.04354  -1.03612  -0.99454  -0.89965
 Alpha  occ. eigenvalues --   -0.87244  -0.81637  -0.77229  -0.72054  -0.70843
 Alpha  occ. eigenvalues --   -0.67604  -0.64908  -0.62866  -0.61827  -0.59561
 Alpha  occ. eigenvalues --   -0.56417  -0.54912  -0.54257  -0.53829  -0.52605
 Alpha  occ. eigenvalues --   -0.52046  -0.51164  -0.47923  -0.47274  -0.45888
 Alpha  occ. eigenvalues --   -0.45589  -0.43898  -0.42794  -0.42316  -0.40557
 Alpha  occ. eigenvalues --   -0.40232  -0.38750  -0.35706  -0.33776  -0.33112
 Alpha  occ. eigenvalues --   -0.32455
 Alpha virt. eigenvalues --   -0.03294  -0.00274   0.01100   0.02443   0.03589
 Alpha virt. eigenvalues --    0.03915   0.04454   0.04789   0.05056   0.05526
 Alpha virt. eigenvalues --    0.05802   0.06350   0.07291   0.08095   0.08344
 Alpha virt. eigenvalues --    0.08755   0.09042   0.10040   0.10481   0.11184
 Alpha virt. eigenvalues --    0.11670   0.12037   0.12342   0.13073   0.13444
 Alpha virt. eigenvalues --    0.14535   0.14725   0.15382   0.16090   0.16487
 Alpha virt. eigenvalues --    0.16597   0.17387   0.17912   0.19179   0.19307
 Alpha virt. eigenvalues --    0.20221   0.20626   0.21017   0.21163   0.21777
 Alpha virt. eigenvalues --    0.22176   0.22909   0.23472   0.24262   0.24299
 Alpha virt. eigenvalues --    0.25088   0.25301   0.25534   0.25844   0.26310
 Alpha virt. eigenvalues --    0.26989   0.27457   0.27985   0.28299   0.28862
 Alpha virt. eigenvalues --    0.29044   0.29868   0.30222   0.30826   0.31284
 Alpha virt. eigenvalues --    0.31917   0.32092   0.32966   0.33383   0.33534
 Alpha virt. eigenvalues --    0.33937   0.34458   0.34954   0.35484   0.36138
 Alpha virt. eigenvalues --    0.37262   0.37793   0.38763   0.39355   0.40324
 Alpha virt. eigenvalues --    0.41178   0.41880   0.45781   0.48050   0.48360
 Alpha virt. eigenvalues --    0.50686   0.52784   0.55589   0.58841   0.62568
 Alpha virt. eigenvalues --    0.64738   0.65743   0.67037   0.69120   0.70310
 Alpha virt. eigenvalues --    0.72182   0.72607   0.73772   0.74523   0.75915
 Alpha virt. eigenvalues --    0.77726   0.78603   0.80432   0.80647   0.83056
 Alpha virt. eigenvalues --    0.83284   0.84913   0.87180   0.87433   0.90133
 Alpha virt. eigenvalues --    0.91808   0.92445   0.94386   0.95353   0.96858
 Alpha virt. eigenvalues --    0.97770   0.99139   1.00831   1.02057   1.03370
 Alpha virt. eigenvalues --    1.04324   1.06266   1.07725   1.08405   1.08537
 Alpha virt. eigenvalues --    1.10172   1.10447   1.11575   1.12674   1.12849
 Alpha virt. eigenvalues --    1.13965   1.15870   1.17232   1.18032   1.20055
 Alpha virt. eigenvalues --    1.21395   1.22423   1.23909   1.26617   1.29503
 Alpha virt. eigenvalues --    1.30232   1.32202   1.34053   1.35417   1.35634
 Alpha virt. eigenvalues --    1.36306   1.36718   1.38410   1.38853   1.40187
 Alpha virt. eigenvalues --    1.41768   1.42798   1.45158   1.45464   1.47432
 Alpha virt. eigenvalues --    1.49510   1.50453   1.51086   1.52224   1.53699
 Alpha virt. eigenvalues --    1.56534   1.57076   1.57950   1.62730   1.65209
 Alpha virt. eigenvalues --    1.71112   1.77258   1.77975   1.79456   1.79613
 Alpha virt. eigenvalues --    1.84089   1.84878   1.85634   1.87138   1.88852
 Alpha virt. eigenvalues --    1.89874   1.92162   1.93357   1.95160   1.98131
 Alpha virt. eigenvalues --    2.00542   2.01839   2.03941   2.04583   2.07356
 Alpha virt. eigenvalues --    2.08335   2.11525   2.12881   2.14677   2.15380
 Alpha virt. eigenvalues --    2.16222   2.16977   2.17359   2.18336   2.21189
 Alpha virt. eigenvalues --    2.21722   2.26171   2.29432   2.31002   2.32198
 Alpha virt. eigenvalues --    2.36285   2.36710   2.41562   2.42613   2.44692
 Alpha virt. eigenvalues --    2.47862   2.50835   2.56231   2.58812   2.63218
 Alpha virt. eigenvalues --    2.65632   2.67968   2.71405   2.73808   2.74629
 Alpha virt. eigenvalues --    2.78963   2.81022   2.87874   2.90129   2.92562
 Alpha virt. eigenvalues --    2.95758   3.09525   3.18304   3.23660   3.40149
 Alpha virt. eigenvalues --    3.92105   4.05264   4.12400   4.13955   4.25675
 Alpha virt. eigenvalues --    4.27287   4.28767   4.32834   4.36035   4.39684
 Alpha virt. eigenvalues --    4.40707   4.46154   4.61850   4.75391
          Condensed to atoms (all electrons):
               1          2          3          4          5          6
     1  C   24.776930  -7.133352   0.040532  -0.909335  -0.006754  -3.234929
     2  C   -7.133352  42.643139   0.274748 -11.140844   0.015550  -0.751054
     3  H    0.040532   0.274748   0.408068  -0.030020  -0.003008  -0.010149
     4  C   -0.909335 -11.140844  -0.030020  19.037343   0.193716  -0.194723
     5  H   -0.006754   0.015550  -0.003008   0.193716   0.430619   0.046901
     6  C   -3.234929  -0.751054  -0.010149  -0.194723   0.046901  18.280177
     7  C   -0.741309   1.843590   0.003612  -0.558303   0.017429  -7.418533
     8  C   -0.898281   0.379697  -0.028838  -2.963993   0.061371  -1.336314
     9  H    0.024825  -0.027133   0.000011   0.056593  -0.000101   0.070049
    10  C   -3.393951 -21.331625   0.054479   2.584141  -0.034539   1.481237
    11  H    0.042613   0.044217  -0.000100  -0.019524   0.000013   0.011088
    12  S   -1.256775   0.895647  -0.000407   0.102710  -0.000151  -0.142923
    13  O   -0.414807  -0.017302   0.003324   0.174244   0.000106  -0.041507
    14  O    0.084689  -0.556309  -0.000722  -0.041583   0.000017   0.012080
    15  N    0.818012   1.118338   0.000950  -0.207972   0.000041  -0.006582
    16  H   -0.011778   0.003999  -0.000001   0.004584   0.000000  -0.001570
    17  H   -0.208547  -0.096386  -0.000003   0.008286   0.000000   0.001477
    18  N   -0.045773   0.068773   0.000355   0.152566   0.001777  -1.032916
    19  O   -0.010074   0.000589   0.000022   0.025224  -0.000490  -0.058162
    20  C   -0.003008  -0.030627   0.000084  -0.034767   0.005139  -0.033311
    21  H    0.000206   0.000823  -0.000000   0.001826   0.000023   0.010573
    22  H    0.000017   0.001608   0.000000   0.015910  -0.000005  -0.025063
    23  H   -0.000555  -0.004011   0.000000  -0.021707  -0.000011   0.011641
    24  H   -0.000020   0.011565   0.000003   0.045093   0.003856  -0.079487
               7          8          9         10         11         12
     1  C   -0.741309  -0.898281   0.024825  -3.393951   0.042613  -1.256775
     2  C    1.843590   0.379697  -0.027133 -21.331625   0.044217   0.895647
     3  H    0.003612  -0.028838   0.000011   0.054479  -0.000100  -0.000407
     4  C   -0.558303  -2.963993   0.056593   2.584141  -0.019524   0.102710
     5  H    0.017429   0.061371  -0.000101  -0.034539   0.000013  -0.000151
     6  C   -7.418533  -1.336314   0.070049   1.481237   0.011088  -0.142923
     7  C   11.917113  -0.211107  -0.046009  -0.324061   0.000095  -0.184951
     8  C   -0.211107  22.002870   0.225081 -11.553282  -0.027075   0.555521
     9  H   -0.046009   0.225081   0.418938  -0.000982  -0.003311  -0.000436
    10  C   -0.324061 -11.553282  -0.000982  39.594759   0.261771  -0.720524
    11  H    0.000095  -0.027075  -0.003311   0.261771   0.422134  -0.012572
    12  S   -0.184951   0.555521  -0.000436  -0.720524  -0.012572  14.705246
    13  O   -0.009607   0.165044   0.000019  -0.075836   0.000558   0.307854
    14  O   -0.006321  -0.091521  -0.000001   0.559642  -0.001464   0.312022
    15  N    0.021186  -0.092853   0.000232  -1.665771   0.005739  -0.096126
    16  H   -0.000822  -0.032614  -0.000001   0.006859  -0.000764   0.044379
    17  H   -0.000201   0.096019  -0.000004   0.187265   0.001763   0.029884
    18  N    0.874458  -0.043648   0.000282   0.040953   0.000066  -0.004305
    19  O    0.447152  -0.076856   0.004263   0.020991   0.000069  -0.000652
    20  C   -0.118997   0.036005  -0.000370  -0.032764  -0.000022  -0.000107
    21  H   -0.001759  -0.000448   0.000000   0.000005   0.000000   0.000002
    22  H   -0.008265  -0.013601   0.000000  -0.003027   0.000000  -0.000003
    23  H   -0.012018   0.013661   0.000000   0.002032   0.000000  -0.000004
    24  H    0.029753  -0.018106  -0.000002   0.001282   0.000000  -0.000106
              13         14         15         16         17         18
     1  C   -0.414807   0.084689   0.818012  -0.011778  -0.208547  -0.045773
     2  C   -0.017302  -0.556309   1.118338   0.003999  -0.096386   0.068773
     3  H    0.003324  -0.000722   0.000950  -0.000001  -0.000003   0.000355
     4  C    0.174244  -0.041583  -0.207972   0.004584   0.008286   0.152566
     5  H    0.000106   0.000017   0.000041   0.000000   0.000000   0.001777
     6  C   -0.041507   0.012080  -0.006582  -0.001570   0.001477  -1.032916
     7  C   -0.009607  -0.006321   0.021186  -0.000822  -0.000201   0.874458
     8  C    0.165044  -0.091521  -0.092853  -0.032614   0.096019  -0.043648
     9  H    0.000019  -0.000001   0.000232  -0.000001  -0.000004   0.000282
    10  C   -0.075836   0.559642  -1.665771   0.006859   0.187265   0.040953
    11  H    0.000558  -0.001464   0.005739  -0.000764   0.001763   0.000066
    12  S    0.307854   0.312022  -0.096126   0.044379   0.029884  -0.004305
    13  O    8.815785  -0.183369  -0.124684  -0.004149   0.009677  -0.000063
    14  O   -0.183369   8.623336  -0.149877   0.008139  -0.002763  -0.000017
    15  N   -0.124684  -0.149877   7.970837   0.227753   0.220414   0.000003
    16  H   -0.004149   0.008139   0.227753   0.248881  -0.015779  -0.000001
    17  H    0.009677  -0.002763   0.220414  -0.015779   0.266929   0.000000
    18  N   -0.000063  -0.000017   0.000003  -0.000001   0.000000   7.355236
    19  O   -0.000006  -0.000006   0.000033  -0.000000   0.000000  -0.163326
    20  C    0.000012   0.000015  -0.000012   0.000000  -0.000000   0.173210
    21  H    0.000000  -0.000000   0.000000  -0.000000   0.000000  -0.037104
    22  H   -0.000000   0.000000  -0.000000  -0.000000  -0.000000  -0.027092
    23  H   -0.000000  -0.000000  -0.000000  -0.000000   0.000000  -0.051302
    24  H   -0.000000   0.000000   0.000000   0.000000  -0.000000   0.274099
              19         20         21         22         23         24
     1  C   -0.010074  -0.003008   0.000206   0.000017  -0.000555  -0.000020
     2  C    0.000589  -0.030627   0.000823   0.001608  -0.004011   0.011565
     3  H    0.000022   0.000084  -0.000000   0.000000   0.000000   0.000003
     4  C    0.025224  -0.034767   0.001826   0.015910  -0.021707   0.045093
     5  H   -0.000490   0.005139   0.000023  -0.000005  -0.000011   0.003856
     6  C   -0.058162  -0.033311   0.010573  -0.025063   0.011641  -0.079487
     7  C    0.447152  -0.118997  -0.001759  -0.008265  -0.012018   0.029753
     8  C   -0.076856   0.036005  -0.000448  -0.013601   0.013661  -0.018106
     9  H    0.004263  -0.000370   0.000000   0.000000   0.000000  -0.000002
    10  C    0.020991  -0.032764   0.000005  -0.003027   0.002032   0.001282
    11  H    0.000069  -0.000022   0.000000   0.000000   0.000000   0.000000
    12  S   -0.000652  -0.000107   0.000002  -0.000003  -0.000004  -0.000106
    13  O   -0.000006   0.000012   0.000000  -0.000000  -0.000000  -0.000000
    14  O   -0.000006   0.000015  -0.000000   0.000000  -0.000000   0.000000
    15  N    0.000033  -0.000012   0.000000  -0.000000  -0.000000   0.000000
    16  H   -0.000000   0.000000  -0.000000  -0.000000  -0.000000   0.000000
    17  H    0.000000  -0.000000   0.000000  -0.000000   0.000000  -0.000000
    18  N   -0.163326   0.173210  -0.037104  -0.027092  -0.051302   0.274099
    19  O    8.507399  -0.013197   0.001887  -0.001382   0.002993   0.006432
    20  C   -0.013197   5.378471   0.378646   0.409875   0.402132  -0.013665
    21  H    0.001887   0.378646   0.441785  -0.021385  -0.021559  -0.003884
    22  H   -0.001382   0.409875  -0.021385   0.451407  -0.032799   0.001873
    23  H    0.002993   0.402132  -0.021559  -0.032799   0.460333   0.001732
    24  H    0.006432  -0.013665  -0.003884   0.001873   0.001732   0.260859
 Mulliken charges:
               1
     1  C   -1.518577
     2  C   -0.213640
     3  H    0.287057
     4  C   -0.279465
     5  H    0.268499
     6  C    0.441998
     7  C    0.487875
     8  C   -0.146732
     9  H    0.278057
    10  C    0.340947
    11  H    0.274709
    12  S    1.466774
    13  O   -0.605293
    14  O   -0.565986
    15  N   -1.039661
    16  H    0.522883
    17  H    0.501969
    18  N   -0.536230
    19  O   -0.692903
    20  C   -0.502744
    21  H    0.250363
    22  H    0.251933
    23  H    0.249442
    24  H    0.478724
 Sum of Mulliken charges =  -0.00000
 Mulliken charges with hydrogens summed into heavy atoms:
               1
     1  C   -1.518577
     2  C    0.073417
     4  C   -0.010966
     6  C    0.441998
     7  C    0.487875
     8  C    0.131325
    10  C    0.615655
    12  S    1.466774
    13  O   -0.605293
    14  O   -0.565986
    15  N   -0.014809
    18  N   -0.057507
    19  O   -0.692903
    20  C    0.248995
 Electronic spatial extent (au):  <R**2>=           4312.7828
 Charge=             -0.0000 electrons
 Dipole moment (field-independent basis, Debye):
    X=              4.8545    Y=              0.3638    Z=              0.3351  Tot=              4.8796
 Quadrupole moment (field-independent basis, Debye-Ang):
   XX=           -108.7584   YY=            -79.0063   ZZ=            -96.8322
   XY=            -41.3686   XZ=             12.6411   YZ=              1.3797
 Traceless Quadrupole moment (field-independent basis, Debye-Ang):
   XX=            -13.8928   YY=             15.8594   ZZ=             -1.9666
   XY=            -41.3686   XZ=             12.6411   YZ=              1.3797
 Octapole moment (field-independent basis, Debye-Ang**2):
  XXX=            144.8380  YYY=              1.7489  ZZZ=             -8.8055  XYY=            -19.5901
  XXY=            -26.6756  XXZ=             15.3947  XZZ=              9.6983  YZZ=              7.7304
  YYZ=              8.9165  XYZ=             11.2908
 Hexadecapole moment (field-independent basis, Debye-Ang**3):
 XXXX=          -4877.7748 YYYY=           -521.7741 ZZZZ=           -264.0002 XXXY=           -530.0725
 XXXZ=            173.9423 YYYX=           -127.4297 YYYZ=              7.2985 ZZZX=             31.1734
 ZZZY=             -6.4999 XXYY=           -877.8238 XXZZ=           -889.6430 YYZZ=           -141.4070
 XXYZ=             -6.2055 YYXZ=             20.6686 ZZXY=            -42.9135
 N-N= 1.002332967239D+03 E-N=-4.454059882538D+03  KE= 1.036982183286D+03
 D1PCM: PCM CHGder 1st derivatives, ID1Alg=3 FixD1E=F DoIter=F DoCFld=F I1PDM=0.
 Calling FoFJK, ICntrl=      2127 FMM=F ISym2X=0 I1Cent= 0 IOpClX= 0 NMat=1 NMatS=1 NMatT=0.
 ***** Axes restored to original set *****
 -------------------------------------------------------------------
 Center     Atomic                   Forces (Hartrees/Bohr)
 Number     Number              X              Y              Z
 -------------------------------------------------------------------
      1        6           0.000097770    0.000751270   -0.000561087
      2        6          -0.000884956    0.000500662    0.001940770
      3        1          -0.000160552    0.000635233    0.000194201
      4        6           0.002314169   -0.003151077    0.003255852
      5        1          -0.002154540    0.001245717    0.004091908
      6        6          -0.009203472   -0.002487662   -0.000753460
      7        6           0.007370208    0.004568348    0.001464512
      8        6           0.001747150    0.003977577   -0.002662784
      9        1          -0.001095112   -0.000850512   -0.002608550
     10        6          -0.002320093   -0.000470266   -0.002404988
     11        1           0.001137369   -0.000122999   -0.002858924
     12       16           0.002690022    0.004154087    0.001716859
     13        8          -0.002035451   -0.002071638   -0.000159341
     14        8          -0.001392570   -0.001889906    0.001008295
     15        7          -0.001197185   -0.001336742   -0.003464769
     16        1           0.000085977   -0.000158728    0.000583822
     17        1           0.000618608    0.000246671    0.003565925
     18        7          -0.000012385   -0.000640501    0.000202756
     19        8           0.002937579   -0.001731729   -0.000804701
     20        6          -0.000640213    0.001408238    0.000022631
     21        1           0.000026179   -0.000039150    0.000091060
     22        1           0.000066144   -0.000062976    0.000172260
     23        1           0.000034674   -0.000038502   -0.000162347
     24        1           0.001970681   -0.002435416   -0.001869901
 -------------------------------------------------------------------
 Cartesian Forces:  Max     0.009203472 RMS     0.002294409

 GradGradGradGradGradGradGradGradGradGradGradGradGradGradGradGradGradGrad
 Berny optimization.
 FormGI is forming the generalized inverse of G from B-inverse, IUseBI=4.
 Internal  Forces:  Max     0.020115426 RMS     0.003282645
 Search for a local minimum.
 Step number   1 out of a maximum of  123
 All quantities printed in internal units (Hartrees-Bohrs-Radians)
 Mixed Optimization -- RFO/linear search
 Second derivative matrix not updated -- first step.
 ITU=  0
     Eigenvalues ---    0.00627   0.00727   0.00982   0.01575   0.01609
     Eigenvalues ---    0.01635   0.01712   0.01945   0.02126   0.02152
     Eigenvalues ---    0.02167   0.02183   0.02190   0.02195   0.02202
     Eigenvalues ---    0.02515   0.04625   0.07467   0.07709   0.09536
     Eigenvalues ---    0.10395   0.14196   0.15977   0.15993   0.15999
     Eigenvalues ---    0.15999   0.16000   0.16000   0.16000   0.16000
     Eigenvalues ---    0.16000   0.16000   0.19749   0.22000   0.22005
     Eigenvalues ---    0.22988   0.23995   0.24987   0.24995   0.24999
     Eigenvalues ---    0.25000   0.25000   0.27710   0.32072   0.34400
     Eigenvalues ---    0.34484   0.34936   0.35288   0.35313   0.35353
     Eigenvalues ---    0.35391   0.37773   0.42312   0.42509   0.42510
     Eigenvalues ---    0.43937   0.43951   0.45594   0.46159   0.46432
     Eigenvalues ---    0.46911   0.47172   0.57700   0.86086   0.90538
     Eigenvalues ---    0.90726
 RFO step:  Lambda=-6.85759496D-03 EMin= 6.27450417D-03
 Linear search not attempted -- first point.
 Iteration  1 RMS(Cart)=  0.10718241 RMS(Int)=  0.00341797
 Iteration  2 RMS(Cart)=  0.00522064 RMS(Int)=  0.00036574
 Iteration  3 RMS(Cart)=  0.00000890 RMS(Int)=  0.00036567
 Iteration  4 RMS(Cart)=  0.00000000 RMS(Int)=  0.00036567
 Variable       Old X    -DE/DX   Delta X   Delta X   Delta X     New X
                                 (Linear)    (Quad)   (Total)
    R1        2.63304  -0.00116   0.00000  -0.00227  -0.00230   2.63074
    R2        2.63008   0.00260   0.00000   0.00537   0.00530   2.63538
    R3        3.36477   0.00343   0.00000   0.01207   0.01207   3.37684
    R4        2.05170   0.00013   0.00000   0.00036   0.00036   2.05206
    R5        2.62673   0.00035   0.00000   0.00101   0.00104   2.62777
    R6        2.05045  -0.00046   0.00000  -0.00127  -0.00127   2.04918
    R7        2.64203   0.00464   0.00000   0.01004   0.01010   2.65213
    R8        2.84012   0.00103   0.00000   0.00315   0.00315   2.84327
    R9        2.64198  -0.00444   0.00000  -0.00970  -0.00967   2.63231
   R10        2.52808   0.00071   0.00000   0.00122   0.00122   2.52930
   R11        2.34791   0.00125   0.00000   0.00144   0.00144   2.34935
   R12        2.05210  -0.00002   0.00000  -0.00006  -0.00006   2.05204
   R13        2.63091  -0.00068   0.00000  -0.00171  -0.00174   2.62917
   R14        2.05106  -0.00063   0.00000  -0.00175  -0.00175   2.04930
   R15        2.76300   0.00067   0.00000   0.00073   0.00073   2.76373
   R16        2.76386   0.00183   0.00000   0.00200   0.00200   2.76586
   R17        3.11981  -0.00064   0.00000  -0.00147  -0.00147   3.11834
   R18        1.93230  -0.00023   0.00000  -0.00052  -0.00052   1.93178
   R19        1.93213  -0.00071   0.00000  -0.00159  -0.00159   1.93053
   R20        2.74696   0.00003   0.00000   0.00009   0.00009   2.74705
   R21        1.91292  -0.00089   0.00000  -0.00192  -0.00192   1.91100
   R22        2.05780  -0.00002   0.00000  -0.00006  -0.00006   2.05773
   R23        2.06521  -0.00000   0.00000  -0.00000  -0.00000   2.06520
   R24        2.06661  -0.00001   0.00000  -0.00002  -0.00002   2.06659
    A1        2.13276  -0.00205   0.00000  -0.00808  -0.00813   2.12463
    A2        2.07355  -0.00662   0.00000  -0.02579  -0.02576   2.04779
    A3        2.07638   0.00867   0.00000   0.03376   0.03378   2.11016
    A4        2.11068  -0.00049   0.00000  -0.00260  -0.00262   2.10807
    A5        2.06827   0.00086   0.00000   0.00448   0.00452   2.07278
    A6        2.10420  -0.00037   0.00000  -0.00192  -0.00194   2.10227
    A7        2.09443  -0.00443   0.00000  -0.02675  -0.02713   2.06730
    A8        2.10060   0.00000   0.00000   0.00053   0.00033   2.10093
    A9        2.08815   0.00443   0.00000   0.02638   0.02597   2.11413
   A10        2.05016   0.02012   0.00000   0.07839   0.07815   2.12831
   A11        2.09696  -0.00130   0.00000  -0.00564  -0.00563   2.09132
   A12        2.13590  -0.01883   0.00000  -0.07326  -0.07340   2.06250
   A13        2.04930   0.00408   0.00000   0.01612   0.01465   2.06394
   A14        2.10438  -0.00219   0.00000  -0.00834  -0.00982   2.09457
   A15        2.12948  -0.00187   0.00000  -0.00706  -0.00854   2.12094
   A16        2.11518  -0.00349   0.00000  -0.01890  -0.01910   2.09608
   A17        2.09628   0.00137   0.00000   0.00495   0.00480   2.10108
   A18        2.07137   0.00214   0.00000   0.01485   0.01464   2.08600
   A19        2.07142   0.00112   0.00000   0.00387   0.00383   2.07524
   A20        2.10882   0.00247   0.00000   0.01623   0.01625   2.12507
   A21        2.10286  -0.00359   0.00000  -0.02006  -0.02004   2.08282
   A22        1.88552  -0.00288   0.00000  -0.01446  -0.01466   1.87087
   A23        1.88505  -0.00040   0.00000   0.00082   0.00050   1.88555
   A24        1.89027   0.00659   0.00000   0.03358   0.03343   1.92370
   A25        2.08801  -0.00138   0.00000  -0.02084  -0.02094   2.06707
   A26        1.85556   0.00010   0.00000   0.00451   0.00459   1.86014
   A27        1.85181  -0.00090   0.00000   0.00310   0.00291   1.85473
   A28        1.94962   0.00015   0.00000   0.00838   0.00795   1.95757
   A29        1.94597   0.00446   0.00000   0.03420   0.03378   1.97975
   A30        1.92787  -0.00095   0.00000   0.00739   0.00670   1.93456
   A31        2.11471  -0.00147   0.00000  -0.00616  -0.00626   2.10846
   A32        2.09205   0.00209   0.00000   0.01189   0.01180   2.10385
   A33        2.07459  -0.00059   0.00000  -0.00428  -0.00437   2.07021
   A34        1.89032  -0.00014   0.00000  -0.00092  -0.00092   1.88940
   A35        1.92697  -0.00033   0.00000  -0.00221  -0.00221   1.92476
   A36        1.93265   0.00035   0.00000   0.00239   0.00239   1.93504
   A37        1.90765   0.00011   0.00000   0.00009   0.00009   1.90774
   A38        1.90742  -0.00000   0.00000   0.00043   0.00043   1.90785
   A39        1.89865   0.00002   0.00000   0.00022   0.00022   1.89887
    D1       -3.13867   0.00064   0.00000   0.02051   0.02036  -3.11830
    D2       -0.00498   0.00047   0.00000   0.01628   0.01604   0.01106
    D3        0.03702   0.00055   0.00000   0.02329   0.02318   0.06020
    D4       -3.11247   0.00038   0.00000   0.01906   0.01886  -3.09361
    D5       -0.00304   0.00015   0.00000   0.00594   0.00587   0.00284
    D6        3.12429   0.00027   0.00000   0.00878   0.00905   3.13334
    D7        3.10441  -0.00005   0.00000   0.00203   0.00180   3.10621
    D8       -0.05145   0.00007   0.00000   0.00486   0.00498  -0.04648
    D9       -0.68470   0.00252   0.00000   0.05700   0.05681  -0.62789
   D10        1.59709  -0.00157   0.00000   0.02089   0.02083   1.61793
   D11       -2.68771   0.00052   0.00000   0.04199   0.04203  -2.64567
   D12        2.48987   0.00263   0.00000   0.06048   0.06042   2.55029
   D13       -1.51152  -0.00145   0.00000   0.02437   0.02445  -1.48708
   D14        0.48686   0.00063   0.00000   0.04547   0.04564   0.53251
   D15       -3.13220   0.00090   0.00000   0.02990   0.02964  -3.10256
   D16        0.01348  -0.00053   0.00000  -0.01792  -0.01773  -0.00425
   D17        0.00152   0.00073   0.00000   0.02568   0.02533   0.02685
   D18       -3.13599  -0.00070   0.00000  -0.02214  -0.02204   3.12516
   D19       -3.13655   0.00089   0.00000   0.02741   0.02880  -3.10775
   D20       -0.01410  -0.00001   0.00000  -0.00226  -0.00222  -0.01632
   D21        0.00912  -0.00052   0.00000  -0.02011  -0.01973  -0.01061
   D22        3.13157  -0.00142   0.00000  -0.04979  -0.05075   3.08082
   D23       -0.57940  -0.00256   0.00000  -0.13868  -0.13875  -0.71815
   D24        2.55408  -0.00024   0.00000  -0.03911  -0.03927   2.51481
   D25        2.58179  -0.00185   0.00000  -0.10914  -0.10898   2.47281
   D26       -0.56792   0.00046   0.00000  -0.00957  -0.00950  -0.57741
   D27       -3.10666  -0.00049   0.00000  -0.01178  -0.01186  -3.11852
   D28        0.00588   0.00065   0.00000   0.02499   0.02465   0.03053
   D29        0.01483  -0.00099   0.00000  -0.04121  -0.04004  -0.02521
   D30        3.12736   0.00015   0.00000  -0.00444  -0.00353   3.12383
   D31       -3.13741  -0.00053   0.00000   0.00187   0.00192  -3.13549
   D32        0.06999  -0.00107   0.00000  -0.02399  -0.02408   0.04591
   D33        0.01241  -0.00288   0.00000  -0.09922  -0.09913  -0.08672
   D34       -3.06337  -0.00341   0.00000  -0.12508  -0.12514   3.09468
   D35        0.00257  -0.00071   0.00000  -0.02655  -0.02631  -0.02374
   D36       -3.12480  -0.00088   0.00000  -0.02968  -0.02971   3.12867
   D37        3.11583   0.00030   0.00000   0.00875   0.00943   3.12526
   D38       -0.01155   0.00013   0.00000   0.00561   0.00603  -0.00551
   D39        1.07212  -0.00027   0.00000  -0.00771  -0.00754   1.06459
   D40       -1.09437  -0.00248   0.00000  -0.04920  -0.04937  -1.14375
   D41       -0.95045  -0.00019   0.00000  -0.00955  -0.00948  -0.95993
   D42       -3.11695  -0.00239   0.00000  -0.05105  -0.05131   3.11492
   D43        3.09226   0.00196   0.00000   0.01093   0.01119   3.10345
   D44        0.92576  -0.00024   0.00000  -0.03057  -0.03064   0.89512
   D45        3.11435  -0.00040   0.00000  -0.01420  -0.01415   3.10020
   D46        1.02625  -0.00026   0.00000  -0.01243  -0.01239   1.01386
   D47       -1.07762  -0.00029   0.00000  -0.01282  -0.01277  -1.09040
   D48       -0.09240   0.00023   0.00000   0.01201   0.01196  -0.08044
   D49       -2.18051   0.00037   0.00000   0.01377   0.01372  -2.16678
   D50        1.99880   0.00034   0.00000   0.01339   0.01334   2.01214
         Item               Value     Threshold  Converged?
 Maximum Force            0.020115     0.000450     NO 
 RMS     Force            0.003283     0.000300     NO 
 Maximum Displacement     0.334978     0.001800     NO 
 RMS     Displacement     0.106954     0.001200     NO 
 Predicted change in Energy=-3.808945D-03
 GradGradGradGradGradGradGradGradGradGradGradGradGradGradGradGradGradGrad

                          Input orientation:                          
 ---------------------------------------------------------------------
 Center     Atomic      Atomic             Coordinates (Angstroms)
 Number     Number       Type             X           Y           Z
 ---------------------------------------------------------------------
      1          6           0       -1.338744    0.785825   -0.808900
      2          6           0       -2.555280    0.804297   -1.485452
      3          1           0       -3.491651    0.685407   -0.948549
      4          6           0       -2.551905    0.992914   -2.863151
      5          1           0       -3.503880    1.043264   -3.379960
      6          6           0       -1.341892    1.166078   -3.552755
      7          6           0       -1.299558    1.415359   -5.035950
      8          6           0       -0.138694    1.168455   -2.850864
      9          1           0        0.798407    1.323507   -3.377134
     10          6           0       -0.126390    0.963949   -1.474734
     11          1           0        0.820982    0.957154   -0.947041
     12         16           0       -1.382197    0.465841    0.948629
     13          8           0       -2.587461    1.105646    1.474848
     14          8           0       -1.212138   -0.973658    1.151458
     15          7           0       -0.100634    1.192054    1.692412
     16          1           0       -0.111112    2.207437    1.574561
     17          1           0        0.802903    0.803394    1.416332
     18          7           0       -2.131404    0.718624   -5.819556
     19          8           0       -0.441394    2.177237   -5.514175
     20          6           0       -2.131894    0.909790   -7.260606
     21          1           0       -2.849886    0.216749   -7.696372
     22          1           0       -1.139230    0.706498   -7.670032
     23          1           0       -2.416082    1.934055   -7.517631
     24          1           0       -2.796868    0.072613   -5.416481
 ---------------------------------------------------------------------
                    Distance matrix (angstroms):
                    1          2          3          4          5
     1  C    0.000000
     2  C    1.392129   0.000000
     3  H    2.159767   1.085905   0.000000
     4  C    2.394701   1.390555   2.154851   0.000000
     5  H    3.371118   2.132160   2.457635   1.084381   0.000000
     6  C    2.770080   2.424240   3.410923   1.403449   2.172357
     7  C    4.273851   3.815268   4.695205   2.543204   2.782049
     8  C    2.399197   2.799438   3.885159   2.419618   3.408826
     9  H    3.384131   3.885262   4.970894   3.405592   4.311405
    10  C    1.394585   2.434156   3.417520   2.794936   3.878610
    11  H    2.170911   3.422338   4.321186   3.879320   4.962956
    12  S    1.786949   2.723128   2.845574   4.021902   4.855063
    13  O    2.622419   2.975773   2.620499   4.339610   4.940939
    14  O    2.637197   3.452310   3.515495   4.666847   5.463863
    15  N    2.820373   4.034162   4.327859   5.177021   6.110088
    16  H    3.034624   4.160100   4.484496   5.208246   6.116653
    17  H    3.088465   4.438214   4.904057   5.441014   6.450607
    18  N    5.073411   4.355625   5.057478   2.998731   2.817927
    19  O    4.988074   4.752272   5.689865   3.589541   3.901229
    20  C    6.501458   5.791614   6.460754   4.418249   4.118200
    21  H    7.074226   6.245602   6.794455   4.904207   4.443225
    22  H    6.864491   6.345376   7.121282   5.018345   4.910163
    23  H    6.891021   6.138641   6.772652   4.750619   4.370027
    24  H    4.885141   4.005835   4.562965   2.725152   2.364201
                    6          7          8          9         10
     6  C    0.000000
     7  C    1.504594   0.000000
     8  C    1.392961   2.486597   0.000000
     9  H    2.153254   2.676110   1.085891   0.000000
    10  C    2.415879   3.776554   1.391298   2.145614   0.000000
    11  H    3.392847   4.628803   2.142468   2.457657   1.084444
    12  S    4.555701   6.060000   4.059079   4.919640   2.774500
    13  O    5.179950   6.644179   4.971136   5.920582   3.844084
    14  O    5.169615   6.633178   4.664709   5.461447   3.439484
    15  N    5.390099   6.837993   4.543497   5.150326   3.175454
    16  H    5.374813   6.763035   4.545837   5.111540   3.293128
    17  H    5.424344   6.813721   4.385070   4.821604   3.040991
    18  N    2.441707   1.338449   3.603661   3.862007   4.791425
    19  O    2.383382   1.243223   2.863999   2.613982   4.229466
    20  C    3.799730   2.428472   4.846191   4.882537   6.123830
    21  H    4.510526   3.304244   5.633405   5.761143   6.832608
    22  H    4.147801   2.732503   4.943566   4.750169   6.282821
    23  H    4.178985   2.770273   5.248938   5.277255   6.534555
    24  H    2.605014   2.046878   3.853459   4.318527   4.843894
                   11         12         13         14         15
    11  H    0.000000
    12  S    2.947703   0.000000
    13  O    4.183907   1.462504   0.000000
    14  O    3.502186   1.463631   2.513881   0.000000
    15  N    2.805578   1.650152   2.497820   2.493668   0.000000
    16  H    2.964875   2.245129   2.712229   3.392734   1.022254
    17  H    2.368439   2.259945   3.404313   2.699715   1.021594
    18  N    5.702182   6.814216   7.318887   7.232143   7.796014
    19  O    4.892944   6.751431   7.389205   7.413018   7.281593
    20  C    6.970137   8.255342   8.749517   8.669264   9.184891
    21  H    7.718610   8.772241   9.217933   9.076529   9.831525
    22  H    7.007414   8.625443   9.267444   8.980362   9.432381
    23  H    7.389558   8.654602   9.032182   9.222655   9.525585
    24  H    5.817830   6.532270   6.971472   6.836949   7.684998
                   16         17         18         19         20
    16  H    0.000000
    17  H    1.682795   0.000000
    18  N    7.808400   7.808676   0.000000
    19  O    7.096490   7.174096   2.253207   0.000000
    20  C    9.155742   9.160437   1.453674   2.741210   0.000000
    21  H    9.869849   9.835060   2.071361   3.795568   1.088904
    22  H    9.421907   9.292108   2.099718   2.701438   1.092858
    23  H    9.383793   9.563261   2.107551   2.823538   1.093592
    24  H    7.787517   7.757559   1.011258   3.160260   2.131632
                   21         22         23         24
    21  H    0.000000
    22  H    1.779577   0.000000
    23  H    1.780246   1.777772   0.000000
    24  H    2.285058   2.868461   2.832807   0.000000
 Stoichiometry    C8H10N2O3S
 Framework group  C1[X(C8H10N2O3S)]
 Deg. of freedom    66
 Full point group                 C1      NOp   1
 Largest Abelian subgroup         C1      NOp   1
 Largest concise Abelian subgroup C1      NOp   1
                         Standard orientation:                         
 ---------------------------------------------------------------------
 Center     Atomic      Atomic             Coordinates (Angstroms)
 Number     Number       Type             X           Y           Z
 ---------------------------------------------------------------------
      1          6           0       -1.184141   -0.013824   -0.026759
      2          6           0       -0.446769   -1.154900   -0.330485
      3          1           0       -0.943350   -2.094821   -0.552176
      4          6           0        0.940688   -1.066844   -0.359689
      5          1           0        1.508647   -1.949292   -0.632801
      6          6           0        1.580105    0.153511   -0.092205
      7          6           0        3.076279    0.299057   -0.156093
      8          6           0        0.820262    1.287579    0.185052
      9          1           0        1.309744    2.238794    0.371483
     10          6           0       -0.567990    1.209760    0.234141
     11          1           0       -1.142305    2.100621    0.463372
     12         16           0       -2.959783   -0.187245    0.074276
     13          8           0       -3.358214   -1.156501   -0.945878
     14          8           0       -3.309805   -0.459820    1.469053
     15          7           0       -3.695136    1.237253   -0.316961
     16          1           0       -3.478986    1.533439   -1.271191
     17          1           0       -3.505312    1.988638    0.348654
     18          7           0        3.830733   -0.686778    0.344280
     19          8           0        3.580951    1.355509   -0.574205
     20          6           0        5.281603   -0.600340    0.318358
     21          1           0        5.684778   -1.483629    0.811270
     22          1           0        5.617315    0.294274    0.848739
     23          1           0        5.651148   -0.559741   -0.710103
     24          1           0        3.401990   -1.523186    0.717434
 ---------------------------------------------------------------------
 Rotational constants (GHZ):           1.9989619           0.2572908           0.2428616
 Basis read from rwf:  (6D, 7F)
 There are   290 symmetry adapted cartesian basis functions of A   symmetry.
 There are   290 symmetry adapted basis functions of A   symmetry.
   290 basis functions,   512 primitive gaussians,   290 cartesian basis functions
    56 alpha electrons       56 beta electrons
       nuclear repulsion energy       999.8807981353 Hartrees.
 NAtoms=   24 NActive=   24 NUniq=   24 SFac= 1.00D+00 NAtFMM=   60 NAOKFM=F Big=F
 Integral buffers will be    131072 words long.
 Raffenetti 2 integral format.
 Two-electron integral symmetry is turned on.
 ------------------------------------------------------------------------------
 Polarizable Continuum Model (PCM)
 =================================
 Model                : PCM.
 Atomic radii         : SMD-Coulomb.
 Polarization charges : Total charges.
 Charge compensation  : None.
 Solution method      : On-the-fly selection.
 Cavity type          : VdW (van der Waals Surface) (Alpha=1.000).
 Cavity algorithm     : GePol (No added spheres)
                        Default sphere list used, NSphG=   24.
                        Lebedev-Laikov grids with approx.  5.0 points / Ang**2.
                        Smoothing algorithm: York/Karplus (Gamma=1.0000).
                        Polarization charges: spherical gaussians, with
                                              point-specific exponents (IZeta= 3).
                        Self-potential: point-specific (ISelfS= 7).
                        Self-field    : sphere-specific E.n sum rule (ISelfD= 2).
 1st derivatives      : Analytical E(r).r(x)/FMM algorithm (CHGder, D1EAlg=3).
                        Cavity 1st derivative terms included.
 Solvent              : Water, Eps=  78.355300 Eps(inf)=   1.777849
 ------------------------------------------------------------------------------
 ------------------------------------------------------------------------------
 Atomic radii for non-electrostatic terms: SMD-CDS.
 ------------------------------------------------------------------------------
 Nuclear repulsion after PCM non-electrostatic terms =      999.8887271561 Hartrees.
 One-electron integrals computed using PRISM.
 NBasis=   290 RedAO= T EigKep=  1.45D-06  NBF=   290
 NBsUse=   290 1.00D-06 EigRej= -1.00D+00 NBFU=   290
 Initial guess from the checkpoint file:  "/jobfs/40913393.gadi-pbs/Gau-3835974.chk"
 B after Tr=     0.000000   -0.000000   -0.000000
         Rot=    0.999957    0.009184   -0.001320    0.000629 Ang=   1.07 deg.
 ExpMin= 4.05D-02 ExpMax= 2.19D+04 ExpMxC= 3.30D+03 IAcc=3 IRadAn=         5 AccDes= 0.00D+00
 Harris functional with IExCor= 1009 and IRadAn=       5 diagonalized for initial guess.
 HarFok:  IExCor= 1009 AccDes= 0.00D+00 IRadAn=         5 IDoV= 1 UseB2=F ITyADJ=14
 ICtDFT=  3500011 ScaDFX=  1.000000  1.000000  1.000000  1.000000
 FoFCou: FMM=F IPFlag=           0 FMFlag=      100000 FMFlg1=           0
         NFxFlg=           0 DoJE=T BraDBF=F KetDBF=T FulRan=T
         wScrn=  0.000000 ICntrl=       500 IOpCl=  0 I1Cent=   200000004 NGrid=           0
         NMat0=    1 NMatS0=      1 NMatT0=    0 NMatD0=    1 NMtDS0=    0 NMtDT0=    0
 Petite list used in FoFCou.
 Requested convergence on RMS density matrix=1.00D-08 within 128 cycles.
 Requested convergence on MAX density matrix=1.00D-06.
 Requested convergence on             energy=1.00D-06.
 No special actions if energy rises.
 Inv3:  Mode=1 IEnd=    10659675.
 Iteration    1 A*A^-1 deviation from unit magnitude is 4.88D-15 for   1878.
 Iteration    1 A*A^-1 deviation from orthogonality  is 1.98D-15 for    823    334.
 Iteration    1 A^-1*A deviation from unit magnitude is 5.11D-15 for   1878.
 Iteration    1 A^-1*A deviation from orthogonality  is 6.04D-15 for   1038   1001.
 Error on total polarization charges =  0.05100
 SCF Done:  E(RM062X) =  -1043.93940569     A.U. after   15 cycles
            NFock= 15  Conv=0.60D-08     -V/T= 2.0068
 SMD-CDS (non-electrostatic) energy       (kcal/mol) =       4.98
 (included in total energy above)
 D1PCM: PCM CHGder 1st derivatives, ID1Alg=3 FixD1E=F DoIter=F DoCFld=F I1PDM=0.
 Calling FoFJK, ICntrl=      2127 FMM=F ISym2X=0 I1Cent= 0 IOpClX= 0 NMat=1 NMatS=1 NMatT=0.
 ***** Axes restored to original set *****
 -------------------------------------------------------------------
 Center     Atomic                   Forces (Hartrees/Bohr)
 Number     Number              X              Y              Z
 -------------------------------------------------------------------
      1        6           0.003331732    0.001260324   -0.000139123
      2        6          -0.000162996    0.000018560    0.000533380
      3        1           0.000052978    0.000376735   -0.000458314
      4        6           0.002653810    0.000427852   -0.002201652
      5        1          -0.000425635   -0.000951248   -0.002212822
      6        6          -0.010527884    0.002210368    0.000080859
      7        6           0.008945913   -0.007024813   -0.000898022
      8        6           0.002986603   -0.000500682    0.000743881
      9        1          -0.000555221   -0.000044488   -0.000284747
     10        6          -0.001347369   -0.000675622    0.001250398
     11        1           0.000586693   -0.000111075    0.001318941
     12       16           0.001555582    0.000719244    0.001519453
     13        8          -0.000431750    0.000546820    0.000271682
     14        8           0.001246384   -0.001293619   -0.000130404
     15        7          -0.002597350    0.000635728   -0.003582460
     16        1          -0.000116229   -0.000255688    0.000269392
     17        1          -0.000180915   -0.001220293   -0.000244040
     18        7          -0.002400972    0.003710221    0.001393661
     19        8          -0.002008765    0.003186535    0.000778038
     20        6           0.000064803   -0.000351486   -0.000365640
     21        1          -0.000071483    0.000061119   -0.000072752
     22        1          -0.000050365   -0.000101018   -0.000193993
     23        1           0.000171649   -0.000041540    0.000173237
     24        1          -0.000719214   -0.000581934    0.002451047
 -------------------------------------------------------------------
 Cartesian Forces:  Max     0.010527884 RMS     0.002259773

 GradGradGradGradGradGradGradGradGradGradGradGradGradGradGradGradGradGrad
 Berny optimization.
 Using GEDIIS/GDIIS optimizer.
 FormGI is forming the generalized inverse of G from B-inverse, IUseBI=4.
 Internal  Forces:  Max     0.006590291 RMS     0.001532798
 Search for a local minimum.
 Step number   2 out of a maximum of  123
 All quantities printed in internal units (Hartrees-Bohrs-Radians)
 Mixed Optimization -- RFO/linear search
 Update second derivatives using D2CorX and points    1    2
 DE= -1.97D-03 DEPred=-3.81D-03 R= 5.18D-01
 TightC=F SS=  1.41D+00  RLast= 3.32D-01 DXNew= 5.0454D-01 9.9483D-01
 Trust test= 5.18D-01 RLast= 3.32D-01 DXMaxT set to 5.05D-01
 ITU=  1  0
 Use linear search instead of GDIIS.
     Eigenvalues ---    0.00624   0.00770   0.00982   0.01571   0.01606
     Eigenvalues ---    0.01703   0.01860   0.01983   0.02127   0.02158
     Eigenvalues ---    0.02180   0.02187   0.02194   0.02201   0.02273
     Eigenvalues ---    0.02769   0.04323   0.07463   0.07717   0.09116
     Eigenvalues ---    0.10570   0.14623   0.15651   0.15990   0.15996
     Eigenvalues ---    0.15999   0.15999   0.16000   0.16000   0.16000
     Eigenvalues ---    0.16000   0.16464   0.20001   0.21035   0.22015
     Eigenvalues ---    0.22157   0.22999   0.24074   0.24931   0.24983
     Eigenvalues ---    0.25000   0.27493   0.28880   0.32592   0.34400
     Eigenvalues ---    0.34484   0.34936   0.35289   0.35314   0.35367
     Eigenvalues ---    0.35511   0.37777   0.42323   0.42428   0.42852
     Eigenvalues ---    0.43936   0.43957   0.45621   0.46409   0.46747
     Eigenvalues ---    0.47171   0.48145   0.57777   0.86072   0.90495
     Eigenvalues ---    0.90722
 RFO step:  Lambda=-1.42964557D-03 EMin= 6.24167787D-03
 Quartic linear search produced a step of -0.28982.
 Iteration  1 RMS(Cart)=  0.06558955 RMS(Int)=  0.00222072
 Iteration  2 RMS(Cart)=  0.00416032 RMS(Int)=  0.00051150
 Iteration  3 RMS(Cart)=  0.00001122 RMS(Int)=  0.00051149
 Iteration  4 RMS(Cart)=  0.00000000 RMS(Int)=  0.00051149
 Variable       Old X    -DE/DX   Delta X   Delta X   Delta X     New X
                                 (Linear)    (Quad)   (Total)
    R1        2.63074   0.00163   0.00067   0.00131   0.00198   2.63273
    R2        2.63538  -0.00245  -0.00154  -0.00082  -0.00235   2.63304
    R3        3.37684  -0.00170  -0.00350   0.00192  -0.00158   3.37527
    R4        2.05206  -0.00031  -0.00010  -0.00044  -0.00055   2.05152
    R5        2.62777   0.00067  -0.00030   0.00148   0.00117   2.62894
    R6        2.04918   0.00138   0.00037   0.00212   0.00249   2.05167
    R7        2.65213  -0.00490  -0.00293  -0.00241  -0.00535   2.64678
    R8        2.84327  -0.00330  -0.00091  -0.00566  -0.00657   2.83670
    R9        2.63231   0.00271   0.00280  -0.00089   0.00191   2.63422
   R10        2.52930  -0.00152  -0.00035  -0.00123  -0.00159   2.52772
   R11        2.34935   0.00027  -0.00042   0.00098   0.00056   2.34991
   R12        2.05204  -0.00035   0.00002  -0.00073  -0.00072   2.05132
   R13        2.62917  -0.00007   0.00050  -0.00094  -0.00043   2.62874
   R14        2.04930   0.00115   0.00051   0.00140   0.00191   2.05121
   R15        2.76373   0.00070  -0.00021   0.00093   0.00072   2.76445
   R16        2.76586   0.00139  -0.00058   0.00215   0.00157   2.76743
   R17        3.11834  -0.00423   0.00043  -0.00784  -0.00741   3.11093
   R18        1.93178  -0.00027   0.00015  -0.00072  -0.00057   1.93121
   R19        1.93053   0.00036   0.00046  -0.00025   0.00021   1.93074
   R20        2.74705   0.00040  -0.00002   0.00080   0.00077   2.74782
   R21        1.91100   0.00182   0.00056   0.00183   0.00239   1.91339
   R22        2.05773   0.00004   0.00002   0.00004   0.00006   2.05779
   R23        2.06520   0.00006   0.00000   0.00011   0.00011   2.06532
   R24        2.06659  -0.00013   0.00000  -0.00028  -0.00028   2.06631
    A1        2.12463   0.00120   0.00236  -0.00050   0.00185   2.12648
    A2        2.04779   0.00137   0.00747  -0.00971  -0.00226   2.04553
    A3        2.11016  -0.00258  -0.00979   0.00989   0.00008   2.11025
    A4        2.10807   0.00046   0.00076   0.00061   0.00137   2.10944
    A5        2.07278  -0.00009  -0.00131   0.00214   0.00082   2.07361
    A6        2.10227  -0.00037   0.00056  -0.00272  -0.00216   2.10011
    A7        2.06730   0.00223   0.00786  -0.00457   0.00338   2.07068
    A8        2.10093  -0.00122  -0.00010  -0.00387  -0.00390   2.09703
    A9        2.11413  -0.00099  -0.00753   0.00830   0.00087   2.11500
   A10        2.12831  -0.00139  -0.02265   0.03690   0.01423   2.14254
   A11        2.09132   0.00190   0.00163   0.00277   0.00434   2.09566
   A12        2.06250  -0.00048   0.02127  -0.03902  -0.01780   2.04470
   A13        2.06394  -0.00659  -0.00424  -0.00740  -0.01470   2.04924
   A14        2.09457   0.00260   0.00284   0.00572   0.00552   2.10009
   A15        2.12094   0.00431   0.00247   0.01182   0.01122   2.13216
   A16        2.09608  -0.00023   0.00554  -0.01139  -0.00580   2.09027
   A17        2.10108  -0.00060  -0.00139   0.00078  -0.00056   2.10052
   A18        2.08600   0.00083  -0.00424   0.01053   0.00634   2.09235
   A19        2.07524  -0.00119  -0.00111  -0.00133  -0.00243   2.07281
   A20        2.12507  -0.00030  -0.00471   0.00600   0.00128   2.12635
   A21        2.08282   0.00149   0.00581  -0.00462   0.00118   2.08400
   A22        1.87087   0.00130   0.00425  -0.00320   0.00111   1.87197
   A23        1.88555   0.00094  -0.00015   0.00177   0.00170   1.88726
   A24        1.92370  -0.00477  -0.00969   0.00061  -0.00903   1.91467
   A25        2.06707   0.00020   0.00607  -0.00413   0.00196   2.06903
   A26        1.86014   0.00104  -0.00133   0.00453   0.00318   1.86332
   A27        1.85473   0.00069  -0.00084   0.00071  -0.00009   1.85464
   A28        1.95757   0.00049  -0.00230   0.00639   0.00420   1.96177
   A29        1.97975  -0.00151  -0.00979   0.01073   0.00105   1.98079
   A30        1.93456   0.00074  -0.00194   0.00667   0.00490   1.93947
   A31        2.10846   0.00158   0.00181   0.00178   0.00362   2.11208
   A32        2.10385  -0.00258  -0.00342  -0.00455  -0.00795   2.09590
   A33        2.07021   0.00101   0.00127   0.00307   0.00437   2.07458
   A34        1.88940   0.00011   0.00027   0.00007   0.00034   1.88974
   A35        1.92476   0.00027   0.00064   0.00010   0.00074   1.92550
   A36        1.93504  -0.00027  -0.00069  -0.00008  -0.00077   1.93427
[...]
 ,0.00001035,-0.00005536,0.00008133,-0.00011210,-0.00026734,-0.00001317
 ,-0.00001364,0.00033709,0.00001665,0.00014160,-0.00008678,0.00000379,0
 .00001477,-0.00004478,-0.00042901,0.00000942,-0.00012384,-0.00004249,-
 0.00005752,0.00001285,0.00750248,0.00135426,0.00400441,-0.00178849,-0.
 00130293,-0.00002323,0.00315325,-0.00565219,-0.00138426,-0.26075042,0.
 16864898,-0.05864722,0.26903229,-0.00115503,0.00121613,0.00034883,-0.0
 0010598,0.00013271,-0.00001613,-0.00012035,0.00001259,-0.00007738,-0.0
 0001375,-0.00006498,-0.00021423,0.00001720,-0.00000248,0.00002903,-0.0
 0019976,-0.00001275,0.00028983,0.00002192,0.00008358,-0.00037773,-0.00
 000851,-0.00021946,0.00019317,-0.00000364,-0.00002402,0.00004745,0.000
 41313,0.00025316,0.00015646,-0.00000298,0.00003494,-0.00000462,0.02204
 910,-0.02285523,0.00841460,-0.00085853,0.00399891,-0.00096279,0.000866
 27,-0.00506258,-0.00244199,0.17658145,-0.21260279,0.04383541,-0.184758
 89,0.22172468,-0.00142764,0.00111249,-0.00007260,0.00000909,-0.0000399
 9,-0.00019371,-0.00013427,0.00001464,0.00002799,-0.00006571,0.00006875
 ,-0.00028200,0.00001680,0.00001565,0.00000240,-0.00022801,-0.00004135,
 0.00024053,0.00001271,0.00004138,-0.00030062,0.00002239,-0.00015209,0.
 00021555,-0.00000160,-0.00001981,0.00003261,0.00035367,0.00003899,0.00
 015207,0.00002370,0.00004566,0.00005091,0.01106993,-0.01840442,-0.0045
 9072,0.00085662,0.00152041,-0.00101661,0.00096380,-0.00459505,0.002735
 27,-0.08521008,0.07374196,-0.03108576,0.06557026,-0.04702119,0.0352351
 8,0.00067859,0.00124224,0.00020690,-0.00044625,0.00028872,0.00022318,-
 0.00000844,0.00007221,-0.00000804,-0.00003228,-0.00018379,0.00013307,0
 .00000401,-0.00002056,0.00006788,0.00016359,0.00003970,0.00034981,0.00
 004244,0.00005286,-0.00044749,-0.00012591,-0.00010908,-0.00015926,-0.0
 0000618,-0.00000666,0.00005386,0.00043009,-0.00002798,0.00024057,-0.00
 001376,-0.00000376,-0.00009468,-0.00441301,-0.00979343,-0.00171521,0.0
 0368799,0.00247605,0.00043910,-0.00054343,0.00288638,-0.00025807,-0.35
 238830,-0.11762909,0.08597487,-0.01679142,-0.01268353,0.00819130,0.369
 81605,0.00133756,0.00042358,0.00016926,-0.00011345,0.00029701,0.000133
 65,0.00000956,0.00001682,-0.00001266,-0.00003877,-0.00014984,0.0001487
 2,0.00000056,-0.00001577,0.00003471,0.00011973,-0.00010843,0.00016844,
 0.00004686,0.00007311,-0.00023807,0.00000929,-0.00010645,-0.00015005,-
 0.00001152,0.00000477,0.00000780,0.00004126,0.00012976,-0.00007968,0.0
 0008909,0.00000039,-0.00003390,-0.02897475,-0.01269042,0.01066709,-0.0
 0403618,-0.00559650,-0.00254826,0.00227877,0.00276589,-0.00092459,-0.1
 2690977,-0.11332695,0.02888213,0.02272546,0.01344340,-0.00628931,0.133
 45958,0.11486509,0.00171159,0.00051873,-0.00023332,-0.00030241,0.00011
 283,0.00014152,0.00001183,0.00005915,0.00005658,-0.00005314,-0.0001049
 8,0.00019420,-0.00000036,-0.00001763,0.00003469,0.00016531,-0.00018596
 ,0.00020022,0.00003365,0.00009192,-0.00027526,0.00008000,-0.00003530,-
 0.00026272,-0.00001172,0.00002031,-0.00000438,-0.00001804,0.00007180,-
 0.00009121,0.00010229,-0.00001975,0.00002134,-0.01731703,-0.01351656,-
 0.00309559,-0.00229809,-0.00406704,0.00292575,-0.00037139,0.00171282,-
 0.00091291,0.12057021,0.04801844,-0.04039648,-0.00873101,-0.00250051,-
 0.00138484,-0.09353979,-0.03012699,0.04287019,0.00009658,0.00023870,-0
 .00069269,0.00019409,-0.00025187,-0.00067072,-0.00002122,-0.00000375,-
 0.00018774,-0.00324602,-0.00004398,0.00007869,0.00070549,0.00011341,0.
 00026957,0.00402448,0.00024847,-0.01090250,-0.27266035,-0.04604993,-0.
 13282198,0.00172635,-0.00060865,0.00208336,0.00020404,-0.00043703,0.00
 006982,0.00050000,-0.00010917,-0.00031753,0.00001863,0.00007633,-0.000
 02357,0.00002294,-0.00024185,0.00160083,0.00027924,0.00009611,-0.00041
 008,-0.00023082,0.00016960,-0.00037183,-0.00005307,-0.00020529,-0.0004
 8745,-0.00005587,0.00005944,0.00004975,0.00006967,0.00003558,0.0000409
 2,0.78598673,-0.00034182,0.00017265,-0.00010602,-0.00020920,-0.0004204
 5,0.00032774,0.00001033,-0.00000854,0.00005350,0.00055025,-0.00076282,
 0.00006912,-0.00035992,0.00074154,-0.00027171,0.00246928,0.01120604,0.
 00286872,-0.05562729,-0.07062440,-0.01462739,0.00061427,0.00067361,0.0
 0146134,0.00012013,0.00009322,0.00006290,0.00023401,-0.00057496,-0.000
 27001,0.00000051,-0.00008679,0.00004967,-0.00001976,0.00002066,0.00006
 801,0.00001411,0.00001065,-0.00001426,-0.00002289,0.00001783,-0.000017
 77,0.00000811,0.00000565,0.00000508,0.00000820,-0.00000478,0.00000066,
 -0.00000120,0.00000790,0.00000537,0.25048698,0.17892114,-0.00079079,0.
 00068109,-0.00177117,0.00023207,0.00044530,0.00076765,0.00000503,-0.00
 006609,-0.00026557,-0.00240606,0.00015121,-0.00248257,-0.00040308,0.00
 027462,-0.00071394,-0.03649944,-0.00494692,-0.02749020,-0.11311749,-0.
 00726517,-0.22868726,0.00479946,-0.00006091,-0.00534365,-0.00020371,-0
 .00060518,0.00024700,-0.00163913,0.00137935,-0.00133254,0.00009663,0.0
 0012698,-0.00073157,-0.00007880,-0.00062914,0.00362507,0.00062136,0.00
 023292,-0.00092535,-0.00050309,0.00040777,-0.00092187,-0.00011350,-0.0
 0053126,-0.00114416,-0.00011204,0.00012814,0.00010091,0.00015308,0.000
 08411,0.00009385,0.00321269,-0.10875027,0.70576959,0.00021933,-0.00042
 003,0.00083360,-0.00043115,0.00078976,0.00070207,0.00003353,-0.0000714
 6,0.00042771,0.00254967,-0.00042366,0.00132129,0.00026336,-0.00081001,
 -0.00030726,-0.00722426,-0.01049952,0.02406380,-0.41517044,-0.12912337
 ,0.19032866,-0.00475619,0.00221036,-0.00252056,0.00195385,-0.00015668,
 -0.00111997,0.00139143,0.00009213,0.00076477,-0.00002065,-0.00007824,0
 .00036085,0.00002027,0.00022556,-0.00255054,-0.00036404,-0.00012368,0.
 00061383,0.00042697,-0.00028629,0.00065841,0.00007020,0.00034264,0.000
 74272,0.00007245,-0.00008798,-0.00006530,-0.00011031,-0.00006181,-0.00
 006715,-0.11706526,-0.04044907,0.00138968,0.53345864,-0.00006582,-0.00
 001888,0.00039119,-0.00143086,-0.00058119,0.00045002,0.00005681,-0.000
 16991,0.00034120,0.00245523,0.00035506,0.00254335,0.00006417,0.0001748
 6,-0.00013929,-0.01368100,0.01148679,0.01353443,-0.12314338,-0.1244866
 3,0.07687359,-0.00121988,0.00011820,-0.00106523,-0.00023712,0.00008416
 ,0.00038157,-0.00016974,-0.00031419,-0.00002307,0.00000539,-0.00000189
 ,0.00010767,-0.00006771,0.00017608,-0.00106017,-0.00014831,-0.00008305
 ,0.00033890,0.00017828,-0.00014208,0.00028751,0.00004049,0.00018839,0.
 00032142,0.00002885,-0.00004046,-0.00002455,-0.00004131,-0.00002663,-0
 .00002382,-0.04322288,0.00829591,-0.00170416,0.17895024,0.10194383,0.0
 0165361,0.00025651,-0.00264775,0.00139036,-0.00161583,-0.00287145,-0.0
 0013948,0.00001776,-0.00092211,-0.00548232,0.00257481,-0.00528819,0.00
 034200,0.00089594,0.00048635,0.04333062,0.01832733,-0.02605766,0.17531
 347,0.07386004,-0.20655739,0.00213740,0.00090650,-0.00185911,0.0007089
 1,0.00071747,-0.00122100,-0.00031088,-0.00107786,0.00136972,0.00000427
 ,0.00021269,-0.00024499,0.00028070,-0.00057808,0.00493039,0.00078656,0
 .00030761,-0.00133084,-0.00080123,0.00056230,-0.00119267,-0.00018251,-
 0.00065965,-0.00142167,-0.00014839,0.00017470,0.00013704,0.00019238,0.
 00010516,0.00011628,0.00354458,-0.00154466,0.02988516,-0.21405386,-0.0
 9156451,0.21111450,0.00001012,-0.00003616,0.00002069,0.00025750,0.0000
 6174,-0.00007982,-0.00000259,0.00000336,-0.00003205,-0.00025049,0.0003
 0468,0.00032009,0.00031295,-0.00019571,-0.00007663,-0.00385107,-0.0032
 2266,-0.00130570,-0.00428295,0.00322953,-0.03206692,0.00038671,0.00013
 877,-0.00103553,-0.00000261,-0.00011248,-0.00000432,-0.00021563,0.0004
 2303,-0.00004075,0.00000356,-0.00001628,-0.00009942,0.00001515,-0.0000
 2831,0.00015122,0.00003082,0.00001117,-0.00004353,-0.00002163,0.000011
 35,-0.00003722,-0.00000776,-0.00003099,-0.00006093,-0.00000544,0.00000
 745,0.00000634,0.00000720,0.00000470,0.00000664,-0.09898046,-0.0144053
 6,-0.00066287,0.00323511,0.00348180,-0.00393909,0.63261328,0.00051632,
 -0.00017753,0.00012304,-0.00029376,0.00005907,-0.00060381,0.00000497,0
 .00003980,-0.00001375,-0.00001768,-0.00016871,0.00083878,-0.00017459,-
 0.00008257,0.00005739,-0.00324027,0.00599479,0.00050928,0.00516764,0.0
 0366087,-0.00554589,0.00016898,0.00028403,-0.00154283,0.00000735,0.000
 12086,0.00007936,-0.00075057,-0.00022324,0.00035337,0.00001996,0.00001
 257,-0.00009976,0.00000929,0.00001813,-0.00007198,0.00000016,0.0000042
 0,-0.00000212,0.00001150,0.00000495,-0.00000286,-0.00000519,0.00000425
 ,0.00002016,0.00000020,-0.00000102,-0.00000086,-0.00000362,0.00000012,
 -0.00000479,-0.01648292,-0.06925144,0.02659520,-0.00057983,-0.00559927
 ,-0.00115220,0.01487782,0.59210804,0.00023150,-0.00013338,0.00037849,-
 0.00009482,0.00003495,-0.00015609,-0.00000143,-0.00001070,0.00007466,0
 .00025113,0.00018681,0.00068570,0.00026588,-0.00009933,-0.00016307,0.0
 0036846,0.00094150,0.00328648,-0.02571747,-0.00369160,-0.02862401,-0.0
 0047369,-0.00010726,-0.00009463,-0.00000596,0.00011865,0.00001695,-0.0
 0007181,-0.00023519,0.00034637,0.00001382,0.00000983,0.00007781,0.0000
 1004,0.00011349,-0.00074787,-0.00012397,-0.00004757,0.00019322,0.00012
 116,-0.00008976,0.00019288,0.00002038,0.00010618,0.00023168,0.00002375
 ,-0.00002561,-0.00002169,-0.00003208,-0.00001677,-0.00002108,0.0055569
 4,0.02988486,-0.24242525,0.01413281,0.00392452,-0.00010692,0.00243195,
 0.01255020,0.50628510,0.00000259,0.00001410,-0.00004995,-0.00000139,0.
 00000303,0.00000173,0.00000056,-0.00000027,-0.00000587,-0.00000212,0.0
 0000515,-0.00004905,-0.00002117,0.00001977,-0.00001632,-0.00001214,-0.
 00005922,0.00007742,0.00109515,0.00017432,0.00099528,0.00003245,0.0000
 1407,-0.00005324,0.00000607,-0.00000970,-0.00000021,-0.00000943,-0.000
 00110,0.00000848,0.00000118,0.00000207,-0.00000485,-0.00000149,-0.0000
 1541,0.00007803,0.00001370,0.00000550,-0.00001940,-0.00001144,0.000009
 36,-0.00001831,-0.00000174,-0.00001047,-0.00002435,-0.00000294,0.00000
 238,0.00000212,0.00000320,0.00000133,0.00000228,0.00191995,0.00037604,
 0.00318112,-0.00029540,-0.00004651,-0.00080647,-0.30248720,-0.05796621
 ,-0.08484015,0.31898793,-0.00001639,-0.00000109,0.00003422,-0.00000517
 ,-0.00003399,0.00000421,-0.00000034,-0.00000071,0.00000293,-0.00001554
 ,-0.00002954,0.00002557,0.00000924,0.00003142,0.00000551,0.00009430,0.
 00041192,0.00000122,-0.00058688,-0.00014940,0.00131456,0.00000916,-0.0
 0001520,0.00005108,0.00001038,0.00001514,0.00000124,0.00000687,-0.0000
 4221,-0.00003222,0.00000059,0.00000201,0.00000338,-0.00000021,0.000013
 99,-0.00004549,-0.00000638,-0.00000226,0.00001030,0.00000612,-0.000004
 90,0.00000907,0.00000222,0.00000677,0.00001717,0.00000184,-0.00000158,
 -0.00000126,-0.00000268,-0.00000101,-0.00000124,0.00694944,-0.00029241
 ,0.00390149,-0.00006839,0.00036135,-0.00063848,-0.05990026,-0.06378763
 ,-0.02004649,0.06319779,0.06092581,-0.00001908,0.00003416,-0.00014478,
 0.00007211,0.00003095,0.00001403,-0.00000056,0.00000399,-0.00002930,-0
 .00007465,0.00002083,-0.00006960,-0.00000163,-0.00001728,0.00000878,-0
 .00152011,-0.00038671,-0.00023389,0.00476730,0.00248310,-0.00542067,0.
 00022430,0.00003972,-0.00052162,-0.00000910,-0.00002981,0.00000798,-0.
 00014786,0.00010389,-0.00002970,0.00000391,0.00000173,-0.00005986,-0.0
 0000265,-0.00004893,0.00029022,0.00004963,0.00001818,-0.00007550,-0.00
 004108,0.00003257,-0.00007242,-0.00000891,-0.00004232,-0.00009045,-0.0
 0000850,0.00000987,0.00000760,0.00001134,0.00000687,0.00000750,-0.0391
 9537,-0.00854264,-0.02031714,-0.00059092,-0.00040137,0.00164696,-0.071
 58109,-0.01614684,-0.07439240,0.08819402,0.01827109,0.08913681,0.00003
 672,0.00001423,-0.00008469,-0.00003373,0.00001617,0.00001455,0.0000019
 7,0.00000245,0.00000278,-0.00003509,-0.00006610,0.00003868,0.00002067,
 -0.00002128,0.00002301,-0.00013396,0.00091768,0.00028451,-0.00013490,-
 0.00088416,-0.00175005,-0.00002982,-0.00000110,-0.00015219,-0.00000170
 ,0.00000528,0.00000161,-0.00003165,-0.00005686,0.00007256,0.00000068,0
 .00000822,-0.00000280,0.00000415,-0.00001725,0.00008721,0.00001274,0.0
 0000169,-0.00001827,-0.00001144,0.00000680,-0.00001483,-0.00000230,-0.
 00001124,-0.00002936,-0.00000277,0.00000307,0.00000189,0.00000301,0.00
 000248,0.00000231,0.00407650,-0.00555841,0.00119579,0.00078655,-0.0000
 4937,0.00027439,-0.17031543,0.11159068,0.07979029,-0.01638364,0.018643
 62,0.01308019,0.17643635,-0.00003255,0.00000228,0.00001856,0.00002661,
 -0.00001300,0.00003508,0.00000021,-0.00000189,0.00000193,-0.00002406,0
 .00000802,-0.00002500,0.00002502,0.00001292,-0.00002134,0.00001006,-0.
 00040840,-0.00010506,0.00039051,0.00081081,-0.00040911,0.00002449,-0.0
 0001833,0.00006636,-0.00000312,-0.00000022,-0.00000225,0.00003059,0.00
 001914,-0.00003455,-0.00000067,-0.00000311,0.00000130,0.00000077,0.000
 00636,-0.00001867,-0.00000357,-0.00000232,0.00000469,0.00000225,-0.000
 00344,0.00000408,0.00000194,0.00000460,0.00000812,-0.00000031,-0.00000
 116,-0.00000080,-0.00000018,-0.00000099,-0.00000007,-0.00768236,0.0084
 0115,0.00355194,0.00028394,-0.00034367,0.00060609,0.11155616,-0.154113
 13,-0.07512893,-0.00548559,0.00553622,0.00495190,-0.12024617,0.1582681
 5,0.00001839,0.00004878,-0.00016790,-0.00004112,0.00003850,-0.00003120
 ,-0.00000063,0.00000456,-0.00002813,-0.00006214,-0.00008350,-0.0000641
 1,-0.00014701,0.00002635,0.00005693,-0.00048844,0.00122223,-0.00007688
 ,0.00884546,0.00213406,0.00178915,0.00020541,-0.00000437,-0.00026361,-
 0.00000898,0.00000602,0.00001597,-0.00013548,-0.00004195,-0.00002089,0
 .00000462,0.00001239,-0.00004072,-0.00000064,-0.00005591,0.00030849,0.
 00005088,0.00002091,-0.00008118,-0.00004811,0.00003971,-0.00007911,-0.
 00000966,-0.00004452,-0.00009757,-0.00000896,0.00001046,0.00000858,0.0
 0001239,0.00000735,0.00000832,0.01926939,-0.01675633,-0.03145019,-0.00
 331746,-0.00182672,0.00162143,0.07590100,-0.07125906,-0.09868548,-0.00
 594132,0.00749561,0.00599382,-0.08893933,0.07864235,0.12014202,-0.0000
 3800,0.00001833,-0.00006142,0.00005073,0.00004253,0.00007420,-0.000000
 37,-0.00000548,-0.00000446,-0.00000338,0.00004204,-0.00015007,0.000008
 25,-0.00002882,-0.00000373,0.00026066,-0.00058273,0.00018182,0.0005052
 8,0.00086043,-0.00152931,-0.00001929,0.00002621,0.00005150,-0.00000025
 ,0.00000608,0.00000075,0.00003227,-0.00001777,-0.00001268,-0.00000130,
 -0.00000079,0.00000169,-0.00000185,-0.00001059,0.00007212,0.00001025,0
 .00000205,-0.00001569,-0.00001044,0.00000577,-0.00001443,-0.00000128,-
 0.00000875,-0.00002250,-0.00000246,0.00000196,0.00000127,0.00000321,0.
 00000172,0.00000238,-0.00035094,0.00153600,0.00094405,0.00006090,0.000
 32342,0.00080851,-0.06291923,-0.05773136,0.01166400,-0.00367037,-0.028
 43794,0.00694460,0.00536715,0.02121480,-0.00456754,0.06022056,0.000007
 15,0.00000805,0.00002862,0.00001950,-0.00000333,0.00000159,-0.00000198
 ,-0.00000670,0.00000258,0.00005688,0.00004614,-0.00003860,0.00002186,-
 0.00001664,0.00000005,0.00030658,-0.00042457,0.00017314,-0.00328760,0.
 00016207,-0.00067486,-0.00005757,0.00005771,0.00004408,0.00000760,0.00
 001768,0.00000209,0.00000822,-0.00004852,0.00001096,-0.00000085,-0.000
 00104,0.00000900,0.00000104,0.00001379,-0.00006266,-0.00000985,-0.0000
 0446,0.00001522,0.00000973,-0.00000679,0.00001608,0.00000182,0.0000098
 2,0.00002196,0.00000294,-0.00000239,-0.00000163,-0.00000339,-0.0000013
 2,-0.00000206,-0.00002384,0.00315250,0.00690871,0.00108947,0.00025272,
 -0.00097342,-0.05704269,-0.30451294,0.05231983,-0.00027404,-0.00353852
 ,-0.00007690,-0.00503180,-0.01776963,0.00290240,0.06287135,0.32328729,
 -0.00016837,0.00009811,-0.00022576,0.00009963,-0.00000855,0.00018535,-
 0.00000124,-0.00000737,-0.00002722,-0.00011070,0.00001345,-0.00034673,
 -0.00003065,0.00004177,0.00004745,0.00025048,-0.00120152,-0.00041122,0
 .00684784,0.00223543,0.00163438,0.00019398,-0.00004069,0.00016988,-0.0
 0001203,-0.00003988,-0.00000244,0.00009726,0.00006524,-0.00014680,-0.0
 0000221,0.00000167,-0.00001662,-0.00001088,-0.00005125,0.00037382,0.00
 005908,0.00001950,-0.00008844,-0.00005519,0.00003667,-0.00008957,-0.00
 000976,-0.00005322,-0.00011445,-0.00001057,0.00001250,0.00000941,0.000
 01464,0.00000871,0.00000968,0.00749739,0.03515265,-0.02163467,-0.00296
 743,-0.00078292,0.00136000,0.01011515,0.04601673,-0.05750265,-0.000559
 87,-0.01020801,0.00265656,-0.00412220,-0.01307654,0.00418159,-0.014737
 73,-0.06040591,0.07301822,0.00045589,-0.00026325,0.00045746,-0.0001460
 9,0.00030592,-0.00042598,0.00000141,-0.00000420,0.00005322,-0.00019433
 ,-0.00001379,0.00042574,0.00026598,0.00009310,0.00070056,-0.00010094,0
 .00058289,0.00003268,-0.02213722,-0.00723600,0.01507909,-0.00037637,0.
 00035040,-0.00012917,0.00004690,0.00006037,0.00004116,-0.00013710,-0.0
 0016173,0.00042246,-0.00000581,-0.00002931,0.00004348,0.00003596,0.000
 07741,-0.00076444,-0.00012740,-0.00004185,0.00018133,0.00011324,-0.000
 07781,0.00019688,0.00001554,0.00010401,0.00021963,0.00002231,-0.000024
 46,-0.00001902,-0.00002977,-0.00001727,-0.00001926,-0.30716069,-0.1394
 3329,0.14069905,0.00089544,-0.00206079,-0.00490352,0.00647009,0.004871
 13,-0.00352073,0.00083768,0.00010861,-0.00014586,0.00036997,-0.0000887
 8,-0.00059070,0.00049988,0.00132947,-0.00237661,0.32038543,-0.00015092
 ,-0.00002831,0.00009009,0.00038485,-0.00023963,0.00032932,0.00000542,0
 .00000110,0.00003577,-0.00099944,0.00026265,-0.00033392,0.00079840,-0.
 00109258,-0.00138487,0.00059921,-0.00146444,-0.00074151,-0.00027037,-0
 .00901087,0.00172457,-0.00001235,-0.00001703,0.00039774,0.00003885,-0.
 00009838,-0.00003627,0.00033965,0.00011078,-0.00001362,-0.00000927,-0.
 00001304,0.00004055,0.00002587,0.00003396,-0.00016761,-0.00003783,-0.0
 0002340,0.00006480,0.00004575,-0.00005142,0.00007772,0.00000617,0.0000
 2760,0.00005174,0.00000299,-0.00000444,-0.00000829,-0.00000748,-0.0000
 0354,-0.00000467,-0.14311053,-0.06969386,0.07969026,-0.00074410,0.0083
 7050,0.00027977,0.00087936,-0.00439418,-0.00055822,0.00004360,0.000595
 81,-0.00031604,0.00073138,-0.00039037,-0.00253929,-0.00012846,-0.00067
 093,0.00217342,0.14156926,0.07779402,0.00011403,-0.00005221,0.00004270
 ,0.00035015,0.00000209,-0.00005724,0.00001262,-0.00000548,0.00002684,-
 0.00239487,-0.00010016,-0.00177810,0.00094546,-0.00179541,-0.00454766,
 -0.00053151,-0.00018624,-0.00089754,-0.00991947,-0.00861375,0.01695251
 ,0.00017918,-0.00010507,-0.00006942,0.00007912,-0.00009665,0.00002767,
 0.00016006,-0.00000876,0.00015641,-0.00000238,0.00000966,0.00000827,0.
 00003668,-0.00000035,-0.00020605,-0.00004124,-0.00002458,0.00007786,0.
 00006005,-0.00005107,0.00010395,0.00000869,0.00004213,0.00005408,0.000
 00455,-0.00000827,-0.00000751,-0.00000974,-0.00000373,-0.00000232,0.14
 280755,0.08089146,-0.15285215,-0.00877975,-0.00087957,-0.00094609,0.02
 211278,0.00930326,-0.00882818,-0.00015110,-0.00017548,0.00168707,0.000
 24393,0.00092992,-0.00303934,0.00037266,-0.00022028,-0.00303975,-0.145
 65745,-0.07885144,0.15713398\\0.00001920,0.00000044,-0.00000339,-0.000
 00378,0.00000123,0.00000260,0.00000142,-0.00000070,-0.00000172,0.00000
 127,-0.00000044,-0.00000134,-0.00000044,0.00000043,-0.00000112,-0.0000
 1018,0.00000139,0.00000086,0.00000139,0.00000848,0.00000127,0.00000138
 ,0.00000060,-0.00000192,-0.00000137,0.00000003,-0.00000231,-0.00000387
 ,-0.00000117,0.00000285,-0.00000009,-0.00000230,0.00000132,0.00000006,
 -0.00001642,-0.00001334,0.00000341,0.00000277,0.00000613,-0.00000111,-
 0.00000160,0.00000443,0.00000300,-0.00000405,0.00000678,0.00000082,-0.
 00000262,0.00000173,0.00000150,-0.00000065,-0.00000552,0.00000023,0.00
 000233,-0.00000271,-0.00000286,-0.00000291,-0.00000091,-0.00000284,0.0
 0000248,0.00000028,-0.00000205,0.00000361,0.00000071,-0.00000263,0.000
 00354,-0.00000067,-0.00000190,0.00000379,0.00000189,-0.00000057,0.0000
 0174,0.00000409\\\@
 The archive entry for this job was punched.


 THAT'S WHAT MAKES US A GREAT COUNTRY.
 THE LITTLE THINGS ARE SERIOUS AND THE BIG ONES ARE NOT.
           WILL ROGERS
 Job cpu time:       0 days  1 hours 30 minutes  9.6 seconds.
 Elapsed time:       0 days  0 hours  5 minutes 47.6 seconds.
 File lengths (MBytes):  RWF=    296 Int=      0 D2E=      0 Chk=     14 Scr=      1
 Normal termination of Gaussian 16 at Sun May 22 14:28:41 2022.
