 Entering Gaussian System, Link 0=g16
 AtFile(1): /home/561/yj5695/Basis/6-31pGd.gbs
 Initial command:
 /apps/gaussian/g16c01/g16/l1.exe "/jobfs/41522565.gadi-pbs/Gau-3762852.inp" -scrdir="/jobfs/41522565.gadi-pbs/"
 Entering Link 1 = /apps/gaussian/g16c01/g16/l1.exe PID=   3762853.
  
 Copyright (c) 1988-2019, Gaussian, Inc.  All Rights Reserved.
  
 This is part of the Gaussian(R) 16 program.  It is based on
 the Gaussian(R) 09 system (copyright 2009, Gaussian, Inc.),
 the Gaussian(R) 03 system (copyright 2003, Gaussian, Inc.),
 the Gaussian(R) 98 system (copyright 1998, Gaussian, Inc.),
 the Gaussian(R) 94 system (copyright 1995, Gaussian, Inc.),
 the Gaussian 92(TM) system (copyright 1992, Gaussian, Inc.),
 the Gaussian 90(TM) system (copyright 1990, Gaussian, Inc.),
 the Gaussian 88(TM) system (copyright 1988, Gaussian, Inc.),
 the Gaussian 86(TM) system (copyright 1986, Carnegie Mellon
 University), and the Gaussian 82(TM) system (copyright 1983,
 Carnegie Mellon University). Gaussian is a federally registered
 trademark of Gaussian, Inc.
  
 This software contains proprietary and confidential information,
 including trade secrets, belonging to Gaussian, Inc.
  
 This software is provided under written license and may be
 used, copied, transmitted, or stored only in accord with that
 written license.
  
 The following legend is applicable only to US Government
 contracts under FAR:
  
                    RESTRICTED RIGHTS LEGEND
  
 Use, reproduction and disclosure by the US Government is
 subject to restrictions as set forth in subparagraphs (a)
 and (c) of the Commercial Computer Software - Restricted
 Rights clause in FAR 52.227-19.
  
 Gaussian, Inc.
 340 Quinnipiac St., Bldg. 40, Wallingford CT 06492
  
  
 ---------------------------------------------------------------
 Warning -- This program may not be used in any manner that
 competes with the business of Gaussian, Inc. or will provide
 assistance to any competitor of Gaussian, Inc.  The licensee
 of this program is prohibited from giving any competitor of
 Gaussian, Inc. access to this program.  By using this program,
 the user acknowledges that Gaussian, Inc. is engaged in the
 business of creating and licensing software in the field of
 computational chemistry and represents and warrants to the
 licensee that it is not a competitor of Gaussian, Inc. and that
 it will not use this program in any manner prohibited above.
 ---------------------------------------------------------------
  

 Cite this work as:
 Gaussian 16, Revision C.01,
 M. J. Frisch, G. W. Trucks, H. B. Schlegel, G. E. Scuseria, 
 M. A. Robb, J. R. Cheeseman, G. Scalmani, V. Barone, 
 G. A. Petersson, H. Nakatsuji, X. Li, M. Caricato, A. V. Marenich, 
 J. Bloino, B. G. Janesko, R. Gomperts, B. Mennucci, H. P. Hratchian, 
 J. V. Ortiz, A. F. Izmaylov, J. L. Sonnenberg, D. Williams-Young, 
 F. Ding, F. Lipparini, F. Egidi, J. Goings, B. Peng, A. Petrone, 
 T. Henderson, D. Ranasinghe, V. G. Zakrzewski, J. Gao, N. Rega, 
 G. Zheng, W. Liang, M. Hada, M. Ehara, K. Toyota, R. Fukuda, 
 J. Hasegawa, M. Ishida, T. Nakajima, Y. Honda, O. Kitao, H. Nakai, 
 T. Vreven, K. Throssell, J. A. Montgomery, Jr., J. E. Peralta, 
 F. Ogliaro, M. J. Bearpark, J. J. Heyd, E. N. Brothers, K. N. Kudin, 
 V. N. Staroverov, T. A. Keith, R. Kobayashi, J. Normand, 
 K. Raghavachari, A. P. Rendell, J. C. Burant, S. S. Iyengar, 
 J. Tomasi, M. Cossi, J. M. Millam, M. Klene, C. Adamo, R. Cammi, 
 J. W. Ochterski, R. L. Martin, K. Morokuma, O. Farkas, 
 J. B. Foresman, and D. J. Fox, Gaussian, Inc., Wallingford CT, 2019.
 
 ******************************************
 Gaussian 16:  ES64L-G16RevC.01  3-Jul-2019
                28-May-2022 
 ******************************************
 %nproc=16
 Will use up to   16 processors via shared memory.
 %mem=30gb
 -----------------------------------------------------
 #m062X/gen 6D OPT Freq=noraman SCRF=(SMD,Solvent=h2o)
 -----------------------------------------------------
 1/18=20,19=15,26=3,38=1/1,3;
 2/9=110,12=2,17=6,18=5,40=1/2;
 3/5=7,8=2,11=2,25=1,30=1,70=32201,71=1,72=1,74=-55/1,2,3;
 4//1;
 5/5=2,38=5,53=1/2;
 6/7=2,8=2,9=2,10=2,28=1/1;
 7//1,2,3,16;
 1/18=20,19=15,26=3/3(2);
 2/9=110/2;
 99//99;
 2/9=110/2;
 3/5=7,6=1,8=2,11=2,25=1,30=1,70=32205,71=1,72=1,74=-55,82=7/1,2,3;
 4/5=5,16=3,69=1/1;
 5/5=2,38=5,53=1/2;
 7//1,2,3,16;
 1/18=20,19=15,26=3/3(-5);
 2/9=110/2;
 6/7=2,8=2,9=2,10=2,19=2,28=1/1;
 99/9=1/99;
 ------------------
 HA.20.smd.a2e2.smd
 ------------------
 Symbolic Z-matrix:
 Charge =  0 Multiplicity = 1
 C                    -1.47982   0.69701  -1.34005 
 S                    -1.81979   0.38618   0.36315 
 O                    -2.07917  -1.0423    0.49245 
 O                    -0.74861   1.02439   1.12274 
 N                    -3.20863   1.15619   0.78047 
 H                    -4.01865   0.80302   0.26671 
 H                    -3.13043   2.1718    0.69452 
 S                    -2.76284   0.94473  -2.47157 
 C                    -1.64152   1.07167  -3.75908 
 C                    -0.35563   0.93198  -3.31444 
 C                    -0.24156   0.71059  -1.91148 
 S                     1.08189   1.00975  -4.34968 
 C                     1.82952  -0.58515  -4.20172 
 O                     1.98474   2.02277  -3.78229 
 O                     0.62258   1.20502  -5.73254 
 C                     2.76834  -0.79691  -3.1949 
 C                     3.32383  -2.06726  -3.06691 
 C                     2.94691  -3.10409  -3.92619 
 C                     1.99206  -2.85992  -4.92106 
 C                     1.42353  -1.59992  -5.06835 
 H                    -1.99216   1.25727  -4.76845 
 H                     0.69011   0.57602  -1.37055 
 H                     3.06266   0.00957  -2.53016 
 H                     4.06399  -2.25394  -2.29307 
 H                     0.68108  -1.40978  -5.83765 
 C                     3.56648  -4.47436  -3.79456 
 N                     4.57047  -4.74163  -4.83043 
 H                     1.68916  -3.66542  -5.58474 
 H                     2.78353  -5.23393  -3.88975 
 H                     4.01278  -4.57721  -2.7903 
 C                     5.72833  -3.85677  -4.66688 
 C                     5.03063  -6.12765  -4.69599 
 C                     6.11536  -6.43126  -5.71204 
 C                     6.80513  -4.19747  -5.68014 
 O                     7.22497  -5.55254  -5.55198 
 H                     6.14363  -3.95025  -3.64605 
 H                     5.42288  -2.81624  -4.81386 
 H                     4.18498  -6.80478  -4.85277 
 H                     5.42825  -6.30608  -3.67993 
 H                     5.72041  -6.33291  -6.73368 
 H                     6.49366  -7.44646  -5.57365 
 H                     7.68897  -3.57679  -5.51785 
 H                     6.43314  -4.02953  -6.70136 
 

 GradGradGradGradGradGradGradGradGradGradGradGradGradGradGradGradGradGrad
 Berny optimization.
 Initialization pass.
                           ----------------------------
                           !    Initial Parameters    !
                           ! (Angstroms and Degrees)  !
 --------------------------                            --------------------------
 ! Name  Definition              Value          Derivative Info.                !
 --------------------------------------------------------------------------------
 ! R1    R(1,2)                  1.7644         estimate D2E/DX2                !
 ! R2    R(1,8)                  1.7285         estimate D2E/DX2                !
 ! R3    R(1,11)                 1.3638         estimate D2E/DX2                !
 ! R4    R(2,3)                  1.4576         estimate D2E/DX2                !
 ! R5    R(2,4)                  1.46           estimate D2E/DX2                !
 ! R6    R(2,5)                  1.6419         estimate D2E/DX2                !
 ! R7    R(5,6)                  1.0222         estimate D2E/DX2                !
 ! R8    R(5,7)                  1.0222         estimate D2E/DX2                !
 ! R9    R(8,9)                  1.7121         estimate D2E/DX2                !
 ! R10   R(9,10)                 1.3677         estimate D2E/DX2                !
 ! R11   R(9,21)                 1.0845         estimate D2E/DX2                !
 ! R12   R(10,11)                1.4249         estimate D2E/DX2                !
 ! R13   R(10,12)                1.7732         estimate D2E/DX2                !
 ! R14   R(11,22)                1.0857         estimate D2E/DX2                !
 ! R15   R(12,13)                1.7676         estimate D2E/DX2                !
 ! R16   R(12,14)                1.4708         estimate D2E/DX2                !
 ! R17   R(12,15)                1.4702         estimate D2E/DX2                !
 ! R18   R(13,16)                1.3928         estimate D2E/DX2                !
 ! R19   R(13,20)                1.3949         estimate D2E/DX2                !
 ! R20   R(16,17)                1.3924         estimate D2E/DX2                !
 ! R21   R(16,23)                1.0858         estimate D2E/DX2                !
 ! R22   R(17,18)                1.3984         estimate D2E/DX2                !
 ! R23   R(17,24)                1.087          estimate D2E/DX2                !
 ! R24   R(18,19)                1.4004         estimate D2E/DX2                !
 ! R25   R(18,26)                1.5096         estimate D2E/DX2                !
 ! R26   R(19,20)                1.3901         estimate D2E/DX2                !
 ! R27   R(19,28)                1.0868         estimate D2E/DX2                !
 ! R28   R(20,25)                1.0859         estimate D2E/DX2                !
 ! R29   R(26,27)                1.4671         estimate D2E/DX2                !
 ! R30   R(26,29)                1.095          estimate D2E/DX2                !
 ! R31   R(26,30)                1.1038         estimate D2E/DX2                !
 ! R32   R(27,31)                1.4664         estimate D2E/DX2                !
 ! R33   R(27,32)                1.4666         estimate D2E/DX2                !
 ! R34   R(31,34)                1.5173         estimate D2E/DX2                !
 ! R35   R(31,36)                1.106          estimate D2E/DX2                !
 ! R36   R(31,37)                1.0944         estimate D2E/DX2                !
 ! R37   R(32,33)                1.517          estimate D2E/DX2                !
 ! R38   R(32,38)                1.0946         estimate D2E/DX2                !
 ! R39   R(32,39)                1.1056         estimate D2E/DX2                !
 ! R40   R(33,35)                1.4244         estimate D2E/DX2                !
 ! R41   R(33,40)                1.0997         estimate D2E/DX2                !
 ! R42   R(33,41)                1.0922         estimate D2E/DX2                !
 ! R43   R(34,35)                1.4244         estimate D2E/DX2                !
 ! R44   R(34,42)                1.0921         estimate D2E/DX2                !
 ! R45   R(34,43)                1.0998         estimate D2E/DX2                !
 ! A1    A(2,1,8)              120.9392         estimate D2E/DX2                !
 ! A2    A(2,1,11)             125.532          estimate D2E/DX2                !
 ! A3    A(8,1,11)             113.4672         estimate D2E/DX2                !
 ! A4    A(1,2,3)              107.0119         estimate D2E/DX2                !
 ! A5    A(1,2,4)              106.4893         estimate D2E/DX2                !
 ! A6    A(1,2,5)              109.009          estimate D2E/DX2                !
 ! A7    A(3,2,4)              120.8506         estimate D2E/DX2                !
 ! A8    A(3,2,5)              106.6505         estimate D2E/DX2                !
 ! A9    A(4,2,5)              106.4601         estimate D2E/DX2                !
 ! A10   A(2,5,6)              112.3661         estimate D2E/DX2                !
 ! A11   A(2,5,7)              112.3243         estimate D2E/DX2                !
 ! A12   A(6,5,7)              111.2007         estimate D2E/DX2                !
 ! A13   A(1,8,9)               90.9604         estimate D2E/DX2                !
 ! A14   A(8,9,10)             111.3279         estimate D2E/DX2                !
 ! A15   A(8,9,21)             120.0554         estimate D2E/DX2                !
 ! A16   A(10,9,21)            128.6087         estimate D2E/DX2                !
 ! A17   A(9,10,11)            114.2817         estimate D2E/DX2                !
 ! A18   A(9,10,12)            124.6038         estimate D2E/DX2                !
 ! A19   A(11,10,12)           121.1146         estimate D2E/DX2                !
 ! A20   A(1,11,10)            109.9622         estimate D2E/DX2                !
 ! A21   A(1,11,22)            124.6905         estimate D2E/DX2                !
 ! A22   A(10,11,22)           125.3469         estimate D2E/DX2                !
 ! A23   A(10,12,13)           104.7408         estimate D2E/DX2                !
 ! A24   A(10,12,14)           107.6158         estimate D2E/DX2                !
 ! A25   A(10,12,15)           107.5601         estimate D2E/DX2                !
 ! A26   A(13,12,14)           109.2399         estimate D2E/DX2                !
 ! A27   A(13,12,15)           109.3118         estimate D2E/DX2                !
 ! A28   A(14,12,15)           117.5906         estimate D2E/DX2                !
 ! A29   A(12,13,16)           118.8668         estimate D2E/DX2                !
 ! A30   A(12,13,20)           118.7706         estimate D2E/DX2                !
 ! A31   A(16,13,20)           122.3238         estimate D2E/DX2                !
 ! A32   A(13,16,17)           118.2988         estimate D2E/DX2                !
 ! A33   A(13,16,23)           120.8205         estimate D2E/DX2                !
 ! A34   A(17,16,23)           120.8801         estimate D2E/DX2                !
 ! A35   A(16,17,18)           120.827          estimate D2E/DX2                !
 ! A36   A(16,17,24)           119.5901         estimate D2E/DX2                !
 ! A37   A(18,17,24)           119.5819         estimate D2E/DX2                !
 ! A38   A(17,18,19)           119.4097         estimate D2E/DX2                !
 ! A39   A(17,18,26)           120.5854         estimate D2E/DX2                !
 ! A40   A(19,18,26)           120.0036         estimate D2E/DX2                !
 ! A41   A(18,19,20)           120.8074         estimate D2E/DX2                !
 ! A42   A(18,19,28)           119.6471         estimate D2E/DX2                !
 ! A43   A(20,19,28)           119.5453         estimate D2E/DX2                !
 ! A44   A(13,20,19)           118.329          estimate D2E/DX2                !
 ! A45   A(13,20,25)           120.7816         estimate D2E/DX2                !
 ! A46   A(19,20,25)           120.8894         estimate D2E/DX2                !
 ! A47   A(18,26,27)           112.6226         estimate D2E/DX2                !
 ! A48   A(18,26,29)           109.1843         estimate D2E/DX2                !
 ! A49   A(18,26,30)           109.2606         estimate D2E/DX2                !
 ! A50   A(27,26,29)           107.5517         estimate D2E/DX2                !
 ! A51   A(27,26,30)           110.4098         estimate D2E/DX2                !
 ! A52   A(29,26,30)           107.6724         estimate D2E/DX2                !
 ! A53   A(26,27,31)           110.5888         estimate D2E/DX2                !
 ! A54   A(26,27,32)           108.7935         estimate D2E/DX2                !
 ! A55   A(31,27,32)           108.1977         estimate D2E/DX2                !
 ! A56   A(27,31,34)           110.5103         estimate D2E/DX2                !
 ! A57   A(27,31,36)           110.3909         estimate D2E/DX2                !
 ! A58   A(27,31,37)           109.7782         estimate D2E/DX2                !
 ! A59   A(34,31,36)           109.3237         estimate D2E/DX2                !
 ! A60   A(34,31,37)           108.7765         estimate D2E/DX2                !
 ! A61   A(36,31,37)           108.0065         estimate D2E/DX2                !
 ! A62   A(27,32,33)           110.6167         estimate D2E/DX2                !
 ! A63   A(27,32,38)           109.2131         estimate D2E/DX2                !
 ! A64   A(27,32,39)           110.4642         estimate D2E/DX2                !
 ! A65   A(33,32,38)           109.4315         estimate D2E/DX2                !
 ! A66   A(33,32,39)           109.0314         estimate D2E/DX2                !
 ! A67   A(38,32,39)           108.037          estimate D2E/DX2                !
 ! A68   A(32,33,35)           110.9953         estimate D2E/DX2                !
 ! A69   A(32,33,40)           110.3367         estimate D2E/DX2                !
 ! A70   A(32,33,41)           110.4166         estimate D2E/DX2                !
 ! A71   A(35,33,40)           109.2068         estimate D2E/DX2                !
 ! A72   A(35,33,41)           106.8188         estimate D2E/DX2                !
 ! A73   A(40,33,41)           108.9794         estimate D2E/DX2                !
 ! A74   A(31,34,35)           111.2658         estimate D2E/DX2                !
 ! A75   A(31,34,42)           110.3327         estimate D2E/DX2                !
 ! A76   A(31,34,43)           110.2289         estimate D2E/DX2                !
 ! A77   A(35,34,42)           106.7834         estimate D2E/DX2                !
 ! A78   A(35,34,43)           109.1795         estimate D2E/DX2                !
 ! A79   A(42,34,43)           108.962          estimate D2E/DX2                !
 ! A80   A(33,35,34)           110.313          estimate D2E/DX2                !
 ! D1    D(8,1,2,3)             84.1226         estimate D2E/DX2                !
 ! D2    D(8,1,2,4)           -145.3484         estimate D2E/DX2                !
 ! D3    D(8,1,2,5)            -30.8592         estimate D2E/DX2                !
 ! D4    D(11,1,2,3)           -92.8332         estimate D2E/DX2                !
 ! D5    D(11,1,2,4)            37.6958         estimate D2E/DX2                !
 ! D6    D(11,1,2,5)           152.1849         estimate D2E/DX2                !
 ! D7    D(2,1,8,9)           -177.2232         estimate D2E/DX2                !
 ! D8    D(11,1,8,9)             0.0764         estimate D2E/DX2                !
 ! D9    D(2,1,11,10)          177.2196         estimate D2E/DX2                !
 ! D10   D(2,1,11,22)           -3.0157         estimate D2E/DX2                !
 ! D11   D(8,1,11,10)            0.0659         estimate D2E/DX2                !
 ! D12   D(8,1,11,22)          179.8306         estimate D2E/DX2                !
 ! D13   D(1,2,5,6)             63.101          estimate D2E/DX2                !
 ! D14   D(1,2,5,7)            -63.1769         estimate D2E/DX2                !
 ! D15   D(3,2,5,6)            -52.1142         estimate D2E/DX2                !
 ! D16   D(3,2,5,7)           -178.3921         estimate D2E/DX2                !
 ! D17   D(4,2,5,6)            177.6091         estimate D2E/DX2                !
 ! D18   D(4,2,5,7)             51.3311         estimate D2E/DX2                !
 ! D19   D(1,8,9,10)            -0.2031         estimate D2E/DX2                !
 ! D20   D(1,8,9,21)          -179.2605         estimate D2E/DX2                !
 ! D21   D(8,9,10,11)            0.2848         estimate D2E/DX2                !
 ! D22   D(8,9,10,12)         -179.7518         estimate D2E/DX2                !
 ! D23   D(21,9,10,11)         179.2408         estimate D2E/DX2                !
 ! D24   D(21,9,10,12)          -0.7958         estimate D2E/DX2                !
 ! D25   D(9,10,11,1)           -0.2262         estimate D2E/DX2                !
 ! D26   D(9,10,11,22)        -179.989          estimate D2E/DX2                !
 ! D27   D(12,10,11,1)         179.809          estimate D2E/DX2                !
 ! D28   D(12,10,11,22)          0.0462         estimate D2E/DX2                !
 ! D29   D(9,10,12,13)        -117.9021         estimate D2E/DX2                !
 ! D30   D(9,10,12,14)         125.9273         estimate D2E/DX2                !
 ! D31   D(9,10,12,15)          -1.6745         estimate D2E/DX2                !
 ! D32   D(11,10,12,13)         62.0589         estimate D2E/DX2                !
 ! D33   D(11,10,12,14)        -54.1117         estimate D2E/DX2                !
 ! D34   D(11,10,12,15)        178.2865         estimate D2E/DX2                !
 ! D35   D(10,12,13,16)        -89.6553         estimate D2E/DX2                !
 ! D36   D(10,12,13,20)         88.1337         estimate D2E/DX2                !
 ! D37   D(14,12,13,16)         25.3861         estimate D2E/DX2                !
 ! D38   D(14,12,13,20)       -156.8249         estimate D2E/DX2                !
 ! D39   D(15,12,13,16)        155.3349         estimate D2E/DX2                !
 ! D40   D(15,12,13,20)        -26.8761         estimate D2E/DX2                !
 ! D41   D(12,13,16,17)        178.3403         estimate D2E/DX2                !
 ! D42   D(12,13,16,23)         -1.9485         estimate D2E/DX2                !
 ! D43   D(20,13,16,17)          0.6338         estimate D2E/DX2                !
 ! D44   D(20,13,16,23)       -179.655          estimate D2E/DX2                !
 ! D45   D(12,13,20,19)       -178.3395         estimate D2E/DX2                !
 ! D46   D(12,13,20,25)          1.5886         estimate D2E/DX2                !
 ! D47   D(16,13,20,19)         -0.6309         estimate D2E/DX2                !
 ! D48   D(16,13,20,25)        179.2972         estimate D2E/DX2                !
 ! D49   D(13,16,17,18)         -0.0963         estimate D2E/DX2                !
 ! D50   D(13,16,17,24)        179.5469         estimate D2E/DX2                !
 ! D51   D(23,16,17,18)       -179.8073         estimate D2E/DX2                !
 ! D52   D(23,16,17,24)         -0.164          estimate D2E/DX2                !
 ! D53   D(16,17,18,19)         -0.4183         estimate D2E/DX2                !
 ! D54   D(16,17,18,26)        179.1633         estimate D2E/DX2                !
 ! D55   D(24,17,18,19)        179.9384         estimate D2E/DX2                !
 ! D56   D(24,17,18,26)         -0.48           estimate D2E/DX2                !
 ! D57   D(17,18,19,20)          0.4215         estimate D2E/DX2                !
 ! D58   D(17,18,19,28)       -179.406          estimate D2E/DX2                !
 ! D59   D(26,18,19,20)       -179.1627         estimate D2E/DX2                !
 ! D60   D(26,18,19,28)          1.0098         estimate D2E/DX2                !
 ! D61   D(17,18,26,27)       -103.7414         estimate D2E/DX2                !
 ! D62   D(17,18,26,29)        136.8587         estimate D2E/DX2                !
 ! D63   D(17,18,26,30)         19.3388         estimate D2E/DX2                !
 ! D64   D(19,18,26,27)         75.8378         estimate D2E/DX2                !
 ! D65   D(19,18,26,29)        -43.5621         estimate D2E/DX2                !
 ! D66   D(19,18,26,30)       -161.082          estimate D2E/DX2                !
 ! D67   D(18,19,20,13)          0.0901         estimate D2E/DX2                !
 ! D68   D(18,19,20,25)       -179.838          estimate D2E/DX2                !
 ! D69   D(28,19,20,13)        179.9177         estimate D2E/DX2                !
 ! D70   D(28,19,20,25)         -0.0103         estimate D2E/DX2                !
 ! D71   D(18,26,27,31)         66.1634         estimate D2E/DX2                !
 ! D72   D(18,26,27,32)       -175.1363         estimate D2E/DX2                !
 ! D73   D(29,26,27,31)       -173.4929         estimate D2E/DX2                !
 ! D74   D(29,26,27,32)        -54.7926         estimate D2E/DX2                !
 ! D75   D(30,26,27,31)        -56.2726         estimate D2E/DX2                !
 ! D76   D(30,26,27,32)         62.4277         estimate D2E/DX2                !
 ! D77   D(26,27,31,34)        176.1784         estimate D2E/DX2                !
 ! D78   D(26,27,31,36)         55.1159         estimate D2E/DX2                !
 ! D79   D(26,27,31,37)        -63.8396         estimate D2E/DX2                !
 ! D80   D(32,27,31,34)         57.1169         estimate D2E/DX2                !
 ! D81   D(32,27,31,36)        -63.9457         estimate D2E/DX2                !
 ! D82   D(32,27,31,37)        177.0988         estimate D2E/DX2                !
 ! D83   D(26,27,32,33)       -177.5876         estimate D2E/DX2                !
 ! D84   D(26,27,32,38)         61.914          estimate D2E/DX2                !
 ! D85   D(26,27,32,39)        -56.7733         estimate D2E/DX2                !
 ! D86   D(31,27,32,33)        -57.3962         estimate D2E/DX2                !
 ! D87   D(31,27,32,38)       -177.8946         estimate D2E/DX2                !
 ! D88   D(31,27,32,39)         63.4181         estimate D2E/DX2                !
 ! D89   D(27,31,34,35)        -58.3222         estimate D2E/DX2                !
 ! D90   D(27,31,34,42)       -176.6597         estimate D2E/DX2                !
 ! D91   D(27,31,34,43)         62.9515         estimate D2E/DX2                !
 ! D92   D(36,31,34,35)         63.3724         estimate D2E/DX2                !
 ! D93   D(36,31,34,42)        -54.9651         estimate D2E/DX2                !
 ! D94   D(36,31,34,43)       -175.3539         estimate D2E/DX2                !
 ! D95   D(37,31,34,35)       -178.9041         estimate D2E/DX2                !
 ! D96   D(37,31,34,42)         62.7585         estimate D2E/DX2                !
 ! D97   D(37,31,34,43)        -57.6303         estimate D2E/DX2                !
 ! D98   D(27,32,33,35)         58.6635         estimate D2E/DX2                !
 ! D99   D(27,32,33,40)        -62.5373         estimate D2E/DX2                !
 ! D100  D(27,32,33,41)        176.9281         estimate D2E/DX2                !
 ! D101  D(38,32,33,35)        179.0315         estimate D2E/DX2                !
 ! D102  D(38,32,33,40)         57.8307         estimate D2E/DX2                !
 ! D103  D(38,32,33,41)        -62.7039         estimate D2E/DX2                !
 ! D104  D(39,32,33,35)        -62.9989         estimate D2E/DX2                !
 ! D105  D(39,32,33,40)        175.8004         estimate D2E/DX2                !
 ! D106  D(39,32,33,41)         55.2658         estimate D2E/DX2                !
 ! D107  D(32,33,35,34)        -57.8986         estimate D2E/DX2                !
 ! D108  D(40,33,35,34)         63.9641         estimate D2E/DX2                !
 ! D109  D(41,33,35,34)       -178.3197         estimate D2E/DX2                !
 ! D110  D(31,34,35,33)         57.8411         estimate D2E/DX2                !
 ! D111  D(42,34,35,33)        178.2941         estimate D2E/DX2                !
 ! D112  D(43,34,35,33)        -64.044          estimate D2E/DX2                !
 --------------------------------------------------------------------------------
 Trust Radius=3.00D-01 FncErr=1.00D-07 GrdErr=1.00D-06 EigMax=2.50D+02 EigMin=1.00D-04
 Number of steps in this run=    247 maximum allowed number of steps=    258.
 GradGradGradGradGradGradGradGradGradGradGradGradGradGradGradGradGradGrad

                          Input orientation:                          
 ---------------------------------------------------------------------
 Center     Atomic      Atomic             Coordinates (Angstroms)
 Number     Number       Type             X           Y           Z
 ---------------------------------------------------------------------
      1          6           0       -1.479815    0.697007   -1.340049
      2         16           0       -1.819787    0.386179    0.363150
      3          8           0       -2.079168   -1.042303    0.492450
      4          8           0       -0.748610    1.024395    1.122738
      5          7           0       -3.208631    1.156193    0.780472
      6          1           0       -4.018650    0.803023    0.266713
      7          1           0       -3.130432    2.171797    0.694522
      8         16           0       -2.762844    0.944726   -2.471565
      9          6           0       -1.641520    1.071668   -3.759082
     10          6           0       -0.355630    0.931979   -3.314438
     11          6           0       -0.241556    0.710585   -1.911475
     12         16           0        1.081887    1.009749   -4.349675
     13          6           0        1.829518   -0.585150   -4.201723
     14          8           0        1.984741    2.022768   -3.782291
     15          8           0        0.622581    1.205017   -5.732540
     16          6           0        2.768338   -0.796907   -3.194897
     17          6           0        3.323834   -2.067256   -3.066908
     18          6           0        2.946912   -3.104086   -3.926193
     19          6           0        1.992056   -2.859919   -4.921060
     20          6           0        1.423526   -1.599920   -5.068346
     21          1           0       -1.992160    1.257268   -4.768446
     22          1           0        0.690107    0.576016   -1.370549
     23          1           0        3.062665    0.009574   -2.530156
     24          1           0        4.063991   -2.253938   -2.293069
     25          1           0        0.681080   -1.409776   -5.837645
     26          6           0        3.566483   -4.474363   -3.794564
     27          7           0        4.570469   -4.741633   -4.830434
     28          1           0        1.689160   -3.665422   -5.584745
     29          1           0        2.783528   -5.233926   -3.889754
     30          1           0        4.012778   -4.577210   -2.790303
     31          6           0        5.728330   -3.856774   -4.666880
     32          6           0        5.030634   -6.127647   -4.695992
     33          6           0        6.115355   -6.431260   -5.712040
     34          6           0        6.805131   -4.197469   -5.680143
     35          8           0        7.224972   -5.552536   -5.551976
     36          1           0        6.143631   -3.950250   -3.646049
     37          1           0        5.422885   -2.816240   -4.813863
     38          1           0        4.184982   -6.804778   -4.852772
     39          1           0        5.428250   -6.306084   -3.679934
     40          1           0        5.720413   -6.332914   -6.733679
     41          1           0        6.493659   -7.446458   -5.573647
     42          1           0        7.688966   -3.576788   -5.517845
     43          1           0        6.433142   -4.029526   -6.701359
 ---------------------------------------------------------------------
                    Distance matrix (angstroms):
                    1          2          3          4          5
     1  C    0.000000
     2  S    1.764393   0.000000
     3  O    2.596628   1.457586   0.000000
     4  O    2.589819   1.460039   2.537496   0.000000
     5  N    2.774214   1.641940   2.488379   2.487211   0.000000
     6  H    3.006428   2.240102   2.686592   3.387469   1.022159
     7  H    3.006496   2.239649   3.387688   2.678241   1.022230
     8  S    1.728542   3.039234   3.633329   4.120983   3.289254
     9  C    2.453210   4.182639   4.768221   4.963032   4.803179
    10  C    2.284123   3.995786   4.621771   4.455503   4.995816
    11  C    1.363817   2.787467   3.496897   3.092253   4.030965
    12  S    3.964590   5.569495   6.135907   5.770463   6.689424
    13  C    4.559034   5.924439   6.125527   6.130845   7.296402
    14  O    4.441321   5.859824   6.647062   5.703268   6.967128
    15  O    4.896133   6.617635   7.148454   6.993399   7.556447
    16  C    4.870220   5.925393   6.095495   5.859013   7.439242
    17  C    5.805018   6.651427   6.550724   6.610313   8.238086
    18  C    6.382191   7.300810   7.002631   7.496195   8.842702
    19  C    6.126112   7.279435   7.013179   7.689385   8.699642
    20  C    5.254090   6.630597   6.595624   7.066451   7.953723
    21  H    3.511452   5.207858   5.742179   6.025504   5.681594
    22  H    2.173507   3.056357   3.709259   2.913319   4.490396
    23  H    4.745845   5.687828   6.056487   5.375808   7.183603
    24  H    6.352174   6.974565   6.853144   6.751025   8.600388
    25  H    5.416306   6.923124   6.915498   7.511067   8.094042
    26  C    7.631044   8.362019   7.875970   8.546123   9.926544
    27  N    8.852544   9.700677   9.286324   9.847839  11.259708
    28  H    6.862262   8.006599   7.616649   8.539756   9.367621
    29  H    7.736476   8.418033   7.772981   8.761715   9.927266
    30  H    7.751721   8.282410   7.770704   8.328306   9.887927
    31  C    9.152163  10.013886   9.772255   9.964750  11.604859
    32  C   10.011204  10.721619  10.165133  10.881589  12.285417
    33  C   11.296597  12.097598  11.605463  12.223543  13.662316
    34  C   10.556166  11.485662  11.268840  11.428301  13.064328
    35  O   11.513923  12.331452  11.976824  12.303895  13.927204
    36  H    9.221256   9.914349   9.653898   9.746354  11.538399
    37  H    8.488672   9.461144   9.358665   9.385151  11.026327
    38  H   10.035234  10.722544  10.050726  11.015580  12.238301
    39  H   10.111365  10.661470  10.073604  10.721715  12.254653
    40  H   11.417282  12.343655  11.876067  12.557927  13.866399
    41  H   12.157946  12.872806  12.300573  13.001822  14.440044
    42  H   10.944672  11.862023  11.745795  11.681649  13.447213
    43  H   10.662957  11.726746  11.538363  11.761640  13.260214
                    6          7          8          9         10
     6  H    0.000000
     7  H    1.686859   0.000000
     8  S    3.015841   3.415396   0.000000
     9  C    4.682942   4.823042   1.712069   0.000000
    10  C    5.124352   5.030749   2.550544   1.367748   0.000000
    11  C    4.361134   4.155955   2.593341   2.346046   1.424898
    12  S    6.882532   6.673673   4.279425   2.787397   1.773195
    13  C    7.489660   7.495003   5.140404   3.871574   2.804252
    14  O    7.343222   6.799195   5.041799   3.748986   2.624127
    15  O    7.595634   7.505125   4.707740   3.006405   2.622721
    16  C    7.784968   7.663959   5.843840   4.822523   3.572466
    17  C    8.559416   8.589265   6.817193   5.914955   4.753434
    18  C    9.020256   9.280089   7.149135   6.206332   5.250795
    19  C    8.744068   9.115526   6.563873   5.478179   4.740396
    20  C    7.990887   8.256817   5.544744   4.271541   3.556979
    21  H    5.446634   5.654737   2.442805   1.084533   2.213184
    22  H    4.990446   4.626830   3.642946   3.374499   2.235840
    23  H    7.654872   7.309460   5.900381   4.976712   3.626385
    24  H    9.012579   8.959495   7.541153   6.764740   5.543132
    25  H    8.015431   8.368064   5.360484   3.984026   3.595158
    26  C   10.093514  10.448541   8.436660   7.608089   6.696419
    27  N   11.423532  11.731348   9.574780   8.575026   7.665153
    28  H    9.315882   9.835181   7.125005   6.071779   5.520105
    29  H    9.999530  10.527832   8.423137   7.704456   6.942887
    30  H   10.138841  10.426819   8.746566   8.051052   7.050452
    31  C   11.876770  11.981902   9.998692   8.912257   7.859760
    32  C   12.431901  12.827370  10.756618   9.860303   8.986593
    33  C   13.812255  14.161257  11.988672  10.967091  10.091552
    34  C   13.323823  13.413401  11.326221  10.139043   9.120542
    35  O   14.165779  14.349859  12.306901  11.212013  10.223553
    36  H   11.881720  11.930141  10.230616   9.265043   8.135510
    37  H   11.316090  11.330580   9.307921   8.132294   7.049018
    38  H   12.303956  12.840041  10.676949   9.858128   9.101705
    39  H   12.464323  12.816449  11.005836  10.218568   9.272347
    40  H   13.956233  14.347325  11.962245  10.856985  10.069170
    41  H   14.583291  14.980784  12.873140  11.917729  11.055089
    42  H   13.773603  13.736779  11.788310  10.571630   9.481535
    43  H   13.459105  13.587399  11.278320   9.993965   9.065053
                   11         12         13         14         15
    11  C    0.000000
    12  S    2.790308   0.000000
    13  C    3.348658   1.767638   0.000000
    14  O    3.190325   1.470808   2.645988   0.000000
    15  O    3.948637   1.470173   2.646657   2.515486   0.000000
    16  C    3.602661   2.727936   1.392811   2.984899   3.879640
    17  C    4.665129   4.017434   2.391113   4.362710   5.011001
    18  C    5.364432   4.536661   2.769391   5.218344   5.218599
    19  C    5.176401   4.016120   2.391326   5.013729   4.365509
    20  C    4.251678   2.728292   1.394856   3.884941   2.991712
    21  H    3.394961   3.112298   4.280292   4.168241   2.787307
    22  H    1.085682   3.035920   3.265289   3.096073   4.407626
    23  H    3.433957   2.869579   2.160668   2.604364   4.199804
    24  H    5.241350   4.875882   3.379450   4.983099   5.969726
    25  H    4.556534   2.868589   2.162212   4.207894   2.617558
    26  C    6.703049   6.046226   4.278879   6.686910   6.684135
    27  N    7.835980   6.743866   5.018410   7.317220   7.194599
    28  H    6.030756   4.873541   3.379427   5.974254   4.988047
    29  H    6.957150   6.487726   4.755899   7.301316   7.037438
    30  H    6.843425   6.498913   4.763956   6.975434   7.320133
    31  C    8.005783   6.735956   5.110835   7.026092   7.268152
    32  C    9.072538   8.164249   6.419557   8.748804   8.618197
    33  C   10.288856   9.086278   7.404489   9.605024   9.406578
    34  C    9.378041   7.851165   6.323867   8.095020   8.210574
    35  O   10.403315   9.068991   7.457146   9.379607   9.449269
    36  H    8.093376   7.121652   5.499477   7.279552   7.836595
    37  H    7.276554   5.804991   4.273730   6.025029   6.329091
    38  H    9.204681   8.423131   6.682503   9.160380   8.810307
    39  H    9.192812   8.535856   6.778807   9.013213   9.150097
    40  H   10.411993   9.006337   7.388278   9.616827   9.154812
    41  H   11.194283  10.113991   8.409158  10.639809  10.456712
    42  H    9.709822   8.127388   6.709337   8.179570   8.534960
    43  H    9.484895   7.717554   6.269391   8.058504   7.880461
                   16         17         18         19         20
    16  C    0.000000
    17  C    1.392388   0.000000
    18  C    2.426882   1.398377   0.000000
    19  C    2.799691   2.416573   1.400403   0.000000
    20  C    2.441958   2.799166   2.426465   1.390150   0.000000
    21  H    5.418305   6.496729   6.642683   5.731361   4.463225
    22  H    3.087427   4.098907   5.016736   5.109486   4.352735
    23  H    1.085781   2.160911   3.414264   3.885436   3.423398
    24  H    2.148243   1.086973   2.153535   3.400951   3.886124
    25  H    3.422919   3.885024   3.414430   2.159097   1.085911
    26  C    3.810554   2.526366   1.509587   2.520762   3.804893
    27  N    4.635032   3.437501   2.476923   3.193317   4.453113
    28  H    3.886435   3.400852   2.155883   1.086765   2.145583
    29  H    4.491124   3.316143   2.136408   2.706645   4.055205
    30  H    4.000377   2.617446   2.143924   3.401842   4.556091
    31  C    4.504561   3.397629   2.975137   3.875316   4.877079
    32  C    5.982312   4.696153   3.751854   4.467847   5.800878
    33  C    7.020290   5.816687   4.929337   5.511962   6.765312
    34  C    5.834035   4.846260   4.376949   5.052815   6.006932
    35  O    6.930614   5.791513   5.190364   5.918754   7.036608
    36  H    4.641090   3.439815   3.318657   4.477728   5.461352
    37  H    3.707476   2.831756   2.645989   3.432781   4.187967
    38  H    6.391396   5.135660   4.010796   4.513923   5.895987
    39  H    6.136890   4.772005   4.058383   5.022338   6.333520
    40  H    7.203131   6.114298   5.098982   5.408135   6.605892
    41  H    7.984547   6.728101   5.843776   6.459616   7.755229
    42  H    6.110352   5.228782   5.024329   5.772767   6.585271
    43  H    6.014640   5.169868   4.551020   4.925514   5.802238
                   21         22         23         24         25
    21  H    0.000000
    22  H    4.382278   0.000000
    23  H    5.667269   2.700847   0.000000
    24  H    7.425162   4.499197   2.486433   0.000000
    25  H    3.924605   4.888599   4.315783   4.971993   0.000000
    26  C    8.043541   6.297278   4.685963   2.726222   4.678827
    27  N    8.891499   7.436760   5.489874   3.589341   5.219492
    28  H    6.200914   6.061959   4.972185   4.297353   2.483571
    29  H    8.106472   6.669650   5.424087   3.615151   4.778984
    30  H    8.603108   6.293773   4.691373   2.376438   5.515355
    31  C    9.261194   7.476571   5.159458   3.312716   5.730028
    32  C   10.191264   8.650887   6.799208   4.659835   6.517691
    33  C   11.213190   9.868322   7.805616   5.774727   7.400164
    34  C   10.391231   8.874248   6.451952   4.771104   6.730530
    35  O   11.486639   9.886756   7.575834   5.611865   7.750264
    36  H    9.724665   7.443515   5.139822   3.005484   6.410660
    37  H    8.460403   6.764836   4.332572   2.918421   5.050840
    38  H   10.156810   8.877846   7.286256   5.222726   6.507945
    39  H   10.651368   8.668711   6.841456   4.494940   7.152983
    40  H   10.998036  10.089621   8.059800   6.253063   7.101763
    41  H   12.182459  10.756735   8.753683   6.605130   8.384348
    42  H   10.846838   9.133995   6.571981   5.028872   7.342253
    43  H   10.132722   9.089060   6.713671   5.310236   6.379288
                   26         27         28         29         30
    26  C    0.000000
    27  N    1.467122   0.000000
    28  H    2.717255   3.166884   0.000000
    29  H    1.094996   2.078555   2.555551   0.000000
    30  H    1.103765   2.121365   3.746927   1.775141   0.000000
    31  C    2.411625   1.466413   4.146563   3.342504   2.642667
    32  C    2.385301   1.466581   4.244748   2.549165   2.659236
    33  C    3.742046   2.453312   5.220849   3.981885   4.049059
    34  C    3.757781   2.451904   5.144447   4.522502   4.036411
    35  O    4.199464   2.867852   5.848717   4.752991   4.346986
    36  H    2.634092   2.122238   4.866414   3.605206   2.380318
    37  H    2.689716   2.105713   3.905902   3.696673   3.030547
    38  H    2.633093   2.098968   4.076821   2.314963   3.040640
    39  H    2.614291   2.122957   4.958043   2.861486   2.404997
    40  H    4.090480   2.734390   4.968558   4.233318   4.642061
    41  H    4.535068   3.401044   6.113883   4.636363   4.704717
    42  H    4.557434   3.399180   6.000834   5.427717   4.685583
    43  H    4.106710   2.734412   4.887204   4.761868   4.631898
                   31         32         33         34         35
    31  C    0.000000
    32  C    2.375814   0.000000
    33  C    2.805374   1.516956   0.000000
    34  C    1.517325   2.800532   2.338083   0.000000
    35  O    2.428774   2.424578   1.424439   1.424395   0.000000
    36  H    1.106033   2.661240   3.228704   2.153192   2.714623
    37  H    1.094354   3.336641   3.788747   2.137484   3.358518
    38  H    3.332748   1.094629   2.145739   3.787847   3.361329
    39  H    2.657674   1.105582   2.148776   3.216037   2.701960
    40  H    3.225367   2.161041   1.099726   2.616615   2.066182
    41  H    3.780712   2.156382   1.092197   3.265622   2.030327
    42  H    2.155604   3.774792   3.265268   1.092131   2.029787
    43  H    2.160025   3.223451   2.616881   1.099756   2.065826
                   36         37         38         39         40
    36  H    0.000000
    37  H    1.780237   0.000000
    38  H    3.666172   4.176404   0.000000
    39  H    2.462290   3.669446   1.780438   0.000000
    40  H    3.922966   4.017613   2.473462   3.067807   0.000000
    41  H    4.007696   4.812769   2.502280   2.453915   1.784254
    42  H    2.455841   2.491816   4.810421   3.992219   3.598567
    43  H    3.070020   2.460757   4.021632   3.914273   2.411353
                   41         42         43
    41  H    0.000000
    42  H    4.050459   0.000000
    43  H    3.598725   1.784032   0.000000
 Stoichiometry    C15H18N2O5S3
 Framework group  C1[X(C15H18N2O5S3)]
 Deg. of freedom   123
 Full point group                 C1      NOp   1
 Largest Abelian subgroup         C1      NOp   1
 Largest concise Abelian subgroup C1      NOp   1
                         Standard orientation:                         
 ---------------------------------------------------------------------
 Center     Atomic      Atomic             Coordinates (Angstroms)
 Number     Number       Type             X           Y           Z
 ---------------------------------------------------------------------
      1          6           0       -3.883809   -0.379792   -0.067303
      2         16           0       -4.637736   -1.921821    0.341136
      3          8           0       -4.071692   -2.923528   -0.553702
      4          8           0       -4.529122   -2.065321    1.790041
      5          7           0       -6.241894   -1.839612    0.000715
      6          1           0       -6.421334   -1.698084   -0.995568
      7          1           0       -6.723407   -1.137450    0.566462
      8         16           0       -4.495432    0.594322   -1.357603
      9          6           0       -3.240665    1.736385   -1.128622
     10          6           0       -2.412141    1.366627   -0.105118
     11          6           0       -2.768184    0.137783    0.522185
     12         16           0       -1.002671    2.296785    0.435639
     13          6           0        0.376647    1.227776    0.154129
     14          8           0       -1.149677    2.527978    1.880705
     15          8           0       -0.889190    3.476307   -0.434568
     16          6           0        0.769571    0.356182    1.166975
     17          6           0        1.835262   -0.505237    0.919984
     18          6           0        2.492534   -0.496506   -0.314267
     19          6           0        2.064964    0.385067   -1.314837
     20          6           0        1.003445    1.254488   -1.091677
     21          1           0       -3.193223    2.623314   -1.750971
     22          1           0       -2.236911   -0.321908    1.349915
     23          1           0        0.260610    0.352295    2.126071
     24          1           0        2.164165   -1.189068    1.698255
     25          1           0        0.669115    1.936806   -1.867478
     26          6           0        3.659346   -1.419634   -0.569688
     27          7           0        4.950595   -0.725181   -0.516239
     28          1           0        2.566765    0.388305   -2.278811
     29          1           0        3.560490   -1.856540   -1.568866
     30          1           0        3.636359   -2.246342    0.161285
     31          6           0        5.222025   -0.245013    0.842485
     32          6           0        6.010074   -1.668309   -0.888901
     33          6           0        7.372134   -1.007873   -0.790059
     34          6           0        6.598152    0.389807    0.917007
     35          8           0        7.613595   -0.531216    0.530365
     36          1           0        5.164730   -1.080416    1.565070
     37          1           0        4.474009    0.501053    1.127915
     38          1           0        5.844217   -2.008994   -1.915857
     39          1           0        5.989818   -2.553657   -0.227041
     40          1           0        7.441705   -0.167788   -1.496327
     41          1           0        8.161913   -1.727814   -1.015510
     42          1           0        6.821177    0.693025    1.942223
     43          1           0        6.644893    1.273958    0.264662
 ---------------------------------------------------------------------
 Rotational constants (GHZ):           0.3527730           0.0684601           0.0623341
 General basis read from cards:  (6D, 7F)
 There are   523 symmetry adapted cartesian basis functions of A   symmetry.
 There are   523 symmetry adapted basis functions of A   symmetry.
   523 basis functions,   944 primitive gaussians,   523 cartesian basis functions
   105 alpha electrons      105 beta electrons
       nuclear repulsion energy      2698.3385055306 Hartrees.
 NAtoms=   43 NActive=   43 NUniq=   43 SFac= 1.00D+00 NAtFMM=   60 NAOKFM=F Big=F
 Integral buffers will be    131072 words long.
 Raffenetti 2 integral format.
 Two-electron integral symmetry is turned on.
 ------------------------------------------------------------------------------
 Polarizable Continuum Model (PCM)
 =================================
 Model                : PCM.
 Atomic radii         : SMD-Coulomb.
 Polarization charges : Total charges.
 Charge compensation  : None.
 Solution method      : On-the-fly selection.
 Cavity type          : VdW (van der Waals Surface) (Alpha=1.000).
 Cavity algorithm     : GePol (No added spheres)
                        Default sphere list used, NSphG=   43.
                        Lebedev-Laikov grids with approx.  5.0 points / Ang**2.
                        Smoothing algorithm: York/Karplus (Gamma=1.0000).
                        Polarization charges: spherical gaussians, with
                                              point-specific exponents (IZeta= 3).
                        Self-potential: point-specific (ISelfS= 7).
                        Self-field    : sphere-specific E.n sum rule (ISelfD= 2).
 1st derivatives      : Analytical E(r).r(x)/FMM algorithm (CHGder, D1EAlg=3).
                        Cavity 1st derivative terms included.
 Solvent              : Water, Eps=  78.355300 Eps(inf)=   1.777849
 ------------------------------------------------------------------------------
 ------------------------------------------------------------------------------
 Atomic radii for non-electrostatic terms: SMD-CDS.
 ------------------------------------------------------------------------------
 Nuclear repulsion after PCM non-electrostatic terms =     2698.3449218696 Hartrees.
 One-electron integrals computed using PRISM.
 NBasis=   523 RedAO= T EigKep=  1.00D-06  NBF=   523
 NBsUse=   523 1.00D-06 EigRej= -1.00D+00 NBFU=   523
 ExpMin= 4.05D-02 ExpMax= 2.19D+04 ExpMxC= 3.30D+03 IAcc=3 IRadAn=         5 AccDes= 0.00D+00
 Harris functional with IExCor= 1009 and IRadAn=       5 diagonalized for initial guess.
 HarFok:  IExCor= 1009 AccDes= 0.00D+00 IRadAn=         5 IDoV= 1 UseB2=F ITyADJ=14
 ICtDFT=  3500011 ScaDFX=  1.000000  1.000000  1.000000  1.000000
 FoFCou: FMM=F IPFlag=           0 FMFlag=      100000 FMFlg1=           0
         NFxFlg=           0 DoJE=T BraDBF=F KetDBF=T FulRan=T
         wScrn=  0.000000 ICntrl=       500 IOpCl=  0 I1Cent=   200000004 NGrid=           0
         NMat0=    1 NMatS0=      1 NMatT0=    0 NMatD0=    1 NMtDS0=    0 NMtDT0=    0
 Petite list used in FoFCou.
 Requested convergence on RMS density matrix=1.00D-08 within 128 cycles.
 Requested convergence on MAX density matrix=1.00D-06.
 Requested convergence on             energy=1.00D-06.
 No special actions if energy rises.
 Inv3:  Mode=1 IEnd=    30470907.
 Iteration    1 A*A^-1 deviation from unit magnitude is 6.55D-15 for   3167.
 Iteration    1 A*A^-1 deviation from orthogonality  is 3.33D-15 for   3185    977.
 Iteration    1 A^-1*A deviation from unit magnitude is 6.11D-15 for   3167.
 Iteration    1 A^-1*A deviation from orthogonality  is 3.72D-14 for   2155   1754.
 Error on total polarization charges =  0.06482
 SCF Done:  E(RM062X) =  -2261.99291655     A.U. after   17 cycles
            NFock= 17  Conv=0.30D-08     -V/T= 2.0058
 SMD-CDS (non-electrostatic) energy       (kcal/mol) =       4.03
 (included in total energy above)

 **********************************************************************

            Population analysis using the SCF Density.

 **********************************************************************

 Orbital symmetries:
       Occupied  (A) (A) (A) (A) (A) (A) (A) (A) (A) (A) (A) (A)
                 (A) (A) (A) (A) (A) (A) (A) (A) (A) (A) (A) (A)
                 (A) (A) (A) (A) (A) (A) (A) (A) (A) (A) (A) (A)
                 (A) (A) (A) (A) (A) (A) (A) (A) (A) (A) (A) (A)
                 (A) (A) (A) (A) (A) (A) (A) (A) (A) (A) (A) (A)
                 (A) (A) (A) (A) (A) (A) (A) (A) (A) (A) (A) (A)
                 (A) (A) (A) (A) (A) (A) (A) (A) (A) (A) (A) (A)
                 (A) (A) (A) (A) (A) (A) (A) (A) (A) (A) (A) (A)
                 (A) (A) (A) (A) (A) (A) (A) (A) (A)
       Virtual   (A) (A) (A) (A) (A) (A) (A) (A) (A) (A) (A) (A)
                 (A) (A) (A) (A) (A) (A) (A) (A) (A) (A) (A) (A)
                 (A) (A) (A) (A) (A) (A) (A) (A) (A) (A) (A) (A)
                 (A) (A) (A) (A) (A) (A) (A) (A) (A) (A) (A) (A)
                 (A) (A) (A) (A) (A) (A) (A) (A) (A) (A) (A) (A)
                 (A) (A) (A) (A) (A) (A) (A) (A) (A) (A) (A) (A)
                 (A) (A) (A) (A) (A) (A) (A) (A) (A) (A) (A) (A)
                 (A) (A) (A) (A) (A) (A) (A) (A) (A) (A) (A) (A)
                 (A) (A) (A) (A) (A) (A) (A) (A) (A) (A) (A) (A)
                 (A) (A) (A) (A) (A) (A) (A) (A) (A) (A) (A) (A)
                 (A) (A) (A) (A) (A) (A) (A) (A) (A) (A) (A) (A)
                 (A) (A) (A) (A) (A) (A) (A) (A) (A) (A) (A) (A)
                 (A) (A) (A) (A) (A) (A) (A) (A) (A) (A) (A) (A)
                 (A) (A) (A) (A) (A) (A) (A) (A) (A) (A) (A) (A)
                 (A) (A) (A) (A) (A) (A) (A) (A) (A) (A) (A) (A)
                 (A) (A) (A) (A) (A) (A) (A) (A) (A) (A) (A) (A)
                 (A) (A) (A) (A) (A) (A) (A) (A) (A) (A) (A) (A)
                 (A) (A) (A) (A) (A) (A) (A) (A) (A) (A) (A) (A)
                 (A) (A) (A) (A) (A) (A) (A) (A) (A) (A) (A) (A)
                 (A) (A) (A) (A) (A) (A) (A) (A) (A) (A) (A) (A)
                 (A) (A) (A) (A) (A) (A) (A) (A) (A) (A) (A) (A)
                 (A) (A) (A) (A) (A) (A) (A) (A) (A) (A) (A) (A)
                 (A) (A) (A) (A) (A) (A) (A) (A) (A) (A) (A) (A)
                 (A) (A) (A) (A) (A) (A) (A) (A) (A) (A) (A) (A)
                 (A) (A) (A) (A) (A) (A) (A) (A) (A) (A) (A) (A)
                 (A) (A) (A) (A) (A) (A) (A) (A) (A) (A) (A) (A)
                 (A) (A) (A) (A) (A) (A) (A) (A) (A) (A) (A) (A)
                 (A) (A) (A) (A) (A) (A) (A) (A) (A) (A) (A) (A)
                 (A) (A) (A) (A) (A) (A) (A) (A) (A) (A) (A) (A)
                 (A) (A) (A) (A) (A) (A) (A) (A) (A) (A) (A) (A)
                 (A) (A) (A) (A) (A) (A) (A) (A) (A) (A) (A) (A)
                 (A) (A) (A) (A) (A) (A) (A) (A) (A) (A) (A) (A)
                 (A) (A) (A) (A) (A) (A) (A) (A) (A) (A) (A) (A)
                 (A) (A) (A) (A) (A) (A) (A) (A) (A) (A) (A) (A)
                 (A) (A) (A) (A) (A) (A) (A) (A) (A) (A)
 The electronic state is 1-A.
 Alpha  occ. eigenvalues --  -90.19880 -90.17091 -90.00120 -19.67131 -19.67120
 Alpha  occ. eigenvalues --  -19.66390 -19.66351 -19.65548 -14.81482 -14.76399
 Alpha  occ. eigenvalues --  -10.63392 -10.62674 -10.61522 -10.60536 -10.60209
 Alpha  occ. eigenvalues --  -10.58846 -10.58838 -10.58132 -10.58114 -10.57866
 Alpha  occ. eigenvalues --  -10.57448 -10.56849 -10.56843 -10.56529 -10.56465
 Alpha  occ. eigenvalues --   -8.50754  -8.48394  -8.34522  -6.42955  -6.42934
 Alpha  occ. eigenvalues --   -6.42868  -6.40581  -6.40513  -6.40446  -6.26520
 Alpha  occ. eigenvalues --   -6.26281  -6.26064  -1.27360  -1.25207  -1.16656
 Alpha  occ. eigenvalues --   -1.15795  -1.14308  -1.04739  -1.03994  -1.03364
 Alpha  occ. eigenvalues --   -0.98977  -0.91284  -0.88774  -0.87823  -0.86871
 Alpha  occ. eigenvalues --   -0.86545  -0.82660  -0.79159  -0.76981  -0.73998
 Alpha  occ. eigenvalues --   -0.73139  -0.71403  -0.69131  -0.68525  -0.65805
 Alpha  occ. eigenvalues --   -0.64769  -0.64390  -0.62802  -0.61810  -0.60810
 Alpha  occ. eigenvalues --   -0.58357  -0.58155  -0.56934  -0.55827  -0.55539
 Alpha  occ. eigenvalues --   -0.54998  -0.54200  -0.53589  -0.52703  -0.52192
 Alpha  occ. eigenvalues --   -0.51955  -0.50946  -0.50522  -0.50411  -0.49916
 Alpha  occ. eigenvalues --   -0.49085  -0.46402  -0.45939  -0.45279  -0.44848
 Alpha  occ. eigenvalues --   -0.44286  -0.43567  -0.43458  -0.42701  -0.42363
 Alpha  occ. eigenvalues --   -0.41646  -0.41505  -0.41466  -0.41051  -0.40506
 Alpha  occ. eigenvalues --   -0.40092  -0.39683  -0.38008  -0.37636  -0.35125
 Alpha  occ. eigenvalues --   -0.33562  -0.33375  -0.32611  -0.32078  -0.29325
 Alpha virt. eigenvalues --   -0.04017  -0.02085   0.00154   0.00590   0.01277
 Alpha virt. eigenvalues --    0.02020   0.02294   0.02824   0.02920   0.03280
 Alpha virt. eigenvalues --    0.03595   0.03850   0.04004   0.04280   0.04544
 Alpha virt. eigenvalues --    0.04786   0.05536   0.05862   0.05973   0.06139
 Alpha virt. eigenvalues --    0.06790   0.07165   0.07258   0.07539   0.08010
 Alpha virt. eigenvalues --    0.08488   0.08574   0.08966   0.09218   0.09605
 Alpha virt. eigenvalues --    0.09726   0.10214   0.10515   0.10810   0.10970
 Alpha virt. eigenvalues --    0.11314   0.11576   0.11886   0.12182   0.12528
 Alpha virt. eigenvalues --    0.12544   0.12988   0.13343   0.13856   0.13991
 Alpha virt. eigenvalues --    0.14225   0.14466   0.14691   0.15178   0.15612
 Alpha virt. eigenvalues --    0.16258   0.16521   0.16688   0.17118   0.17181
 Alpha virt. eigenvalues --    0.17525   0.17738   0.18124   0.18251   0.18774
 Alpha virt. eigenvalues --    0.18909   0.19306   0.19952   0.20139   0.20398
 Alpha virt. eigenvalues --    0.20676   0.20841   0.21020   0.21353   0.21692
 Alpha virt. eigenvalues --    0.21942   0.22161   0.22323   0.22514   0.22948
 Alpha virt. eigenvalues --    0.23403   0.23539   0.23698   0.23767   0.24076
 Alpha virt. eigenvalues --    0.24513   0.24684   0.24956   0.25378   0.25476
 Alpha virt. eigenvalues --    0.25703   0.26012   0.26130   0.26500   0.26797
 Alpha virt. eigenvalues --    0.27312   0.27707   0.27911   0.28165   0.28549
 Alpha virt. eigenvalues --    0.28777   0.29365   0.29445   0.29709   0.29804
 Alpha virt. eigenvalues --    0.30104   0.30598   0.30896   0.31156   0.31759
 Alpha virt. eigenvalues --    0.32102   0.32188   0.32600   0.32702   0.32864
 Alpha virt. eigenvalues --    0.33276   0.33408   0.33697   0.33786   0.34220
 Alpha virt. eigenvalues --    0.34491   0.34808   0.35167   0.35765   0.36005
 Alpha virt. eigenvalues --    0.36160   0.36378   0.37377   0.37596   0.37667
 Alpha virt. eigenvalues --    0.38053   0.38147   0.38343   0.39000   0.39330
 Alpha virt. eigenvalues --    0.39685   0.40352   0.40645   0.41693   0.41862
 Alpha virt. eigenvalues --    0.42256   0.42843   0.43652   0.44149   0.44804
 Alpha virt. eigenvalues --    0.45828   0.46230   0.46577   0.47535   0.48338
 Alpha virt. eigenvalues --    0.49996   0.50725   0.52532   0.53245   0.54073
 Alpha virt. eigenvalues --    0.55128   0.57795   0.58786   0.60492   0.61922
 Alpha virt. eigenvalues --    0.62104   0.64037   0.64884   0.65785   0.66104
 Alpha virt. eigenvalues --    0.67566   0.68294   0.68391   0.70524   0.70753
 Alpha virt. eigenvalues --    0.71096   0.71800   0.73218   0.73532   0.74145
 Alpha virt. eigenvalues --    0.74369   0.75076   0.75272   0.75811   0.76566
 Alpha virt. eigenvalues --    0.77118   0.78028   0.78506   0.80196   0.81000
 Alpha virt. eigenvalues --    0.81451   0.82642   0.83456   0.83797   0.85340
 Alpha virt. eigenvalues --    0.86057   0.86430   0.87128   0.87952   0.89048
 Alpha virt. eigenvalues --    0.89361   0.90116   0.90920   0.91409   0.92564
 Alpha virt. eigenvalues --    0.93463   0.94365   0.94775   0.95733   0.97304
 Alpha virt. eigenvalues --    0.98328   0.98672   0.99301   1.00017   1.00878
 Alpha virt. eigenvalues --    1.01136   1.01976   1.02394   1.02723   1.03565
 Alpha virt. eigenvalues --    1.04169   1.05024   1.05700   1.06046   1.06515
 Alpha virt. eigenvalues --    1.06888   1.07533   1.07890   1.08450   1.08808
 Alpha virt. eigenvalues --    1.09862   1.10532   1.11461   1.11768   1.12075
 Alpha virt. eigenvalues --    1.12962   1.13342   1.13950   1.14720   1.15308
 Alpha virt. eigenvalues --    1.15491   1.17110   1.17799   1.19261   1.20030
 Alpha virt. eigenvalues --    1.20269   1.20856   1.22293   1.22369   1.23746
 Alpha virt. eigenvalues --    1.24367   1.25295   1.25412   1.26008   1.28647
 Alpha virt. eigenvalues --    1.29099   1.30788   1.30847   1.32229   1.32647
 Alpha virt. eigenvalues --    1.33300   1.34408   1.34740   1.36158   1.36239
 Alpha virt. eigenvalues --    1.37616   1.37825   1.38467   1.38538   1.38951
 Alpha virt. eigenvalues --    1.39437   1.40674   1.41893   1.42766   1.43654
 Alpha virt. eigenvalues --    1.44290   1.45102   1.45899   1.46739   1.47878
 Alpha virt. eigenvalues --    1.48339   1.48984   1.49625   1.50845   1.51153
 Alpha virt. eigenvalues --    1.51449   1.52623   1.54066   1.54887   1.55331
 Alpha virt. eigenvalues --    1.56134   1.56866   1.59909   1.61357   1.63042
 Alpha virt. eigenvalues --    1.65253   1.66195   1.68044   1.69565   1.71683
 Alpha virt. eigenvalues --    1.74294   1.74662   1.77197   1.77996   1.78854
 Alpha virt. eigenvalues --    1.82015   1.82999   1.83346   1.84101   1.84479
 Alpha virt. eigenvalues --    1.84558   1.84761   1.86361   1.87353   1.88997
 Alpha virt. eigenvalues --    1.89323   1.89861   1.90501   1.91429   1.92020
 Alpha virt. eigenvalues --    1.92966   1.93834   1.95384   1.96356   1.98520
 Alpha virt. eigenvalues --    1.99965   2.01037   2.01552   2.01794   2.02379
 Alpha virt. eigenvalues --    2.03959   2.05830   2.06832   2.07505   2.09078
 Alpha virt. eigenvalues --    2.09949   2.11299   2.11764   2.12234   2.12670
 Alpha virt. eigenvalues --    2.13039   2.14472   2.14958   2.15841   2.16524
 Alpha virt. eigenvalues --    2.16882   2.17953   2.19215   2.20294   2.21932
 Alpha virt. eigenvalues --    2.22698   2.23125   2.23583   2.24657   2.25602
 Alpha virt. eigenvalues --    2.27429   2.28437   2.28997   2.30024   2.31865
 Alpha virt. eigenvalues --    2.32652   2.33700   2.34923   2.35682   2.38520
 Alpha virt. eigenvalues --    2.39669   2.41172   2.43317   2.44132   2.46091
 Alpha virt. eigenvalues --    2.47326   2.48136   2.50209   2.51370   2.52755
 Alpha virt. eigenvalues --    2.56883   2.57352   2.62496   2.63736   2.65956
 Alpha virt. eigenvalues --    2.66961   2.69515   2.71117   2.72957   2.75484
 Alpha virt. eigenvalues --    2.80453   2.80865   2.81553   2.81792   2.83689
 Alpha virt. eigenvalues --    2.85436   2.87789   2.88588   2.91186   2.91866
 Alpha virt. eigenvalues --    2.93227   2.94702   2.95881   2.99032   2.99852
 Alpha virt. eigenvalues --    3.03163   3.08887   3.38614   3.89263   3.99591
 Alpha virt. eigenvalues --    4.03130   4.04550   4.13291   4.23510   4.24625
 Alpha virt. eigenvalues --    4.25251   4.25879   4.29956   4.35165   4.35353
 Alpha virt. eigenvalues --    4.36532   4.39257   4.42094   4.42445   4.45522
 Alpha virt. eigenvalues --    4.46151   4.47632   4.51012   4.52961   4.54844
 Alpha virt. eigenvalues --    4.62522   4.71620   4.75058
          Condensed to atoms (all electrons):
               1          2          3          4          5          6
     1  C   22.013750  -1.364985   0.144123  -0.451126   0.110009  -0.033209
     2  S   -1.364985  14.942921   0.427599   0.290014  -0.129760   0.036210
     3  O    0.144123   0.427599   8.685489  -0.187074  -0.129936  -0.006864
     4  O   -0.451126   0.290014  -0.187074   8.767920  -0.173599   0.009985
     5  N    0.110009  -0.129760  -0.129936  -0.173599   7.981991   0.218362
     6  H   -0.033209   0.036210  -0.006864   0.009985   0.218362   0.262471
     7  H   -0.027628   0.054531   0.008442  -0.002390   0.225545  -0.015140
     8  S    0.637023  -0.433199   0.036757  -0.008233   0.016150  -0.002027
     9  C    5.320035   0.148222  -0.017894  -0.038492  -0.107513   0.006049
    10  C    2.879004  -1.143343  -0.136476   0.038488   0.056676  -0.003224
    11  C  -19.810222   1.528155  -0.271995   0.354436  -0.064630   0.023400
    12  S   -1.667372  -0.026383  -0.013482  -0.001803   0.015415  -0.000017
    13  C   -0.563798   0.030598   0.001071   0.012501  -0.001698   0.000029
    14  O   -0.163282   0.003995   0.000180   0.000320   0.000244  -0.000000
    15  O   -0.035556  -0.008350  -0.000129  -0.000064   0.000002  -0.000000
    16  C    0.797674   0.038480   0.004744  -0.007885   0.001692   0.000023
    17  C    0.355073  -0.059886  -0.000781  -0.002735  -0.000079   0.000002
    18  C    0.185367  -0.011879  -0.000063  -0.001234  -0.000100   0.000003
    19  C   -0.201419   0.013368   0.002000  -0.000292   0.000532  -0.000008
    20  C   -0.356305  -0.022602  -0.006387   0.002979  -0.002292   0.000011
    21  H    0.009469  -0.001103  -0.000016   0.000011   0.000068  -0.000001
    22  H    0.114223  -0.009501  -0.000723   0.001004   0.001278  -0.000003
    23  H   -0.000056   0.000376   0.000002   0.000005  -0.000002   0.000000
    24  H    0.000308  -0.000084   0.000000  -0.000000   0.000000  -0.000000
    25  H   -0.002637  -0.000097  -0.000000  -0.000000   0.000000  -0.000000
    26  C    0.034674  -0.005478  -0.000154  -0.000002  -0.000069   0.000000
    27  N   -0.000262  -0.000005  -0.000000   0.000000  -0.000000   0.000000
    28  H    0.000105  -0.000001  -0.000000   0.000000  -0.000000  -0.000000
    29  H    0.000013   0.000002  -0.000000   0.000000  -0.000000   0.000000
    30  H    0.000011   0.000001  -0.000000   0.000000  -0.000000   0.000000
    31  C    0.001195  -0.000065   0.000003  -0.000001   0.000001  -0.000000
    32  C   -0.000221   0.000005  -0.000000   0.000000  -0.000000   0.000000
    33  C    0.000009  -0.000002  -0.000000   0.000000  -0.000000   0.000000
    34  C    0.000323  -0.000004   0.000000  -0.000000   0.000000  -0.000000
    35  O   -0.000000  -0.000000  -0.000000   0.000000   0.000000  -0.000000
    36  H   -0.000002  -0.000000   0.000000  -0.000000  -0.000000   0.000000
    37  H    0.000002  -0.000000  -0.000000   0.000000   0.000000  -0.000000
    38  H    0.000000   0.000000  -0.000000  -0.000000  -0.000000   0.000000
    39  H   -0.000000  -0.000000  -0.000000  -0.000000  -0.000000  -0.000000
    40  H   -0.000000  -0.000000  -0.000000   0.000000  -0.000000   0.000000
    41  H    0.000000   0.000000  -0.000000  -0.000000  -0.000000   0.000000
    42  H    0.000000  -0.000000  -0.000000   0.000000  -0.000000   0.000000
    43  H   -0.000000   0.000000   0.000000  -0.000000  -0.000000   0.000000
               7          8          9         10         11         12
     1  C   -0.027628   0.637023   5.320035   2.879004 -19.810222  -1.667372
     2  S    0.054531  -0.433199   0.148222  -1.143343   1.528155  -0.026383
     3  O    0.008442   0.036757  -0.017894  -0.136476  -0.271995  -0.013482
     4  O   -0.002390  -0.008233  -0.038492   0.038488   0.354436  -0.001803
     5  N    0.225545   0.016150  -0.107513   0.056676  -0.064630   0.015415
     6  H   -0.015140  -0.002027   0.006049  -0.003224   0.023400  -0.000017
     7  H    0.250978  -0.004415   0.000789  -0.005882  -0.002061  -0.000701
     8  S   -0.004415  16.647640  -2.289411   1.354539  -0.339873   0.025707
     9  C    0.000789  -2.289411  29.987053  -4.538285 -20.896213  -1.476190
    10  C   -0.005882   1.354539  -4.538285  26.833106 -13.800835  -4.528840
    11  C   -0.002061  -0.339873 -20.896213 -13.800835  54.286846   2.975941
    12  S   -0.000701   0.025707  -1.476190  -4.528840   2.975941  22.049433
    13  C    0.000035   0.066568  -1.656789  -2.768631   3.790476  -1.306366
    14  O   -0.000001   0.022219  -0.240817  -0.512323   0.552415   0.777672
    15  O   -0.000000   0.029015  -0.421562  -0.053426   0.097349   0.728207
    16  C   -0.000024  -0.195403   1.986879   1.497166  -2.751646  -1.493819
    17  C   -0.000007   0.035921  -0.057245   0.499597  -0.363835  -0.772066
    18  C    0.000000  -0.025904   0.375989   0.107722  -0.572145  -0.414865
    19  C   -0.000000   0.050976  -0.389912   0.207314   0.734563  -0.517632
    20  C    0.000009   0.055507  -0.259763   0.401900  -0.379782   1.521043
    21  H   -0.000000  -0.020886   0.428504  -0.048313  -0.054661  -0.012758
    22  H   -0.000006   0.007008   0.018933   0.052257   0.088879   0.021055
    23  H    0.000000  -0.000202  -0.002108  -0.009805   0.009621   0.008075
    24  H   -0.000000   0.000018  -0.000053  -0.000752  -0.000754   0.007568
    25  H    0.000000   0.000780  -0.016098   0.006596   0.005173   0.019871
    26  C   -0.000000  -0.005879   0.129881   0.297086  -0.332524  -0.494034
    27  N    0.000000  -0.000014   0.000875   0.002919  -0.002447  -0.000302
    28  H   -0.000000  -0.000026   0.000496   0.000097  -0.000634   0.003670
    29  H    0.000000   0.000004  -0.000028  -0.000190   0.000102   0.000392
    30  H    0.000000  -0.000002   0.000032   0.000250  -0.000099  -0.000932
    31  C   -0.000000   0.000083  -0.002477  -0.009475   0.006053   0.002520
    32  C   -0.000000  -0.000015   0.000284   0.001195  -0.000947  -0.001808
    33  C    0.000000  -0.000002   0.000053   0.000293  -0.000216  -0.001238
    34  C   -0.000000   0.000005  -0.000048  -0.000975   0.000785  -0.000365
    35  O   -0.000000   0.000000  -0.000000  -0.000004   0.000002  -0.000024
    36  H    0.000000  -0.000000   0.000002   0.000027  -0.000020  -0.000045
    37  H   -0.000000   0.000000  -0.000018  -0.000194   0.000069   0.000809
    38  H    0.000000   0.000000   0.000000   0.000001  -0.000000  -0.000006
    39  H    0.000000  -0.000000   0.000000  -0.000001   0.000000  -0.000040
    40  H    0.000000   0.000000   0.000000  -0.000000   0.000000  -0.000004
    41  H    0.000000   0.000000   0.000000   0.000000  -0.000000  -0.000000
    42  H    0.000000   0.000000  -0.000000  -0.000000   0.000000  -0.000025
    43  H    0.000000  -0.000000   0.000000   0.000002  -0.000001   0.000026
              13         14         15         16         17         18
     1  C   -0.563798  -0.163282  -0.035556   0.797674   0.355073   0.185367
     2  S    0.030598   0.003995  -0.008350   0.038480  -0.059886  -0.011879
     3  O    0.001071   0.000180  -0.000129   0.004744  -0.000781  -0.000063
     4  O    0.012501   0.000320  -0.000064  -0.007885  -0.002735  -0.001234
     5  N   -0.001698   0.000244   0.000002   0.001692  -0.000079  -0.000100
     6  H    0.000029  -0.000000  -0.000000   0.000023   0.000002   0.000003
     7  H    0.000035  -0.000001  -0.000000  -0.000024  -0.000007   0.000000
     8  S    0.066568   0.022219   0.029015  -0.195403   0.035921  -0.025904
     9  C   -1.656789  -0.240817  -0.421562   1.986879  -0.057245   0.375989
    10  C   -2.768631  -0.512323  -0.053426   1.497166   0.499597   0.107722
    11  C    3.790476   0.552415   0.097349  -2.751646  -0.363835  -0.572145
    12  S   -1.306366   0.777672   0.728207  -1.493819  -0.772066  -0.414865
    13  C   28.787320   0.047707  -0.011235  -5.780944  -0.485767  -3.601068
    14  O    0.047707   8.647903  -0.208030  -0.719767   0.032190  -0.097517
    15  O   -0.011235  -0.208030   8.671241   0.284402   0.143976  -0.019877
    16  C   -5.780944  -0.719767   0.284402  36.088807  -8.159124   1.735788
    17  C   -0.485767   0.032190   0.143976  -8.159124  22.269985  -5.607083
    18  C   -3.601068  -0.097517  -0.019877   1.735788  -5.607083  28.115336
    19  C    1.673661   0.218911  -0.049085   3.045018  -6.662190  -1.386629
    20  C   -7.703448   0.095174  -0.598019 -19.928145   1.650621   3.105710
    21  H   -0.001072  -0.000302   0.008668   0.000471   0.000031   0.000400
    22  H    0.048908  -0.001181   0.000174  -0.061954  -0.020011  -0.001295
    23  H   -0.031103   0.007511   0.000693   0.367589  -0.050453   0.034727
    24  H    0.052895   0.000057   0.000037  -0.010703   0.143485   0.226360
    25  H   -0.035425   0.000774   0.005141   0.005372  -0.006268   0.018751
    26  C   -4.202233  -0.010995  -0.006522  -0.458818   3.291304 -15.408852
    27  N   -0.065408   0.000022   0.000038   0.018074   0.052914  -0.417412
    28  H    0.052986   0.000031   0.000093  -0.020291   0.073893   0.117143
    29  H   -0.002967  -0.000000  -0.000001   0.000899  -0.104118  -0.070766
    30  H   -0.008594  -0.000000   0.000000   0.019354   0.139512  -0.312213
    31  C   -0.006052  -0.000241   0.000288  -0.032737  -0.378558   0.652809
    32  C   -0.048098   0.000009  -0.000116  -0.013770   0.235658  -0.452868
    33  C   -0.025246  -0.000006  -0.000011  -0.015444   0.060614  -0.607829
    34  C   -0.017847  -0.000052   0.000113  -0.052372  -0.191676   0.156403
    35  O   -0.000806  -0.000000   0.000000  -0.000765  -0.014564   0.000739
    36  H   -0.000409  -0.000000   0.000000   0.010646  -0.005003   0.010514
    37  H    0.005529   0.000001   0.000000  -0.009066  -0.025712   0.102169
    38  H    0.000269  -0.000000   0.000000  -0.000553  -0.017322  -0.045175
    39  H   -0.001780  -0.000000  -0.000000   0.002033   0.022239  -0.072009
    40  H   -0.000277  -0.000000  -0.000000   0.000092   0.001029  -0.010581
    41  H   -0.000020  -0.000000  -0.000000  -0.000008   0.000004  -0.005572
    42  H   -0.000692  -0.000000  -0.000000   0.000120  -0.006829   0.000629
    43  H    0.000508   0.000000   0.000000  -0.000543   0.002774  -0.002604
              19         20         21         22         23         24
     1  C   -0.201419  -0.356305   0.009469   0.114223  -0.000056   0.000308
     2  S    0.013368  -0.022602  -0.001103  -0.009501   0.000376  -0.000084
     3  O    0.002000  -0.006387  -0.000016  -0.000723   0.000002   0.000000
     4  O   -0.000292   0.002979   0.000011   0.001004   0.000005  -0.000000
     5  N    0.000532  -0.002292   0.000068   0.001278  -0.000002   0.000000
     6  H   -0.000008   0.000011  -0.000001  -0.000003   0.000000  -0.000000
     7  H   -0.000000   0.000009  -0.000000  -0.000006   0.000000  -0.000000
     8  S    0.050976   0.055507  -0.020886   0.007008  -0.000202   0.000018
     9  C   -0.389912  -0.259763   0.428504   0.018933  -0.002108  -0.000053
    10  C    0.207314   0.401900  -0.048313   0.052257  -0.009805  -0.000752
    11  C    0.734563  -0.379782  -0.054661   0.088879   0.009621  -0.000754
    12  S   -0.517632   1.521043  -0.012758   0.021055   0.008075   0.007568
    13  C    1.673661  -7.703448  -0.001072   0.048908  -0.031103   0.052895
    14  O    0.218911   0.095174  -0.000302  -0.001181   0.007511   0.000057
    15  O   -0.049085  -0.598019   0.008668   0.000174   0.000693   0.000037
    16  C    3.045018 -19.928145   0.000471  -0.061954   0.367589  -0.010703
    17  C   -6.662190   1.650621   0.000031  -0.020011  -0.050453   0.143485
    18  C   -1.386629   3.105710   0.000400  -0.001295   0.034727   0.226360
    19  C   23.880523 -12.621268  -0.000307  -0.002665  -0.002448   0.078413
    20  C  -12.621268  40.769707   0.004362   0.037384  -0.009786  -0.021755
    21  H   -0.000307   0.004362   0.338487  -0.000036  -0.000000  -0.000000
    22  H   -0.002665   0.037384  -0.000036   0.372732  -0.000358   0.000001
    23  H   -0.002448  -0.009786  -0.000000  -0.000358   0.413833  -0.002988
    24  H    0.078413  -0.021755  -0.000000   0.000001  -0.002988   0.434700
    25  H   -0.038481   0.351537  -0.000037  -0.000002  -0.000105   0.000012
    26  C   -1.814895  -0.322705   0.000022   0.000207  -0.019101  -0.182736
    27  N   -0.072012   0.001311  -0.000000  -0.000000  -0.000076   0.001207
    28  H    0.228329  -0.056842  -0.000000   0.000000   0.000013  -0.000109
    29  H    0.102590   0.008927  -0.000000  -0.000000   0.000001   0.000108
    30  H   -0.107384  -0.012351   0.000000  -0.000000   0.000001   0.002350
    31  C    0.142174   0.084665   0.000000   0.000004   0.000071   0.004636
    32  C   -0.115897  -0.077176   0.000000   0.000001  -0.000188  -0.001363
    33  C   -0.040761   0.010172   0.000000   0.000000  -0.000015  -0.000636
    34  C    0.119658   0.023577   0.000000  -0.000000  -0.000009   0.004829
    35  O    0.009478   0.000798   0.000000   0.000000  -0.000000  -0.000003
    36  H   -0.002520   0.003918   0.000000  -0.000000   0.000001  -0.000148
    37  H   -0.000207   0.006867   0.000000   0.000000  -0.000010  -0.000577
    38  H    0.032446   0.000076  -0.000000  -0.000000  -0.000000  -0.000000
    39  H   -0.024779   0.000342   0.000000  -0.000000   0.000000   0.000003
    40  H   -0.003578   0.000743   0.000000  -0.000000  -0.000000   0.000000
    41  H    0.000265  -0.000044   0.000000  -0.000000  -0.000000  -0.000000
    42  H    0.002144  -0.000080   0.000000  -0.000000   0.000000   0.000001
    43  H   -0.000318   0.001945  -0.000000  -0.000000   0.000000  -0.000000
              25         26         27         28         29         30
     1  C   -0.002637   0.034674  -0.000262   0.000105   0.000013   0.000011
     2  S   -0.000097  -0.005478  -0.000005  -0.000001   0.000002   0.000001
     3  O   -0.000000  -0.000154  -0.000000  -0.000000  -0.000000  -0.000000
     4  O   -0.000000  -0.000002   0.000000   0.000000   0.000000   0.000000
     5  N    0.000000  -0.000069  -0.000000  -0.000000  -0.000000  -0.000000
     6  H   -0.000000   0.000000   0.000000  -0.000000   0.000000   0.000000
     7  H    0.000000  -0.000000   0.000000  -0.000000   0.000000   0.000000
     8  S    0.000780  -0.005879  -0.000014  -0.000026   0.000004  -0.000002
     9  C   -0.016098   0.129881   0.000875   0.000496  -0.000028   0.000032
    10  C    0.006596   0.297086   0.002919   0.000097  -0.000190   0.000250
    11  C    0.005173  -0.332524  -0.002447  -0.000634   0.000102  -0.000099
    12  S    0.019871  -0.494034  -0.000302   0.003670   0.000392  -0.000932
    13  C   -0.035425  -4.202233  -0.065408   0.052986  -0.002967  -0.008594
    14  O    0.000774  -0.010995   0.000022   0.000031  -0.000000  -0.000000
    15  O    0.005141  -0.006522   0.000038   0.000093  -0.000001   0.000000
    16  C    0.005372  -0.458818   0.018074  -0.020291   0.000899   0.019354
    17  C   -0.006268   3.291304   0.052914   0.073893  -0.104118   0.139512
    18  C    0.018751 -15.408852  -0.417412   0.117143  -0.070766  -0.312213
    19  C   -0.038481  -1.814895  -0.072012   0.228329   0.102590  -0.107384
    20  C    0.351537  -0.322705   0.001311  -0.056842   0.008927  -0.012351
    21  H   -0.000037   0.000022  -0.000000  -0.000000  -0.000000   0.000000
    22  H   -0.000002   0.000207  -0.000000   0.000000  -0.000000  -0.000000
    23  H   -0.000105  -0.019101  -0.000076   0.000013   0.000001   0.000001
    24  H    0.000012  -0.182736   0.001207  -0.000109   0.000108   0.002350
    25  H    0.411516  -0.009722   0.000139  -0.002906  -0.000003   0.000002
    26  C   -0.009722  24.605206   0.537915  -0.095848   0.427083   0.623011
    27  N    0.000139   0.537915   7.243704   0.004802  -0.059780  -0.037979
    28  H   -0.002906  -0.095848   0.004802   0.432244   0.000808   0.000047
    29  H   -0.000003   0.427083  -0.059780   0.000808   0.468295  -0.037018
    30  H    0.000002   0.623011  -0.037979   0.000047  -0.037018   0.507010
    31  C   -0.000116  -0.567488   0.168447   0.003019   0.021240  -0.031054
    32  C    0.000009   0.250384   0.229414  -0.003923  -0.020401   0.003797
    33  C    0.000001   0.443035  -0.022608   0.000167   0.007053  -0.002936
    34  C    0.000001  -0.074651   0.015419  -0.001869   0.001576  -0.001061
    35  O   -0.000000  -0.004264  -0.031308   0.000004   0.000136  -0.000182
    36  H    0.000000  -0.023501  -0.045289  -0.000000  -0.000265   0.009588
    37  H   -0.000001  -0.085447  -0.053095  -0.000012   0.000030  -0.001355
    38  H   -0.000000  -0.011135  -0.053857  -0.000004   0.004812  -0.001358
    39  H   -0.000000   0.052772  -0.038204   0.000000  -0.001889   0.008892
    40  H   -0.000000   0.003283   0.021568   0.000000   0.000011   0.000005
    41  H   -0.000000   0.000127   0.000437  -0.000000  -0.000012   0.000012
    42  H    0.000000   0.001098   0.004310  -0.000000   0.000002   0.000009
    43  H   -0.000000  -0.004621   0.018886   0.000001   0.000009   0.000003
              31         32         33         34         35         36
     1  C    0.001195  -0.000221   0.000009   0.000323  -0.000000  -0.000002
[...]
 2757,0.00000014,0.00000064,0.00000082,-0.00000004,0.00000002,-0.000000
 57,-0.00000370,0.00001526,-0.00000417,-0.00001050,-0.00001224,0.000010
 39,-0.00001693,0.00000353,0.00000876,0.00204392,-0.00110980,0.00295953
 ,-0.00501243,0.00923073,-0.00444119,-0.00002365,-0.00000282,0.00000782
 ,-0.00014488,0.00010676,-0.00017399,-0.00152700,0.00070348,0.00056236,
 0.00035654,-0.00095778,0.00147063,-0.08525371,0.02480206,-0.24506841,-
 0.01099933,0.00102996,-0.02346577,0.00001385,0.00004429,0.00029333,-0.
 00046553,0.00056438,0.00266208,0.00080934,0.00094585,-0.00037115,0.000
 14733,0.00019605,0.00014837,-0.00089697,-0.00026693,-0.00246026,0.0973
 2793,-0.03463107,0.26966070,0.00000032,-0.00000037,0.00000003,-0.00000
 032,-0.00000029,0.00000054,0.00000033,0.00000013,-0.00000024,0.0000000
 2,0.00000015,-0.00000015,-0.00000012,0.00000026,-0.00000008,-0.0000000
 3,-0.00000001,0.00000003,0.00000002,-0.00000007,0.,0.00000047,0.000000
 13,-0.00000035,-0.00000035,-0.00000024,-0.00000038,0.00000063,0.000000
 32,0.00000063,0.00000010,-0.00000030,0.00000034,-0.00000273,0.00000459
 ,-0.00000035,0.00000677,-0.00000555,0.00000695,0.00000004,-0.00000060,
 -0.00000021,0.00000145,-0.00000103,0.00000057,-0.00000913,0.00000804,0
 .00000032,0.00001113,-0.00001442,-0.00000713,-0.00005054,0.00005115,-0
 .00009455,-0.00000806,0.00003348,-0.00000435,-0.00000941,-0.00000679,-
 0.00000718,-0.00000001,0.,-0.00000001,0.00000002,0.00000003,-0.0000000
 3,-0.00000033,0.00000066,-0.00000021,0.00000228,-0.00000189,0.00000238
 ,-0.00000080,0.00000204,0.00000033,-0.00006212,-0.00009005,0.00009044,
 0.00107888,-0.00110897,-0.00014817,0.00000072,0.00000063,0.00000017,0.
 00000873,-0.00003376,-0.00001009,-0.00008780,0.00009308,-0.00013987,-0
 .00007915,-0.00054125,0.00037384,0.00914741,-0.00160237,0.02257622,-0.
 08445082,0.01382801,-0.08771864,-0.00044231,0.00439567,-0.00026081,-0.
 02490770,-0.01226618,-0.02751523,-0.00005452,0.00004490,-0.00006180,0.
 00019761,0.00001855,-0.00013463,0.00093441,-0.00029737,-0.00099578,-0.
 00264260,0.00160715,0.00357688,0.10377165,-0.00000022,-0.00000006,0.00
 000023,0.00000029,0.00000008,-0.00000019,-0.00000019,-0.00000011,0.000
 00006,-0.00000009,-0.00000003,0.,-0.00000007,0.00000004,0.00000006,0.0
 0000005,0.00000002,0.,-0.00000001,-0.00000002,0.00000002,-0.00000024,-
 0.00000006,0.00000029,0.00000043,-0.00000009,0.00000003,-0.00000054,0.
 00000039,-0.00000032,-0.00000019,0.00000029,-0.00000024,0.00000253,-0.
 00000444,0.00000108,0.00000271,0.00000739,0.00000513,-0.00000027,0.000
 00139,0.00000028,-0.00000094,0.00000090,-0.00000059,0.00000149,0.00000
 813,-0.00000464,0.00000073,0.00000719,-0.00000251,0.00001713,-0.000058
 60,0.00007985,-0.00001181,0.00000458,-0.00000404,0.00000498,-0.0000096
 6,-0.00000211,-0.00000004,0.00000020,0.00000006,0.00000004,0.,-0.00000
 003,-0.00000055,0.00000039,0.00000020,-0.00000075,0.00000089,0.0000009
 2,0.00000028,-0.00000025,-0.00000038,-0.00001924,0.00011126,-0.0002237
 2,-0.00082087,0.00078563,-0.00097906,0.00000013,0.00000055,0.00000078,
 0.00000601,0.00002362,0.00000067,0.00011513,-0.00009346,0.00002868,0.0
 0010853,-0.00052289,0.00006497,-0.00060275,0.00092272,-0.00555450,0.01
 647978,-0.05778043,0.02898272,-0.00250046,0.00352766,-0.00322210,-0.01
 932755,-0.00581694,-0.02187593,-0.00000025,-0.00010055,0.00017493,0.00
 017925,-0.00001679,-0.00004793,0.00014264,0.00013609,0.00026848,0.0003
 2614,0.00095580,-0.00050539,-0.00502808,0.05764328,0.00000061,0.000000
 60,-0.00000039,-0.00000250,0.00000060,0.00000007,0.00000119,0.00000031
 ,-0.00000010,0.00000104,-0.00000030,0.00000028,0.00000070,-0.00000070,
 -0.00000003,-0.00000008,0.00000001,-0.00000003,-0.00000014,0.00000013,
 -0.00000010,0.00000180,0.00000096,-0.00000164,-0.00000201,-0.00000101,
 -0.00000104,0.00000459,-0.00000626,0.00000185,0.00000063,0.00000007,0.
 00000086,-0.00001739,0.00003432,-0.00000936,0.00000152,-0.00002817,-0.
 00000146,0.00000166,-0.00001006,-0.00000140,0.00000675,-0.00000706,0.0
 0000959,-0.00000363,-0.00000797,-0.00000433,0.00001887,-0.00000780,0.0
 0001063,0.00005903,0.00000444,-0.00002167,0.00001211,-0.00005881,-0.00
 001649,0.00000478,0.00001530,0.00002058,0.00000014,-0.00000052,-0.0000
 0035,-0.00000025,0.00000017,0.00000009,0.00000194,-0.00000450,0.000000
 50,-0.00000220,0.00000308,-0.00000040,0.00000367,-0.00000534,0.0000000
 6,0.00022241,-0.00007211,0.00050670,-0.00124867,0.00025335,0.00154645,
 0.00000513,0.00000486,0.00000073,-0.00001053,0.00000638,-0.00001900,-0
 .00013048,0.00007635,0.00016184,0.00000132,0.00001080,0.00006900,-0.00
 888237,0.00465886,-0.02282736,-0.08730692,0.02585381,-0.26568198,0.000
 73725,0.00050203,0.00113733,-0.00759537,-0.00495398,0.00201413,-0.0000
 3747,0.00018223,-0.00017953,-0.00003593,-0.00009498,-0.00005003,0.0000
 7142,0.00009082,0.00064283,0.00355979,-0.00122892,-0.00276208,0.100577
 03,-0.02457495,0.28685210,-0.00000455,-0.00000109,0.00000397,0.0000031
 2,-0.00000073,-0.00001105,-0.00000271,-0.00000097,0.00000302,0.0000007
 9,-0.00000020,0.00000339,-0.00000126,0.00000206,0.00000256,0.00000054,
 -0.00000028,-0.00000018,-0.00000019,-0.00000036,-0.00000033,-0.0000076
 5,-0.00000442,0.00000656,0.00000858,0.00000415,0.00000573,-0.00001723,
 0.00002328,-0.00000671,-0.00000231,0.00000027,-0.00000503,0.00006294,-
 0.00014289,0.00001513,-0.00004864,0.00010520,-0.00001139,-0.00000152,0
 .00004184,0.00001293,-0.00002255,0.00002846,-0.00002371,0.00006518,0.0
 0000906,0.00000860,-0.00006595,0.00015219,-0.00005421,-0.00016412,-0.0
 0021539,0.00045951,-0.00001096,0.00009872,0.00000149,0.00000609,-0.000
 01998,-0.00003549,0.00000007,0.00000102,0.00000110,-0.00000009,0.00000
 004,-0.00000059,-0.00000918,0.00001432,0.00000128,-0.00001184,-0.00000
 798,0.00001566,-0.00000845,0.00001110,-0.00000013,0.00036471,0.0015151
 2,-0.00024435,-0.00376153,0.00083297,0.00480110,-0.00000966,-0.0000109
 2,0.00000655,0.00000711,-0.00004625,-0.00006234,-0.00007458,0.00004008
 ,0.00023973,-0.00076926,-0.00096829,0.00007774,-0.00585948,0.01963538,
 -0.00651422,-0.09612880,0.10952812,-0.01254657,-0.00437336,-0.00201962
 ,-0.00053991,0.00866127,-0.03597666,0.00310581,0.00015812,0.00010649,0
 .00001191,0.00023591,0.00013574,-0.00012224,0.00038530,-0.00027587,-0.
 00060056,0.00089809,-0.00047402,-0.00003221,-0.00314144,0.01026498,-0.
 00022872,0.10311015,0.00000154,0.00000042,-0.00000150,-0.00000150,-0.0
 0000023,0.00000427,0.00000125,0.00000064,-0.00000117,-0.00000023,0.000
 00020,-0.00000138,0.00000053,-0.00000063,-0.00000105,-0.00000016,0.000
 00006,0.00000013,0.,0.00000009,0.00000015,0.00000237,0.00000117,-0.000
 00198,-0.00000270,-0.00000121,-0.00000184,0.00000516,-0.00000645,0.000
 00169,0.00000076,-0.00000025,0.00000157,-0.00002089,0.00004165,-0.0000
 0197,0.00001488,-0.00002274,0.00000745,0.00000121,-0.00001300,-0.00000
 395,0.00000772,-0.00000934,0.00000693,-0.00001547,-0.00000011,-0.00001
 695,0.00004431,-0.00003832,0.00001728,-0.00000267,0.00002105,-0.000098
 55,-0.00000685,-0.00002159,-0.00001470,0.00000723,-0.00000333,0.000008
 40,-0.00000004,-0.00000022,-0.00000023,-0.00000007,0.00000003,0.000000
 17,0.00000215,-0.00000579,0.00000137,-0.00000018,0.00000118,0.00000112
 ,0.00000214,-0.00000456,0.00000051,-0.00022227,-0.00021110,0.00030065,
 0.00067258,0.00134497,-0.00089867,0.00000158,0.00000214,-0.00000111,0.
 00000426,-0.00001731,-0.00000509,-0.00000093,-0.00000637,-0.00006736,-
 0.00002658,0.00009916,0.00045345,0.00256365,-0.00347480,0.00116107,0.0
 9803641,-0.27707235,0.02699497,-0.00512561,0.00114065,-0.00092575,0.00
 229199,-0.02790387,0.00234712,0.00000185,0.00001178,-0.00008385,0.0001
 5451,-0.00003902,-0.00009335,0.00031548,0.00014542,-0.00031011,-0.0002
 0046,0.00018495,-0.00007558,0.00170995,-0.00043077,0.00075791,-0.10077
 342,0.30764714,0.00000343,0.00000102,-0.00000296,-0.00000191,0.0000003
 8,0.00000826,0.00000186,0.00000070,-0.00000227,-0.00000076,0.00000023,
 -0.00000258,0.00000083,-0.00000145,-0.00000196,-0.00000039,0.00000022,
 0.00000014,0.00000014,0.00000027,0.00000023,0.00000614,0.00000353,-0.0
 0000512,-0.00000670,-0.00000319,-0.00000442,0.00001357,-0.00001843,0.0
 0000547,0.00000187,-0.00000027,0.00000391,-0.00005147,0.00011240,-0.00
 001312,0.00003238,-0.00008890,-0.00000176,0.00000157,-0.00003272,-0.00
 001013,0.00001819,-0.00002185,0.00001932,-0.00004793,-0.00001732,-0.00
 000511,0.00005630,-0.00011139,0.00005696,0.00018800,0.00011998,-0.0004
 6039,0.00001107,-0.00008748,-0.00000040,-0.00001207,0.00003146,0.00003
 735,-0.00000004,-0.00000089,-0.00000091,0.00000005,-0.00000014,0.00000
 054,0.00000736,-0.00001296,-0.00000001,0.00000687,0.00000795,-0.000014
 35,0.00000796,-0.00000827,-0.00000088,0.00026810,-0.00128428,0.0006110
 2,0.00377986,-0.00002587,-0.00330037,0.00000869,0.00001047,-0.00000268
 ,0.00000847,0.00000786,0.00003996,-0.00007090,0.00000801,-0.00007521,0
 .00030990,0.00051881,0.00003282,0.00867964,-0.02293918,0.00358024,-0.0
 1327554,0.03098741,-0.05724008,-0.00003998,-0.00009168,0.00046176,0.00
 049893,-0.00390867,0.00107287,-0.00009788,-0.00002304,-0.00005521,-0.0
 0004766,-0.00007195,-0.00001492,-0.00042688,0.00057448,0.00071954,-0.0
 0094058,-0.00000794,0.00085528,-0.01112609,0.02632023,-0.00111944,0.01
 199621,-0.02960053,0.05430788,-0.00000370,-0.00000048,0.00000320,0.000
 00180,-0.00000214,-0.00000924,-0.00000178,-0.00000019,0.00000251,0.000
 00092,0.00000027,0.00000293,-0.00000092,0.00000218,0.00000218,0.000000
 34,-0.00000026,-0.00000014,-0.00000024,-0.00000034,-0.00000024,-0.0000
 0576,-0.00000375,0.00000527,0.00000680,0.00000360,0.00000466,-0.000013
 82,0.00001972,-0.00000512,-0.00000186,0.00000014,-0.00000425,0.0000511
 8,-0.00012475,0.00001094,-0.00003918,0.00009075,-0.00001367,0.00000180
 ,0.00003844,0.00001151,-0.00001884,0.00002559,-0.00002103,0.00003240,-
 0.00001115,0.00002386,-0.00004898,0.00007012,-0.00002975,0.00013839,-0
 .00024649,0.00003425,-0.00001396,0.00007472,0.00001587,-0.00000726,-0.
 00002029,-0.00002121,0.00000004,0.00000056,0.00000083,-0.00000014,-0.0
 0000019,-0.00000050,-0.00000496,0.00001135,-0.00000022,-0.00000028,-0.
 00000609,0.00000034,-0.00000618,0.00000969,-0.00000069,-0.00028181,-0.
 00145337,-0.00044932,-0.00303926,0.00189234,0.00465066,0.00000095,-0.0
 0000463,0.00000279,-0.00039257,0.00001997,0.00038501,-0.00004685,0.000
 02083,0.00020767,-0.01524087,-0.01230069,-0.00625114,-0.00007950,0.001
 10998,-0.00017042,0.00033149,0.00250787,0.00005109,-0.23907980,-0.1329
 3216,-0.02648773,0.01363092,0.01032144,0.00151311,0.00099252,-0.000034
 33,0.00004031,0.00034016,0.00014372,-0.00036993,0.00002728,-0.00017657
 ,-0.00005946,0.00007074,-0.00013763,0.00005062,0.00010522,0.00005825,0
 .00011292,0.00037970,0.00042016,0.00003928,0.24991812,0.00000065,0.000
 00014,-0.00000058,-0.00000050,0.00000012,0.00000124,0.00000034,0.00000
 012,-0.00000034,-0.00000002,0.00000002,-0.00000030,0.00000017,-0.00000
 029,-0.00000025,-0.00000012,0.00000006,-0.00000003,0.00000008,0.000000
 08,0.00000002,0.00000132,0.00000069,-0.00000106,-0.00000148,-0.0000007
 9,-0.00000081,0.00000292,-0.00000343,0.00000119,0.00000035,-0.00000032
 ,0.00000086,-0.00001228,0.00002480,-0.00000249,0.00000736,-0.00002420,
 0.00000095,0.00000024,-0.00000657,-0.00000207,0.00000386,-0.00000464,0
 .00000409,-0.00000111,0.00000515,-0.00000572,0.00000441,-0.00002487,0.
 00000377,-0.00004579,0.00005880,0.00001696,0.00000773,-0.00002290,0.00
 001011,0.00000105,0.00001237,-0.00000022,-0.00000002,-0.00000022,-0.00
 000026,0.00000007,0.,0.00000012,0.00000060,-0.00000131,0.00000005,-0.0
 0000117,0.00000040,-0.00000168,0.00000105,-0.00000142,0.00000010,0.000
 30598,0.00054669,-0.00013106,0.00197285,0.00056862,-0.00176945,-0.0000
 0166,0.00000073,-0.00000041,0.00015120,-0.00002145,-0.00014901,0.00003
 181,-0.00000593,-0.00006243,0.00464015,0.00569540,0.00248053,0.0001826
 8,-0.00061357,-0.00043344,0.00556655,-0.00359015,0.00108651,-0.1215303
 4,-0.13342147,-0.01727109,-0.02793279,-0.03286640,-0.00397897,-0.00028
 427,0.00007582,0.00005208,-0.00041573,0.00028561,0.00058320,-0.0002078
 1,0.00016335,0.00014315,-0.00003588,0.00009831,0.00006352,-0.00021168,
 0.00002861,-0.00027508,-0.00147445,-0.00133787,0.00000006,0.13627905,0
 .16011951,0.00000200,0.00000038,-0.00000194,-0.00000079,0.00000053,0.0
 0000529,0.00000099,0.00000029,-0.00000142,-0.00000069,0.00000008,-0.00
 000167,0.00000045,-0.00000099,-0.00000123,-0.00000022,0.00000014,0.000
 00008,0.00000014,0.00000016,0.00000017,0.00000367,0.00000220,-0.000003
 14,-0.00000416,-0.00000199,-0.00000273,0.00000818,-0.00001101,0.000003
 21,0.00000107,-0.00000004,0.00000254,-0.00003283,0.00007029,-0.0000072
 9,0.00001308,-0.00006244,-0.00000779,0.00000062,-0.00002100,-0.0000065
 0,0.00001098,-0.00001396,0.00001171,-0.00000802,-0.00000760,-0.0000055
 0,0.00000190,-0.00003973,0.00003060,-0.00009111,0.00021597,-0.00005687
 ,0.00002543,-0.00007061,0.00001191,0.00000179,0.00003751,0.00001691,0.
 ,-0.00000055,-0.00000055,0.00000014,-0.00000003,0.00000037,0.00000360,
 -0.00000685,0.00000027,0.00000167,0.00000285,-0.00000317,0.00000353,-0
 .00000580,0.00000065,0.00083913,0.00097890,0.00064937,0.00322381,-0.00
 198712,-0.00330385,0.00000061,0.00000338,-0.00000165,0.00038115,0.0000
 1111,-0.00037212,-0.00009140,-0.00000291,-0.00005560,0.01952670,0.0147
 7410,0.00365673,-0.00003152,-0.00063606,0.00000480,0.00008778,0.000118
 60,0.00047389,-0.02914866,-0.02031946,-0.05744796,0.00234713,0.0027921
 6,0.00108271,-0.00077638,0.00050295,0.00081486,-0.00069708,-0.00023591
 ,0.00073015,0.00000848,0.00008301,-0.00001529,-0.00007440,0.00007253,-
 0.00005475,0.00035104,0.00018257,0.00020421,0.00002012,-0.00003311,0.0
 0031602,0.02739298,0.02012258,0.05468494,-0.00000034,0.00000002,0.0000
 0056,0.00000043,0.00000024,-0.00000106,-0.00000031,-0.00000022,0.00000
 026,0.00000005,-0.00000012,0.00000033,-0.00000018,0.00000013,0.0000002
 9,0.00000008,-0.00000002,-0.00000003,0.,-0.00000003,-0.00000008,-0.000
 00046,-0.00000027,0.00000027,0.00000045,0.00000036,0.00000033,-0.00000
 091,0.00000099,0.00000013,-0.00000007,-0.00000046,-0.00000029,0.000004
 20,-0.00000475,-0.00000213,-0.00000458,0.00000039,-0.00000778,-0.00000
 075,0.00000142,0.00000092,-0.00000131,0.00000125,-0.00000023,0.0000015
 8,-0.00000879,0.00000329,0.00001361,-0.00000793,0.00001063,-0.00000222
 ,0.00002517,-0.00004356,0.00001692,0.00000033,-0.00000453,-0.00000757,
 0.00000989,0.00000152,0.00000010,0.,0.00000006,0.,0.00000005,-0.000000
 03,0.,0.00000022,-0.00000020,-0.00000289,-0.00000387,-0.00000398,-0.00
 000049,0.00000016,0.00000079,-0.00001936,0.00014105,0.00021872,0.00176
 494,0.00039839,0.00045677,0.00000290,0.00000140,-0.00000284,-0.0000644
 3,-0.00003625,-0.00009764,-0.00020159,-0.00005077,-0.00013964,0.007850
 87,-0.00280017,0.02216521,-0.00002718,0.00024817,0.00030312,-0.0001833
 6,-0.00214861,0.00144290,-0.08996745,0.00723651,-0.08913968,-0.0053954
 8,0.01213249,-0.01184647,-0.00254758,0.00054230,0.00326694,0.00083674,
 -0.00012666,-0.00099540,0.00005319,-0.00006235,-0.00008506,-0.00008728
 ,-0.00005829,-0.00014548,0.00068209,0.00060361,0.00009638,0.00014965,0
 .00013636,0.00020007,-0.00770222,0.00299464,-0.02330094,0.09484021,-0.
 00000001,-0.00000001,0.00000008,-0.00000048,0.00000034,-0.00000015,0.0
 0000013,-0.00000005,0.00000003,0.00000028,-0.00000012,0.00000011,0.000
 00010,-0.00000014,0.00000003,-0.00000004,0.00000003,-0.00000002,0.0000
 0001,0.00000003,-0.00000003,0.00000024,0.00000009,-0.00000013,-0.00000
 021,-0.00000011,-0.00000014,0.00000064,-0.00000083,0.00000028,-0.00000
 005,-0.00000007,-0.00000002,-0.00000197,0.00000466,-0.00000244,0.00000
 048,-0.00000547,-0.00000015,0.00000012,-0.00000146,0.00000005,0.000000
 55,-0.00000096,0.00000225,0.00000097,-0.00000025,0.00000133,-0.0000145
 6,0.00000393,-0.00000367,-0.00001820,0.00003855,0.00000093,0.00000421,
 -0.00000840,0.00000503,0.00000091,0.00000195,0.00000295,-0.00000003,0.
 00000003,-0.00000011,-0.00000005,0.00000005,0.00000002,0.00000014,-0.0
 0000020,-0.00000018,0.00000100,0.00000115,0.00000152,0.00000043,-0.000
 00057,0.00000010,0.00007209,0.00001888,0.00014257,0.00013957,0.0000008
 3,0.00086997,-0.00000018,-0.00000090,-0.00000042,0.00003008,-0.0000034
 8,-0.00000698,-0.00006856,-0.00001432,0.00004856,-0.00356300,0.0022112
 7,-0.00699557,-0.00040801,-0.00060321,-0.00026031,0.00475315,0.0031525
 7,0.00295776,0.00455385,-0.05180724,0.02313934,0.01906065,-0.02558721,
 0.03295895,0.00179590,0.00084126,-0.00144543,-0.00054848,0.00029230,0.
 00025927,-0.00022824,0.00012845,0.00011258,-0.00000766,-0.00006962,-0.
 00011936,-0.00058766,0.00066806,-0.00111890,-0.00013683,-0.00002146,-0
 .00034706,-0.00566527,0.00426238,-0.01651511,-0.01916602,0.06649929,0.
 00000098,0.00000036,-0.00000025,-0.00000273,0.00000139,0.00000026,0.00
 000121,0.00000006,-0.00000019,0.00000122,-0.00000047,0.00000026,0.0000
 0070,-0.00000087,-0.00000006,-0.00000012,0.00000004,-0.00000005,-0.000
 00010,0.00000014,-0.00000013,0.00000214,0.00000127,-0.00000194,-0.0000
 0220,-0.00000130,-0.00000150,0.00000558,-0.00000782,0.00000274,0.00000
 059,-0.00000055,0.00000103,-0.00001953,0.00004599,-0.00001343,0.000020
 85,-0.00003233,0.00002114,0.00000035,-0.00001335,-0.00000096,0.0000077
 1,-0.00001009,0.00001478,-0.00001448,0.00002439,-0.00001382,0.00001153
 ,-0.00002569,-0.00001366,0.00001436,0.00006195,-0.00004944,-0.00001187
 ,-0.00001999,-0.00001638,0.00000691,-0.00000674,0.00000447,0.00000012,
 -0.00000038,-0.00000048,-0.00000017,0.00000027,0.,0.00000097,-0.000003
 45,0.00000001,0.00000753,0.00000108,0.00001481,0.00000403,-0.00000346,
 0.00000004,0.00020570,-0.00007206,0.00050898,-0.00119710,0.00042418,0.
 00141193,0.00000659,0.00000296,0.00000088,0.00012140,0.00001331,-0.000
 00489,-0.00014796,-0.00000962,0.00016452,-0.00981908,0.00078407,-0.022
 81487,0.00000089,-0.00000129,0.00004973,0.00041320,-0.00082202,0.00120
 292,-0.08725965,0.02565693,-0.26599001,-0.00376857,0.00807024,0.002327
 13,0.00369614,-0.00084410,-0.00271119,-0.00005871,-0.00007204,0.000652
 23,0.00001878,0.00010464,-0.00004927,-0.00013247,-0.00013366,-0.000181
 45,0.00066857,0.00088637,-0.00048162,0.00023984,0.00017355,0.00020472,
 -0.00067070,-0.00048437,-0.00135039,0.09764757,-0.03368752,0.28711339\
 \-0.00000593,0.00000473,-0.00000384,0.00000744,0.00000085,0.00000698,-
 0.00000251,0.00000089,-0.00000181,-0.00000190,-0.00000227,-0.00000253,
 -0.00000001,-0.00000071,-0.00000246,-0.00000094,0.00000266,-0.00000148
 ,-0.00000175,-0.00000468,0.00000400,0.00000395,-0.00000015,0.00000059,
 -0.00000120,0.00000518,-0.00000485,0.00000784,0.00000163,0.00000410,0.
 00000136,0.00000013,0.00000366,-0.00000058,-0.00000045,0.00000258,0.00
 000128,-0.00000020,0.00000024,0.00000316,0.00000143,0.00000410,0.00000
 518,0.00000392,0.00000046,0.00000295,-0.00000021,0.00000091,0.00000003
 ,-0.00000148,0.00000155,-0.00000016,-0.00000052,-0.00000194,0.00000002
 ,0.00000212,-0.00000146,0.00000252,0.00000160,0.00000072,0.00000280,0.
 00000455,-0.00000031,-0.00000039,-0.00000145,0.00000091,-0.00000009,-0
 .00000220,0.00000297,-0.00000117,-0.00000288,0.00000115,0.00000131,0.0
 0000344,-0.00000035,-0.00000261,0.00000009,-0.00000014,-0.00000089,-0.
 00000056,-0.00000228,-0.00000006,0.00000237,-0.00000167,-0.00000250,-0
 .00000044,-0.00000272,-0.00000200,-0.00000213,-0.00000193,-0.00000141,
 -0.00000113,0.00000152,-0.00000204,-0.00000107,-0.00000227,-0.00000194
 ,-0.00000147,-0.00000133,-0.00000009,-0.00000127,0.00000073,-0.0000003
 6,-0.00000112,-0.00000026,-0.00000128,-0.00000302,0.00000106,0.0000002
 5,-0.00000087,0.00000154,-0.00000298,-0.00000062,-0.00000296,-0.000002
 85,-0.00000239,-0.00000223,-0.00000100,0.00000078,-0.00000206,-0.00000
 277,-0.00000133,-0.00000232,0.00000042,-0.00000201,0.00000226,0.000000
 90,0.00000027,0.00000118\\\@
 The archive entry for this job was punched.


 REPARTEE - WHAT YOU THINK OF AFTER YOU BECOME A DEPARTEE.
 Job cpu time:       0 days  9 hours 57 minutes 42.0 seconds.
 Elapsed time:       0 days  0 hours 37 minutes 31.2 seconds.
 File lengths (MBytes):  RWF=   1482 Int=      0 D2E=      0 Chk=     38 Scr=      1
 Normal termination of Gaussian 16 at Sat May 28 03:35:21 2022.
