 Entering Gaussian System, Link 0=g16
 AtFile(1): /home/561/yj5695/Basis/6-31pGd.gbs
 Initial command:
 /apps/gaussian/g16c01/g16/l1.exe "/jobfs/41479873.gadi-pbs/Gau-2976507.inp" -scrdir="/jobfs/41479873.gadi-pbs/"
 Entering Link 1 = /apps/gaussian/g16c01/g16/l1.exe PID=   2976508.
  
 Copyright (c) 1988-2019, Gaussian, Inc.  All Rights Reserved.
  
 This is part of the Gaussian(R) 16 program.  It is based on
 the Gaussian(R) 09 system (copyright 2009, Gaussian, Inc.),
 the Gaussian(R) 03 system (copyright 2003, Gaussian, Inc.),
 the Gaussian(R) 98 system (copyright 1998, Gaussian, Inc.),
 the Gaussian(R) 94 system (copyright 1995, Gaussian, Inc.),
 the Gaussian 92(TM) system (copyright 1992, Gaussian, Inc.),
 the Gaussian 90(TM) system (copyright 1990, Gaussian, Inc.),
 the Gaussian 88(TM) system (copyright 1988, Gaussian, Inc.),
 the Gaussian 86(TM) system (copyright 1986, Carnegie Mellon
 University), and the Gaussian 82(TM) system (copyright 1983,
 Carnegie Mellon University). Gaussian is a federally registered
 trademark of Gaussian, Inc.
  
 This software contains proprietary and confidential information,
 including trade secrets, belonging to Gaussian, Inc.
  
 This software is provided under written license and may be
 used, copied, transmitted, or stored only in accord with that
 written license.
  
 The following legend is applicable only to US Government
 contracts under FAR:
  
                    RESTRICTED RIGHTS LEGEND
  
 Use, reproduction and disclosure by the US Government is
 subject to restrictions as set forth in subparagraphs (a)
 and (c) of the Commercial Computer Software - Restricted
 Rights clause in FAR 52.227-19.
  
 Gaussian, Inc.
 340 Quinnipiac St., Bldg. 40, Wallingford CT 06492
  
  
 ---------------------------------------------------------------
 Warning -- This program may not be used in any manner that
 competes with the business of Gaussian, Inc. or will provide
 assistance to any competitor of Gaussian, Inc.  The licensee
 of this program is prohibited from giving any competitor of
 Gaussian, Inc. access to this program.  By using this program,
 the user acknowledges that Gaussian, Inc. is engaged in the
 business of creating and licensing software in the field of
 computational chemistry and represents and warrants to the
 licensee that it is not a competitor of Gaussian, Inc. and that
 it will not use this program in any manner prohibited above.
 ---------------------------------------------------------------
  

 Cite this work as:
 Gaussian 16, Revision C.01,
 M. J. Frisch, G. W. Trucks, H. B. Schlegel, G. E. Scuseria, 
 M. A. Robb, J. R. Cheeseman, G. Scalmani, V. Barone, 
 G. A. Petersson, H. Nakatsuji, X. Li, M. Caricato, A. V. Marenich, 
 J. Bloino, B. G. Janesko, R. Gomperts, B. Mennucci, H. P. Hratchian, 
 J. V. Ortiz, A. F. Izmaylov, J. L. Sonnenberg, D. Williams-Young, 
 F. Ding, F. Lipparini, F. Egidi, J. Goings, B. Peng, A. Petrone, 
 T. Henderson, D. Ranasinghe, V. G. Zakrzewski, J. Gao, N. Rega, 
 G. Zheng, W. Liang, M. Hada, M. Ehara, K. Toyota, R. Fukuda, 
 J. Hasegawa, M. Ishida, T. Nakajima, Y. Honda, O. Kitao, H. Nakai, 
 T. Vreven, K. Throssell, J. A. Montgomery, Jr., J. E. Peralta, 
 F. Ogliaro, M. J. Bearpark, J. J. Heyd, E. N. Brothers, K. N. Kudin, 
 V. N. Staroverov, T. A. Keith, R. Kobayashi, J. Normand, 
 K. Raghavachari, A. P. Rendell, J. C. Burant, S. S. Iyengar, 
 J. Tomasi, M. Cossi, J. M. Millam, M. Klene, C. Adamo, R. Cammi, 
 J. W. Ochterski, R. L. Martin, K. Morokuma, O. Farkas, 
 J. B. Foresman, and D. J. Fox, Gaussian, Inc., Wallingford CT, 2019.
 
 ******************************************
 Gaussian 16:  ES64L-G16RevC.01  3-Jul-2019
                27-May-2022 
 ******************************************
 %nproc=16
 Will use up to   16 processors via shared memory.
 %mem=60gb
 -----------------------------------------------------
 #m062X/gen 6D OPT Freq=noraman SCRF=(SMD,Solvent=h2o)
 -----------------------------------------------------
 1/18=20,19=15,26=3,38=1/1,3;
 2/9=110,12=2,17=6,18=5,40=1/2;
 3/5=7,8=2,11=2,25=1,30=1,70=32201,71=1,72=1,74=-55/1,2,3;
 4//1;
 5/5=2,38=5,53=1/2;
 6/7=2,8=2,9=2,10=2,28=1/1;
 7//1,2,3,16;
 1/18=20,19=15,26=3/3(2);
 2/9=110/2;
 99//99;
 2/9=110/2;
 3/5=7,6=1,8=2,11=2,25=1,30=1,70=32205,71=1,72=1,74=-55,82=7/1,2,3;
 4/5=5,16=3,69=1/1;
 5/5=2,38=5,53=1/2;
 7//1,2,3,16;
 1/18=20,19=15,26=3/3(-5);
 2/9=110/2;
 6/7=2,8=2,9=2,10=2,19=2,28=1/1;
 99/9=1/99;
 ----------------
 HA.22.smd.a1.smd
 ----------------
 Symbolic Z-matrix:
 Charge =  0 Multiplicity = 1
 C                    -1.39461   1.17899  -0.43499 
 S                    -1.48734   0.71742   1.26966 
 O                    -0.12718   0.74753   1.79229 
 O                    -2.5363    1.53857   1.86597 
 N                    -1.99776  -0.83917   1.36801 
 H                    -1.34701  -1.4908    0.92434 
 H                    -2.94766  -0.96262   1.01063 
 S                    -2.77873   1.84351  -1.2242 
 C                    -1.87674   1.86193  -2.70743 
 C                    -0.57437   1.41175  -2.58152 
 C                    -0.30801   0.9993   -1.23193 
 S                    -2.52943   2.49412  -4.19738 
 N                     0.36145   1.42778  -3.57783 
 H                     0.64538   0.60318  -0.89799 
 C                    -1.0003    2.80192  -5.10883 
 C                    -0.10325   1.57405  -4.95044 
 O                    -3.31448   1.46368  -4.90233 
 O                    -3.23409   3.75826  -3.91443 
 C                    -1.35675   3.11046  -6.56886 
 C                    -0.37126   4.0771   -7.20153 
 O                     0.93303   3.50141  -7.17689 
 H                     1.14135   0.7914   -3.44764 
 H                    -0.55977   3.67565  -4.61181 
 H                     0.76377   1.70622  -5.59685 
 H                    -0.64777   0.67954  -5.28725 
 H                    -2.34577   3.57827  -6.63609 
 H                    -1.3969    2.17537  -7.13861 
 H                    -0.37417   5.02451  -6.64845 
 H                    -0.67949   4.2749   -8.23427 
 H                     1.54652   4.11935  -7.60426 
 

 GradGradGradGradGradGradGradGradGradGradGradGradGradGradGradGradGradGrad
 Berny optimization.
 Initialization pass.
                           ----------------------------
                           !    Initial Parameters    !
                           ! (Angstroms and Degrees)  !
 --------------------------                            --------------------------
 ! Name  Definition              Value          Derivative Info.                !
 --------------------------------------------------------------------------------
 ! R1    R(1,2)                  1.7685         estimate D2E/DX2                !
 ! R2    R(1,8)                  1.7263         estimate D2E/DX2                !
 ! R3    R(1,11)                 1.3594         estimate D2E/DX2                !
 ! R4    R(2,3)                  1.4574         estimate D2E/DX2                !
 ! R5    R(2,4)                  1.4595         estimate D2E/DX2                !
 ! R6    R(2,5)                  1.6411         estimate D2E/DX2                !
 ! R7    R(5,6)                  1.0222         estimate D2E/DX2                !
 ! R8    R(5,7)                  1.0224         estimate D2E/DX2                !
 ! R9    R(8,9)                  1.7361         estimate D2E/DX2                !
 ! R10   R(9,10)                 1.3837         estimate D2E/DX2                !
 ! R11   R(9,12)                 1.7452         estimate D2E/DX2                !
 ! R12   R(10,11)                1.4361         estimate D2E/DX2                !
 ! R13   R(10,13)                1.367          estimate D2E/DX2                !
 ! R14   R(11,14)                1.0851         estimate D2E/DX2                !
 ! R15   R(12,15)                1.8066         estimate D2E/DX2                !
 ! R16   R(12,17)                1.4748         estimate D2E/DX2                !
 ! R17   R(12,18)                1.4747         estimate D2E/DX2                !
 ! R18   R(13,16)                1.4565         estimate D2E/DX2                !
 ! R19   R(13,22)                1.015          estimate D2E/DX2                !
 ! R20   R(15,16)                1.5289         estimate D2E/DX2                !
 ! R21   R(15,19)                1.5343         estimate D2E/DX2                !
 ! R22   R(15,23)                1.0975         estimate D2E/DX2                !
 ! R23   R(16,24)                1.0895         estimate D2E/DX2                !
 ! R24   R(16,25)                1.1            estimate D2E/DX2                !
 ! R25   R(19,20)                1.5185         estimate D2E/DX2                !
 ! R26   R(19,26)                1.0961         estimate D2E/DX2                !
 ! R27   R(19,27)                1.0957         estimate D2E/DX2                !
 ! R28   R(20,21)                1.4259         estimate D2E/DX2                !
 ! R29   R(20,28)                1.097          estimate D2E/DX2                !
 ! R30   R(20,29)                1.0958         estimate D2E/DX2                !
 ! R31   R(21,30)                0.97           estimate D2E/DX2                !
 ! A1    A(2,1,8)              119.9394         estimate D2E/DX2                !
 ! A2    A(2,1,11)             124.9238         estimate D2E/DX2                !
 ! A3    A(8,1,11)             115.0703         estimate D2E/DX2                !
 ! A4    A(1,2,3)              106.9375         estimate D2E/DX2                !
 ! A5    A(1,2,4)              106.5393         estimate D2E/DX2                !
 ! A6    A(1,2,5)              108.7619         estimate D2E/DX2                !
 ! A7    A(3,2,4)              120.8374         estimate D2E/DX2                !
 ! A8    A(3,2,5)              106.7607         estimate D2E/DX2                !
 ! A9    A(4,2,5)              106.5961         estimate D2E/DX2                !
 ! A10   A(2,5,6)              112.3727         estimate D2E/DX2                !
 ! A11   A(2,5,7)              112.4923         estimate D2E/DX2                !
 ! A12   A(6,5,7)              111.2713         estimate D2E/DX2                !
 ! A13   A(1,8,9)               88.7447         estimate D2E/DX2                !
 ! A14   A(8,9,10)             114.0685         estimate D2E/DX2                !
 ! A15   A(8,9,12)             122.6117         estimate D2E/DX2                !
 ! A16   A(10,9,12)            123.1993         estimate D2E/DX2                !
 ! A17   A(9,10,11)            110.7023         estimate D2E/DX2                !
 ! A18   A(9,10,13)            125.0439         estimate D2E/DX2                !
 ! A19   A(11,10,13)           124.1471         estimate D2E/DX2                !
 ! A20   A(1,11,10)            111.3888         estimate D2E/DX2                !
 ! A21   A(1,11,14)            124.7592         estimate D2E/DX2                !
 ! A22   A(10,11,14)           123.8502         estimate D2E/DX2                !
 ! A23   A(9,12,15)            100.1308         estimate D2E/DX2                !
 ! A24   A(9,12,17)            110.7366         estimate D2E/DX2                !
 ! A25   A(9,12,18)            108.9918         estimate D2E/DX2                !
 ! A26   A(15,12,17)           109.1742         estimate D2E/DX2                !
 ! A27   A(15,12,18)           110.806          estimate D2E/DX2                !
 ! A28   A(17,12,18)           115.8679         estimate D2E/DX2                !
 ! A29   A(10,13,16)           118.0095         estimate D2E/DX2                !
 ! A30   A(10,13,22)           115.1631         estimate D2E/DX2                !
 ! A31   A(16,13,22)           115.4043         estimate D2E/DX2                !
 ! A32   A(12,15,16)           107.9101         estimate D2E/DX2                !
 ! A33   A(12,15,19)           108.5256         estimate D2E/DX2                !
 ! A34   A(12,15,23)           104.2946         estimate D2E/DX2                !
 ! A35   A(16,15,19)           113.3544         estimate D2E/DX2                !
 ! A36   A(16,15,23)           110.9122         estimate D2E/DX2                !
 ! A37   A(19,15,23)           111.3533         estimate D2E/DX2                !
 ! A38   A(13,16,15)           111.438          estimate D2E/DX2                !
 ! A39   A(13,16,24)           108.5068         estimate D2E/DX2                !
 ! A40   A(13,16,25)           111.3959         estimate D2E/DX2                !
 ! A41   A(15,16,24)           107.9403         estimate D2E/DX2                !
 ! A42   A(15,16,25)           109.3243         estimate D2E/DX2                !
 ! A43   A(24,16,25)           108.1128         estimate D2E/DX2                !
 ! A44   A(15,19,20)           111.9451         estimate D2E/DX2                !
 ! A45   A(15,19,26)           110.7211         estimate D2E/DX2                !
 ! A46   A(15,19,27)           109.3723         estimate D2E/DX2                !
 ! A47   A(20,19,26)           106.7581         estimate D2E/DX2                !
 ! A48   A(20,19,27)           110.5113         estimate D2E/DX2                !
 ! A49   A(26,19,27)           107.4133         estimate D2E/DX2                !
 ! A50   A(19,20,21)           109.2343         estimate D2E/DX2                !
 ! A51   A(19,20,28)           109.754          estimate D2E/DX2                !
 ! A52   A(19,20,29)           108.9675         estimate D2E/DX2                !
 ! A53   A(21,20,28)           110.022          estimate D2E/DX2                !
 ! A54   A(21,20,29)           110.271          estimate D2E/DX2                !
 ! A55   A(28,20,29)           108.574          estimate D2E/DX2                !
 ! A56   A(20,21,30)           108.2833         estimate D2E/DX2                !
 ! D1    D(8,1,2,3)           -156.2651         estimate D2E/DX2                !
 ! D2    D(8,1,2,4)            -25.768          estimate D2E/DX2                !
 ! D3    D(8,1,2,5)             88.7857         estimate D2E/DX2                !
 ! D4    D(11,1,2,3)            26.8516         estimate D2E/DX2                !
 ! D5    D(11,1,2,4)           157.3488         estimate D2E/DX2                !
 ! D6    D(11,1,2,5)           -88.0976         estimate D2E/DX2                !
 ! D7    D(2,1,8,9)           -176.2414         estimate D2E/DX2                !
 ! D8    D(11,1,8,9)             0.9376         estimate D2E/DX2                !
 ! D9    D(2,1,11,10)          176.8371         estimate D2E/DX2                !
 ! D10   D(2,1,11,14)           -3.6329         estimate D2E/DX2                !
 ! D11   D(8,1,11,10)           -0.1813         estimate D2E/DX2                !
 ! D12   D(8,1,11,14)          179.3487         estimate D2E/DX2                !
 ! D13   D(1,2,5,6)             62.2428         estimate D2E/DX2                !
 ! D14   D(1,2,5,7)            -64.2731         estimate D2E/DX2                !
 ! D15   D(3,2,5,6)            -52.8213         estimate D2E/DX2                !
 ! D16   D(3,2,5,7)           -179.3372         estimate D2E/DX2                !
 ! D17   D(4,2,5,6)            176.7594         estimate D2E/DX2                !
 ! D18   D(4,2,5,7)             50.2435         estimate D2E/DX2                !
 ! D19   D(1,8,9,10)            -1.4946         estimate D2E/DX2                !
 ! D20   D(1,8,9,12)          -177.6186         estimate D2E/DX2                !
 ! D21   D(8,9,10,11)            1.6718         estimate D2E/DX2                !
 ! D22   D(8,9,10,13)         -174.6938         estimate D2E/DX2                !
 ! D23   D(12,9,10,11)         177.7699         estimate D2E/DX2                !
 ! D24   D(12,9,10,13)           1.4043         estimate D2E/DX2                !
 ! D25   D(8,9,12,15)          159.7241         estimate D2E/DX2                !
 ! D26   D(8,9,12,17)          -85.163          estimate D2E/DX2                !
 ! D27   D(8,9,12,18)           43.4223         estimate D2E/DX2                !
 ! D28   D(10,9,12,15)         -16.0459         estimate D2E/DX2                !
 ! D29   D(10,9,12,17)          99.067          estimate D2E/DX2                !
 ! D30   D(10,9,12,18)        -132.3477         estimate D2E/DX2                !
 ! D31   D(9,10,11,1)           -0.9401         estimate D2E/DX2                !
 ! D32   D(9,10,11,14)         179.5249         estimate D2E/DX2                !
 ! D33   D(13,10,11,1)         175.4646         estimate D2E/DX2                !
 ! D34   D(13,10,11,14)         -4.0704         estimate D2E/DX2                !
 ! D35   D(9,10,13,16)         -17.758          estimate D2E/DX2                !
 ! D36   D(9,10,13,22)        -159.6412         estimate D2E/DX2                !
 ! D37   D(11,10,13,16)        166.3507         estimate D2E/DX2                !
 ! D38   D(11,10,13,22)         24.4675         estimate D2E/DX2                !
 ! D39   D(9,12,15,16)          45.8103         estimate D2E/DX2                !
 ! D40   D(9,12,15,19)         169.0177         estimate D2E/DX2                !
 ! D41   D(9,12,15,23)         -72.1881         estimate D2E/DX2                !
 ! D42   D(17,12,15,16)        -70.4813         estimate D2E/DX2                !
 ! D43   D(17,12,15,19)         52.7261         estimate D2E/DX2                !
 ! D44   D(17,12,15,23)        171.5204         estimate D2E/DX2                !
 ! D45   D(18,12,15,16)        160.7425         estimate D2E/DX2                !
 ! D46   D(18,12,15,19)        -76.0501         estimate D2E/DX2                !
 ! D47   D(18,12,15,23)         42.7441         estimate D2E/DX2                !
 ! D48   D(10,13,16,15)         53.5373         estimate D2E/DX2                !
 ! D49   D(10,13,16,24)        172.2489         estimate D2E/DX2                !
 ! D50   D(10,13,16,25)        -68.8525         estimate D2E/DX2                !
 ! D51   D(22,13,16,15)       -164.6692         estimate D2E/DX2                !
 ! D52   D(22,13,16,24)        -45.9575         estimate D2E/DX2                !
 ! D53   D(22,13,16,25)         72.941          estimate D2E/DX2                !
 ! D54   D(12,15,16,13)        -67.7817         estimate D2E/DX2                !
 ! D55   D(12,15,16,24)        173.1685         estimate D2E/DX2                !
 ! D56   D(12,15,16,25)         55.7928         estimate D2E/DX2                !
 ! D57   D(19,15,16,13)        172.0025         estimate D2E/DX2                !
 ! D58   D(19,15,16,24)         52.9527         estimate D2E/DX2                !
 ! D59   D(19,15,16,25)        -64.423          estimate D2E/DX2                !
 ! D60   D(23,15,16,13)         45.8759         estimate D2E/DX2                !
 ! D61   D(23,15,16,24)        -73.1738         estimate D2E/DX2                !
 ! D62   D(23,15,16,25)        169.4504         estimate D2E/DX2                !
 ! D63   D(12,15,19,20)        148.4203         estimate D2E/DX2                !
 ! D64   D(12,15,19,26)         29.4228         estimate D2E/DX2                !
 ! D65   D(12,15,19,27)        -88.7527         estimate D2E/DX2                !
 ! D66   D(16,15,19,20)        -91.7143         estimate D2E/DX2                !
 ! D67   D(16,15,19,26)        149.2882         estimate D2E/DX2                !
 ! D68   D(16,15,19,27)         31.1127         estimate D2E/DX2                !
 ! D69   D(23,15,19,20)         34.1777         estimate D2E/DX2                !
 ! D70   D(23,15,19,26)        -84.8198         estimate D2E/DX2                !
 ! D71   D(23,15,19,27)        157.0047         estimate D2E/DX2                !
 ! D72   D(15,19,20,21)         60.3484         estimate D2E/DX2                !
 ! D73   D(15,19,20,28)        -60.355          estimate D2E/DX2                !
 ! D74   D(15,19,20,29)       -179.1256         estimate D2E/DX2                !
 ! D75   D(26,19,20,21)       -178.3392         estimate D2E/DX2                !
 ! D76   D(26,19,20,28)         60.9573         estimate D2E/DX2                !
 ! D77   D(26,19,20,29)        -57.8132         estimate D2E/DX2                !
 ! D78   D(27,19,20,21)        -61.83           estimate D2E/DX2                !
 ! D79   D(27,19,20,28)        177.4666         estimate D2E/DX2                !
 ! D80   D(27,19,20,29)         58.696          estimate D2E/DX2                !
 ! D81   D(19,20,21,30)        178.5535         estimate D2E/DX2                !
 ! D82   D(28,20,21,30)        -60.9068         estimate D2E/DX2                !
 ! D83   D(29,20,21,30)         58.8283         estimate D2E/DX2                !
 --------------------------------------------------------------------------------
 Trust Radius=3.00D-01 FncErr=1.00D-07 GrdErr=1.00D-06 EigMax=2.50D+02 EigMin=1.00D-04
 Number of steps in this run=    180 maximum allowed number of steps=    180.
 GradGradGradGradGradGradGradGradGradGradGradGradGradGradGradGradGradGrad

                          Input orientation:                          
 ---------------------------------------------------------------------
 Center     Atomic      Atomic             Coordinates (Angstroms)
 Number     Number       Type             X           Y           Z
 ---------------------------------------------------------------------
      1          6           0       -1.394605    1.178989   -0.434990
      2         16           0       -1.487342    0.717423    1.269656
      3          8           0       -0.127175    0.747533    1.792292
      4          8           0       -2.536304    1.538568    1.865971
      5          7           0       -1.997764   -0.839165    1.368006
      6          1           0       -1.347008   -1.490798    0.924342
      7          1           0       -2.947660   -0.962618    1.010626
      8         16           0       -2.778734    1.843509   -1.224204
      9          6           0       -1.876736    1.861928   -2.707430
     10          6           0       -0.574365    1.411751   -2.581521
     11          6           0       -0.308008    0.999298   -1.231932
     12         16           0       -2.529430    2.494117   -4.197377
     13          7           0        0.361447    1.427779   -3.577826
     14          1           0        0.645378    0.603183   -0.897989
     15          6           0       -1.000304    2.801921   -5.108834
     16          6           0       -0.103253    1.574053   -4.950436
     17          8           0       -3.314484    1.463681   -4.902327
     18          8           0       -3.234089    3.758258   -3.914425
     19          6           0       -1.356754    3.110462   -6.568860
     20          6           0       -0.371262    4.077102   -7.201525
     21          8           0        0.933032    3.501414   -7.176888
     22          1           0        1.141354    0.791400   -3.447639
     23          1           0       -0.559772    3.675653   -4.611807
     24          1           0        0.763768    1.706219   -5.596851
     25          1           0       -0.647766    0.679535   -5.287252
     26          1           0       -2.345770    3.578274   -6.636094
     27          1           0       -1.396901    2.175366   -7.138607
     28          1           0       -0.374167    5.024505   -6.648452
     29          1           0       -0.679486    4.274896   -8.234268
     30          1           0        1.546521    4.119354   -7.604256
 ---------------------------------------------------------------------
                    Distance matrix (angstroms):
                    1          2          3          4          5
     1  C    0.000000
     2  S    1.768463   0.000000
     3  O    2.598715   1.457432   0.000000
     4  O    2.593684   1.459518   2.536743   0.000000
     5  N    2.772642   1.641088   2.489324   2.488294   0.000000
     6  H    2.996300   2.239459   2.692853   3.387942   1.022226
     7  H    3.014675   2.241018   3.389801   2.675212   1.022381
     8  S    1.726343   3.025740   4.163073   3.114634   3.811326
     9  C    2.421330   4.156769   4.954830   4.632018   4.890780
    10  C    2.309668   4.018356   4.446505   4.862661   4.763554
    11  C    1.359448   2.779968   3.040069   3.853974   3.604844
    12  S    4.144025   5.842178   6.685620   6.138185   6.508988
    13  N    3.608744   5.236479   5.435039   6.167995   5.930107
    14  H    2.169666   3.043063   2.802728   4.317119   3.768461
    15  C    4.963285   6.728111   7.253165   7.252811   7.496792
    16  C    4.713058   6.429546   6.793238   7.237707   7.023924
    17  O    4.870738   6.479871   7.449143   6.813298   6.808372
    18  O    4.705613   6.258794   7.161285   6.231124   7.111180
    19  C    6.430893   8.196708   8.775201   8.660748   8.888436
    20  C    7.431843   9.181176   9.593454   9.661834  10.012595
    21  O    7.500983   9.216991   9.442144   9.882427  10.022245
    22  H    3.956939   5.400777   5.391472   6.505219   5.975219
    23  H    4.937214   6.648543   7.055034   7.101790   7.629519
    24  H    5.619729   7.293431   7.504152   8.161636   7.912918
    25  H    4.934741   6.610550   7.098985   7.448027   6.958549
    26  H    6.716768   8.451169   9.163676   8.745388   9.148797
    27  H    6.777260   8.534206   9.133010   9.098691   9.044938
    28  H    7.378103   9.082211   9.465709   9.451031  10.063910
    29  H    8.421685  10.180020  10.643272  10.627798  10.958793
    30  H    8.288205   9.976160  10.122527  10.630857  10.846675
                    6          7          8          9         10
     6  H    0.000000
     7  H    1.687752   0.000000
     8  S    4.217072   3.591288   0.000000
     9  C    4.971031   4.790499   1.736058   0.000000
    10  C    4.616584   4.916673   2.624494   1.383721   0.000000
    11  C    3.453928   3.980696   2.610984   2.319942   1.436125
    12  S    6.596186   6.264761   3.053719   1.745169   2.757678
    13  N    5.630846   6.141505   3.946277   2.440397   1.366976
    14  H    3.416906   4.359411   3.656415   3.349563   2.230658
    15  C    7.412614   7.443906   4.378552   2.723685   2.915700
    16  C    6.741903   7.075282   4.595172   2.873881   2.420753
    17  O    6.822755   6.401914   3.736293   2.653920   3.591252
    18  O    7.384262   6.828238   3.333302   2.625893   3.789045
    19  C    8.793166   8.750404   5.673847   4.091437   4.404160
    20  C    9.898652   9.973767   6.820061   5.231667   5.337582
    21  O    9.785228  10.100631   7.208350   5.527998   5.268428
    22  H    5.524001   6.298630   4.627925   3.286762   2.019576
    23  H    7.613206   7.669897   4.444817   2.941198   3.040975
    24  H    7.563217   8.034684   5.629228   3.917303   3.312028
    25  H    6.616886   6.902858   4.733310   3.092556   2.804016
    26  H    9.157140   8.913714   5.699598   4.312799   4.926587
    27  H    8.857449   8.869149   6.082742   4.468088   4.693262
    28  H   10.037071  10.056340   6.732247   5.271742   5.443528
    29  H   10.842922  10.864816   7.710997   6.148314   6.337365
    30  H   10.610528  10.965414   8.036938   6.386984   6.087457
                   11         12         13         14         15
    11  C    0.000000
    12  S    3.995380   0.000000
    13  N    2.476890   3.142943   0.000000
    14  H    1.085067   4.953887   2.818173   0.000000
    15  C    4.331177   1.806578   2.467107   5.027319   0.000000
    16  C    3.768228   2.701842   1.456503   4.233836   1.528872
    17  O    4.767216   1.474809   3.907437   5.696989   2.681224
    18  O    4.834209   1.474672   4.297943   5.839833   2.707580
    19  C    5.834354   2.716428   3.837958   6.515655   1.534252
    20  C    6.716615   4.023486   4.548293   7.268854   2.530047
    21  O    6.568353   4.677689   4.192841   6.921493   2.916149
    22  H    2.655792   4.115338   1.014979   2.604253   3.374680
    23  H    4.318543   2.333952   2.640208   4.968390   1.097503
    24  H    4.549831   3.663941   2.077463   4.828044   2.133231
    25  H    4.082071   2.832171   2.121442   4.576427   2.158851
    26  H    6.325232   2.675158   4.615913   7.122077   2.178423
    27  H    6.120264   3.167816   4.041019   6.751887   2.160981
    28  H    6.748730   4.129866   4.786054   7.324984   2.775311
    29  H    7.739525   4.784345   5.556264   8.310098   3.470002
    30  H    7.333522   5.555321   4.986092   7.625584   3.801194
                   16         17         18         19         20
    16  C    0.000000
    17  O    3.213487   0.000000
    18  O    3.955528   2.499499   0.000000
    19  C    2.559514   3.053183   3.315125   0.000000
    20  C    3.377053   4.558381   4.370637   1.518503   0.000000
    21  O    3.121810   5.231384   5.298540   2.401179   1.425905
    22  H    2.102377   4.735248   5.307037   4.621754   5.213013
    23  H    2.177109   3.544807   2.764984   2.187391   2.627420
    24  H    1.089516   4.144071   4.798362   2.722740   3.079668
    25  H    1.100046   2.806143   4.248795   2.838061   3.909521
    26  H    3.447786   2.901010   2.868621   1.096139   2.113581
    27  H    2.612125   3.030605   4.034372   1.095732   2.161595
    28  H    3.855162   4.936991   4.154207   2.152992   1.097028
    29  H    4.290705   5.093915   5.045191   2.142004   1.095757
    30  H    4.030269   6.162985   6.049750   3.243287   1.960069
                   21         22         23         24         25
    21  O    0.000000
    22  H    4.614637   0.000000
    23  H    2.972955   3.545142   0.000000
    24  H    2.397476   2.366131   2.569191   0.000000
    25  H    3.746018   2.568587   3.072571   1.772670   0.000000
    26  H    3.323990   5.485704   2.701298   3.775426   3.620122
    27  H    2.681130   4.688427   3.055546   2.695478   2.495241
    28  H    2.075529   5.519165   2.449852   3.662210   4.561413
    29  H    2.077629   6.193708   3.673642   3.954371   4.648928
    30  H    0.969980   5.340122   3.686203   3.235058   4.692095
                   26         27         28         29         30
    26  H    0.000000
    27  H    1.766642   0.000000
    28  H    2.445190   3.066566   0.000000
    29  H    2.411627   2.474507   1.780434   0.000000
    30  H    4.047226   3.558040   2.328498   2.318667   0.000000
 Stoichiometry    C8H12N2O5S3
 Framework group  C1[X(C8H12N2O5S3)]
 Deg. of freedom    84
 Full point group                 C1      NOp   1
 Largest Abelian subgroup         C1      NOp   1
 Largest concise Abelian subgroup C1      NOp   1
                         Standard orientation:                         
 ---------------------------------------------------------------------
 Center     Atomic      Atomic             Coordinates (Angstroms)
 Number     Number       Type             X           Y           Z
 ---------------------------------------------------------------------
      1          6           0       -2.238629    0.258578   -0.113114
      2         16           0       -4.001686    0.316937   -0.238362
      3          8           0       -4.349953    1.651522   -0.709216
      4          8           0       -4.404523   -0.869366   -0.987094
      5          7           0       -4.642990    0.162951    1.264364
      6          1           0       -4.369126    0.928010    1.884549
      7          1           0       -4.439723   -0.746423    1.685060
      8         16           0       -1.419255   -1.259038   -0.188800
      9          6           0        0.073402   -0.424834    0.111160
     10          6           0       -0.060477    0.947528    0.226837
     11          6           0       -1.437750    1.335421    0.103911
     12         16           0        1.615032   -1.241593    0.154707
     13          7           0        0.975968    1.828851    0.359791
     14          1           0       -1.784864    2.361390    0.169246
     15          6           0        2.723594    0.156826   -0.126783
     16          6           0        2.270129    1.305196    0.774919
     17          8           0        1.871838   -1.801180    1.494847
     18          8           0        1.683281   -2.197930   -0.965749
     19          6           0        4.162759   -0.299253    0.146579
     20          6           0        5.165705    0.432394   -0.727860
     21          8           0        5.087271    1.831302   -0.463073
     22          1           0        0.726789    2.732575    0.748859
     23          1           0        2.578471    0.408924   -1.185036
     24          1           0        3.007260    2.103763    0.697622
     25          1           0        2.247359    0.960720    1.819391
     26          1           0        4.277992   -1.368225   -0.066830
     27          1           0        4.396366   -0.149444    1.206585
     28          1           0        4.947487    0.237433   -1.785141
     29          1           0        6.171598    0.059564   -0.504570
     30          1           0        5.748390    2.282283   -1.011159
 ---------------------------------------------------------------------
 Rotational constants (GHZ):           0.8234025           0.1578025           0.1428022
 General basis read from cards:  (6D, 7F)
 There are   378 symmetry adapted cartesian basis functions of A   symmetry.
 There are   378 symmetry adapted basis functions of A   symmetry.
   378 basis functions,   696 primitive gaussians,   378 cartesian basis functions
    81 alpha electrons       81 beta electrons
       nuclear repulsion energy      1901.0227669604 Hartrees.
 NAtoms=   30 NActive=   30 NUniq=   30 SFac= 1.00D+00 NAtFMM=   60 NAOKFM=F Big=F
 Integral buffers will be    131072 words long.
 Raffenetti 2 integral format.
 Two-electron integral symmetry is turned on.
 ------------------------------------------------------------------------------
 Polarizable Continuum Model (PCM)
 =================================
 Model                : PCM.
 Atomic radii         : SMD-Coulomb.
 Polarization charges : Total charges.
 Charge compensation  : None.
 Solution method      : On-the-fly selection.
 Cavity type          : VdW (van der Waals Surface) (Alpha=1.000).
 Cavity algorithm     : GePol (No added spheres)
                        Default sphere list used, NSphG=   30.
                        Lebedev-Laikov grids with approx.  5.0 points / Ang**2.
                        Smoothing algorithm: York/Karplus (Gamma=1.0000).
                        Polarization charges: spherical gaussians, with
                                              point-specific exponents (IZeta= 3).
                        Self-potential: point-specific (ISelfS= 7).
                        Self-field    : sphere-specific E.n sum rule (ISelfD= 2).
 1st derivatives      : Analytical E(r).r(x)/FMM algorithm (CHGder, D1EAlg=3).
                        Cavity 1st derivative terms included.
 Solvent              : Water, Eps=  78.355300 Eps(inf)=   1.777849
 ------------------------------------------------------------------------------
 ------------------------------------------------------------------------------
 Atomic radii for non-electrostatic terms: SMD-CDS.
 ------------------------------------------------------------------------------
 Nuclear repulsion after PCM non-electrostatic terms =     1901.0285309889 Hartrees.
 One-electron integrals computed using PRISM.
 NBasis=   378 RedAO= T EigKep=  1.05D-06  NBF=   378
 NBsUse=   378 1.00D-06 EigRej= -1.00D+00 NBFU=   378
 ExpMin= 4.05D-02 ExpMax= 2.19D+04 ExpMxC= 3.30D+03 IAcc=3 IRadAn=         5 AccDes= 0.00D+00
 Harris functional with IExCor= 1009 and IRadAn=       5 diagonalized for initial guess.
 HarFok:  IExCor= 1009 AccDes= 0.00D+00 IRadAn=         5 IDoV= 1 UseB2=F ITyADJ=14
 ICtDFT=  3500011 ScaDFX=  1.000000  1.000000  1.000000  1.000000
 FoFCou: FMM=F IPFlag=           0 FMFlag=      100000 FMFlg1=           0
         NFxFlg=           0 DoJE=T BraDBF=F KetDBF=T FulRan=T
         wScrn=  0.000000 ICntrl=       500 IOpCl=  0 I1Cent=   200000004 NGrid=           0
         NMat0=    1 NMatS0=      1 NMatT0=    0 NMatD0=    1 NMtDS0=    0 NMtDT0=    0
 Petite list used in FoFCou.
 Requested convergence on RMS density matrix=1.00D-08 within 128 cycles.
 Requested convergence on MAX density matrix=1.00D-06.
 Requested convergence on             energy=1.00D-06.
 No special actions if energy rises.
 Inv3:  Mode=1 IEnd=    14838528.
 Iteration    1 A*A^-1 deviation from unit magnitude is 7.44D-15 for   2217.
 Iteration    1 A*A^-1 deviation from orthogonality  is 1.61D-15 for   2064    584.
 Iteration    1 A^-1*A deviation from unit magnitude is 7.44D-15 for   2217.
 Iteration    1 A^-1*A deviation from orthogonality  is 1.75D-15 for   2213   1838.
 Error on total polarization charges =  0.05018
 SCF Done:  E(RM062X) =  -1991.76139317     A.U. after   17 cycles
            NFock= 17  Conv=0.57D-08     -V/T= 2.0054
 SMD-CDS (non-electrostatic) energy       (kcal/mol) =       3.62
 (included in total energy above)

 **********************************************************************

            Population analysis using the SCF Density.

 **********************************************************************

 Orbital symmetries:
       Occupied  (A) (A) (A) (A) (A) (A) (A) (A) (A) (A) (A) (A)
                 (A) (A) (A) (A) (A) (A) (A) (A) (A) (A) (A) (A)
                 (A) (A) (A) (A) (A) (A) (A) (A) (A) (A) (A) (A)
                 (A) (A) (A) (A) (A) (A) (A) (A) (A) (A) (A) (A)
                 (A) (A) (A) (A) (A) (A) (A) (A) (A) (A) (A) (A)
                 (A) (A) (A) (A) (A) (A) (A) (A) (A) (A) (A) (A)
                 (A) (A) (A) (A) (A) (A) (A) (A) (A)
       Virtual   (A) (A) (A) (A) (A) (A) (A) (A) (A) (A) (A) (A)
                 (A) (A) (A) (A) (A) (A) (A) (A) (A) (A) (A) (A)
                 (A) (A) (A) (A) (A) (A) (A) (A) (A) (A) (A) (A)
                 (A) (A) (A) (A) (A) (A) (A) (A) (A) (A) (A) (A)
                 (A) (A) (A) (A) (A) (A) (A) (A) (A) (A) (A) (A)
                 (A) (A) (A) (A) (A) (A) (A) (A) (A) (A) (A) (A)
                 (A) (A) (A) (A) (A) (A) (A) (A) (A) (A) (A) (A)
                 (A) (A) (A) (A) (A) (A) (A) (A) (A) (A) (A) (A)
                 (A) (A) (A) (A) (A) (A) (A) (A) (A) (A) (A) (A)
                 (A) (A) (A) (A) (A) (A) (A) (A) (A) (A) (A) (A)
                 (A) (A) (A) (A) (A) (A) (A) (A) (A) (A) (A) (A)
                 (A) (A) (A) (A) (A) (A) (A) (A) (A) (A) (A) (A)
                 (A) (A) (A) (A) (A) (A) (A) (A) (A) (A) (A) (A)
                 (A) (A) (A) (A) (A) (A) (A) (A) (A) (A) (A) (A)
                 (A) (A) (A) (A) (A) (A) (A) (A) (A) (A) (A) (A)
                 (A) (A) (A) (A) (A) (A) (A) (A) (A) (A) (A) (A)
                 (A) (A) (A) (A) (A) (A) (A) (A) (A) (A) (A) (A)
                 (A) (A) (A) (A) (A) (A) (A) (A) (A) (A) (A) (A)
                 (A) (A) (A) (A) (A) (A) (A) (A) (A) (A) (A) (A)
                 (A) (A) (A) (A) (A) (A) (A) (A) (A) (A) (A) (A)
                 (A) (A) (A) (A) (A) (A) (A) (A) (A) (A) (A) (A)
                 (A) (A) (A) (A) (A) (A) (A) (A) (A) (A) (A) (A)
                 (A) (A) (A) (A) (A) (A) (A) (A) (A) (A) (A) (A)
                 (A) (A) (A) (A) (A) (A) (A) (A) (A) (A) (A) (A)
                 (A) (A) (A) (A) (A) (A) (A) (A) (A)
 The electronic state is 1-A.
 Alpha  occ. eigenvalues --  -90.19793 -90.16291 -89.99524 -19.67217 -19.67156
 Alpha  occ. eigenvalues --  -19.66052 -19.65834 -19.65302 -14.81027 -14.79807
 Alpha  occ. eigenvalues --  -10.63845 -10.63605 -10.61582 -10.60419 -10.59900
 Alpha  occ. eigenvalues --  -10.59618 -10.59587 -10.56329  -8.50665  -8.47699
 Alpha  occ. eigenvalues --   -8.33801  -6.42861  -6.42848  -6.42780  -6.39860
 Alpha  occ. eigenvalues --   -6.39816  -6.39732  -6.25829  -6.25601  -6.25286
 Alpha  occ. eigenvalues --   -1.27391  -1.24624  -1.15915  -1.14928  -1.13526
 Alpha  occ. eigenvalues --   -1.08468  -1.04122  -1.01145  -0.94005  -0.89354
 Alpha  occ. eigenvalues --   -0.86496  -0.83924  -0.79768  -0.75388  -0.73866
 Alpha  occ. eigenvalues --   -0.69334  -0.68352  -0.64353  -0.63469  -0.62398
 Alpha  occ. eigenvalues --   -0.61742  -0.60674  -0.59452  -0.58923  -0.57200
 Alpha  occ. eigenvalues --   -0.56272  -0.55307  -0.54258  -0.53509  -0.51556
 Alpha  occ. eigenvalues --   -0.49941  -0.49559  -0.47987  -0.46975  -0.45549
 Alpha  occ. eigenvalues --   -0.45040  -0.44749  -0.44084  -0.43202  -0.42704
 Alpha  occ. eigenvalues --   -0.41849  -0.41793  -0.41122  -0.40740  -0.40182
 Alpha  occ. eigenvalues --   -0.39580  -0.38547  -0.36846  -0.35431  -0.33150
 Alpha  occ. eigenvalues --   -0.28043
 Alpha virt. eigenvalues --   -0.04110   0.00698   0.01425   0.02025   0.02728
 Alpha virt. eigenvalues --    0.02852   0.03377   0.03981   0.04114   0.04553
 Alpha virt. eigenvalues --    0.04990   0.05434   0.05470   0.05589   0.06159
 Alpha virt. eigenvalues --    0.06389   0.07143   0.08051   0.08095   0.08946
 Alpha virt. eigenvalues --    0.09484   0.09804   0.10239   0.10746   0.11019
 Alpha virt. eigenvalues --    0.11677   0.11852   0.12226   0.12562   0.12667
 Alpha virt. eigenvalues --    0.13028   0.13647   0.13997   0.14278   0.14904
 Alpha virt. eigenvalues --    0.15541   0.15850   0.16447   0.16600   0.16822
 Alpha virt. eigenvalues --    0.17436   0.18031   0.18078   0.18873   0.19242
 Alpha virt. eigenvalues --    0.19569   0.19842   0.20612   0.20935   0.21247
 Alpha virt. eigenvalues --    0.21637   0.21905   0.22179   0.22514   0.22961
 Alpha virt. eigenvalues --    0.23128   0.23865   0.24120   0.24354   0.24823
 Alpha virt. eigenvalues --    0.25611   0.26289   0.26364   0.26604   0.27101
 Alpha virt. eigenvalues --    0.27602   0.28022   0.28324   0.28878   0.29176
 Alpha virt. eigenvalues --    0.29507   0.29730   0.29819   0.30332   0.30756
 Alpha virt. eigenvalues --    0.30967   0.31873   0.31891   0.32486   0.33061
 Alpha virt. eigenvalues --    0.33191   0.33874   0.34270   0.34821   0.35301
 Alpha virt. eigenvalues --    0.35692   0.36446   0.36836   0.37339   0.37831
 Alpha virt. eigenvalues --    0.38814   0.39011   0.39175   0.40921   0.41289
 Alpha virt. eigenvalues --    0.41744   0.42226   0.43009   0.43544   0.44846
 Alpha virt. eigenvalues --    0.45206   0.45780   0.47261   0.48452   0.51246
 Alpha virt. eigenvalues --    0.52135   0.55708   0.56635   0.57687   0.58968
 Alpha virt. eigenvalues --    0.62360   0.63154   0.63988   0.65825   0.66372
 Alpha virt. eigenvalues --    0.67337   0.67771   0.70057   0.70426   0.70691
 Alpha virt. eigenvalues --    0.72183   0.72982   0.73720   0.74137   0.76178
 Alpha virt. eigenvalues --    0.76559   0.77189   0.77909   0.78995   0.79456
 Alpha virt. eigenvalues --    0.82180   0.84227   0.85805   0.88038   0.90020
 Alpha virt. eigenvalues --    0.90653   0.91536   0.94395   0.94630   0.95098
 Alpha virt. eigenvalues --    0.97481   0.98648   0.99207   1.00754   1.01455
 Alpha virt. eigenvalues --    1.02846   1.03020   1.03748   1.03928   1.05061
 Alpha virt. eigenvalues --    1.06021   1.06875   1.07826   1.08289   1.09213
 Alpha virt. eigenvalues --    1.10871   1.11154   1.11950   1.13172   1.13639
 Alpha virt. eigenvalues --    1.14069   1.15292   1.16214   1.16880   1.18328
 Alpha virt. eigenvalues --    1.18949   1.19433   1.19929   1.20819   1.21762
 Alpha virt. eigenvalues --    1.22879   1.23633   1.25248   1.27963   1.28266
 Alpha virt. eigenvalues --    1.30929   1.31556   1.32355   1.34170   1.34625
 Alpha virt. eigenvalues --    1.35437   1.36115   1.36508   1.37475   1.37654
 Alpha virt. eigenvalues --    1.38272   1.38667   1.40114   1.41551   1.42172
 Alpha virt. eigenvalues --    1.42916   1.44235   1.44950   1.45944   1.47111
 Alpha virt. eigenvalues --    1.51891   1.52997   1.54565   1.55378   1.58512
 Alpha virt. eigenvalues --    1.61232   1.64181   1.66622   1.68408   1.69734
 Alpha virt. eigenvalues --    1.71408   1.73087   1.74183   1.74481   1.76798
 Alpha virt. eigenvalues --    1.78021   1.79462   1.79908   1.81450   1.82739
 Alpha virt. eigenvalues --    1.84006   1.84378   1.85383   1.86396   1.86741
 Alpha virt. eigenvalues --    1.87416   1.88771   1.89882   1.90383   1.91642
 Alpha virt. eigenvalues --    1.93054   1.95088   1.95933   1.97519   1.99573
 Alpha virt. eigenvalues --    2.01429   2.02222   2.04704   2.05500   2.06861
 Alpha virt. eigenvalues --    2.08717   2.10587   2.12385   2.13420   2.14108
 Alpha virt. eigenvalues --    2.14917   2.15338   2.16486   2.18038   2.20318
 Alpha virt. eigenvalues --    2.24030   2.26038   2.26791   2.30267   2.32121
 Alpha virt. eigenvalues --    2.32837   2.34419   2.35903   2.38104   2.39515
 Alpha virt. eigenvalues --    2.41441   2.45614   2.46165   2.46345   2.47932
 Alpha virt. eigenvalues --    2.49438   2.50507   2.52940   2.55200   2.59714
 Alpha virt. eigenvalues --    2.66169   2.68947   2.70109   2.76127   2.79235
 Alpha virt. eigenvalues --    2.81946   2.85497   2.88756   2.91305   2.92201
 Alpha virt. eigenvalues --    2.95579   2.98110   3.06963   3.10748   3.87498
 Alpha virt. eigenvalues --    3.96207   4.03305   4.07357   4.16323   4.18395
 Alpha virt. eigenvalues --    4.22247   4.23507   4.25629   4.28905   4.31624
 Alpha virt. eigenvalues --    4.33650   4.39301   4.44267   4.49214   4.57883
 Alpha virt. eigenvalues --    4.62877   4.66516
          Condensed to atoms (all electrons):
               1          2          3          4          5          6
     1  C   19.227513   0.211181   0.025041   0.056004  -0.869651   0.050866
     2  S    0.211181  15.756605   0.301232   0.216061  -0.287635   0.049513
     3  O    0.025041   0.301232   8.735850  -0.180848  -0.133671  -0.007031
     4  O    0.056004   0.216061  -0.180848   8.787893  -0.124062   0.008899
     5  N   -0.869651  -0.287635  -0.133671  -0.124062   8.126035   0.221217
     6  H    0.050866   0.049513  -0.007031   0.008899   0.221217   0.252335
     7  H   -0.011517   0.067447   0.008229  -0.005759   0.223572  -0.012688
     8  S    1.588035   0.054751   0.038507   0.128161  -0.087027   0.011644
     9  C   -6.612811  -1.453256  -0.112963  -0.107623   0.193066  -0.002479
    10  C    6.197154  -0.085285   0.110829   0.229167   0.063690  -0.034261
    11  C  -10.186711  -0.354123  -0.183745  -0.385352   0.638164  -0.046746
    12  S   -2.557002  -0.230525  -0.005762  -0.011473   0.008515  -0.000154
    13  N    0.051183   0.013224   0.000076   0.000442  -0.000269   0.000076
    14  H    0.032390   0.004755   0.002718   0.000841  -0.000420  -0.000004
    15  C   -0.176820   0.005109   0.000434   0.001757   0.001441   0.000019
    16  C    0.134776  -0.049758  -0.002031   0.001568  -0.001113  -0.000082
    17  O   -0.142445  -0.006210  -0.000044  -0.000144  -0.000280  -0.000001
    18  O   -0.045436  -0.003844  -0.000067   0.000130   0.000016   0.000000
    19  C    0.015430   0.000912   0.000123   0.000068  -0.000073  -0.000000
    20  C    0.011013   0.000089  -0.000000   0.000016   0.000026   0.000000
    21  O    0.000394   0.000001   0.000000  -0.000000   0.000000  -0.000000
    22  H   -0.017003   0.001069   0.000001  -0.000001  -0.000038   0.000000
    23  H   -0.003358   0.000107  -0.000001   0.000000  -0.000001  -0.000000
    24  H    0.002372   0.000091   0.000000   0.000000   0.000000   0.000000
    25  H    0.005148  -0.000144  -0.000002   0.000000  -0.000007   0.000000
    26  H    0.001713   0.000017   0.000000   0.000000   0.000000   0.000000
    27  H   -0.001182  -0.000011  -0.000000   0.000000   0.000000  -0.000000
    28  H   -0.000312  -0.000004  -0.000000   0.000000   0.000000  -0.000000
    29  H    0.000049   0.000000   0.000000   0.000000  -0.000000   0.000000
    30  H   -0.000048  -0.000000  -0.000000  -0.000000   0.000000  -0.000000
               7          8          9         10         11         12
     1  C   -0.011517   1.588035  -6.612811   6.197154 -10.186711  -2.557002
     2  S    0.067447   0.054751  -1.453256  -0.085285  -0.354123  -0.230525
     3  O    0.008229   0.038507  -0.112963   0.110829  -0.183745  -0.005762
     4  O   -0.005759   0.128161  -0.107623   0.229167  -0.385352  -0.011473
     5  N    0.223572  -0.087027   0.193066   0.063690   0.638164   0.008515
     6  H   -0.012688   0.011644  -0.002479  -0.034261  -0.046746  -0.000154
     7  H    0.250459  -0.014188  -0.021455   0.016325  -0.010855  -0.001407
     8  S   -0.014188  16.951257  -0.859849   1.243690  -3.197064  -0.478542
     9  C   -0.021455  -0.859849  24.213783  -9.474019   2.371369  -1.908738
    10  C    0.016325   1.243690  -9.474019  33.670038 -23.221783  -3.697392
    11  C   -0.010855  -3.197064   2.371369 -23.221783  40.155674   3.543608
    12  S   -0.001407  -0.478542  -1.908738  -3.697392   3.543608  19.993476
    13  N    0.000000   0.008959  -0.008319   0.036887  -0.115706   0.075608
    14  H    0.000012   0.014433  -0.005871   0.024791   0.222599  -0.004034
    15  C    0.000030   0.072228  -1.151082   0.559790   0.311614   0.227851
    16  C    0.000061   0.114982   1.536854   0.345467  -2.396254  -1.704430
    17  O   -0.000004  -0.023120   0.024314  -0.380456   0.045986   0.801878
    18  O   -0.000000   0.000830  -0.307020  -0.044977   0.083429   0.689521
    19  C    0.000005   0.031325   0.340966  -0.118698  -0.171921  -0.382736
    20  C    0.000000   0.005949  -0.118473   0.063073   0.005765  -0.017606
    21  O   -0.000000  -0.000788  -0.001739   0.013863  -0.001092   0.004194
    22  H   -0.000000   0.000268   0.079130  -0.085805  -0.002857   0.005866
    23  H   -0.000000   0.004703   0.052648  -0.088940  -0.005881   0.022267
    24  H    0.000000   0.000132  -0.025009   0.038350   0.020937   0.000341
    25  H    0.000000   0.002902   0.053120  -0.048138  -0.063858  -0.028226
    26  H   -0.000000  -0.000823   0.060022  -0.007785  -0.002590  -0.049797
    27  H   -0.000000   0.000207  -0.029934  -0.002128   0.001656   0.021203
    28  H    0.000000   0.000007  -0.008688   0.003276   0.001163   0.000051
    29  H    0.000000  -0.000016   0.002642  -0.000097  -0.000154  -0.000246
    30  H   -0.000000   0.000001  -0.000884  -0.000049   0.000099   0.000820
              13         14         15         16         17         18
     1  C    0.051183   0.032390  -0.176820   0.134776  -0.142445  -0.045436
     2  S    0.013224   0.004755   0.005109  -0.049758  -0.006210  -0.003844
     3  O    0.000076   0.002718   0.000434  -0.002031  -0.000044  -0.000067
     4  O    0.000442   0.000841   0.001757   0.001568  -0.000144   0.000130
     5  N   -0.000269  -0.000420   0.001441  -0.001113  -0.000280   0.000016
     6  H    0.000076  -0.000004   0.000019  -0.000082  -0.000001   0.000000
     7  H    0.000000   0.000012   0.000030   0.000061  -0.000004  -0.000000
     8  S    0.008959   0.014433   0.072228   0.114982  -0.023120   0.000830
     9  C   -0.008319  -0.005871  -1.151082   1.536854   0.024314  -0.307020
    10  C    0.036887   0.024791   0.559790   0.345467  -0.380456  -0.044977
    11  C   -0.115706   0.222599   0.311614  -2.396254   0.045986   0.083429
    12  S    0.075608  -0.004034   0.227851  -1.704430   0.801878   0.689521
    13  N    7.352626  -0.004910  -0.212503   0.059818   0.051077  -0.000776
    14  H   -0.004910   0.387892   0.000295   0.007091  -0.000008  -0.000002
    15  C   -0.212503   0.000295  10.035042  -1.882243  -0.287064  -0.108741
    16  C    0.059818   0.007091  -1.882243   9.141064  -0.030425  -0.044304
    17  O    0.051077  -0.000008  -0.287064  -0.030425   8.698645  -0.207931
    18  O   -0.000776  -0.000002  -0.108741  -0.044304  -0.207931   8.708594
    19  C    0.008803   0.000121  -0.984098   0.303862  -0.035890  -0.149532
    20  C   -0.013069   0.000005   0.030697  -0.038631  -0.018994   0.027455
    21  O    0.003100   0.000000   0.092583  -0.050661   0.000235  -0.000185
    22  H    0.287250   0.001668   0.039724  -0.066575   0.000102   0.000034
    23  H    0.023595  -0.000002   0.375972  -0.055773   0.008819  -0.002735
    24  H   -0.043936   0.000003  -0.050992   0.376413  -0.000683  -0.000571
    25  H   -0.055547  -0.000004  -0.002306   0.471916  -0.000761   0.000451
    26  H    0.001001  -0.000000  -0.096801   0.026707  -0.006627   0.003794
    27  H    0.001293   0.000000  -0.032572  -0.017221   0.001938  -0.000088
    28  H    0.000024   0.000000   0.015460   0.001353   0.000104   0.000263
    29  H    0.000097  -0.000000   0.033636  -0.010247  -0.000104   0.000021
    30  H   -0.000306   0.000000  -0.007215   0.000573   0.000002  -0.000008
              19         20         21         22         23         24
     1  C    0.015430   0.011013   0.000394  -0.017003  -0.003358   0.002372
     2  S    0.000912   0.000089   0.000001   0.001069   0.000107   0.000091
     3  O    0.000123  -0.000000   0.000000   0.000001  -0.000001   0.000000
     4  O    0.000068   0.000016  -0.000000  -0.000001   0.000000   0.000000
     5  N   -0.000073   0.000026   0.000000  -0.000038  -0.000001   0.000000
     6  H   -0.000000   0.000000  -0.000000   0.000000  -0.000000   0.000000
     7  H    0.000005   0.000000  -0.000000  -0.000000  -0.000000   0.000000
     8  S    0.031325   0.005949  -0.000788   0.000268   0.004703   0.000132
     9  C    0.340966  -0.118473  -0.001739   0.079130   0.052648  -0.025009
    10  C   -0.118698   0.063073   0.013863  -0.085805  -0.088940   0.038350
    11  C   -0.171921   0.005765  -0.001092  -0.002857  -0.005881   0.020937
    12  S   -0.382736  -0.017606   0.004194   0.005866   0.022267   0.000341
    13  N    0.008803  -0.013069   0.003100   0.287250   0.023595  -0.043936
    14  H    0.000121   0.000005   0.000000   0.001668  -0.000002   0.000003
    15  C   -0.984098   0.030697   0.092583   0.039724   0.375972  -0.050992
    16  C    0.303862  -0.038631  -0.050661  -0.066575  -0.055773   0.376413
    17  O   -0.035890  -0.018994   0.000235   0.000102   0.008819  -0.000683
    18  O   -0.149532   0.027455  -0.000185   0.000034  -0.002735  -0.000571
    19  C    7.657427  -0.615518  -0.056218  -0.001389  -0.062908   0.017650
    20  C   -0.615518   6.023679  -0.001526  -0.000073   0.005622  -0.011748
    21  O   -0.056218  -0.001526   8.717678  -0.000016  -0.000759   0.001507
    22  H   -0.001389  -0.000073  -0.000016   0.265068  -0.000042  -0.002859
    23  H   -0.062908   0.005622  -0.000759  -0.000042   0.379062  -0.002728
    24  H    0.017650  -0.011748   0.001507  -0.002859  -0.002728   0.408737
    25  H   -0.056087   0.013905  -0.001157  -0.000300   0.002601  -0.025711
    26  H    0.402035  -0.026472   0.007711   0.000001  -0.000070  -0.000022
    27  H    0.397791  -0.033091   0.000977  -0.000006   0.002245  -0.000744
    28  H   -0.102203   0.447754  -0.051039  -0.000000   0.002153   0.000049
    29  H   -0.121529   0.468480  -0.051957  -0.000000   0.000039  -0.000083
    30  H    0.047104  -0.047513   0.192511  -0.000000  -0.000144   0.000473
              25         26         27         28         29         30
     1  C    0.005148   0.001713  -0.001182  -0.000312   0.000049  -0.000048
     2  S   -0.000144   0.000017  -0.000011  -0.000004   0.000000  -0.000000
     3  O   -0.000002   0.000000  -0.000000  -0.000000   0.000000  -0.000000
     4  O    0.000000   0.000000   0.000000   0.000000   0.000000  -0.000000
     5  N   -0.000007   0.000000   0.000000   0.000000  -0.000000   0.000000
     6  H    0.000000   0.000000  -0.000000  -0.000000   0.000000  -0.000000
     7  H    0.000000  -0.000000  -0.000000   0.000000   0.000000  -0.000000
     8  S    0.002902  -0.000823   0.000207   0.000007  -0.000016   0.000001
     9  C    0.053120   0.060022  -0.029934  -0.008688   0.002642  -0.000884
    10  C   -0.048138  -0.007785  -0.002128   0.003276  -0.000097  -0.000049
    11  C   -0.063858  -0.002590   0.001656   0.001163  -0.000154   0.000099
    12  S   -0.028226  -0.049797   0.021203   0.000051  -0.000246   0.000820
    13  N   -0.055547   0.001001   0.001293   0.000024   0.000097  -0.000306
    14  H   -0.000004  -0.000000   0.000000   0.000000  -0.000000   0.000000
    15  C   -0.002306  -0.096801  -0.032572   0.015460   0.033636  -0.007215
    16  C    0.471916   0.026707  -0.017221   0.001353  -0.010247   0.000573
    17  O   -0.000761  -0.006627   0.001938   0.000104  -0.000104   0.000002
    18  O    0.000451   0.003794  -0.000088   0.000263   0.000021  -0.000008
    19  C   -0.056087   0.402035   0.397791  -0.102203  -0.121529   0.047104
    20  C    0.013905  -0.026472  -0.033091   0.447754   0.468480  -0.047513
    21  O   -0.001157   0.007711   0.000977  -0.051039  -0.051957   0.192511
    22  H   -0.000300   0.000001  -0.000006  -0.000000  -0.000000  -0.000000
    23  H    0.002601  -0.000070   0.002245   0.002153   0.000039  -0.000144
    24  H   -0.025711  -0.000022  -0.000744   0.000049  -0.000083   0.000473
    25  H    0.432793  -0.000056   0.001430  -0.000006   0.000008  -0.000011
    26  H   -0.000056   0.442421  -0.021134  -0.001566  -0.001638  -0.000157
    27  H    0.001430  -0.021134   0.427625   0.003369  -0.004618  -0.000121
    28  H   -0.000006  -0.001566   0.003369   0.504417  -0.038987  -0.003190
    29  H    0.000008  -0.001638  -0.004618  -0.038987   0.503097  -0.003063
    30  H   -0.000011  -0.000157  -0.000121  -0.003190  -0.003063   0.251126
 Mulliken charges:
               1
     1  C   -0.985966
     2  S    1.788631
     3  O   -0.596875
     4  O   -0.615747
     5  N   -0.971497
     6  H    0.508878
     7  H    0.511731
     8  S    0.388447
     9  C   -0.717702
    10  C    0.673424
    11  C   -1.055370
    12  S    1.682874
    13  N   -0.519798
    14  H    0.315642
    15  C   -0.811247
    16  C   -0.172754
    17  O   -0.491910
    18  O   -0.598319
    19  C   -0.364823
    20  C   -0.160815
    21  O   -0.817618
    22  H    0.496783
    23  H    0.343509
    24  H    0.298030
    25  H    0.298047
    26  H    0.270114
    27  H    0.283115
    28  H    0.226549
    29  H    0.224670
    30  H    0.569999
 Sum of Mulliken charges =  -0.00000
 Mulliken charges with hydrogens summed into heavy atoms:
               1
     1  C   -0.985966
     2  S    1.788631
     3  O   -0.596875
     4  O   -0.615747
     5  N    0.049112
     8  S    0.388447
     9  C   -0.717702
    10  C    0.673424
    11  C   -0.739728
    12  S    1.682874
    13  N   -0.023016
    15  C   -0.467738
    16  C    0.423322
    17  O   -0.491910
    18  O   -0.598319
    19  C    0.188405
    20  C    0.290404
    21  O   -0.247620
 Electronic spatial extent (au):  <R**2>=           7286.9482
 Charge=              0.0000 electrons
 Dipole moment (field-independent basis, Debye):
    X=              7.0071    Y=              8.8724    Z=              4.9868  Tot=             12.3567
 Quadrupole moment (field-independent basis, Debye-Ang):
   XX=           -122.9408   YY=           -134.5586   ZZ=           -127.8292
   XY=             16.5587   XZ=            -35.6166   YZ=              3.7797
 Traceless Quadrupole moment (field-independent basis, Debye-Ang):
   XX=              5.5021   YY=             -6.1157   ZZ=              0.6137
   XY=             16.5587   XZ=            -35.6166   YZ=              3.7797
 Octapole moment (field-independent basis, Debye-Ang**2):
  XXX=            382.7719  YYY=             64.1870  ZZZ=              8.2938  XYY=              2.0461
  XXY=             25.8540  XXZ=             42.0072  XZZ=             -9.4025  YZZ=             25.8066
  YYZ=             16.6774  XYZ=            -14.0943
 Hexadecapole moment (field-independent basis, Debye-Ang**3):
 XXXX=          -7202.1624 YYYY=          -1234.3191 ZZZZ=           -462.1217 XXXY=            349.5997
 XXXZ=           -799.5096 YYYX=            147.1846 YYYZ=             18.5265 ZZZX=           -109.4810
 ZZZY=              8.9657 XXYY=          -1514.1653 XXZZ=          -1224.2401 YYZZ=           -307.1695
 XXYZ=            -89.7452 YYXZ=            -88.7075 ZZXY=             55.1179
 N-N= 1.901028530989D+03 E-N=-8.498380233157D+03  KE= 1.981054246658D+03
 D1PCM: PCM CHGder 1st derivatives, ID1Alg=3 FixD1E=F DoIter=F DoCFld=F I1PDM=0.
 Calling FoFJK, ICntrl=      2127 FMM=F ISym2X=0 I1Cent= 0 IOpClX= 0 NMat=1 NMatS=1 NMatT=0.
 ***** Axes restored to original set *****
 -------------------------------------------------------------------
 Center     Atomic                   Forces (Hartrees/Bohr)
 Number     Number              X              Y              Z
 -------------------------------------------------------------------
      1        6          -0.000027048    0.000014485   -0.000000065
      2       16           0.000010665    0.000000483   -0.000000030
      3        8          -0.000007317    0.000003825   -0.000000385
      4        8           0.000000219    0.000000219   -0.000003738
      5        7           0.000004178   -0.000018288    0.000000970
      6        1          -0.000000911   -0.000002718   -0.000001582
      7        1          -0.000003343   -0.000002131   -0.000005657
      8       16           0.000011956   -0.000002037    0.000004926
      9        6           0.000010816   -0.000016234    0.000001615
     10        6          -0.000015922    0.000004614    0.000003896
     11        6           0.000006595   -0.000006980    0.000000709
     12       16          -0.000005493   -0.000001139   -0.000006387
     13        7           0.000012083    0.000002569    0.000004198
     14        1           0.000000975    0.000003052    0.000000978
     15        6          -0.000002254   -0.000002777   -0.000007203
     16        6          -0.000012289    0.000009236   -0.000006203
     17        8           0.000006876    0.000001881   -0.000001630
     18        8           0.000000478   -0.000004085   -0.000001118
     19        6          -0.000001546    0.000001525    0.000002304
     20        6           0.000007429    0.000000787    0.000002938
     21        8          -0.000006894    0.000001211   -0.000006389
     22        1           0.000001831   -0.000000918    0.000005029
     23        1           0.000000309    0.000001531    0.000004092
     24        1           0.000001706    0.000002147    0.000002209
     25        1           0.000004244    0.000001801   -0.000000501
     26        1          -0.000000246   -0.000003063    0.000001415
     27        1           0.000003672   -0.000000165   -0.000001996
     28        1          -0.000002456    0.000003743   -0.000000776
     29        1           0.000002255   -0.000000023    0.000002210
     30        1          -0.000000566    0.000007448    0.000006169
 -------------------------------------------------------------------
 Cartesian Forces:  Max     0.000027048 RMS     0.000006282

 GradGradGradGradGradGradGradGradGradGradGradGradGradGradGradGradGradGrad
 Berny optimization.
 FormGI is forming the generalized inverse of G from B-inverse, IUseBI=4.
 Internal  Forces:  Max     0.000015350 RMS     0.000003237
 Search for a local minimum.
 Step number   1 out of a maximum of  180
 All quantities printed in internal units (Hartrees-Bohrs-Radians)
 Mixed Optimization -- En-DIIS/RFO-DIIS
 Second derivative matrix not updated -- first step.
 ITU=  0
     Eigenvalues ---    0.00313   0.00521   0.00720   0.00787   0.01101
     Eigenvalues ---    0.01349   0.01459   0.01496   0.01707   0.01801
     Eigenvalues ---    0.02059   0.02075   0.02103   0.02220   0.03441
     Eigenvalues ---    0.03660   0.04161   0.04220   0.04486   0.04900
     Eigenvalues ---    0.05296   0.05558   0.06037   0.06172   0.06881
     Eigenvalues ---    0.08223   0.09113   0.09199   0.09630   0.09983
     Eigenvalues ---    0.10653   0.11197   0.11274   0.11958   0.12109
     Eigenvalues ---    0.13361   0.13711   0.14231   0.15341   0.15999
     Eigenvalues ---    0.16000   0.16000   0.16000   0.17982   0.19820
     Eigenvalues ---    0.20020   0.21918   0.22034   0.23641   0.24633
     Eigenvalues ---    0.24927   0.24970   0.25000   0.25459   0.28332
     Eigenvalues ---    0.28767   0.29034   0.30332   0.30511   0.31156
     Eigenvalues ---    0.32093   0.33677   0.33960   0.34013   0.34113
     Eigenvalues ---    0.34156   0.34159   0.34869   0.35389   0.36284
     Eigenvalues ---    0.39081   0.41583   0.43656   0.43960   0.43985
     Eigenvalues ---    0.44028   0.45149   0.50016   0.51337   0.53381
     Eigenvalues ---    0.85663   0.85715   0.91812   0.92696
 RFO step:  Lambda=-1.39747016D-08 EMin= 3.12855471D-03
 Linear search not attempted -- first point.
 Iteration  1 RMS(Cart)=  0.00015119 RMS(Int)=  0.00000001
 Iteration  2 RMS(Cart)=  0.00000002 RMS(Int)=  0.00000000
 Variable       Old X    -DE/DX   Delta X   Delta X   Delta X     New X
                                 (Linear)    (Quad)   (Total)
    R1        3.34191  -0.00000   0.00000  -0.00001  -0.00001   3.34190
    R2        3.26231  -0.00001   0.00000  -0.00004  -0.00004   3.26228
    R3        2.56898   0.00000   0.00000   0.00001   0.00001   2.56899
    R4        2.75415  -0.00001   0.00000  -0.00001  -0.00001   2.75414
    R5        2.75809  -0.00000   0.00000  -0.00000  -0.00000   2.75809
    R6        3.10121   0.00002   0.00000   0.00003   0.00003   3.10124
    R7        1.93173  -0.00000   0.00000  -0.00000  -0.00000   1.93173
    R8        1.93202   0.00000   0.00000   0.00001   0.00001   1.93203
    R9        3.28068   0.00000   0.00000   0.00001   0.00001   3.28068
   R10        2.61485  -0.00001   0.00000  -0.00003  -0.00003   2.61483
   R11        3.29789   0.00001   0.00000   0.00002   0.00002   3.29791
   R12        2.71388   0.00000   0.00000   0.00000   0.00000   2.71388
   R13        2.58321   0.00001   0.00000   0.00001   0.00001   2.58322
   R14        2.05048   0.00000   0.00000   0.00000   0.00000   2.05048
   R15        3.41394  -0.00000   0.00000  -0.00001  -0.00001   3.41392
   R16        2.78699  -0.00001   0.00000  -0.00001  -0.00001   2.78698
   R17        2.78673  -0.00000   0.00000  -0.00000  -0.00000   2.78672
   R18        2.75239   0.00001   0.00000   0.00003   0.00003   2.75243
   R19        1.91803   0.00000   0.00000   0.00001   0.00001   1.91804
   R20        2.88915  -0.00001   0.00000  -0.00002  -0.00002   2.88913
   R21        2.89932   0.00000   0.00000   0.00000   0.00000   2.89932
   R22        2.07398   0.00000   0.00000   0.00001   0.00001   2.07399
   R23        2.05889  -0.00000   0.00000  -0.00000  -0.00000   2.05889
   R24        2.07879  -0.00000   0.00000  -0.00000  -0.00000   2.07878
   R25        2.86956   0.00000   0.00000   0.00001   0.00001   2.86956
   R26        2.07140  -0.00000   0.00000  -0.00000  -0.00000   2.07140
   R27        2.07063   0.00000   0.00000   0.00000   0.00000   2.07064
   R28        2.69457  -0.00001   0.00000  -0.00002  -0.00002   2.69455
   R29        2.07308   0.00000   0.00000   0.00000   0.00000   2.07309
   R30        2.07068  -0.00000   0.00000  -0.00001  -0.00001   2.07067
   R31        1.83300  -0.00000   0.00000  -0.00000  -0.00000   1.83300
    A1        2.09334   0.00001   0.00000   0.00004   0.00004   2.09338
    A2        2.18033  -0.00001   0.00000  -0.00005  -0.00005   2.18028
    A3        2.00836   0.00000   0.00000   0.00000   0.00000   2.00836
    A4        1.86641   0.00000   0.00000   0.00000   0.00000   1.86642
    A5        1.85946  -0.00000   0.00000  -0.00003  -0.00003   1.85943
    A6        1.89825  -0.00000   0.00000  -0.00001  -0.00001   1.89824
    A7        2.10901  -0.00000   0.00000  -0.00002  -0.00002   2.10899
    A8        1.86333   0.00000   0.00000   0.00003   0.00003   1.86336
    A9        1.86045   0.00001   0.00000   0.00003   0.00003   1.86049
   A10        1.96127   0.00000   0.00000   0.00002   0.00002   1.96129
   A11        1.96336  -0.00000   0.00000  -0.00004  -0.00004   1.96332
   A12        1.94205  -0.00000   0.00000  -0.00001  -0.00001   1.94204
   A13        1.54889   0.00000   0.00000   0.00000   0.00000   1.54889
   A14        1.99087  -0.00000   0.00000  -0.00001  -0.00001   1.99086
   A15        2.13998  -0.00000   0.00000  -0.00001  -0.00001   2.13997
   A16        2.15023   0.00000   0.00000   0.00000   0.00000   2.15024
   A17        1.93212   0.00000   0.00000   0.00000   0.00000   1.93212
   A18        2.18243  -0.00000   0.00000  -0.00000  -0.00000   2.18243
   A19        2.16678  -0.00000   0.00000  -0.00000  -0.00000   2.16677
   A20        1.94410  -0.00000   0.00000  -0.00001  -0.00001   1.94409
   A21        2.17746   0.00000   0.00000   0.00001   0.00001   2.17746
   A22        2.16159   0.00000   0.00000   0.00000   0.00000   2.16160
   A23        1.74761   0.00000   0.00000   0.00002   0.00002   1.74763
   A24        1.93272   0.00000   0.00000   0.00002   0.00002   1.93273
   A25        1.90227  -0.00000   0.00000  -0.00000  -0.00000   1.90226
   A26        1.90545  -0.00000   0.00000  -0.00002  -0.00002   1.90543
   A27        1.93393  -0.00000   0.00000  -0.00001  -0.00001   1.93392
   A28        2.02228   0.00000   0.00000   0.00001   0.00001   2.02229
   A29        2.05965  -0.00000   0.00000  -0.00001  -0.00001   2.05964
   A30        2.00998  -0.00000   0.00000  -0.00003  -0.00003   2.00995
   A31        2.01419   0.00000   0.00000   0.00002   0.00002   2.01421
   A32        1.88339  -0.00000   0.00000  -0.00002  -0.00002   1.88337
   A33        1.89413  -0.00000   0.00000  -0.00002  -0.00002   1.89411
   A34        1.82028   0.00000   0.00000  -0.00001  -0.00001   1.82027
   A35        1.97841   0.00000   0.00000   0.00001   0.00001   1.97842
   A36        1.93578  -0.00000   0.00000  -0.00000  -0.00000   1.93578
   A37        1.94348   0.00000   0.00000   0.00003   0.00003   1.94351
   A38        1.94496   0.00000   0.00000   0.00003   0.00003   1.94499
   A39        1.89380  -0.00000   0.00000  -0.00002  -0.00002   1.89378
   A40        1.94423  -0.00000   0.00000  -0.00000  -0.00000   1.94423
   A41        1.88391   0.00000   0.00000  -0.00000  -0.00000   1.88391
   A42        1.90807  -0.00000   0.00000  -0.00000  -0.00000   1.90807
   A43        1.88692  -0.00000   0.00000  -0.00001  -0.00001   1.88691
   A44        1.95381   0.00000   0.00000   0.00002   0.00002   1.95383
   A45        1.93245  -0.00000   0.00000  -0.00003  -0.00003   1.93242
   A46        1.90891   0.00000   0.00000   0.00001   0.00001   1.90892
   A47        1.86328   0.00000   0.00000   0.00001   0.00001   1.86329
   A48        1.92879  -0.00000   0.00000  -0.00001  -0.00001   1.92877
   A49        1.87472   0.00000   0.00000  -0.00000  -0.00000   1.87472
   A50        1.90650   0.00000   0.00000   0.00001   0.00001   1.90651
   A51        1.91557  -0.00000   0.00000   0.00001   0.00001   1.91558
   A52        1.90184   0.00000   0.00000   0.00000   0.00000   1.90184
   A53        1.92025   0.00000   0.00000   0.00002   0.00002   1.92027
   A54        1.92459  -0.00000   0.00000  -0.00003  -0.00003   1.92456
   A55        1.89497  -0.00000   0.00000  -0.00001  -0.00001   1.89497
   A56        1.88990  -0.00000   0.00000  -0.00002  -0.00002   1.88988
    D1       -2.72734   0.00000   0.00000   0.00003   0.00003  -2.72731
    D2       -0.44974  -0.00000   0.00000  -0.00002  -0.00002  -0.44975
    D3        1.54960  -0.00000   0.00000  -0.00000  -0.00000   1.54960
    D4        0.46865   0.00000   0.00000   0.00012   0.00012   0.46877
    D5        2.74625  -0.00000   0.00000   0.00008   0.00008   2.74633
    D6       -1.53759   0.00000   0.00000   0.00009   0.00009  -1.53750
    D7       -3.07599   0.00000   0.00000   0.00018   0.00018  -3.07581
    D8        0.01636   0.00000   0.00000   0.00009   0.00009   0.01646
    D9        3.08639  -0.00000   0.00000  -0.00013  -0.00013   3.08626
   D10       -0.06341  -0.00000   0.00000  -0.00014  -0.00014  -0.06354
   D11       -0.00316  -0.00000   0.00000  -0.00004  -0.00004  -0.00320
   D12        3.13023  -0.00000   0.00000  -0.00005  -0.00005   3.13018
   D13        1.08634   0.00000   0.00000   0.00000   0.00000   1.08634
   D14       -1.12178   0.00000   0.00000   0.00003   0.00003  -1.12174
   D15       -0.92191  -0.00000   0.00000  -0.00001  -0.00001  -0.92192
   D16       -3.13002   0.00000   0.00000   0.00002   0.00002  -3.13000
   D17        3.08503  -0.00000   0.00000  -0.00003  -0.00003   3.08501
   D18        0.87691  -0.00000   0.00000   0.00001   0.00001   0.87692
   D19       -0.02609  -0.00000   0.00000  -0.00013  -0.00013  -0.02622
   D20       -3.10003  -0.00000   0.00000   0.00002   0.00002  -3.10000
   D21        0.02918   0.00000   0.00000   0.00014   0.00014   0.02931
   D22       -3.04898   0.00000   0.00000   0.00012   0.00012  -3.04886
   D23        3.10267  -0.00000   0.00000  -0.00002  -0.00002   3.10265
   D24        0.02451  -0.00000   0.00000  -0.00004  -0.00004   0.02447
   D25        2.78771  -0.00000   0.00000  -0.00014  -0.00014   2.78757
   D26       -1.48637  -0.00000   0.00000  -0.00016  -0.00016  -1.48653
   D27        0.75786  -0.00000   0.00000  -0.00014  -0.00014   0.75773
   D28       -0.28005   0.00000   0.00000   0.00003   0.00003  -0.28003
   D29        1.72905  -0.00000   0.00000   0.00001   0.00001   1.72906
   D30       -2.30990   0.00000   0.00000   0.00003   0.00003  -2.30987
   D31       -0.01641  -0.00000   0.00000  -0.00006  -0.00006  -0.01647
   D32        3.13330  -0.00000   0.00000  -0.00005  -0.00005   3.13325
   D33        3.06244  -0.00000   0.00000  -0.00005  -0.00005   3.06239
   D34       -0.07104  -0.00000   0.00000  -0.00004  -0.00004  -0.07108
   D35       -0.30994   0.00000   0.00000   0.00004   0.00004  -0.30990
   D36       -2.78626   0.00000   0.00000   0.00005   0.00005  -2.78622
   D37        2.90337   0.00000   0.00000   0.00002   0.00002   2.90339
   D38        0.42704   0.00000   0.00000   0.00003   0.00003   0.42707
   D39        0.79954  -0.00000   0.00000  -0.00002  -0.00002   0.79952
   D40        2.94991   0.00000   0.00000  -0.00003  -0.00003   2.94989
   D41       -1.25992   0.00000   0.00000  -0.00001  -0.00001  -1.25993
   D42       -1.23013  -0.00000   0.00000  -0.00004  -0.00004  -1.23017
   D43        0.92024  -0.00000   0.00000  -0.00004  -0.00004   0.92020
   D44        2.99360  -0.00000   0.00000  -0.00002  -0.00002   2.99357
   D45        2.80549  -0.00000   0.00000  -0.00003  -0.00003   2.80546
   D46       -1.32733   0.00000   0.00000  -0.00003  -0.00003  -1.32735
   D47        0.74603   0.00000   0.00000  -0.00001  -0.00001   0.74602
   D48        0.93440   0.00000   0.00000  -0.00001  -0.00001   0.93439
   D49        3.00631   0.00000   0.00000  -0.00000  -0.00000   3.00631
   D50       -1.20170   0.00000   0.00000  -0.00003  -0.00003  -1.20173
   D51       -2.87402  -0.00000   0.00000  -0.00004  -0.00004  -2.87406
   D52       -0.80211  -0.00000   0.00000  -0.00004  -0.00004  -0.80215
   D53        1.27306  -0.00000   0.00000  -0.00006  -0.00006   1.27300
   D54       -1.18301   0.00000   0.00000   0.00001   0.00001  -1.18300
   D55        3.02236   0.00000   0.00000   0.00002   0.00002   3.02238
   D56        0.97377   0.00000   0.00000   0.00003   0.00003   0.97380
   D57        3.00201   0.00000   0.00000   0.00003   0.00003   3.00204
   D58        0.92420   0.00000   0.00000   0.00004   0.00004   0.92424
   D59       -1.12439   0.00000   0.00000   0.00005   0.00005  -1.12434
   D60        0.80069  -0.00000   0.00000  -0.00001  -0.00001   0.80067
   D61       -1.27712  -0.00000   0.00000  -0.00001  -0.00001  -1.27713
   D62        2.95747  -0.00000   0.00000   0.00001   0.00001   2.95747
   D63        2.59042   0.00000   0.00000  -0.00022  -0.00022   2.59020
   D64        0.51352  -0.00000   0.00000  -0.00022  -0.00022   0.51330
   D65       -1.54903   0.00000   0.00000  -0.00021  -0.00021  -1.54924
   D66       -1.60072  -0.00000   0.00000  -0.00024  -0.00024  -1.60096
   D67        2.60557  -0.00000   0.00000  -0.00025  -0.00025   2.60532
   D68        0.54302  -0.00000   0.00000  -0.00023  -0.00023   0.54279
   D69        0.59651   0.00000   0.00000  -0.00021  -0.00021   0.59630
   D70       -1.48038  -0.00000   0.00000  -0.00022  -0.00022  -1.48060
   D71        2.74025  -0.00000   0.00000  -0.00020  -0.00020   2.74004
   D72        1.05328   0.00000   0.00000   0.00010   0.00010   1.05338
   D73       -1.05339   0.00000   0.00000   0.00006   0.00006  -1.05334
   D74       -3.12633   0.00000   0.00000   0.00006   0.00006  -3.12627
   D75       -3.11261   0.00000   0.00000   0.00008   0.00008  -3.11253
   D76        1.06391  -0.00000   0.00000   0.00004   0.00004   1.06395
   D77       -1.00903  -0.00000   0.00000   0.00005   0.00005  -1.00898
   D78       -1.07914   0.00000   0.00000   0.00008   0.00008  -1.07906
   D79        3.09738  -0.00000   0.00000   0.00004   0.00004   3.09742
   D80        1.02444  -0.00000   0.00000   0.00005   0.00005   1.02448
   D81        3.11635   0.00000   0.00000   0.00019   0.00019   3.11654
   D82       -1.06302   0.00000   0.00000   0.00022   0.00022  -1.06280
   D83        1.02675   0.00000   0.00000   0.00021   0.00021   1.02695
         Item               Value     Threshold  Converged?
 Maximum Force            0.000015     0.000450     YES
 RMS     Force            0.000003     0.000300     YES
 Maximum Displacement     0.000888     0.001800     YES
 RMS     Displacement     0.000151     0.001200     YES
 Predicted change in Energy=-6.987351D-09
 Optimization completed.
    -- Stationary point found.
                           ----------------------------
                           !   Optimized Parameters   !
                           ! (Angstroms and Degrees)  !
 --------------------------                            --------------------------
 ! Name  Definition              Value          Derivative Info.                !
 --------------------------------------------------------------------------------
 ! R1    R(1,2)                  1.7685         -DE/DX =    0.0                 !
 ! R2    R(1,8)                  1.7263         -DE/DX =    0.0                 !
 ! R3    R(1,11)                 1.3594         -DE/DX =    0.0                 !
 ! R4    R(2,3)                  1.4574         -DE/DX =    0.0                 !
 ! R5    R(2,4)                  1.4595         -DE/DX =    0.0                 !
 ! R6    R(2,5)                  1.6411         -DE/DX =    0.0                 !
 ! R7    R(5,6)                  1.0222         -DE/DX =    0.0                 !
 ! R8    R(5,7)                  1.0224         -DE/DX =    0.0                 !
 ! R9    R(8,9)                  1.7361         -DE/DX =    0.0                 !
 ! R10   R(9,10)                 1.3837         -DE/DX =    0.0                 !
 ! R11   R(9,12)                 1.7452         -DE/DX =    0.0                 !
 ! R12   R(10,11)                1.4361         -DE/DX =    0.0                 !
 ! R13   R(10,13)                1.367          -DE/DX =    0.0                 !
 ! R14   R(11,14)                1.0851         -DE/DX =    0.0                 !
 ! R15   R(12,15)                1.8066         -DE/DX =    0.0                 !
 ! R16   R(12,17)                1.4748         -DE/DX =    0.0                 !
 ! R17   R(12,18)                1.4747         -DE/DX =    0.0                 !
 ! R18   R(13,16)                1.4565         -DE/DX =    0.0                 !
 ! R19   R(13,22)                1.015          -DE/DX =    0.0                 !
 ! R20   R(15,16)                1.5289         -DE/DX =    0.0                 !
 ! R21   R(15,19)                1.5343         -DE/DX =    0.0                 !
 ! R22   R(15,23)                1.0975         -DE/DX =    0.0                 !
 ! R23   R(16,24)                1.0895         -DE/DX =    0.0                 !
 ! R24   R(16,25)                1.1            -DE/DX =    0.0                 !
 ! R25   R(19,20)                1.5185         -DE/DX =    0.0                 !
 ! R26   R(19,26)                1.0961         -DE/DX =    0.0                 !
 ! R27   R(19,27)                1.0957         -DE/DX =    0.0                 !
 ! R28   R(20,21)                1.4259         -DE/DX =    0.0                 !
[...]
 28,0.02083159,0.00056016,0.00171273,0.00021259,0.00300582,-0.00102684,
 -0.00186234,-0.00076799,0.00118168,-0.00062229,0.00065062,-0.00054495,
 0.00036447,-0.00050043,-0.00063472,0.00063043,-0.00008812,0.00020511,0
 .00012142,-0.00092903,0.00104627,-0.00018948,0.02993914,0.05435441,-0.
 00025602,0.00013519,-0.00034175,0.00009857,-0.00009396,0.00033558,-0.0
 0006137,0.00001743,-0.00008673,0.00006981,-0.00003292,-0.00016900,0.00
 001672,0.00009648,-0.00006471,0.00000926,-0.00001304,0.00000012,-0.000
 01598,-0.00001046,0.00000695,0.00040349,-0.00008636,-0.00021830,0.0001
 3340,-0.00042064,0.00061102,-0.00408624,0.00256253,-0.00341658,0.00117
 402,-0.00038523,-0.00085038,-0.00081524,0.00146594,-0.00102412,0.02618
 472,0.00214122,-0.02753033,0.00000204,0.00002051,0.00000123,-0.0012129
 4,-0.00220928,0.00174483,0.12885897,0.01991088,-0.14320444,-0.00043194
 ,-0.00020006,0.00030872,-0.00114613,0.00043808,0.00085424,-0.00071066,
 -0.00008679,0.00084168,-0.00018937,0.00003675,0.00000795,0.00104178,0.
 00178637,-0.00170139,0.00015749,-0.00007377,0.00125545,0.00012781,0.00
 006594,0.00002921,-0.14199428,-0.02420851,0.16565584,0.00000131,0.0000
 2865,-0.00003103,0.00005693,-0.00013868,0.00048682,-0.00010223,0.00003
 235,-0.00014167,0.00004737,0.00000174,-0.00017754,0.00003223,0.0001242
 6,-0.00008485,0.00001168,-0.00002021,0.00000162,-0.00002243,-0.0000156
 0,0.00000752,0.00042497,-0.00026801,-0.00064892,0.00092056,-0.00104306
 ,0.00023682,-0.00208301,0.00115578,0.00365888,0.00020142,0.00009399,-0
 .00066951,-0.00081055,0.00148695,-0.00068633,-0.00402543,-0.00517819,-
 0.01383982,0.00001468,-0.00001041,-0.00000495,0.00825730,0.01921473,0.
 00547963,-0.11288525,-0.10663693,-0.03088749,-0.00036450,0.00046823,0.
 00047102,0.00069414,-0.00049491,-0.00001463,0.00051689,-0.00002219,0.0
 0138417,-0.00010253,0.00019773,0.00010699,-0.00013207,-0.00050083,0.00
 042908,0.00013211,-0.00033009,-0.00033746,-0.00229546,0.00314401,-0.00
 029680,-0.01041115,-0.02163346,-0.00767872,0.12177603,0.00035190,-0.00
 020083,-0.00001849,0.00001846,0.00000526,-0.00008335,0.00000961,-0.000
 00286,0.00001168,-0.00001180,0.00001184,0.00000601,-0.00000985,-0.0000
 0973,0.00001984,-0.00000232,0.00000483,-0.00000148,0.00000240,0.000001
 42,-0.00000189,-0.00023650,0.00004788,-0.00013783,0.00011534,-0.000378
 37,-0.00102702,0.00205122,0.00111862,-0.00073109,-0.00005209,-0.000298
 14,0.00018211,-0.00214968,-0.00257124,-0.00034557,0.00157668,0.0098790
 4,0.00160652,0.00001433,0.00003215,0.00002782,-0.01097141,-0.02436452,
 -0.00696017,-0.10376082,-0.22551461,-0.05761047,-0.00084650,0.00145883
 ,0.00050939,0.00009921,0.00048227,-0.00011248,-0.00000108,0.00050356,-
 0.00126561,-0.00006926,0.00025782,-0.00009791,-0.00016556,-0.00020014,
 0.00016277,0.00023175,0.00014865,-0.00031589,0.00367542,-0.00263891,0.
 00077587,-0.00123193,-0.00194844,-0.00055882,0.11115898,0.24385305,-0.
 00096566,0.00042660,0.00045924,-0.00001267,-0.00014159,0.00029166,-0.0
 0007695,0.00002973,-0.00012078,0.00003640,-0.00001490,-0.00012972,0.00
 002373,0.00006396,-0.00002735,0.00000993,-0.00001525,0.00000032,-0.000
 01266,-0.00001216,0.00000669,0.00125801,-0.00028560,-0.00063302,0.0011
 9603,-0.00012514,0.00220828,-0.00802120,-0.00172674,0.00651341,0.00078
 312,0.00111682,-0.00174475,-0.00022366,-0.00029733,-0.00223128,-0.0176
 7394,-0.02325009,-0.02917432,-0.00001908,-0.00010890,0.00000046,0.0027
 7090,0.00034842,0.00077932,-0.03041584,-0.05694548,-0.06779630,0.00017
 411,-0.00016667,0.00058313,0.00017982,-0.00008061,0.00045956,0.0004989
 8,0.00066549,0.00081405,0.00010535,0.00010525,0.00011348,0.00007982,0.
 00034795,-0.00033172,0.00028420,-0.00053505,-0.00005827,-0.00085015,0.
 00042167,0.00047987,0.00752753,0.01527695,0.00700016,0.04338885,0.0650
 0449,0.08279141,-0.00001819,0.00000322,-0.00005435,-0.00000040,-0.0000
 1550,0.00007805,-0.00001562,0.00000452,-0.00002336,0.00000850,-0.00000
 175,-0.00002473,0.00000680,0.00001861,-0.00001597,0.00000201,-0.000003
 42,0.00000089,-0.00000366,-0.00000174,0.00000130,-0.00000284,-0.000016
 89,-0.00004072,0.00016847,0.00013964,-0.00017291,-0.00013631,0.0000533
 5,0.00011703,-0.00000445,-0.00000827,-0.00003948,-0.00107911,-0.000111
 00,0.00129784,-0.00004727,0.00019689,0.00001118,0.00000392,0.00000137,
 -0.00000494,-0.00282159,0.00135376,-0.00094834,0.00047329,-0.00071457,
 -0.00040465,0.00018558,0.00015587,0.00047012,0.00007372,-0.00062123,0.
 00019538,-0.26778113,0.10454507,-0.01313117,-0.01889781,0.01170948,-0.
 00193770,-0.00389986,-0.00442537,0.00292037,0.00005443,-0.00000454,-0.
 00005056,0.00004398,0.00013643,-0.00035772,0.00007899,-0.00012528,0.00
 009043,-0.00003622,0.00006306,-0.00003918,0.29053891,0.00004520,-0.000
 00421,-0.00003240,-0.00000667,0.00000951,0.00001119,-0.00000382,-0.000
 00120,-0.00000487,-0.00000130,0.00000013,0.00000114,0.00000188,0.00000
 246,-0.00000387,0.00000068,-0.00000074,0.00000038,-0.00000036,0.000000
 30,0.00000015,-0.00008895,0.00003089,0.00003696,-0.00003535,0.00000049
 ,-0.00016458,0.00033123,-0.00006632,-0.00025140,-0.00006895,-0.0000098
 5,0.00007021,0.00166198,0.00003649,0.00223497,0.00036359,-0.00053577,0
 .00033418,-0.00000259,0.00000128,-0.00000557,0.00344882,-0.00451829,0.
 00189250,0.00021551,0.00073356,0.00159880,0.00008222,0.00032356,-0.000
 69783,-0.00029206,-0.00002378,-0.00032262,0.10564205,-0.09727078,0.005
 33791,-0.01843056,0.00969886,-0.00232501,-0.00471000,-0.00292336,0.002
 58431,0.00000018,0.00000065,0.00021798,0.00008274,-0.00012021,0.000165
 33,-0.00016952,0.00009756,-0.00003410,-0.00014753,0.00014238,-0.000087
 65,-0.11250783,0.10276087,-0.00011362,0.00000736,0.00009043,0.00002388
 ,0.00002166,-0.00001900,0.00000989,-0.00000550,0.00001291,-0.00000412,
 -0.00000305,-0.00000274,-0.00000144,-0.00000331,0.00000307,-0.00000036
 ,0.00000046,-0.00000028,0.00000066,0.00000007,0.00000005,0.00022601,-0
 .00010657,-0.00009238,-0.00009695,-0.00043425,0.00053232,-0.00090749,0
 .00001709,0.00081795,0.00011816,-0.00000958,-0.00019615,-0.00153930,0.
 00363877,-0.00347569,-0.00120188,0.00200343,-0.00111932,0.00000549,0.0
 0000040,0.00000885,-0.02797585,0.01557493,-0.00230834,0.00040521,-0.00
 191645,-0.00467028,0.00069605,-0.00017277,0.00048227,0.00027470,-0.000
 44637,0.00078083,-0.01229499,0.00559116,-0.04942105,0.01023054,-0.0082
 0410,0.00051156,0.00371759,0.00274229,-0.00116218,0.00009448,0.0001710
 4,-0.00056299,0.00016920,-0.00018106,-0.00031231,0.00007033,-0.0002602
 3,-0.00008540,-0.00000923,0.00021189,-0.00003897,0.01205035,-0.0119612
 1,0.05846830,0.00000300,-0.00000647,-0.00001587,-0.00000055,-0.0000035
 8,0.00000776,-0.00000088,0.00000036,0.00000019,0.00000091,0.00000072,-
 0.00000012,0.00000003,0.00000102,-0.00000246,0.00000044,-0.00000028,0.
 00000013,0.00000015,-0.00000016,0.00000045,-0.00001808,0.00001236,0.00
 002296,-0.00004090,0.00002366,-0.00004797,0.00010810,-0.00003817,-0.00
 007267,-0.00000330,0.00001859,0.00003648,-0.00051840,0.00081387,-0.000
 16164,0.00010374,-0.00008420,0.00021982,-0.00000060,0.00000102,-0.0000
 0090,-0.00137633,-0.00675477,-0.00578646,0.00026300,-0.00043161,-0.000
 65451,0.00000192,0.00008625,-0.00004311,0.00004522,-0.00025265,0.00047
 094,-0.04876598,-0.00540283,-0.00286789,-0.00182025,-0.02020543,-0.011
 52524,0.00221844,0.00077213,-0.00083124,0.00000236,0.00001801,0.000056
 52,0.00004254,0.00023719,-0.00181870,-0.00002110,-0.00011365,0.0000456
 7,0.00002559,0.00006800,0.00002409,0.00231894,0.02462107,0.01568339,0.
 04873649,0.00002363,-0.00000426,0.00002371,0.00000385,0.00001042,-0.00
 001025,0.00000448,-0.00000184,0.00000487,-0.00000459,0.00000065,0.0000
 0368,-0.00000090,-0.00000162,0.00000238,-0.00000046,0.00000040,-0.0000
 0007,0.00000050,0.00000021,-0.00000012,-0.00001173,-0.00000057,-0.0000
 0598,0.00002845,-0.00004783,0.00002575,-0.00001317,-0.00004310,0.00003
 064,-0.00001201,-0.00002037,-0.00001741,0.00035262,0.00006836,-0.00000
 185,0.00001108,-0.00005708,-0.00014342,-0.00000002,-0.00000036,0.00000
 071,-0.00025381,0.00681720,0.00489648,0.00087385,0.00052987,0.00158067
 ,-0.00024685,0.00007643,0.00037763,-0.00005645,0.00004894,-0.00002936,
 -0.00662193,-0.24657807,-0.12114932,0.00076875,-0.01956325,-0.01032959
 ,0.00031620,0.00198829,-0.00008802,0.00004651,0.00004742,-0.00000035,0
 .00035266,0.00006199,0.00143821,-0.00006594,0.00010462,-0.00034026,-0.
 00052279,0.00012446,-0.00007679,-0.00097921,-0.01024806,-0.00574207,0.
 00835865,0.26716486,0.00010494,0.00001987,-0.00024043,-0.00002604,-0.0
 0009560,0.00024788,-0.00005469,0.00002355,-0.00007991,0.00003433,-0.00
 000316,-0.00007145,0.00001774,0.00005743,-0.00004700,0.00000596,-0.000
 01076,0.00000157,-0.00001128,-0.00000643,0.00000375,-0.00016695,0.0001
 7585,-0.00000423,0.00048166,0.00035271,-0.00056175,0.00041464,-0.00012
 801,-0.00018152,-0.00004789,0.00000784,0.00012190,-0.00348365,-0.00201
 351,-0.00012667,0.00010075,-0.00012988,0.00062535,-0.00000031,0.000000
 90,-0.00001436,-0.00207417,-0.02427631,-0.02041790,0.00075794,-0.00129
 057,0.00056379,0.00050382,0.00056730,0.00050543,0.00061853,-0.00006831
 ,-0.00022789,-0.00370097,-0.12002531,-0.12148803,-0.00022192,0.0141856
 5,0.00808313,-0.00116963,-0.00098588,0.00007441,0.00006822,0.00005051,
 0.00007018,-0.00001401,0.00181789,-0.00444571,-0.00029326,0.00016609,0
 .00019624,-0.00012708,0.00065973,-0.00000889,0.00069621,0.00191619,0.0
 0087023,0.00563554,0.12723309,0.13612257,-0.00000285,-0.00000732,0.000
 01898,0.00000184,0.00000980,-0.00002954,0.00000578,-0.00000223,0.00000
 866,-0.00000406,0.00000053,0.00000854,-0.00000178,-0.00000657,0.000006
 37,-0.00000077,0.00000110,-0.00000031,0.00000127,0.00000076,-0.0000007
 7,0.00000402,-0.00000684,-0.00000103,-0.00001466,-0.00000919,0.0000233
 1,0.00002179,0.00000173,-0.00003214,-0.00000036,-0.00000109,0.00000455
 ,0.00014080,0.00006018,-0.00039194,0.00009456,-0.00002596,0.00006889,-
 0.00000031,0.00000013,0.00000124,0.00013878,0.00065994,-0.00116383,-0.
 00002641,0.00001675,-0.00014263,-0.00006440,-0.00000873,0.00014575,-0.
 00005437,0.00009247,0.00005210,-0.00086535,-0.02042667,-0.01110501,-0.
 04821455,-0.01166154,-0.00622308,-0.01693265,0.03844329,0.01754415,-0.
 00000931,-0.00000483,0.00001969,0.00015688,0.00035705,0.00030647,-0.00
 000435,-0.00007536,0.00009232,0.00002492,0.00005872,0.00006454,0.00077
 154,0.00059669,-0.00038189,-0.00223454,-0.00303989,0.00283672,0.063142
 63,-0.00000272,-0.00000563,0.00003032,0.00000118,0.00000751,-0.0000421
 5,0.00000844,-0.00000127,0.00001207,-0.00000623,0.00000233,0.00001260,
 -0.00000179,-0.00000764,0.00000854,-0.00000075,0.00000124,-0.00000067,
 0.00000154,0.00000103,-0.00000115,0.00000508,-0.00001442,-0.00000421,-
 0.00002899,-0.00000126,0.00002269,0.00004847,0.00000495,-0.00002549,-0
 .00000583,-0.00000042,0.00000971,0.00011738,0.00004778,-0.00031318,0.0
 0005963,-0.00006311,0.00011580,-0.00000063,-0.00000168,0.00000172,0.00
 044236,0.00058140,-0.00146009,-0.00000561,0.00014665,-0.00007082,-0.00
 002460,-0.00000875,0.00017045,-0.00007557,0.00008510,0.00009124,-0.002
 73557,-0.01882393,-0.01053496,-0.00807717,-0.24158972,-0.11299059,0.01
 281531,-0.01154676,-0.00610351,-0.00000963,-0.00000342,0.00002284,0.00
 014325,-0.00011856,0.00079199,-0.00004760,0.00004562,-0.00002575,-0.00
 004115,0.00005755,0.00002220,0.00010626,0.00061295,0.00013651,-0.00286
 750,-0.00148926,0.00200544,0.00117701,0.26546870,-0.00001201,0.0000008
 3,0.00003021,0.00000283,0.00000943,-0.00002869,0.00000698,-0.00000393,
 0.00001012,-0.00000400,0.00000166,0.00000925,-0.00000217,-0.00000519,0
 .00000558,-0.00000057,0.00000140,-0.00000055,0.00000150,0.00000032,-0.
 00000047,0.00002350,-0.00002594,0.00000452,-0.00008167,-0.00002044,0.0
 0006426,-0.00004720,0.00001045,0.00002434,0.00000153,-0.00000444,-0.00
 001184,0.00029314,0.00004241,0.00019535,0.00000219,-0.00002855,-0.0000
 6418,0.00000046,0.00000077,0.00000088,0.00003262,0.00115426,0.00205439
 ,0.00006554,0.00027143,0.00000945,0.00000239,-0.00004561,-0.00012717,-
 0.00006082,-0.00001633,0.00002702,0.00110026,0.01386990,0.00594142,-0.
 00630859,-0.11653720,-0.12664787,0.00385290,0.00234683,0.00550330,0.00
 000051,0.00000046,0.00000026,-0.00021020,-0.00046814,0.00007396,-0.000
 01371,-0.00000202,0.00001016,-0.00010909,-0.00000443,-0.00010371,-0.00
 058161,-0.00063063,0.00038415,0.00178036,0.00217437,-0.00037714,0.0021
 2581,0.12477818,0.12739819,-0.00008103,-0.00001426,0.00019294,0.000018
 06,0.00007049,-0.00021177,0.00005101,-0.00001810,0.00007181,-0.0000263
 9,0.00000315,0.00006497,-0.00001586,-0.00004940,0.00003920,-0.00000535
 ,0.00000900,-0.00000157,0.00000960,0.00000524,-0.00000322,0.00014766,-
 0.00011832,0.00005442,-0.00056579,-0.00010545,0.00042313,-0.00010621,0
 .00006461,-0.00000141,0.00002188,-0.00000894,-0.00003210,0.00188855,-0
 .00031530,0.00029908,0.00037180,-0.00020840,-0.00001573,-0.00000091,-0
 .00000151,0.00000920,-0.00261805,-0.00350393,0.00199958,-0.00045234,0.
 00048986,0.00038107,-0.00042940,-0.00030064,-0.00012806,-0.00039455,0.
 00037099,0.00012890,0.00581345,-0.00319917,0.02097074,-0.06409629,0.00
 743088,-0.06054448,-0.02752734,0.01456839,-0.03136268,-0.00003482,-0.0
 0001260,0.00008088,-0.00022088,-0.00003015,-0.00023182,0.00013520,-0.0
 0007162,-0.00001854,0.00004139,-0.00003040,-0.00004543,0.00088868,0.00
 057062,-0.00015952,0.00059859,0.00043864,-0.00067323,0.00213476,-0.000
 62399,-0.00225222,0.08253550,-0.00007215,-0.00001659,0.00017695,0.0000
 1903,0.00006565,-0.00019365,0.00004471,-0.00001681,0.00006501,-0.00002
 506,0.00000373,0.00005874,-0.00001448,-0.00004439,0.00003541,-0.000004
 61,0.00000812,-0.00000138,0.00000877,0.00000478,-0.00000301,0.00013245
 ,-0.00012257,0.00003384,-0.00050547,-0.00011144,0.00037882,-0.00009923
 ,0.00005895,0.00003255,0.00001685,-0.00000101,-0.00002638,0.00166371,-
 0.00014992,0.00040047,0.00019180,-0.00010965,0.00000968,-0.00000053,-0
 .00000114,0.00000837,-0.00344533,-0.00163985,0.00125664,-0.00009316,0.
 00035646,-0.00009832,-0.00031294,-0.00022654,-0.00009255,-0.00037268,0
 .00034640,0.00009499,0.00369732,-0.00449833,0.02188537,0.00902286,-0.0
 6124097,0.03538260,0.01267644,-0.00244345,0.01492145,-0.00002561,-0.00
 000022,0.00003741,0.00001196,0.00008052,0.00011309,-0.00002443,0.00000
 323,-0.00004088,-0.00003068,0.00000583,-0.00000862,0.00032348,0.000670
 42,-0.00053809,0.00108073,0.00081937,-0.00025835,-0.00667836,0.0063343
 9,-0.02662395,-0.01608282,0.06196357,0.00004572,0.00001223,-0.00013999
 ,-0.00001395,-0.00005172,0.00016344,-0.00003528,0.00001330,-0.00005243
 ,0.00002137,-0.00000258,-0.00004948,0.00001297,0.00003904,-0.00003166,
 0.00000382,-0.00000713,0.00000151,-0.00000744,-0.00000408,0.00000269,-
 0.00010843,0.00007381,-0.00000884,0.00036518,0.00006540,-0.00027751,0.
 00004849,-0.00005383,0.00000727,-0.00000662,0.00001105,0.00000835,-0.0
 0137196,0.00025767,0.00002903,-0.00018057,0.00014285,-0.00004064,0.000
 00051,0.00000076,-0.00000744,0.00206296,0.00156660,0.00029183,0.000247
 85,-0.00016893,-0.00013219,0.00043210,0.00029024,0.00002713,0.00034214
 ,-0.00029303,-0.00014489,-0.00281425,0.00072254,-0.01215397,-0.0629632
 6,0.04015453,-0.29533388,-0.00401053,0.00096436,0.00789144,0.00003153,
 0.00000319,-0.00005044,0.00015384,0.00013327,0.00034514,0.00002629,-0.
 00002848,0.00001748,-0.00001138,0.00005756,-0.00000662,0.00008168,-0.0
 0009469,0.00009676,-0.00021142,0.00006849,0.00081709,-0.00320320,0.002
 42661,-0.01449836,0.07138150,-0.04658637,0.31246991,-0.00000892,0.0000
 0526,-0.00001824,0.00000419,-0.00000675,0.00002735,-0.00000651,0.00000
 170,-0.00000769,0.00000291,-0.00000021,-0.00000928,0.00000153,0.000006
 55,-0.00000569,0.00000096,-0.00000120,0.00000030,-0.00000118,-0.000000
 69,0.00000054,0.00001127,-0.00000345,-0.00001102,0.00003263,0.00000104
 ,0.00000746,-0.00010295,0.00001724,0.00000106,0.00002183,-0.00000444,-
 0.00002433,-0.00017899,0.00005398,-0.00010666,0.00018339,0.00003563,-0
 .00018158,0.00000085,0.00000046,-0.00000070,-0.00004504,0.00034624,-0.
 00012768,-0.00003863,0.00028949,-0.00012405,0.00005380,0.00002094,0.00
 005339,0.00005528,-0.00005893,0.00000472,-0.00569742,0.00439677,-0.000
 94846,-0.02756745,-0.02485861,0.01700959,-0.21572918,-0.16128738,0.122
 46803,0.00000639,-0.00001150,-0.00000932,0.00001535,-0.00004242,0.0000
 8576,0.00024387,-0.00031516,0.00011091,0.00009130,0.00004411,-0.000048
 99,-0.00087328,-0.00119896,0.00091072,0.00033145,0.00024990,-0.0002119
 3,0.00179114,-0.00037059,0.00039131,0.00191907,-0.00110257,-0.00031964
 ,0.24548237,0.00001465,-0.00001210,-0.00002113,-0.00000399,-0.00000048
 ,0.00001501,-0.00000412,0.00000056,-0.00000538,0.00000239,-0.00000076,
 -0.00000376,0.00000115,0.00000230,-0.00000300,0.00000017,-0.00000046,0
 .00000064,-0.00000068,-0.00000017,0.00000055,-0.00002942,0.00001566,0.
 00000261,0.00004539,0.00004194,-0.00005208,0.00009201,-0.00003593,-0.0
 0001039,-0.00001568,0.00000973,0.00002334,-0.00018590,-0.00001941,0.00
 021089,-0.00020426,0.00000477,0.00012627,0.,0.00000081,-0.00000095,0.0
 0014482,-0.00015717,0.00014803,0.00040587,-0.00015520,-0.00013707,0.00
 005299,0.00006758,-0.00009479,0.00002747,-0.00002681,-0.00004123,0.002
 83529,-0.00090257,-0.00020153,0.01849079,0.00978320,-0.00955367,-0.206
 94085,-0.23608377,0.15691141,0.00000333,0.00001805,-0.00000630,-0.0000
 4882,0.00002969,0.00001955,-0.00032826,0.00000709,0.00014351,-0.000072
 69,-0.00000768,0.00004906,0.00072558,0.00060019,-0.00013245,0.00004766
 ,0.00019216,0.00005202,0.00047842,0.00027865,-0.00024591,0.00067313,-0
 .00009855,0.00028733,0.18379357,0.22644868,-0.00001278,0.00000220,-0.0
 0000132,0.00000733,0.00000489,0.00000498,-0.00000295,-0.00000159,-0.00
 000083,-0.00000007,-0.00000182,-0.00000198,-0.00000142,-0.00000078,-0.
 00000155,0.00000016,0.00000022,0.00000021,0.00000008,-0.00000011,0.000
 00036,0.00001892,-0.00000563,-0.00000236,-0.00002508,-0.00000455,0.000
 02668,-0.00007935,0.00001497,0.00000387,0.00001399,-0.00000388,-0.0000
 1760,-0.00003709,-0.00001804,0.00011958,0.00010086,0.00001579,-0.00010
 068,0.00000008,0.00000158,-0.00000050,-0.00025016,0.00003044,0.0001609
 0,-0.00012668,0.00024391,0.00010648,0.00001906,-0.00000745,-0.00001081
 ,0.00002155,-0.00002293,-0.00001383,-0.00050630,-0.00018555,0.00047165
 ,-0.00456853,-0.00119014,-0.00092475,0.14515134,0.14774990,-0.10406528
 ,0.00000284,-0.00000601,-0.00000837,-0.00008153,0.00001596,0.00008296,
 0.00036240,0.00003016,-0.00018374,0.00010510,0.00003686,-0.00009533,-0
 .00018345,0.00021423,0.00040742,0.00005590,0.00007418,-0.00001063,-0.0
 0065270,0.00091366,0.00011318,-0.00041563,-0.00041984,0.00075929,-0.13
 891587,-0.14748062,0.10318199\\0.00002706,-0.00001449,0.00000007,-0.00
 001066,-0.00000048,0.00000003,0.00000731,-0.00000382,0.00000038,-0.000
 00022,-0.00000022,0.00000374,-0.00000418,0.00001829,-0.00000097,0.0000
 0091,0.00000272,0.00000158,0.00000334,0.00000213,0.00000566,-0.0000119
 6,0.00000204,-0.00000492,-0.00001082,0.00001623,-0.00000162,0.00001594
 ,-0.00000462,-0.00000389,-0.00000661,0.00000698,-0.00000071,0.00000549
 ,0.00000115,0.00000639,-0.00001208,-0.00000257,-0.00000420,-0.00000098
 ,-0.00000305,-0.00000098,0.00000226,0.00000278,0.00000720,0.00001229,-
 0.00000924,0.00000620,-0.00000688,-0.00000189,0.00000163,-0.00000048,0
 .00000408,0.00000112,0.00000154,-0.00000153,-0.00000230,-0.00000743,-0
 .00000079,-0.00000294,0.00000689,-0.00000121,0.00000639,-0.00000183,0.
 00000092,-0.00000503,-0.00000031,-0.00000153,-0.00000409,-0.00000171,-
 0.00000215,-0.00000221,-0.00000424,-0.00000180,0.00000050,0.00000025,0
 .00000306,-0.00000142,-0.00000367,0.00000017,0.00000200,0.00000246,-0.
 00000374,0.00000078,-0.00000226,0.00000002,-0.00000221,0.00000057,-0.0
 0000745,-0.00000617\\\@
 The archive entry for this job was punched.


 IF I HAVE SEEN FARTHER, IT IS BY STANDING ON THE
 SHOULDERS OF GIANTS. -- SIR ISAAC NEWTON
 Job cpu time:       0 days  3 hours 14 minutes 47.6 seconds.
 Elapsed time:       0 days  0 hours 12 minutes 13.1 seconds.
 File lengths (MBytes):  RWF=    592 Int=      0 D2E=      0 Chk=     21 Scr=      1
 Normal termination of Gaussian 16 at Fri May 27 15:04:41 2022.
