 Entering Gaussian System, Link 0=g16
 AtFile(1): /home/561/yj5695/Basis/6-31pGd.gbs
 Initial command:
 /apps/gaussian/g16c01/g16/l1.exe "/jobfs/45187864.gadi-pbs/Gau-1782162.inp" -scrdir="/jobfs/45187864.gadi-pbs/"
 Entering Link 1 = /apps/gaussian/g16c01/g16/l1.exe PID=   1782163.
  
 Copyright (c) 1988-2019, Gaussian, Inc.  All Rights Reserved.
  
 This is part of the Gaussian(R) 16 program.  It is based on
 the Gaussian(R) 09 system (copyright 2009, Gaussian, Inc.),
 the Gaussian(R) 03 system (copyright 2003, Gaussian, Inc.),
 the Gaussian(R) 98 system (copyright 1998, Gaussian, Inc.),
 the Gaussian(R) 94 system (copyright 1995, Gaussian, Inc.),
 the Gaussian 92(TM) system (copyright 1992, Gaussian, Inc.),
 the Gaussian 90(TM) system (copyright 1990, Gaussian, Inc.),
 the Gaussian 88(TM) system (copyright 1988, Gaussian, Inc.),
 the Gaussian 86(TM) system (copyright 1986, Carnegie Mellon
 University), and the Gaussian 82(TM) system (copyright 1983,
 Carnegie Mellon University). Gaussian is a federally registered
 trademark of Gaussian, Inc.
  
 This software contains proprietary and confidential information,
 including trade secrets, belonging to Gaussian, Inc.
  
 This software is provided under written license and may be
 used, copied, transmitted, or stored only in accord with that
 written license.
  
 The following legend is applicable only to US Government
 contracts under FAR:
  
                    RESTRICTED RIGHTS LEGEND
  
 Use, reproduction and disclosure by the US Government is
 subject to restrictions as set forth in subparagraphs (a)
 and (c) of the Commercial Computer Software - Restricted
 Rights clause in FAR 52.227-19.
  
 Gaussian, Inc.
 340 Quinnipiac St., Bldg. 40, Wallingford CT 06492
  
  
 ---------------------------------------------------------------
 Warning -- This program may not be used in any manner that
 competes with the business of Gaussian, Inc. or will provide
 assistance to any competitor of Gaussian, Inc.  The licensee
 of this program is prohibited from giving any competitor of
 Gaussian, Inc. access to this program.  By using this program,
 the user acknowledges that Gaussian, Inc. is engaged in the
 business of creating and licensing software in the field of
 computational chemistry and represents and warrants to the
 licensee that it is not a competitor of Gaussian, Inc. and that
 it will not use this program in any manner prohibited above.
 ---------------------------------------------------------------
  

 Cite this work as:
 Gaussian 16, Revision C.01,
 M. J. Frisch, G. W. Trucks, H. B. Schlegel, G. E. Scuseria, 
 M. A. Robb, J. R. Cheeseman, G. Scalmani, V. Barone, 
 G. A. Petersson, H. Nakatsuji, X. Li, M. Caricato, A. V. Marenich, 
 J. Bloino, B. G. Janesko, R. Gomperts, B. Mennucci, H. P. Hratchian, 
 J. V. Ortiz, A. F. Izmaylov, J. L. Sonnenberg, D. Williams-Young, 
 F. Ding, F. Lipparini, F. Egidi, J. Goings, B. Peng, A. Petrone, 
 T. Henderson, D. Ranasinghe, V. G. Zakrzewski, J. Gao, N. Rega, 
 G. Zheng, W. Liang, M. Hada, M. Ehara, K. Toyota, R. Fukuda, 
 J. Hasegawa, M. Ishida, T. Nakajima, Y. Honda, O. Kitao, H. Nakai, 
 T. Vreven, K. Throssell, J. A. Montgomery, Jr., J. E. Peralta, 
 F. Ogliaro, M. J. Bearpark, J. J. Heyd, E. N. Brothers, K. N. Kudin, 
 V. N. Staroverov, T. A. Keith, R. Kobayashi, J. Normand, 
 K. Raghavachari, A. P. Rendell, J. C. Burant, S. S. Iyengar, 
 J. Tomasi, M. Cossi, J. M. Millam, M. Klene, C. Adamo, R. Cammi, 
 J. W. Ochterski, R. L. Martin, K. Morokuma, O. Farkas, 
 J. B. Foresman, and D. J. Fox, Gaussian, Inc., Wallingford CT, 2019.
 
 ******************************************
 Gaussian 16:  ES64L-G16RevC.01  3-Jul-2019
                23-Jun-2022 
 ******************************************
 %nproc=16
 Will use up to   16 processors via shared memory.
 %mem=50gb
 -----------------------------------------------------
 #m062X/gen 6D OPT Freq=noraman SCRF=(SMD,Solvent=h2o)
 -----------------------------------------------------
 1/18=20,19=15,26=3,38=1/1,3;
 2/9=110,12=2,17=6,18=5,40=1/2;
 3/5=7,8=2,11=2,25=1,30=1,70=32201,71=1,72=1,74=-55/1,2,3;
 4//1;
 5/5=2,38=5,53=1/2;
 6/7=2,8=2,9=2,10=2,28=1/1;
 7//1,2,3,16;
 1/18=20,19=15,26=3/3(2);
 2/9=110/2;
 99//99;
 2/9=110/2;
 3/5=7,6=1,8=2,11=2,25=1,30=1,70=32205,71=1,72=1,74=-55,82=7/1,2,3;
 4/5=5,16=3,69=1/1;
 5/5=2,38=5,53=1/2;
 7//1,2,3,16;
 1/18=20,19=15,26=3/3(-5);
 2/9=110/2;
 6/7=2,8=2,9=2,10=2,19=2,28=1/1;
 99/9=1/99;
 ----------------
 HA.49.smd.a1.smd
 ----------------
 Symbolic Z-matrix:
 Charge =  0 Multiplicity = 1
 C                     1.10924   0.51169  -0.14554 
 C                    -1.26661   0.5938    0.22642 
 S                    -0.07205  -0.66885   0.34008 
 S                     2.8342    0.05395  -0.281 
 O                     2.87779  -1.37656   0.00055 
 O                     3.33203   0.57821  -1.54511 
 N                     3.65466   0.81531   0.9121 
 H                     3.34484   0.53828   1.84612 
 N                     0.71716   1.71382  -0.37297 
 C                    -0.65288   1.80026  -0.16907 
 C                    -2.64235   0.51786   0.46724 
 C                    -3.38583   1.67759   0.30685 
 C                    -2.78213   2.88878  -0.08581 
 C                    -1.42134   2.96262  -0.32687 
 H                     3.66403   1.83177   0.80155 
 H                    -3.11135  -0.41274   0.76991 
 H                    -4.45575   1.6498    0.48849 
 H                    -3.39662   3.77609  -0.2007 
 H                    -0.94361   3.88885  -0.63066 
 

 GradGradGradGradGradGradGradGradGradGradGradGradGradGradGradGradGradGrad
 Berny optimization.
 Initialization pass.
                           ----------------------------
                           !    Initial Parameters    !
                           ! (Angstroms and Degrees)  !
 --------------------------                            --------------------------
 ! Name  Definition              Value          Derivative Info.                !
 --------------------------------------------------------------------------------
 ! R1    R(1,3)                  1.7392         estimate D2E/DX2                !
 ! R2    R(1,4)                  1.7898         estimate D2E/DX2                !
 ! R3    R(1,9)                  1.2848         estimate D2E/DX2                !
 ! R4    R(2,3)                  1.7419         estimate D2E/DX2                !
 ! R5    R(2,10)                 1.4102         estimate D2E/DX2                !
 ! R6    R(2,11)                 1.3987         estimate D2E/DX2                !
 ! R7    R(4,5)                  1.4586         estimate D2E/DX2                !
 ! R8    R(4,6)                  1.4563         estimate D2E/DX2                !
 ! R9    R(4,7)                  1.6359         estimate D2E/DX2                !
 ! R10   R(7,8)                  1.0223         estimate D2E/DX2                !
 ! R11   R(7,15)                 1.0225         estimate D2E/DX2                !
 ! R12   R(9,10)                 1.3878         estimate D2E/DX2                !
 ! R13   R(10,14)                1.4023         estimate D2E/DX2                !
 ! R14   R(11,12)                1.3869         estimate D2E/DX2                !
 ! R15   R(11,16)                1.0852         estimate D2E/DX2                !
 ! R16   R(12,13)                1.4091         estimate D2E/DX2                !
 ! R17   R(12,17)                1.0856         estimate D2E/DX2                !
 ! R18   R(13,14)                1.3839         estimate D2E/DX2                !
 ! R19   R(13,18)                1.0854         estimate D2E/DX2                !
 ! R20   R(14,19)                1.0856         estimate D2E/DX2                !
 ! A1    A(3,1,4)              120.1412         estimate D2E/DX2                !
 ! A2    A(3,1,9)              118.5074         estimate D2E/DX2                !
 ! A3    A(4,1,9)              121.3344         estimate D2E/DX2                !
 ! A4    A(3,2,10)             109.8763         estimate D2E/DX2                !
 ! A5    A(3,2,11)             128.6037         estimate D2E/DX2                !
 ! A6    A(10,2,11)            121.5199         estimate D2E/DX2                !
 ! A7    A(1,3,2)               87.452          estimate D2E/DX2                !
 ! A8    A(1,4,5)              105.3678         estimate D2E/DX2                !
 ! A9    A(1,4,6)              107.6439         estimate D2E/DX2                !
 ! A10   A(1,4,7)              108.0067         estimate D2E/DX2                !
 ! A11   A(5,4,6)              120.6918         estimate D2E/DX2                !
 ! A12   A(5,4,7)              107.498          estimate D2E/DX2                !
 ! A13   A(6,4,7)              107.1025         estimate D2E/DX2                !
 ! A14   A(4,7,8)              112.843          estimate D2E/DX2                !
 ! A15   A(4,7,15)             112.8543         estimate D2E/DX2                !
 ! A16   A(8,7,15)             111.7737         estimate D2E/DX2                !
 ! A17   A(1,9,10)             109.4837         estimate D2E/DX2                !
 ! A18   A(2,10,9)             114.6803         estimate D2E/DX2                !
 ! A19   A(2,10,14)            120.1455         estimate D2E/DX2                !
 ! A20   A(9,10,14)            125.1742         estimate D2E/DX2                !
 ! A21   A(2,11,12)            117.5138         estimate D2E/DX2                !
 ! A22   A(2,11,16)            121.3101         estimate D2E/DX2                !
 ! A23   A(12,11,16)           121.1761         estimate D2E/DX2                !
 ! A24   A(11,12,13)           121.42           estimate D2E/DX2                !
 ! A25   A(11,12,17)           119.182          estimate D2E/DX2                !
 ! A26   A(13,12,17)           119.3979         estimate D2E/DX2                !
 ! A27   A(12,13,14)           121.0412         estimate D2E/DX2                !
 ! A28   A(12,13,18)           119.3145         estimate D2E/DX2                !
 ! A29   A(14,13,18)           119.6443         estimate D2E/DX2                !
 ! A30   A(10,14,13)           118.3594         estimate D2E/DX2                !
 ! A31   A(10,14,19)           119.8386         estimate D2E/DX2                !
 ! A32   A(13,14,19)           121.802          estimate D2E/DX2                !
 ! D1    D(4,1,3,2)            178.7018         estimate D2E/DX2                !
 ! D2    D(9,1,3,2)              0.1846         estimate D2E/DX2                !
 ! D3    D(3,1,4,5)              3.4394         estimate D2E/DX2                !
 ! D4    D(3,1,4,6)            133.4473         estimate D2E/DX2                !
 ! D5    D(3,1,4,7)           -111.2197         estimate D2E/DX2                !
 ! D6    D(9,1,4,5)           -178.0861         estimate D2E/DX2                !
 ! D7    D(9,1,4,6)            -48.0782         estimate D2E/DX2                !
 ! D8    D(9,1,4,7)             67.2548         estimate D2E/DX2                !
 ! D9    D(3,1,9,10)            -0.1862         estimate D2E/DX2                !
 ! D10   D(4,1,9,10)          -178.6849         estimate D2E/DX2                !
 ! D11   D(10,2,3,1)            -0.117          estimate D2E/DX2                !
 ! D12   D(11,2,3,1)           179.7509         estimate D2E/DX2                !
 ! D13   D(3,2,10,9)             0.0481         estimate D2E/DX2                !
 ! D14   D(3,2,10,14)         -179.9558         estimate D2E/DX2                !
 ! D15   D(11,2,10,9)         -179.8308         estimate D2E/DX2                !
 ! D16   D(11,2,10,14)           0.1653         estimate D2E/DX2                !
 ! D17   D(3,2,11,12)          179.9469         estimate D2E/DX2                !
 ! D18   D(3,2,11,16)            0.046          estimate D2E/DX2                !
 ! D19   D(10,2,11,12)          -0.1988         estimate D2E/DX2                !
 ! D20   D(10,2,11,16)         179.9003         estimate D2E/DX2                !
 ! D21   D(1,4,7,8)             61.9645         estimate D2E/DX2                !
 ! D22   D(1,4,7,15)           -65.9398         estimate D2E/DX2                !
 ! D23   D(5,4,7,8)            -51.2801         estimate D2E/DX2                !
 ! D24   D(5,4,7,15)          -179.1844         estimate D2E/DX2                !
 ! D25   D(6,4,7,8)            177.6525         estimate D2E/DX2                !
 ! D26   D(6,4,7,15)            49.7482         estimate D2E/DX2                !
 ! D27   D(1,9,10,2)             0.0822         estimate D2E/DX2                !
 ! D28   D(1,9,10,14)         -179.9137         estimate D2E/DX2                !
 ! D29   D(2,10,14,13)          -0.0173         estimate D2E/DX2                !
 ! D30   D(2,10,14,19)         179.9467         estimate D2E/DX2                !
 ! D31   D(9,10,14,13)         179.9784         estimate D2E/DX2                !
 ! D32   D(9,10,14,19)          -0.0576         estimate D2E/DX2                !
 ! D33   D(2,11,12,13)           0.0915         estimate D2E/DX2                !
 ! D34   D(2,11,12,17)        -179.8888         estimate D2E/DX2                !
 ! D35   D(16,11,12,13)        179.9925         estimate D2E/DX2                !
 ! D36   D(16,11,12,17)          0.0122         estimate D2E/DX2                !
 ! D37   D(11,12,13,14)          0.052          estimate D2E/DX2                !
 ! D38   D(11,12,13,18)       -179.978          estimate D2E/DX2                !
 ! D39   D(17,12,13,14)       -179.9677         estimate D2E/DX2                !
 ! D40   D(17,12,13,18)          0.0023         estimate D2E/DX2                !
 ! D41   D(12,13,14,10)         -0.0888         estimate D2E/DX2                !
 ! D42   D(12,13,14,19)        179.948          estimate D2E/DX2                !
 ! D43   D(18,13,14,10)        179.9413         estimate D2E/DX2                !
 ! D44   D(18,13,14,19)         -0.0219         estimate D2E/DX2                !
 --------------------------------------------------------------------------------
 Trust Radius=3.00D-01 FncErr=1.00D-07 GrdErr=1.00D-06 EigMax=2.50D+02 EigMin=1.00D-04
 Number of steps in this run=    106 maximum allowed number of steps=    114.
 GradGradGradGradGradGradGradGradGradGradGradGradGradGradGradGradGradGrad

                          Input orientation:                          
 ---------------------------------------------------------------------
 Center     Atomic      Atomic             Coordinates (Angstroms)
 Number     Number       Type             X           Y           Z
 ---------------------------------------------------------------------
      1          6           0        1.109243    0.511688   -0.145535
      2          6           0       -1.266613    0.593799    0.226417
      3         16           0       -0.072047   -0.668854    0.340081
      4         16           0        2.834202    0.053945   -0.281000
      5          8           0        2.877785   -1.376555    0.000545
      6          8           0        3.332032    0.578213   -1.545114
      7          7           0        3.654663    0.815306    0.912101
      8          1           0        3.344836    0.538280    1.846115
      9          7           0        0.717163    1.713824   -0.372968
     10          6           0       -0.652880    1.800262   -0.169073
     11          6           0       -2.642352    0.517864    0.467238
     12          6           0       -3.385829    1.677591    0.306853
     13          6           0       -2.782125    2.888780   -0.085814
     14          6           0       -1.421344    2.962618   -0.326871
     15          1           0        3.664032    1.831771    0.801546
     16          1           0       -3.111354   -0.412738    0.769906
     17          1           0       -4.455747    1.649801    0.488491
     18          1           0       -3.396623    3.776094   -0.200698
     19          1           0       -0.943612    3.888852   -0.630662
 ---------------------------------------------------------------------
                    Distance matrix (angstroms):
                    1          2          3          4          5
     1  C    0.000000
     2  C    2.406197   0.000000
     3  S    1.739238   1.741896   0.000000
     4  S    1.789794   4.167205   3.058507   0.000000
     5  O    2.591243   4.594491   3.052480   1.458594   0.000000
     6  O    2.627554   4.928093   4.086183   1.456254   2.533085
     7  N    2.773074   4.973750   4.051951   1.635945   2.497745
     8  H    2.994203   4.887941   3.924334   2.240524   2.700159
     9  N    1.284750   2.355650   2.609300   2.691749   3.789227
    10  C    2.183130   1.410189   2.587110   3.901524   4.752529
    11  C    3.801315   1.398720   2.833891   5.546866   5.854788
    12  C    4.665797   2.381628   4.060549   6.455276   6.975277
    13  C    4.560359   2.767888   4.492513   6.294245   7.087674
    14  C    3.527579   2.437493   3.931032   5.154819   6.117036
    15  H    3.027628   5.116113   4.519332   2.240801   3.398991
    16  H    4.416564   2.170614   3.080216   6.055727   6.114789
    17  H    5.715453   3.369629   4.961352   7.502148   7.948435
    18  H    5.564370   3.853099   5.576989   7.258376   8.121483
    19  H    3.981808   3.419984   4.740744   5.394502   6.536513
                    6          7          8          9         10
     6  O    0.000000
     7  N    2.489620   0.000000
     8  H    3.391488   1.022310   0.000000
     9  N    3.082382   3.329811   3.634680   0.000000
    10  C    4.389353   4.549066   4.651378   1.387827   0.000000
    11  C    6.304480   6.319713   6.143951   3.663688   2.451007
    12  C    7.054649   7.118875   6.997800   4.159088   2.776790
    13  C    6.697103   6.835742   6.840822   3.702431   2.392799
    14  C    5.455647   5.649057   5.771980   2.476858   1.402323
    15  H    2.681128   1.022502   1.692965   3.174497   4.424796
    16  H    6.917986   6.878030   6.614004   4.526143   3.438480
    17  H    8.119935   8.164225   7.995481   5.244541   3.862231
    18  H    7.570251   7.728209   7.753719   4.604983   3.381278
    19  H    5.484313   5.742032   5.979259   2.748695   2.158656
                   11         12         13         14         15
    11  C    0.000000
    12  C    1.386884   0.000000
    13  C    2.438575   1.409122   0.000000
    14  C    2.845750   2.431481   1.383938   0.000000
    15  H    6.450472   7.068878   6.592239   5.330402   0.000000
    16  H    1.085169   2.158525   3.426466   3.930914   7.137554
    17  H    2.137787   1.085582   2.160071   3.405276   8.127849
    18  H    3.410444   2.159037   1.085418   2.139951   7.391734
    19  H    3.931242   3.425352   2.162668   1.085553   5.245301
                   16         17         18         19
    16  H    0.000000
    17  H    2.478034   0.000000
    18  H    4.309265   2.473428   0.000000
    19  H    5.016410   4.312881   2.492959   0.000000
 Stoichiometry    C7H6N2O2S2
 Framework group  C1[X(C7H6N2O2S2)]
 Deg. of freedom    51
 Full point group                 C1      NOp   1
 Largest Abelian subgroup         C1      NOp   1
 Largest concise Abelian subgroup C1      NOp   1
                         Standard orientation:                         
 ---------------------------------------------------------------------
 Center     Atomic      Atomic             Coordinates (Angstroms)
 Number     Number       Type             X           Y           Z
 ---------------------------------------------------------------------
      1          6           0       -0.661330   -0.022283   -0.083120
      2          6           0        1.639456    0.676637    0.004482
      3         16           0        0.120904    1.529712   -0.017022
      4         16           0       -2.447873   -0.128084   -0.103976
      5          8           0       -2.916468    1.252704   -0.140596
      6          8           0       -2.822173   -1.068072   -1.151353
      7          7           0       -2.932833   -0.774540    1.318425
      8          1           0       -2.677338   -0.198810    2.123643
      9          7           0        0.070572   -1.078165   -0.086927
     10          6           0        1.408854   -0.713918   -0.038071
     11          6           0        2.934907    1.201900    0.052690
     12          6           0        3.990877    0.302846    0.061496
     13          6           0        3.771401   -1.088504    0.021488
     14          6           0        2.489500   -1.607582   -0.029238
     15          1           0       -2.633714   -1.745217    1.436001
     16          1           0        3.108483    2.272647    0.083736
     17          1           0        5.007717    0.681017    0.100391
     18          1           0        4.623093   -1.761316    0.030219
     19          1           0        2.306228   -2.677074   -0.061263
 ---------------------------------------------------------------------
 Rotational constants (GHZ):           1.7381130           0.3870761           0.3390917
 General basis read from cards:  (6D, 7F)
 There are   267 symmetry adapted cartesian basis functions of A   symmetry.
 There are   267 symmetry adapted basis functions of A   symmetry.
   267 basis functions,   488 primitive gaussians,   267 cartesian basis functions
    55 alpha electrons       55 beta electrons
       nuclear repulsion energy      1011.1466829196 Hartrees.
 NAtoms=   19 NActive=   19 NUniq=   19 SFac= 1.00D+00 NAtFMM=   60 NAOKFM=F Big=F
 Integral buffers will be    131072 words long.
 Raffenetti 2 integral format.
 Two-electron integral symmetry is turned on.
 ------------------------------------------------------------------------------
 Polarizable Continuum Model (PCM)
 =================================
 Model                : PCM.
 Atomic radii         : SMD-Coulomb.
 Polarization charges : Total charges.
 Charge compensation  : None.
 Solution method      : On-the-fly selection.
 Cavity type          : VdW (van der Waals Surface) (Alpha=1.000).
 Cavity algorithm     : GePol (No added spheres)
                        Default sphere list used, NSphG=   19.
                        Lebedev-Laikov grids with approx.  5.0 points / Ang**2.
                        Smoothing algorithm: York/Karplus (Gamma=1.0000).
                        Polarization charges: spherical gaussians, with
                                              point-specific exponents (IZeta= 3).
                        Self-potential: point-specific (ISelfS= 7).
                        Self-field    : sphere-specific E.n sum rule (ISelfD= 2).
 1st derivatives      : Analytical E(r).r(x)/FMM algorithm (CHGder, D1EAlg=3).
                        Cavity 1st derivative terms included.
 Solvent              : Water, Eps=  78.355300 Eps(inf)=   1.777849
 ------------------------------------------------------------------------------
 Spheres list:
 ISph  on   Nord     Re0    Alpha      Xe            Ye            Ze
    1   C      1    1.8500  1.000     -0.661330     -0.022283     -0.083120
    2   C      2    1.8500  1.000      1.639456      0.676637      0.004482
    3   S      3    2.4900  1.000      0.120904      1.529712     -0.017022
    4   S      4    2.4900  1.000     -2.447873     -0.128084     -0.103976
    5   O      5    1.5200  1.000     -2.916468      1.252704     -0.140596
    6   O      6    1.5200  1.000     -2.822173     -1.068072     -1.151353
    7   N      7    1.8900  1.000     -2.932833     -0.774540      1.318425
    8   H      8    1.2000  1.000     -2.677338     -0.198810      2.123643
    9   N      9    1.8900  1.000      0.070572     -1.078165     -0.086927
   10   C     10    1.8500  1.000      1.408854     -0.713918     -0.038071
   11   C     11    1.8500  1.000      2.934907      1.201900      0.052690
   12   C     12    1.8500  1.000      3.990877      0.302846      0.061496
   13   C     13    1.8500  1.000      3.771401     -1.088504      0.021488
   14   C     14    1.8500  1.000      2.489500     -1.607582     -0.029238
   15   H     15    1.2000  1.000     -2.633714     -1.745217      1.436001
   16   H     16    1.2000  1.000      3.108483      2.272647      0.083736
   17   H     17    1.2000  1.000      5.007717      0.681017      0.100391
   18   H     18    1.2000  1.000      4.623093     -1.761316      0.030219
   19   H     19    1.2000  1.000      2.306228     -2.677074     -0.061263
 ------------------------------------------------------------------------------
 ------------------------------------------------------------------------------
 Atomic radii for non-electrostatic terms: SMD-CDS.
 ------------------------------------------------------------------------------
 Nuclear repulsion after PCM non-electrostatic terms =     1011.1498552692 Hartrees.
 One-electron integrals computed using PRISM.
 NBasis=   267 RedAO= T EigKep=  1.81D-06  NBF=   267
 NBsUse=   267 1.00D-06 EigRej= -1.00D+00 NBFU=   267
 ExpMin= 4.05D-02 ExpMax= 2.19D+04 ExpMxC= 3.30D+03 IAcc=3 IRadAn=         5 AccDes= 0.00D+00
 Harris functional with IExCor= 1009 and IRadAn=       5 diagonalized for initial guess.
 HarFok:  IExCor= 1009 AccDes= 0.00D+00 IRadAn=         5 IDoV= 1 UseB2=F ITyADJ=14
 ICtDFT=  3500011 ScaDFX=  1.000000  1.000000  1.000000  1.000000
 FoFCou: FMM=F IPFlag=           0 FMFlag=      100000 FMFlg1=           0
         NFxFlg=           0 DoJE=T BraDBF=F KetDBF=T FulRan=T
         wScrn=  0.000000 ICntrl=       500 IOpCl=  0 I1Cent=   200000004 NGrid=           0
         NMat0=    1 NMatS0=      1 NMatT0=    0 NMatD0=    1 NMtDS0=    0 NMtDT0=    0
 Petite list used in FoFCou.
 Requested convergence on RMS density matrix=1.00D-08 within 128 cycles.
 Requested convergence on MAX density matrix=1.00D-06.
 Requested convergence on             energy=1.00D-06.
 No special actions if energy rises.
 Inv3:  Mode=1 IEnd=     8619075.
 Iteration    1 A*A^-1 deviation from unit magnitude is 3.55D-15 for   1668.
 Iteration    1 A*A^-1 deviation from orthogonality  is 3.28D-15 for   1679    295.
 Iteration    1 A^-1*A deviation from unit magnitude is 3.44D-15 for   1663.
 Iteration    1 A^-1*A deviation from orthogonality  is 3.06D-15 for   1683    305.
 Error on total polarization charges =  0.03891
 SCF Done:  E(RM062X) =  -1326.38053295     A.U. after   15 cycles
            NFock= 15  Conv=0.91D-08     -V/T= 2.0053
 SMD-CDS (non-electrostatic) energy       (kcal/mol) =       1.99
 (included in total energy above)

 **********************************************************************

            Population analysis using the SCF Density.

 **********************************************************************

 Orbital symmetries:
       Occupied  (A) (A) (A) (A) (A) (A) (A) (A) (A) (A) (A) (A)
                 (A) (A) (A) (A) (A) (A) (A) (A) (A) (A) (A) (A)
                 (A) (A) (A) (A) (A) (A) (A) (A) (A) (A) (A) (A)
                 (A) (A) (A) (A) (A) (A) (A) (A) (A) (A) (A) (A)
                 (A) (A) (A) (A) (A) (A) (A)
       Virtual   (A) (A) (A) (A) (A) (A) (A) (A) (A) (A) (A) (A)
                 (A) (A) (A) (A) (A) (A) (A) (A) (A) (A) (A) (A)
                 (A) (A) (A) (A) (A) (A) (A) (A) (A) (A) (A) (A)
                 (A) (A) (A) (A) (A) (A) (A) (A) (A) (A) (A) (A)
                 (A) (A) (A) (A) (A) (A) (A) (A) (A) (A) (A) (A)
                 (A) (A) (A) (A) (A) (A) (A) (A) (A) (A) (A) (A)
                 (A) (A) (A) (A) (A) (A) (A) (A) (A) (A) (A) (A)
                 (A) (A) (A) (A) (A) (A) (A) (A) (A) (A) (A) (A)
                 (A) (A) (A) (A) (A) (A) (A) (A) (A) (A) (A) (A)
                 (A) (A) (A) (A) (A) (A) (A) (A) (A) (A) (A) (A)
                 (A) (A) (A) (A) (A) (A) (A) (A) (A) (A) (A) (A)
                 (A) (A) (A) (A) (A) (A) (A) (A) (A) (A) (A) (A)
                 (A) (A) (A) (A) (A) (A) (A) (A) (A) (A) (A) (A)
                 (A) (A) (A) (A) (A) (A) (A) (A) (A) (A) (A) (A)
                 (A) (A) (A) (A) (A) (A) (A) (A) (A) (A) (A) (A)
                 (A) (A) (A) (A) (A) (A) (A) (A) (A) (A) (A) (A)
                 (A) (A) (A) (A) (A) (A) (A) (A) (A) (A) (A) (A)
                 (A) (A) (A) (A) (A) (A) (A) (A)
 The electronic state is 1-A.
 Alpha  occ. eigenvalues --  -90.19771 -89.98874 -19.67415 -19.67413 -14.81297
 Alpha  occ. eigenvalues --  -14.80848 -10.66365 -10.61048 -10.60938 -10.57494
 Alpha  occ. eigenvalues --  -10.57005 -10.56825 -10.56521  -8.50704  -8.33285
 Alpha  occ. eigenvalues --   -6.42891  -6.42885  -6.42809  -6.25280  -6.25062
 Alpha  occ. eigenvalues --   -6.24795  -1.27621  -1.16099  -1.11446  -1.04346
 Alpha  occ. eigenvalues --   -0.97424  -0.92481  -0.86881  -0.84770  -0.78922
 Alpha  occ. eigenvalues --   -0.71377  -0.69807  -0.68454  -0.62732  -0.62654
 Alpha  occ. eigenvalues --   -0.60194  -0.58059  -0.57247  -0.55105  -0.52726
 Alpha  occ. eigenvalues --   -0.52073  -0.51695  -0.47702  -0.45184  -0.44438
 Alpha  occ. eigenvalues --   -0.44053  -0.43207  -0.42292  -0.41185  -0.40778
 Alpha  occ. eigenvalues --   -0.40106  -0.38379  -0.37325  -0.31187  -0.30181
 Alpha virt. eigenvalues --   -0.04343   0.00437   0.00831   0.01439   0.03058
 Alpha virt. eigenvalues --    0.03379   0.03813   0.04002   0.04240   0.04451
 Alpha virt. eigenvalues --    0.05801   0.06704   0.06911   0.07112   0.07560
 Alpha virt. eigenvalues --    0.08048   0.08384   0.09898   0.10291   0.10844
 Alpha virt. eigenvalues --    0.11038   0.11412   0.12348   0.12530   0.13734
 Alpha virt. eigenvalues --    0.14149   0.14511   0.14761   0.15220   0.15914
 Alpha virt. eigenvalues --    0.16862   0.17481   0.17820   0.18353   0.18986
 Alpha virt. eigenvalues --    0.19284   0.19555   0.19855   0.20809   0.21068
 Alpha virt. eigenvalues --    0.21629   0.22056   0.23009   0.23098   0.23898
 Alpha virt. eigenvalues --    0.24239   0.24579   0.25128   0.25467   0.25960
 Alpha virt. eigenvalues --    0.26832   0.27140   0.27924   0.28597   0.29639
 Alpha virt. eigenvalues --    0.30272   0.30359   0.30770   0.31751   0.32006
 Alpha virt. eigenvalues --    0.32359   0.32963   0.34267   0.34363   0.35138
 Alpha virt. eigenvalues --    0.36122   0.37740   0.38391   0.39259   0.41830
 Alpha virt. eigenvalues --    0.43088   0.44944   0.45453   0.47536   0.51865
 Alpha virt. eigenvalues --    0.52200   0.56328   0.58819   0.60146   0.61521
 Alpha virt. eigenvalues --    0.64977   0.66429   0.66867   0.68557   0.69610
 Alpha virt. eigenvalues --    0.70514   0.71314   0.71660   0.73093   0.74590
 Alpha virt. eigenvalues --    0.76312   0.76459   0.76910   0.77978   0.78894
 Alpha virt. eigenvalues --    0.81408   0.83734   0.83849   0.89016   0.92139
 Alpha virt. eigenvalues --    0.93242   0.94294   0.95021   0.96458   0.97814
 Alpha virt. eigenvalues --    0.98934   1.00643   1.01246   1.03206   1.03841
 Alpha virt. eigenvalues --    1.04917   1.06993   1.07427   1.09093   1.10156
 Alpha virt. eigenvalues --    1.10865   1.12180   1.13074   1.14084   1.15216
 Alpha virt. eigenvalues --    1.15846   1.17001   1.17960   1.19932   1.22544
 Alpha virt. eigenvalues --    1.23520   1.26217   1.27746   1.28915   1.30226
 Alpha virt. eigenvalues --    1.30856   1.34788   1.35529   1.36531   1.36747
 Alpha virt. eigenvalues --    1.38463   1.39471   1.40968   1.44638   1.45835
 Alpha virt. eigenvalues --    1.47840   1.48104   1.51490   1.53345   1.53683
 Alpha virt. eigenvalues --    1.57313   1.60086   1.63821   1.69506   1.72365
 Alpha virt. eigenvalues --    1.73994   1.76482   1.80496   1.81804   1.83800
 Alpha virt. eigenvalues --    1.84955   1.86891   1.90450   1.91513   1.91975
 Alpha virt. eigenvalues --    1.94224   1.98336   2.00980   2.02383   2.03455
 Alpha virt. eigenvalues --    2.03866   2.11769   2.13175   2.13888   2.15368
 Alpha virt. eigenvalues --    2.16643   2.16973   2.18128   2.24388   2.26634
 Alpha virt. eigenvalues --    2.27439   2.27726   2.31151   2.31532   2.38173
 Alpha virt. eigenvalues --    2.43961   2.45032   2.48332   2.49976   2.50960
 Alpha virt. eigenvalues --    2.55138   2.64112   2.66025   2.68687   2.74636
 Alpha virt. eigenvalues --    2.76027   2.80788   2.87166   2.88132   2.90579
 Alpha virt. eigenvalues --    2.95737   3.02271   3.16639   3.39436   3.87446
 Alpha virt. eigenvalues --    3.99016   4.05410   4.16227   4.21735   4.25769
 Alpha virt. eigenvalues --    4.28891   4.31437   4.34407   4.37590   4.44865
 Alpha virt. eigenvalues --    4.51405   4.73509
          Condensed to atoms (all electrons):
               1          2          3          4          5          6
     1  C   11.037046   1.129782  -0.785258  -0.035381   0.088197  -0.117974
     2  C    1.129782  16.512028  -0.280149  -0.547281   0.041998  -0.129076
     3  S   -0.785258  -0.280149  16.364548  -0.535971   0.067779  -0.006256
     4  S   -0.035381  -0.547281  -0.535971  16.009263   0.066821   0.392649
     5  O    0.088197   0.041998   0.067779   0.066821   8.760079  -0.181190
     6  O   -0.117974  -0.129076  -0.006256   0.392649  -0.181190   8.728713
     7  N   -0.157830   0.233353   0.093020  -0.252260  -0.145172  -0.166927
     8  H   -0.023718  -0.016237  -0.016410   0.074822  -0.005427   0.008540
     9  N    0.141691   0.636544  -0.103832  -0.117554  -0.011234  -0.018106
    10  C   -0.497577  -1.414057  -0.419930  -0.222641  -0.065080   0.074908
    11  C   -2.692931  -8.434438   0.829252  -0.528503   0.003186  -0.039346
    12  C   -0.111631  -0.244873   0.013543  -0.007876   0.002587   0.001240
    13  C   -0.317852  -1.277733   0.060727  -0.046038  -0.000763  -0.002958
    14  C   -0.977237  -0.827758   0.245634  -0.073999  -0.001918   0.036430
    15  H   -0.012513  -0.005445  -0.000471   0.047120   0.009317  -0.003326
    16  H    0.002357   0.031413  -0.011387  -0.000260   0.000002   0.000000
    17  H    0.002886   0.036306  -0.002691   0.000060   0.000000   0.000000
    18  H   -0.000695  -0.015251   0.000483  -0.000118   0.000000  -0.000000
    19  H    0.009088   0.021666  -0.002380   0.001111   0.000000   0.000010
               7          8          9         10         11         12
     1  C   -0.157830  -0.023718   0.141691  -0.497577  -2.692931  -0.111631
     2  C    0.233353  -0.016237   0.636544  -1.414057  -8.434438  -0.244873
     3  S    0.093020  -0.016410  -0.103832  -0.419930   0.829252   0.013543
     4  S   -0.252260   0.074822  -0.117554  -0.222641  -0.528503  -0.007876
     5  O   -0.145172  -0.005427  -0.011234  -0.065080   0.003186   0.002587
     6  O   -0.166927   0.008540  -0.018106   0.074908  -0.039346   0.001240
     7  N    7.938960   0.235074  -0.001622  -0.059264   0.095753   0.000924
     8  H    0.235074   0.248888  -0.001538   0.005044  -0.004107  -0.000089
     9  N   -0.001622  -0.001538   7.184135  -0.259883   0.285644  -0.004541
    10  C   -0.059264   0.005044  -0.259883  12.686370  -1.625223  -0.607679
    11  C    0.095753  -0.004107   0.285644  -1.625223  20.348917  -0.222560
    12  C    0.000924  -0.000089  -0.004541  -0.607679  -0.222560   5.900458
    13  C    0.000371  -0.000108   0.072975   0.202535   1.674309   0.313394
    14  C   -0.063055   0.000099  -0.687343  -1.557364  -3.626339   0.806635
    15  H    0.227846  -0.012223   0.000895  -0.011519  -0.001314   0.000021
    16  H   -0.000002   0.000000  -0.001058   0.062618   0.261159  -0.017801
    17  H   -0.000000   0.000000   0.000295   0.000295  -0.043756   0.345504
    18  H    0.000000  -0.000000   0.000069   0.026271   0.019845  -0.022535
    19  H    0.000024  -0.000000  -0.001936  -0.030343  -0.033405   0.017368
              13         14         15         16         17         18
     1  C   -0.317852  -0.977237  -0.012513   0.002357   0.002886  -0.000695
     2  C   -1.277733  -0.827758  -0.005445   0.031413   0.036306  -0.015251
     3  S    0.060727   0.245634  -0.000471  -0.011387  -0.002691   0.000483
     4  S   -0.046038  -0.073999   0.047120  -0.000260   0.000060  -0.000118
     5  O   -0.000763  -0.001918   0.009317   0.000002   0.000000   0.000000
     6  O   -0.002958   0.036430  -0.003326   0.000000   0.000000  -0.000000
     7  N    0.000371  -0.063055   0.227846  -0.000002  -0.000000   0.000000
     8  H   -0.000108   0.000099  -0.012223   0.000000   0.000000  -0.000000
     9  N    0.072975  -0.687343   0.000895  -0.001058   0.000295   0.000069
    10  C    0.202535  -1.557364  -0.011519   0.062618   0.000295   0.026271
    11  C    1.674309  -3.626339  -0.001314   0.261159  -0.043756   0.019845
    12  C    0.313394   0.806635   0.000021  -0.017801   0.345504  -0.022535
    13  C    5.968520  -0.642992   0.000061  -0.001672  -0.016043   0.347300
    14  C   -0.642992  13.978330   0.001370  -0.016294  -0.008323  -0.041227
    15  H    0.000061   0.001370   0.251877   0.000000   0.000000  -0.000000
    16  H   -0.001672  -0.016294   0.000000   0.415228  -0.002954  -0.000099
    17  H   -0.016043  -0.008323   0.000000  -0.002954   0.432106  -0.002998
    18  H    0.347300  -0.041227  -0.000000  -0.000099  -0.002998   0.432779
    19  H   -0.034467   0.359372   0.000000   0.000010  -0.000100  -0.002645
              19
     1  C    0.009088
     2  C    0.021666
     3  S   -0.002380
     4  S    0.001111
     5  O    0.000000
     6  O    0.000010
     7  N    0.000024
     8  H   -0.000000
     9  N   -0.001936
    10  C   -0.030343
    11  C   -0.033405
    12  C    0.017368
    13  C   -0.034467
    14  C    0.359372
    15  H    0.000000
    16  H    0.000010
    17  H   -0.000100
    18  H   -0.002645
    19  H    0.425233
 Mulliken charges:
               1
     1  C   -0.680449
     2  C    0.549210
     3  S    0.489748
     4  S    1.776035
     5  O   -0.629181
     6  O   -0.577330
     7  N   -0.979193
     8  H    0.507391
     9  N   -0.113601
    10  C   -0.287480
    11  C   -0.266143
    12  C   -0.162090
    13  C   -0.299567
    14  C   -0.904021
    15  H    0.508304
    16  H    0.278739
    17  H    0.259416
    18  H    0.258820
    19  H    0.271393
 Sum of Mulliken charges =  -0.00000
 Mulliken charges with hydrogens summed into heavy atoms:
               1
     1  C   -0.680449
     2  C    0.549210
     3  S    0.489748
     4  S    1.776035
     5  O   -0.629181
     6  O   -0.577330
     7  N    0.036502
     9  N   -0.113601
    10  C   -0.287480
    11  C    0.012596
    12  C    0.097326
    13  C   -0.040747
    14  C   -0.632628
 Electronic spatial extent (au):  <R**2>=           3132.4242
 Charge=              0.0000 electrons
 Dipole moment (field-independent basis, Debye):
    X=              7.4346    Y=             -0.2678    Z=              5.4426  Tot=              9.2177
 Quadrupole moment (field-independent basis, Debye-Ang):
   XX=            -89.8622   YY=            -85.6534   ZZ=            -88.1250
   XY=              4.7067   XZ=            -13.0119   YZ=             -4.7701
 Traceless Quadrupole moment (field-independent basis, Debye-Ang):
   XX=             -1.9820   YY=              2.2268   ZZ=             -0.2448
   XY=              4.7067   XZ=            -13.0119   YZ=             -4.7701
 Octapole moment (field-independent basis, Debye-Ang**2):
  XXX=            121.0106  YYY=             -6.3975  ZZZ=             20.1646  XYY=             22.0721
  XXY=            -11.1254  XXZ=             33.5627  XZZ=            -29.7935  YZZ=              0.3359
  YYZ=             10.5038  XYZ=             12.8481
 Hexadecapole moment (field-independent basis, Debye-Ang**3):
 XXXX=          -3137.0731 YYYY=           -641.2160 ZZZZ=           -199.1351 XXXY=             18.9526
 XXXZ=            -56.7172 YYYX=             26.2818 YYYZ=            -15.1195 ZZZX=            -52.3341
 ZZZY=            -11.8156 XXYY=           -617.4296 XXZZ=           -611.0827 YYZZ=           -158.2907
 XXYZ=            -25.7299 YYXZ=            -24.9003 ZZXY=              3.7847
 N-N= 1.011149855269D+03 E-N=-5.147166840333D+03  KE= 1.319336276033D+03
 D1PCM: PCM CHGder 1st derivatives, ID1Alg=3 FixD1E=F DoIter=F DoCFld=F I1PDM=0.
 Calling FoFJK, ICntrl=      2127 FMM=F ISym2X=0 I1Cent= 0 IOpClX= 0 NMat=1 NMatS=1 NMatT=0.
 ***** Axes restored to original set *****
 -------------------------------------------------------------------
 Center     Atomic                   Forces (Hartrees/Bohr)
 Number     Number              X              Y              Z
 -------------------------------------------------------------------
      1        6          -0.000013327    0.000016077    0.000028273
      2        6          -0.000010497    0.000050518   -0.000010163
      3       16           0.000024024   -0.000048462    0.000026746
      4       16           0.000030176    0.000001586    0.000016053
      5        8          -0.000010095    0.000022792    0.000007202
      6        8           0.000023535   -0.000009850   -0.000010500
      7        7           0.000019569    0.000042187    0.000009018
      8        1          -0.000008259    0.000009748   -0.000003023
      9        7           0.000024279   -0.000020052   -0.000012490
     10        6          -0.000059741   -0.000012457    0.000003678
     11        6           0.000015478   -0.000011776    0.000017996
     12        6          -0.000006972    0.000006671   -0.000000682
     13        6          -0.000011424   -0.000013491   -0.000008151
     14        6           0.000011298   -0.000006501   -0.000008607
     15        1          -0.000018570   -0.000002517   -0.000029048
     16        1           0.000004646   -0.000000649    0.000014795
     17        1          -0.000000533   -0.000004625    0.000002461
     18        1          -0.000005837   -0.000010174   -0.000017655
     19        1          -0.000007751   -0.000009025   -0.000025904
 -------------------------------------------------------------------
 Cartesian Forces:  Max     0.000059741 RMS     0.000019508

 GradGradGradGradGradGradGradGradGradGradGradGradGradGradGradGradGradGrad
 Berny optimization.
 FormGI is forming the generalized inverse of G from B-inverse, IUseBI=4.
 Internal  Forces:  Max     0.000049200 RMS     0.000012398
 Search for a local minimum.
 Step number   1 out of a maximum of  106
 All quantities printed in internal units (Hartrees-Bohrs-Radians)
 Mixed Optimization -- En-DIIS/RFO-DIIS
 Second derivative matrix not updated -- first step.
 ITU=  0
     Eigenvalues ---    0.00505   0.01204   0.01692   0.01859   0.01988
     Eigenvalues ---    0.02072   0.02108   0.02136   0.02143   0.02183
     Eigenvalues ---    0.02190   0.02213   0.02350   0.04411   0.09670
     Eigenvalues ---    0.10642   0.14007   0.16000   0.16000   0.16000
     Eigenvalues ---    0.16000   0.16000   0.16000   0.19681   0.22000
     Eigenvalues ---    0.22592   0.24511   0.24995   0.24998   0.25000
     Eigenvalues ---    0.25000   0.26937   0.30642   0.30971   0.35328
     Eigenvalues ---    0.35332   0.35348   0.35377   0.38962   0.42345
     Eigenvalues ---    0.43456   0.43941   0.43972   0.44851   0.45250
     Eigenvalues ---    0.46414   0.47066   0.47807   0.68223   0.92202
     Eigenvalues ---    0.93200
 RFO step:  Lambda=-7.89596178D-08 EMin= 5.05305793D-03
 Linear search not attempted -- first point.
 Iteration  1 RMS(Cart)=  0.00039900 RMS(Int)=  0.00000007
 Iteration  2 RMS(Cart)=  0.00000010 RMS(Int)=  0.00000001
 Variable       Old X    -DE/DX   Delta X   Delta X   Delta X     New X
                                 (Linear)    (Quad)   (Total)
    R1        3.28668   0.00002   0.00000   0.00005   0.00005   3.28674
    R2        3.38222   0.00002   0.00000   0.00008   0.00008   3.38230
    R3        2.42783  -0.00001   0.00000  -0.00001  -0.00001   2.42781
    R4        3.29171   0.00005   0.00000   0.00016   0.00016   3.29186
    R5        2.66487  -0.00002   0.00000  -0.00006  -0.00006   2.66481
    R6        2.64320  -0.00000   0.00000  -0.00001  -0.00001   2.64319
    R7        2.75634  -0.00002   0.00000  -0.00002  -0.00002   2.75632
    R8        2.75192   0.00002   0.00000   0.00002   0.00002   2.75194
    R9        3.09149  -0.00002   0.00000  -0.00004  -0.00004   3.09145
   R10        1.93189   0.00000   0.00000   0.00001   0.00001   1.93189
   R11        1.93225  -0.00002   0.00000  -0.00004  -0.00004   1.93221
   R12        2.62261   0.00002   0.00000   0.00005   0.00005   2.62266
   R13        2.65001  -0.00001   0.00000  -0.00002  -0.00002   2.64999
   R14        2.62083   0.00001   0.00000   0.00003   0.00003   2.62086
   R15        2.05067  -0.00000   0.00000  -0.00000  -0.00000   2.05067
   R16        2.66285  -0.00001   0.00000  -0.00001  -0.00001   2.66284
   R17        2.05145  -0.00000   0.00000  -0.00000  -0.00000   2.05145
   R18        2.61526   0.00000   0.00000   0.00001   0.00001   2.61527
   R19        2.05114  -0.00000   0.00000  -0.00000  -0.00000   2.05114
   R20        2.05140   0.00000   0.00000   0.00000   0.00000   2.05140
    A1        2.09686   0.00001   0.00000   0.00004   0.00004   2.09689
    A2        2.06834   0.00000   0.00000   0.00000   0.00000   2.06834
    A3        2.11768  -0.00001   0.00000  -0.00004  -0.00004   2.11765
    A4        1.91770   0.00001   0.00000   0.00003   0.00003   1.91773
    A5        2.24456  -0.00000   0.00000  -0.00000  -0.00000   2.24455
    A6        2.12092  -0.00000   0.00000  -0.00002  -0.00002   2.12090
    A7        1.52633  -0.00001   0.00000  -0.00004  -0.00004   1.52629
    A8        1.83901  -0.00001   0.00000  -0.00011  -0.00011   1.83891
    A9        1.87874   0.00004   0.00000   0.00020   0.00020   1.87894
   A10        1.88507  -0.00004   0.00000  -0.00019  -0.00019   1.88489
   A11        2.10647  -0.00001   0.00000  -0.00003  -0.00003   2.10644
   A12        1.87619   0.00003   0.00000   0.00010   0.00010   1.87629
   A13        1.86929  -0.00000   0.00000  -0.00000  -0.00000   1.86929
   A14        1.96948  -0.00002   0.00000  -0.00018  -0.00018   1.96930
   A15        1.96968  -0.00004   0.00000  -0.00028  -0.00028   1.96940
   A16        1.95082   0.00002   0.00000   0.00007   0.00007   1.95088
   A17        1.91085   0.00001   0.00000   0.00004   0.00004   1.91089
   A18        2.00155  -0.00001   0.00000  -0.00003  -0.00003   2.00152
   A19        2.09693   0.00001   0.00000   0.00005   0.00005   2.09698
   A20        2.18470  -0.00001   0.00000  -0.00002  -0.00002   2.18468
   A21        2.05100   0.00000   0.00000   0.00000   0.00000   2.05101
   A22        2.11726   0.00000   0.00000  -0.00000  -0.00000   2.11726
   A23        2.11492  -0.00000   0.00000  -0.00000  -0.00000   2.11492
   A24        2.11918  -0.00000   0.00000  -0.00000  -0.00000   2.11918
   A25        2.08012   0.00000   0.00000   0.00002   0.00002   2.08014
   A26        2.08389  -0.00000   0.00000  -0.00001  -0.00001   2.08387
   A27        2.11257  -0.00000   0.00000  -0.00001  -0.00001   2.11256
   A28        2.08243   0.00000   0.00000   0.00001   0.00001   2.08244
   A29        2.08819   0.00000   0.00000  -0.00000  -0.00000   2.08819
   A30        2.06576  -0.00000   0.00000  -0.00002  -0.00002   2.06574
   A31        2.09158   0.00000   0.00000   0.00001   0.00001   2.09159
   A32        2.12585   0.00000   0.00000   0.00001   0.00001   2.12585
    D1        3.11894  -0.00001   0.00000  -0.00031  -0.00031   3.11863
    D2        0.00322  -0.00000   0.00000  -0.00016  -0.00016   0.00306
    D3        0.06003   0.00000   0.00000   0.00036   0.00036   0.06039
    D4        2.32909   0.00001   0.00000   0.00038   0.00038   2.32948
    D5       -1.94115  -0.00000   0.00000   0.00038   0.00038  -1.94076
    D6       -3.10819   0.00000   0.00000   0.00021   0.00021  -3.10798
    D7       -0.83912   0.00000   0.00000   0.00023   0.00023  -0.83889
    D8        1.17382  -0.00000   0.00000   0.00023   0.00023   1.17405
    D9       -0.00325   0.00000   0.00000   0.00016   0.00016  -0.00309
   D10       -3.11864   0.00001   0.00000   0.00031   0.00031  -3.11833
   D11       -0.00204   0.00000   0.00000   0.00011   0.00011  -0.00194
   D12        3.13724   0.00000   0.00000   0.00022   0.00022   3.13746
   D13        0.00084  -0.00000   0.00000  -0.00005  -0.00005   0.00079
   D14       -3.14082   0.00000   0.00000   0.00009   0.00009  -3.14073
   D15       -3.13864  -0.00000   0.00000  -0.00015  -0.00015  -3.13879
   D16        0.00289  -0.00000   0.00000  -0.00001  -0.00001   0.00287
   D17        3.14067  -0.00000   0.00000  -0.00012  -0.00012   3.14055
   D18        0.00080  -0.00000   0.00000  -0.00016  -0.00016   0.00064
   D19       -0.00347  -0.00000   0.00000   0.00001   0.00001  -0.00346
   D20        3.13985  -0.00000   0.00000  -0.00004  -0.00004   3.13981
   D21        1.08148  -0.00002   0.00000  -0.00017  -0.00017   1.08131
   D22       -1.15087  -0.00001   0.00000   0.00014   0.00014  -1.15073
   D23       -0.89501   0.00000   0.00000  -0.00001  -0.00001  -0.89501
   D24       -3.12736   0.00002   0.00000   0.00030   0.00030  -3.12706
   D25        3.10062   0.00000   0.00000  -0.00004  -0.00004   3.10059
   D26        0.86827   0.00001   0.00000   0.00027   0.00027   0.86854
   D27        0.00143  -0.00000   0.00000  -0.00007  -0.00007   0.00136
   D28       -3.14009  -0.00000   0.00000  -0.00021  -0.00021  -3.14030
   D29       -0.00030   0.00000   0.00000   0.00001   0.00001  -0.00030
   D30        3.14066   0.00000   0.00000   0.00004   0.00004   3.14071
   D31        3.14122   0.00000   0.00000   0.00016   0.00016   3.14137
   D32       -0.00101   0.00000   0.00000   0.00019   0.00019  -0.00081
   D33        0.00160   0.00000   0.00000   0.00000   0.00000   0.00160
   D34       -3.13965  -0.00000   0.00000  -0.00001  -0.00001  -3.13966
   D35        3.14146   0.00000   0.00000   0.00005   0.00005   3.14151
   D36        0.00021   0.00000   0.00000   0.00004   0.00004   0.00026
   D37        0.00091  -0.00000   0.00000  -0.00001  -0.00001   0.00090
   D38       -3.14121  -0.00000   0.00000  -0.00001  -0.00001  -3.14122
   D39       -3.14103   0.00000   0.00000  -0.00000  -0.00000  -3.14103
   D40        0.00004  -0.00000   0.00000   0.00000   0.00000   0.00004
   D41       -0.00155  -0.00000   0.00000   0.00001   0.00001  -0.00154
   D42        3.14069  -0.00000   0.00000  -0.00003  -0.00003   3.14065
   D43        3.14057   0.00000   0.00000   0.00000   0.00000   3.14057
   D44       -0.00038  -0.00000   0.00000  -0.00003  -0.00003  -0.00042
         Item               Value     Threshold  Converged?
 Maximum Force            0.000049     0.000450     YES
 RMS     Force            0.000012     0.000300     YES
 Maximum Displacement     0.001744     0.001800     YES
 RMS     Displacement     0.000399     0.001200     YES
 Predicted change in Energy=-3.947805D-08
 Optimization completed.
    -- Stationary point found.
                           ----------------------------
                           !   Optimized Parameters   !
                           ! (Angstroms and Degrees)  !
 --------------------------                            --------------------------
 ! Name  Definition              Value          Derivative Info.                !
 --------------------------------------------------------------------------------
 ! R1    R(1,3)                  1.7392         -DE/DX =    0.0                 !
 ! R2    R(1,4)                  1.7898         -DE/DX =    0.0                 !
 ! R3    R(1,9)                  1.2848         -DE/DX =    0.0                 !
 ! R4    R(2,3)                  1.7419         -DE/DX =    0.0                 !
 ! R5    R(2,10)                 1.4102         -DE/DX =    0.0                 !
 ! R6    R(2,11)                 1.3987         -DE/DX =    0.0                 !
 ! R7    R(4,5)                  1.4586         -DE/DX =    0.0                 !
 ! R8    R(4,6)                  1.4563         -DE/DX =    0.0                 !
 ! R9    R(4,7)                  1.6359         -DE/DX =    0.0                 !
 ! R10   R(7,8)                  1.0223         -DE/DX =    0.0                 !
 ! R11   R(7,15)                 1.0225         -DE/DX =    0.0                 !
 ! R12   R(9,10)                 1.3878         -DE/DX =    0.0                 !
 ! R13   R(10,14)                1.4023         -DE/DX =    0.0                 !
 ! R14   R(11,12)                1.3869         -DE/DX =    0.0                 !
 ! R15   R(11,16)                1.0852         -DE/DX =    0.0                 !
 ! R16   R(12,13)                1.4091         -DE/DX =    0.0                 !
 ! R17   R(12,17)                1.0856         -DE/DX =    0.0                 !
 ! R18   R(13,14)                1.3839         -DE/DX =    0.0                 !
 ! R19   R(13,18)                1.0854         -DE/DX =    0.0                 !
 ! R20   R(14,19)                1.0856         -DE/DX =    0.0                 !
 ! A1    A(3,1,4)              120.1412         -DE/DX =    0.0                 !
 ! A2    A(3,1,9)              118.5074         -DE/DX =    0.0                 !
 ! A3    A(4,1,9)              121.3344         -DE/DX =    0.0                 !
 ! A4    A(3,2,10)             109.8763         -DE/DX =    0.0                 !
 ! A5    A(3,2,11)             128.6037         -DE/DX =    0.0                 !
 ! A6    A(10,2,11)            121.5199         -DE/DX =    0.0                 !
 ! A7    A(1,3,2)               87.452          -DE/DX =    0.0                 !
 ! A8    A(1,4,5)              105.3678         -DE/DX =    0.0                 !
 ! A9    A(1,4,6)              107.6439         -DE/DX =    0.0                 !
 ! A10   A(1,4,7)              108.0067         -DE/DX =    0.0                 !
 ! A11   A(5,4,6)              120.6918         -DE/DX =    0.0                 !
 ! A12   A(5,4,7)              107.498          -DE/DX =    0.0                 !
 ! A13   A(6,4,7)              107.1025         -DE/DX =    0.0                 !
 ! A14   A(4,7,8)              112.843          -DE/DX =    0.0                 !
 ! A15   A(4,7,15)             112.8543         -DE/DX =    0.0                 !
 ! A16   A(8,7,15)             111.7737         -DE/DX =    0.0                 !
 ! A17   A(1,9,10)             109.4837         -DE/DX =    0.0                 !
 ! A18   A(2,10,9)             114.6803         -DE/DX =    0.0                 !
 ! A19   A(2,10,14)            120.1455         -DE/DX =    0.0                 !
 ! A20   A(9,10,14)            125.1742         -DE/DX =    0.0                 !
 ! A21   A(2,11,12)            117.5138         -DE/DX =    0.0                 !
 ! A22   A(2,11,16)            121.3101         -DE/DX =    0.0                 !
 ! A23   A(12,11,16)           121.1761         -DE/DX =    0.0                 !
 ! A24   A(11,12,13)           121.42           -DE/DX =    0.0                 !
 ! A25   A(11,12,17)           119.182          -DE/DX =    0.0                 !
 ! A26   A(13,12,17)           119.3979         -DE/DX =    0.0                 !
 ! A27   A(12,13,14)           121.0412         -DE/DX =    0.0                 !
 ! A28   A(12,13,18)           119.3145         -DE/DX =    0.0                 !
 ! A29   A(14,13,18)           119.6443         -DE/DX =    0.0                 !
 ! A30   A(10,14,13)           118.3594         -DE/DX =    0.0                 !
 ! A31   A(10,14,19)           119.8386         -DE/DX =    0.0                 !
 ! A32   A(13,14,19)           121.802          -DE/DX =    0.0                 !
 ! D1    D(4,1,3,2)            178.7018         -DE/DX =    0.0                 !
 ! D2    D(9,1,3,2)              0.1846         -DE/DX =    0.0                 !
 ! D3    D(3,1,4,5)              3.4394         -DE/DX =    0.0                 !
 ! D4    D(3,1,4,6)            133.4473         -DE/DX =    0.0                 !
 ! D5    D(3,1,4,7)           -111.2197         -DE/DX =    0.0                 !
 ! D6    D(9,1,4,5)           -178.0861         -DE/DX =    0.0                 !
 ! D7    D(9,1,4,6)            -48.0782         -DE/DX =    0.0                 !
 ! D8    D(9,1,4,7)             67.2548         -DE/DX =    0.0                 !
 ! D9    D(3,1,9,10)            -0.1862         -DE/DX =    0.0                 !
 ! D10   D(4,1,9,10)          -178.6849         -DE/DX =    0.0                 !
 ! D11   D(10,2,3,1)            -0.117          -DE/DX =    0.0                 !
 ! D12   D(11,2,3,1)           179.7509         -DE/DX =    0.0                 !
 ! D13   D(3,2,10,9)             0.0481         -DE/DX =    0.0                 !
 ! D14   D(3,2,10,14)         -179.9558         -DE/DX =    0.0                 !
 ! D15   D(11,2,10,9)         -179.8308         -DE/DX =    0.0                 !
 ! D16   D(11,2,10,14)           0.1653         -DE/DX =    0.0                 !
 ! D17   D(3,2,11,12)          179.9469         -DE/DX =    0.0                 !
 ! D18   D(3,2,11,16)            0.046          -DE/DX =    0.0                 !
 ! D19   D(10,2,11,12)          -0.1988         -DE/DX =    0.0                 !
 ! D20   D(10,2,11,16)         179.9003         -DE/DX =    0.0                 !
 ! D21   D(1,4,7,8)             61.9645         -DE/DX =    0.0                 !
 ! D22   D(1,4,7,15)           -65.9398         -DE/DX =    0.0                 !
 ! D23   D(5,4,7,8)            -51.2801         -DE/DX =    0.0                 !
 ! D24   D(5,4,7,15)          -179.1844         -DE/DX =    0.0                 !
 ! D25   D(6,4,7,8)            177.6525         -DE/DX =    0.0                 !
 ! D26   D(6,4,7,15)            49.7482         -DE/DX =    0.0                 !
 ! D27   D(1,9,10,2)             0.0822         -DE/DX =    0.0                 !
 ! D28   D(1,9,10,14)         -179.9137         -DE/DX =    0.0                 !
 ! D29   D(2,10,14,13)          -0.0173         -DE/DX =    0.0                 !
 ! D30   D(2,10,14,19)         179.9467         -DE/DX =    0.0                 !
 ! D31   D(9,10,14,13)         179.9784         -DE/DX =    0.0                 !
 ! D32   D(9,10,14,19)          -0.0576         -DE/DX =    0.0                 !
 ! D33   D(2,11,12,13)           0.0915         -DE/DX =    0.0                 !
 ! D34   D(2,11,12,17)        -179.8888         -DE/DX =    0.0                 !
 ! D35   D(16,11,12,13)        179.9925         -DE/DX =    0.0                 !
 ! D36   D(16,11,12,17)          0.0122         -DE/DX =    0.0                 !
 ! D37   D(11,12,13,14)          0.052          -DE/DX =    0.0                 !
 ! D38   D(11,12,13,18)       -179.978          -DE/DX =    0.0                 !
 ! D39   D(17,12,13,14)       -179.9677         -DE/DX =    0.0                 !
 ! D40   D(17,12,13,18)          0.0023         -DE/DX =    0.0                 !
 ! D41   D(12,13,14,10)         -0.0888         -DE/DX =    0.0                 !
 ! D42   D(12,13,14,19)        179.948          -DE/DX =    0.0                 !
 ! D43   D(18,13,14,10)        179.9413         -DE/DX =    0.0                 !
 ! D44   D(18,13,14,19)         -0.0219         -DE/DX =    0.0                 !
 --------------------------------------------------------------------------------
 GradGradGradGradGradGradGradGradGradGradGradGradGradGradGradGradGradGrad

                          Input orientation:                          
 ---------------------------------------------------------------------
 Center     Atomic      Atomic             Coordinates (Angstroms)
 Number     Number       Type             X           Y           Z
 ---------------------------------------------------------------------
      1          6           0        1.109243    0.511688   -0.145535
      2          6           0       -1.266613    0.593799    0.226417
      3         16           0       -0.072047   -0.668854    0.340081
      4         16           0        2.834202    0.053945   -0.281000
      5          8           0        2.877785   -1.376555    0.000545
      6          8           0        3.332032    0.578213   -1.545114
      7          7           0        3.654663    0.815306    0.912101
      8          1           0        3.344836    0.538280    1.846115
      9          7           0        0.717163    1.713824   -0.372968
     10          6           0       -0.652880    1.800262   -0.169073
     11          6           0       -2.642352    0.517864    0.467238
     12          6           0       -3.385829    1.677591    0.306853
     13          6           0       -2.782125    2.888780   -0.085814
     14          6           0       -1.421344    2.962618   -0.326871
     15          1           0        3.664032    1.831771    0.801546
     16          1           0       -3.111354   -0.412738    0.769906
     17          1           0       -4.455747    1.649801    0.488491
     18          1           0       -3.396623    3.776094   -0.200698
     19          1           0       -0.943612    3.888852   -0.630662
 ---------------------------------------------------------------------
                    Distance matrix (angstroms):
                    1          2          3          4          5
     1  C    0.000000
     2  C    2.406197   0.000000
     3  S    1.739238   1.741896   0.000000
     4  S    1.789794   4.167205   3.058507   0.000000
     5  O    2.591243   4.594491   3.052480   1.458594   0.000000
     6  O    2.627554   4.928093   4.086183   1.456254   2.533085
     7  N    2.773074   4.973750   4.051951   1.635945   2.497745
     8  H    2.994203   4.887941   3.924334   2.240524   2.700159
     9  N    1.284750   2.355650   2.609300   2.691749   3.789227
    10  C    2.183130   1.410189   2.587110   3.901524   4.752529
    11  C    3.801315   1.398720   2.833891   5.546866   5.854788
    12  C    4.665797   2.381628   4.060549   6.455276   6.975277
    13  C    4.560359   2.767888   4.492513   6.294245   7.087674
    14  C    3.527579   2.437493   3.931032   5.154819   6.117036
    15  H    3.027628   5.116113   4.519332   2.240801   3.398991
    16  H    4.416564   2.170614   3.080216   6.055727   6.114789
    17  H    5.715453   3.369629   4.961352   7.502148   7.948435
    18  H    5.564370   3.853099   5.576989   7.258376   8.121483
    19  H    3.981808   3.419984   4.740744   5.394502   6.536513
                    6          7          8          9         10
     6  O    0.000000
     7  N    2.489620   0.000000
     8  H    3.391488   1.022310   0.000000
     9  N    3.082382   3.329811   3.634680   0.000000
    10  C    4.389353   4.549066   4.651378   1.387827   0.000000
    11  C    6.304480   6.319713   6.143951   3.663688   2.451007
    12  C    7.054649   7.118875   6.997800   4.159088   2.776790
    13  C    6.697103   6.835742   6.840822   3.702431   2.392799
    14  C    5.455647   5.649057   5.771980   2.476858   1.402323
    15  H    2.681128   1.022502   1.692965   3.174497   4.424796
    16  H    6.917986   6.878030   6.614004   4.526143   3.438480
    17  H    8.119935   8.164225   7.995481   5.244541   3.862231
    18  H    7.570251   7.728209   7.753719   4.604983   3.381278
    19  H    5.484313   5.742032   5.979259   2.748695   2.158656
                   11         12         13         14         15
    11  C    0.000000
    12  C    1.386884   0.000000
    13  C    2.438575   1.409122   0.000000
    14  C    2.845750   2.431481   1.383938   0.000000
    15  H    6.450472   7.068878   6.592239   5.330402   0.000000
    16  H    1.085169   2.158525   3.426466   3.930914   7.137554
    17  H    2.137787   1.085582   2.160071   3.405276   8.127849
    18  H    3.410444   2.159037   1.085418   2.139951   7.391734
    19  H    3.931242   3.425352   2.162668   1.085553   5.245301
                   16         17         18         19
    16  H    0.000000
    17  H    2.478034   0.000000
    18  H    4.309265   2.473428   0.000000
    19  H    5.016410   4.312881   2.492959   0.000000
 Stoichiometry    C7H6N2O2S2
 Framework group  C1[X(C7H6N2O2S2)]
 Deg. of freedom    51
 Full point group                 C1      NOp   1
 Largest Abelian subgroup         C1      NOp   1
 Largest concise Abelian subgroup C1      NOp   1
                         Standard orientation:                         
 ---------------------------------------------------------------------
 Center     Atomic      Atomic             Coordinates (Angstroms)
 Number     Number       Type             X           Y           Z
 ---------------------------------------------------------------------
      1          6           0       -0.661330   -0.022283   -0.083120
      2          6           0        1.639456    0.676637    0.004482
      3         16           0        0.120904    1.529712   -0.017022
      4         16           0       -2.447873   -0.128084   -0.103976
      5          8           0       -2.916468    1.252704   -0.140596
      6          8           0       -2.822173   -1.068072   -1.151353
      7          7           0       -2.932833   -0.774540    1.318425
      8          1           0       -2.677338   -0.198810    2.123643
      9          7           0        0.070572   -1.078165   -0.086927
     10          6           0        1.408854   -0.713918   -0.038071
     11          6           0        2.934907    1.201900    0.052690
     12          6           0        3.990877    0.302846    0.061496
     13          6           0        3.771401   -1.088504    0.021488
     14          6           0        2.489500   -1.607582   -0.029238
     15          1           0       -2.633714   -1.745217    1.436001
     16          1           0        3.108483    2.272647    0.083736
     17          1           0        5.007717    0.681017    0.100391
     18          1           0        4.623093   -1.761316    0.030219
     19          1           0        2.306228   -2.677074   -0.061263
 ---------------------------------------------------------------------
 Rotational constants (GHZ):           1.7381130           0.3870761           0.3390917
 Unable to Open any file for archive entry.
 1\1\GINC-GADI-CPU-CLX-0971\FOpt\RM062X\Gen\C7H6N2O2S2\YJ5695\23-Jun-20
 22\0\\#m062X/gen 6D OPT Freq=noraman SCRF=(SMD,Solvent=h2o)\\HA.49.smd
 .a1.smd\\0,1\C,1.109243,0.511688,-0.145535\C,-1.266613,0.593799,0.2264
 17\S,-0.072047,-0.668854,0.340081\S,2.834202,0.053945,-0.281\O,2.87778
 5,-1.376555,0.000545\O,3.332032,0.578213,-1.545114\N,3.654663,0.815306
 ,0.912101\H,3.344836,0.53828,1.846115\N,0.717163,1.713824,-0.372968\C,
 -0.65288,1.800262,-0.169073\C,-2.642352,0.517864,0.467238\C,-3.385829,
 1.677591,0.306853\C,-2.782125,2.88878,-0.085814\C,-1.421344,2.962618,-
 0.326871\H,3.664032,1.831771,0.801546\H,-3.111354,-0.412738,0.769906\H
 ,-4.455747,1.649801,0.488491\H,-3.396623,3.776094,-0.200698\H,-0.94361
 2,3.888852,-0.630662\\Version=ES64L-G16RevC.01\State=1-A\HF=-1326.3805
 33\RMSD=9.084e-09\RMSF=1.951e-05\Dipole=-2.4864499,1.4704372,2.1925279
 \Quadrupole=3.212462,-0.5978082,-2.6146537,5.9141734,8.7766498,-0.3444
 917\PG=C01 [X(C7H6N2O2S2)]\\@
 The archive entry for this job was punched.


 THEORY:  SUPPOSITION WHICH HAS SCIENTIFIC BASIS,
          BUT NOT EXPERIMENTALLY PROVEN.
 FACT:    A THEORY WHICH HAS BEEN PROVEN BY ENOUGH 
          MONEY TO PAY FOR THE EXPERIMENTS.

                          --  THE WIZARD OF ID
 Job cpu time:       0 days  0 hours 10 minutes 36.9 seconds.
 Elapsed time:       0 days  0 hours  0 minutes 40.9 seconds.
 File lengths (MBytes):  RWF=     91 Int=      0 D2E=      0 Chk=      8 Scr=      1
 Normal termination of Gaussian 16 at Thu Jun 23 14:41:13 2022.
 Link1:  Proceeding to internal job step number  2.
 ------------------------------------------------------------------
 #N Geom=AllCheck Guess=TCheck SCRF=Check GenChk RM062X/ChkBas Freq
 ------------------------------------------------------------------
 1/10=4,29=7,30=1,38=1,40=1/1,3;
 2/12=2,40=1/2;
 3/5=7,6=2,8=2,11=2,14=-4,25=1,30=1,67=1,70=2,71=2,74=-55,82=7,116=1,140=1/1,2,3;
 4/5=101/1;
 5/5=2,38=6,98=1/2;
 8/6=4,10=90,11=11/1;
 11/6=1,8=1,9=11,15=111,16=1/1,2,10;
 10/6=1/2;
 6/7=2,8=2,9=2,10=2,28=1/1;
 7/8=1,10=1,25=1/1,2,3,16;
 1/10=4,30=1/3;
 99//99;
 Structure from the checkpoint file:  "/jobfs/45187864.gadi-pbs/Gau-1782163.chk"
 ----------------
 HA.49.smd.a1.smd
 ----------------
 Charge =  0 Multiplicity = 1
 Redundant internal coordinates found in file.  (old form).
 C,0,1.109243,0.511688,-0.145535
 C,0,-1.266613,0.593799,0.226417
 S,0,-0.072047,-0.668854,0.340081
 S,0,2.834202,0.053945,-0.281
 O,0,2.877785,-1.376555,0.000545
 O,0,3.332032,0.578213,-1.545114
 N,0,3.654663,0.815306,0.912101
 H,0,3.344836,0.53828,1.846115
 N,0,0.717163,1.713824,-0.372968
 C,0,-0.65288,1.800262,-0.169073
 C,0,-2.642352,0.517864,0.467238
 C,0,-3.385829,1.677591,0.306853
 C,0,-2.782125,2.88878,-0.085814
 C,0,-1.421344,2.962618,-0.326871
 H,0,3.664032,1.831771,0.801546
 H,0,-3.111354,-0.412738,0.769906
 H,0,-4.455747,1.649801,0.488491
 H,0,-3.396623,3.776094,-0.200698
 H,0,-0.943612,3.888852,-0.630662
 Recover connectivity data from disk.

 GradGradGradGradGradGradGradGradGradGradGradGradGradGradGradGradGradGrad
 Berny optimization.
 Initialization pass.
                           ----------------------------
                           !    Initial Parameters    !
                           ! (Angstroms and Degrees)  !
 --------------------------                            --------------------------
 ! Name  Definition              Value          Derivative Info.                !
 --------------------------------------------------------------------------------
 ! R1    R(1,3)                  1.7392         calculate D2E/DX2 analytically  !
 ! R2    R(1,4)                  1.7898         calculate D2E/DX2 analytically  !
 ! R3    R(1,9)                  1.2848         calculate D2E/DX2 analytically  !
 ! R4    R(2,3)                  1.7419         calculate D2E/DX2 analytically  !
 ! R5    R(2,10)                 1.4102         calculate D2E/DX2 analytically  !
 ! R6    R(2,11)                 1.3987         calculate D2E/DX2 analytically  !
 ! R7    R(4,5)                  1.4586         calculate D2E/DX2 analytically  !
 ! R8    R(4,6)                  1.4563         calculate D2E/DX2 analytically  !
 ! R9    R(4,7)                  1.6359         calculate D2E/DX2 analytically  !
 ! R10   R(7,8)                  1.0223         calculate D2E/DX2 analytically  !
 ! R11   R(7,15)                 1.0225         calculate D2E/DX2 analytically  !
 ! R12   R(9,10)                 1.3878         calculate D2E/DX2 analytically  !
 ! R13   R(10,14)                1.4023         calculate D2E/DX2 analytically  !
 ! R14   R(11,12)                1.3869         calculate D2E/DX2 analytically  !
 ! R15   R(11,16)                1.0852         calculate D2E/DX2 analytically  !
 ! R16   R(12,13)                1.4091         calculate D2E/DX2 analytically  !
 ! R17   R(12,17)                1.0856         calculate D2E/DX2 analytically  !
 ! R18   R(13,14)                1.3839         calculate D2E/DX2 analytically  !
 ! R19   R(13,18)                1.0854         calculate D2E/DX2 analytically  !
 ! R20   R(14,19)                1.0856         calculate D2E/DX2 analytically  !
 ! A1    A(3,1,4)              120.1412         calculate D2E/DX2 analytically  !
 ! A2    A(3,1,9)              118.5074         calculate D2E/DX2 analytically  !
 ! A3    A(4,1,9)              121.3344         calculate D2E/DX2 analytically  !
 ! A4    A(3,2,10)             109.8763         calculate D2E/DX2 analytically  !
 ! A5    A(3,2,11)             128.6037         calculate D2E/DX2 analytically  !
 ! A6    A(10,2,11)            121.5199         calculate D2E/DX2 analytically  !
 ! A7    A(1,3,2)               87.452          calculate D2E/DX2 analytically  !
 ! A8    A(1,4,5)              105.3678         calculate D2E/DX2 analytically  !
 ! A9    A(1,4,6)              107.6439         calculate D2E/DX2 analytically  !
 ! A10   A(1,4,7)              108.0067         calculate D2E/DX2 analytically  !
 ! A11   A(5,4,6)              120.6918         calculate D2E/DX2 analytically  !
 ! A12   A(5,4,7)              107.498          calculate D2E/DX2 analytically  !
 ! A13   A(6,4,7)              107.1025         calculate D2E/DX2 analytically  !
 ! A14   A(4,7,8)              112.843          calculate D2E/DX2 analytically  !
 ! A15   A(4,7,15)             112.8543         calculate D2E/DX2 analytically  !
 ! A16   A(8,7,15)             111.7737         calculate D2E/DX2 analytically  !
 ! A17   A(1,9,10)             109.4837         calculate D2E/DX2 analytically  !
 ! A18   A(2,10,9)             114.6803         calculate D2E/DX2 analytically  !
 ! A19   A(2,10,14)            120.1455         calculate D2E/DX2 analytically  !
 ! A20   A(9,10,14)            125.1742         calculate D2E/DX2 analytically  !
 ! A21   A(2,11,12)            117.5138         calculate D2E/DX2 analytically  !
 ! A22   A(2,11,16)            121.3101         calculate D2E/DX2 analytically  !
 ! A23   A(12,11,16)           121.1761         calculate D2E/DX2 analytically  !
 ! A24   A(11,12,13)           121.42           calculate D2E/DX2 analytically  !
 ! A25   A(11,12,17)           119.182          calculate D2E/DX2 analytically  !
 ! A26   A(13,12,17)           119.3979         calculate D2E/DX2 analytically  !
 ! A27   A(12,13,14)           121.0412         calculate D2E/DX2 analytically  !
 ! A28   A(12,13,18)           119.3145         calculate D2E/DX2 analytically  !
 ! A29   A(14,13,18)           119.6443         calculate D2E/DX2 analytically  !
 ! A30   A(10,14,13)           118.3594         calculate D2E/DX2 analytically  !
 ! A31   A(10,14,19)           119.8386         calculate D2E/DX2 analytically  !
 ! A32   A(13,14,19)           121.802          calculate D2E/DX2 analytically  !
 ! D1    D(4,1,3,2)            178.7018         calculate D2E/DX2 analytically  !
 ! D2    D(9,1,3,2)              0.1846         calculate D2E/DX2 analytically  !
 ! D3    D(3,1,4,5)              3.4394         calculate D2E/DX2 analytically  !
 ! D4    D(3,1,4,6)            133.4473         calculate D2E/DX2 analytically  !
 ! D5    D(3,1,4,7)           -111.2197         calculate D2E/DX2 analytically  !
 ! D6    D(9,1,4,5)           -178.0861         calculate D2E/DX2 analytically  !
 ! D7    D(9,1,4,6)            -48.0782         calculate D2E/DX2 analytically  !
 ! D8    D(9,1,4,7)             67.2548         calculate D2E/DX2 analytically  !
 ! D9    D(3,1,9,10)            -0.1862         calculate D2E/DX2 analytically  !
 ! D10   D(4,1,9,10)          -178.6849         calculate D2E/DX2 analytically  !
 ! D11   D(10,2,3,1)            -0.117          calculate D2E/DX2 analytically  !
 ! D12   D(11,2,3,1)           179.7509         calculate D2E/DX2 analytically  !
 ! D13   D(3,2,10,9)             0.0481         calculate D2E/DX2 analytically  !
 ! D14   D(3,2,10,14)         -179.9558         calculate D2E/DX2 analytically  !
 ! D15   D(11,2,10,9)         -179.8308         calculate D2E/DX2 analytically  !
 ! D16   D(11,2,10,14)           0.1653         calculate D2E/DX2 analytically  !
 ! D17   D(3,2,11,12)          179.9469         calculate D2E/DX2 analytically  !
 ! D18   D(3,2,11,16)            0.046          calculate D2E/DX2 analytically  !
 ! D19   D(10,2,11,12)          -0.1988         calculate D2E/DX2 analytically  !
 ! D20   D(10,2,11,16)         179.9003         calculate D2E/DX2 analytically  !
 ! D21   D(1,4,7,8)             61.9645         calculate D2E/DX2 analytically  !
 ! D22   D(1,4,7,15)           -65.9398         calculate D2E/DX2 analytically  !
 ! D23   D(5,4,7,8)            -51.2801         calculate D2E/DX2 analytically  !
 ! D24   D(5,4,7,15)          -179.1844         calculate D2E/DX2 analytically  !
 ! D25   D(6,4,7,8)            177.6525         calculate D2E/DX2 analytically  !
 ! D26   D(6,4,7,15)            49.7482         calculate D2E/DX2 analytically  !
 ! D27   D(1,9,10,2)             0.0822         calculate D2E/DX2 analytically  !
 ! D28   D(1,9,10,14)         -179.9137         calculate D2E/DX2 analytically  !
 ! D29   D(2,10,14,13)          -0.0173         calculate D2E/DX2 analytically  !
 ! D30   D(2,10,14,19)         179.9467         calculate D2E/DX2 analytically  !
 ! D31   D(9,10,14,13)         179.9784         calculate D2E/DX2 analytically  !
 ! D32   D(9,10,14,19)          -0.0576         calculate D2E/DX2 analytically  !
 ! D33   D(2,11,12,13)           0.0915         calculate D2E/DX2 analytically  !
 ! D34   D(2,11,12,17)        -179.8888         calculate D2E/DX2 analytically  !
 ! D35   D(16,11,12,13)        179.9925         calculate D2E/DX2 analytically  !
 ! D36   D(16,11,12,17)          0.0122         calculate D2E/DX2 analytically  !
 ! D37   D(11,12,13,14)          0.052          calculate D2E/DX2 analytically  !
 ! D38   D(11,12,13,18)       -179.978          calculate D2E/DX2 analytically  !
 ! D39   D(17,12,13,14)       -179.9677         calculate D2E/DX2 analytically  !
 ! D40   D(17,12,13,18)          0.0023         calculate D2E/DX2 analytically  !
 ! D41   D(12,13,14,10)         -0.0888         calculate D2E/DX2 analytically  !
 ! D42   D(12,13,14,19)        179.948          calculate D2E/DX2 analytically  !
 ! D43   D(18,13,14,10)        179.9413         calculate D2E/DX2 analytically  !
 ! D44   D(18,13,14,19)         -0.0219         calculate D2E/DX2 analytically  !
 --------------------------------------------------------------------------------
 Trust Radius=3.00D-01 FncErr=1.00D-07 GrdErr=1.00D-07 EigMax=2.50D+02 EigMin=1.00D-04
 Number of steps in this run=      2 maximum allowed number of steps=      2.
 GradGradGradGradGradGradGradGradGradGradGradGradGradGradGradGradGradGrad

                          Input orientation:                          
 ---------------------------------------------------------------------
 Center     Atomic      Atomic             Coordinates (Angstroms)
 Number     Number       Type             X           Y           Z
 ---------------------------------------------------------------------
      1          6           0        1.109243    0.511688   -0.145535
      2          6           0       -1.266613    0.593799    0.226417
      3         16           0       -0.072047   -0.668854    0.340081
      4         16           0        2.834202    0.053945   -0.281000
      5          8           0        2.877785   -1.376555    0.000545
      6          8           0        3.332032    0.578213   -1.545114
      7          7           0        3.654663    0.815306    0.912101
      8          1           0        3.344836    0.538280    1.846115
      9          7           0        0.717163    1.713824   -0.372968
     10          6           0       -0.652880    1.800262   -0.169073
     11          6           0       -2.642352    0.517864    0.467238
     12          6           0       -3.385829    1.677591    0.306853
     13          6           0       -2.782125    2.888780   -0.085814
     14          6           0       -1.421344    2.962618   -0.326871
     15          1           0        3.664032    1.831771    0.801546
     16          1           0       -3.111354   -0.412738    0.769906
     17          1           0       -4.455747    1.649801    0.488491
     18          1           0       -3.396623    3.776094   -0.200698
     19          1           0       -0.943612    3.888852   -0.630662
 ---------------------------------------------------------------------
                    Distance matrix (angstroms):
                    1          2          3          4          5
     1  C    0.000000
     2  C    2.406197   0.000000
     3  S    1.739238   1.741896   0.000000
     4  S    1.789794   4.167205   3.058507   0.000000
     5  O    2.591243   4.594491   3.052480   1.458594   0.000000
     6  O    2.627554   4.928093   4.086183   1.456254   2.533085
     7  N    2.773074   4.973750   4.051951   1.635945   2.497745
     8  H    2.994203   4.887941   3.924334   2.240524   2.700159
     9  N    1.284750   2.355650   2.609300   2.691749   3.789227
[...]
 5117,0.06797069,0.87586976,0.01280091,-0.00013435,-0.04685031,0.000692
 25,0.00126774,0.00039764,0.00602128,-0.00100808,-0.00103725,-0.0897854
 4,-0.18132133,0.76634469,0.00659079,0.02911169,-0.00464980,0.00044221,
 -0.00023502,0.00008429,-0.00014113,0.00100623,-0.00032875,-0.08084971,
 0.02556553,-0.00255515,0.06412474,-0.01350731,-0.02027551,0.00641608,0
 .00243133,-0.00104658,-0.00009001,0.00190609,-0.00044612,-0.00047339,0
 .01788162,-0.53523308,0.09384111,-0.02040730,0.60371099,0.00236605,0.0
 0170887,0.00677231,-0.00072636,0.00048456,0.00057437,-0.00082816,0.000
 01792,-0.00093167,-0.00326433,0.08990035,-0.09150040,0.00517856,-0.100
 70978,0.07745796,-0.00331847,-0.00904587,0.02460866,-0.00274718,-0.000
 19838,0.00028868,-0.00217938,0.00351942,0.00113001,-0.13507426,-0.0627
 0020,0.15502727,0.01423971,0.00215935,0.00190279,0.12305118,0.00410816
 ,0.00551864,0.00113579,0.00048892,0.00025043,-0.00017108,0.00075099,-0
 .00000441,-0.00016388,-0.05874822,-0.13954851,0.15007400,-0.01426024,-
 0.01065497,0.03581359,0.06883335,0.12899751,-0.00123819,0.01135554,-0.
 00737183,0.00148538,0.00100240,-0.00054178,0.00194565,-0.00358056,-0.0
 0020729,0.14318188,0.15608334,-0.43922787,0.00700444,0.00117708,-0.002
 28266,-0.16567819,-0.17454390,0.49235672,-0.00768954,-0.01066990,-0.01
 994270,-0.00245632,0.00105539,0.00065164,-0.00152028,0.00150034,-0.002
 02843,-0.09224817,-0.03906679,-0.04586885,0.00446450,-0.00077421,-0.00
 265821,0.00855150,0.00175088,0.01332631,0.15555669,0.00382739,0.004584
 16,-0.00273111,0.00019940,0.00018950,0.00008447,0.00067177,-0.00017734
 ,-0.00000531,-0.05862464,-0.12202344,-0.04882935,-0.02308324,-0.034948
 90,-0.02837576,0.00136496,0.01068826,0.01464487,0.11191406,0.65098185,
 -0.00078665,-0.00737965,0.00091452,-0.00109332,-0.00031203,0.00049485,
 -0.00144524,0.00163367,-0.00095178,-0.07013102,-0.04258704,-0.17007539
 ,-0.00106319,0.00516503,0.00819821,-0.01634817,-0.01296618,-0.04330681
 ,-0.04146725,-0.07173456,0.63783089,-0.00046860,-0.00100173,0.00157348
 ,0.00007183,-0.00024052,-0.00000510,-0.00029382,0.00013481,-0.00002120
 ,-0.00208362,0.00316948,-0.02460943,-0.00069461,0.00121179,0.00110370,
 0.00236979,-0.00229372,-0.00574780,-0.05465037,-0.05430658,0.13566832,
 0.05857307,0.00005780,-0.00035260,-0.00029102,-0.00017815,0.00004991,-
 0.00001580,-0.00010666,0.00000823,-0.00006351,0.01069927,0.00724887,-0
 .01111607,-0.00068459,-0.00147414,0.00151766,-0.00289138,0.00024094,-0
 .00681712,-0.04658624,-0.08563720,0.08071169,0.04965926,0.08316060,-0.
 00004204,-0.00011472,0.00207316,0.00035874,-0.00023417,-0.00006097,-0.
 00013234,-0.00002945,0.00005161,0.00577799,0.00209368,-0.02588702,-0.0
 0031665,0.00238022,0.00348328,-0.00131319,-0.00113982,-0.00058639,0.10
 129396,0.09602328,-0.36495807,-0.10716231,-0.09709727,0.38337403,-0.12
 085458,0.12170666,-0.02028759,-0.03845039,-0.04350672,0.01849396,-0.00
 615987,0.02037694,-0.00013844,-0.01549719,0.02748796,-0.00496622,-0.00
 700208,0.00991050,-0.00040451,0.00011074,-0.00020303,0.00038856,0.0003
 3428,-0.00182639,-0.00002791,-0.00004139,0.00001732,-0.00001472,0.4812
 8371,0.11124200,-0.46376975,0.08149038,-0.01425342,0.00435468,0.003612
 09,-0.03152583,-0.07415483,0.02833543,0.02164230,-0.01431572,-0.001718
 27,0.00077683,-0.00175308,0.00054126,-0.00089497,0.00142476,-0.0013623
 6,-0.00269525,0.00156488,0.00019951,0.00031988,-0.00021369,0.00033373,
 -0.12563109,0.63235417,-0.01628369,0.07900106,-0.07269569,0.01091363,0
 .00844307,0.00561236,0.01218042,0.02008463,0.01525452,-0.00394181,-0.0
 0264600,-0.00817177,0.00140548,-0.00077245,0.00249916,0.00185913,0.000
 25216,0.00081199,-0.00148901,-0.00082474,0.00032537,0.00031913,-0.0000
 5054,0.00019848,-0.03289957,-0.11067826,0.12305736,-0.06295735,0.08451
 925,-0.00827875,-0.14146128,-0.07510723,0.03042954,-0.00428910,-0.0191
 9129,0.00569711,0.01613050,-0.00024399,-0.00094266,-0.00211988,0.00131
 311,-0.00035787,-0.00275989,-0.00154729,0.00169677,-0.00306483,-0.0009
 6068,-0.00106248,0.00027086,-0.00013495,0.00048967,-0.25351010,-0.0020
 1734,0.03141447,0.65575736,0.04728992,-0.04224595,0.00489051,-0.033898
 77,-0.24539834,0.04918155,0.02194125,-0.03448893,0.00529709,-0.0021339
 2,-0.00411593,0.00324451,0.00241109,-0.00137202,-0.00030998,-0.0003063
 9,0.00082926,-0.00042752,0.00057874,0.00070662,0.00009272,-0.00008179,
 0.00001465,-0.00008479,-0.02346491,-0.08039220,0.00716254,-0.09001784,
 0.69743335,-0.00017697,-0.00118159,0.00877335,0.02052811,0.05598840,-0
 .08552433,-0.00405688,0.01202820,0.00014676,-0.00056041,0.00321231,0.0
 0672162,-0.00074999,0.00012336,-0.00088755,-0.00071897,-0.00096289,0.0
 0040179,0.00215514,0.00071287,0.00019088,-0.00025853,0.00010824,-0.000
 24344,0.03656155,0.00350051,-0.07171837,-0.06025127,-0.11746534,0.1949
 0376,0.00490224,-0.01022949,0.00156820,-0.31899617,-0.00891368,0.04532
 237,-0.02032203,0.02267408,-0.00254907,-0.00350542,0.00071082,0.000794
 88,0.00045073,-0.00073453,0.00009953,0.00052076,0.00003717,-0.00023941
 ,0.00107608,0.00010127,0.00022887,-0.00011790,0.00007460,-0.00018890,-
 0.00982148,0.00397746,0.00145272,-0.00421745,-0.07052811,0.01822799,0.
 66242461,0.00250938,-0.00365047,0.00073690,-0.05391861,-0.11244093,0.0
 2281048,0.02689707,-0.00319479,-0.00394453,-0.00114137,0.00099471,0.00
 047074,0.00070705,0.00010719,-0.00012160,0.00078752,0.00016914,-0.0009
 5262,0.00086210,0.00014404,0.00056202,0.00000198,0.00004111,-0.0000862
 3,-0.00213928,-0.00457891,0.00245441,-0.02831771,0.03248883,-0.0027031
 6,0.01141851,0.72954149,-0.00120789,0.00257646,-0.00020732,0.05616690,
 0.01548200,-0.06732477,-0.00346096,-0.00341348,0.00023853,0.00109036,0
 .00021623,0.00175453,-0.00028171,0.00025382,-0.00000221,-0.00107037,-0
 .00008899,0.00054254,0.00051437,-0.00008988,-0.00008506,0.00000599,0.0
 0003211,-0.00003462,0.00268892,0.00163084,0.00346674,0.00825036,0.0042
 7503,0.00035003,-0.08924562,-0.14687472,0.18145886,-0.00289850,0.00015
 704,0.00057507,-0.03572964,0.02756539,0.00008761,-0.00121537,-0.003810
 60,0.00176071,0.00272498,-0.00100301,-0.00019384,-0.00060431,0.0005419
 7,-0.00005362,-0.00093357,-0.00009215,0.00064706,-0.00095492,-0.000116
 84,-0.00042989,0.00006399,-0.00005822,0.00014292,-0.00069352,0.0014030
 0,-0.00048243,-0.00104778,0.00266492,-0.00127666,-0.19565195,0.1445204
 7,-0.01323533,0.74276477,0.00566573,-0.01371071,0.00229279,0.08152393,
 0.02557725,-0.01794166,-0.00757047,0.01731454,-0.00194986,-0.00469039,
 0.00077136,0.00057989,0.00053203,-0.00100167,0.00017422,0.00083370,0.0
 0018473,-0.00032164,0.00121159,0.00018103,0.00029141,-0.00014419,0.000
 07855,-0.00022915,-0.01582878,0.00662047,0.00074202,0.01828018,-0.0659
 0100,0.01189125,0.07288605,-0.29772746,0.04519721,-0.03795208,0.648177
 85,-0.00074187,0.00351941,0.00022659,-0.01304052,-0.00916162,0.0104164
 7,0.00276025,-0.00258127,0.00431172,0.00069373,-0.00004267,-0.00008633
 ,-0.00004006,0.00011401,-0.00010526,-0.00007490,-0.00000888,-0.0000516
 7,-0.00015252,-0.00002610,0.00005160,0.00001487,-0.00002879,0.00003688
 ,0.00370964,-0.00218862,-0.00165260,-0.00508279,0.01430880,-0.00761385
 ,0.00424774,0.03356956,-0.07085326,-0.08933909,-0.11743198,0.18274520,
 -0.00666316,0.01568679,-0.00247490,-0.05116918,-0.02090642,0.01271824,
 0.00133105,-0.01205161,0.00248092,0.00613201,-0.00097883,-0.00080026,-
 0.00097949,0.00121310,-0.00016687,-0.00130610,-0.00029489,0.00071913,-
 0.00164494,-0.00030215,-0.00051485,0.00016573,-0.00009646,0.00029057,0
 .01970824,-0.00691952,-0.00051990,-0.04871282,0.06709402,-0.00775797,0
 .06797361,-0.01798290,-0.00552178,-0.16343271,-0.02998106,0.02330703,0
 .71643638,-0.00394996,0.00660102,-0.00069411,-0.03509552,-0.01435516,0
 .00805710,0.00364078,-0.00795482,0.00104382,0.00269396,-0.00110238,-0.
 00026773,0.00001950,0.00028456,-0.00007957,-0.00051861,-0.00006866,0.0
 0015652,-0.00081728,-0.00004552,-0.00019140,0.00009471,-0.00004149,0.0
 0012471,0.01385224,-0.00902175,0.00160960,0.01459943,0.03982472,-0.011
 21383,0.03386764,-0.05269943,0.00898562,-0.10127675,-0.26556711,0.0652
 3581,-0.06666933,0.68333022,0.00206074,-0.00415887,0.00063695,0.016193
 87,0.00583378,-0.00829470,-0.00131562,0.00360933,-0.00184271,-0.001737
 19,0.00034783,-0.00022319,0.00019268,-0.00023702,0.00017442,0.00037401
 ,0.00009068,-0.00014106,0.00042193,0.00000663,0.00009969,-0.00002806,0
 .00004309,-0.00006975,-0.00547333,0.00505591,0.00665515,0.00510117,-0.
 01970914,0.00785224,-0.01827040,0.01737480,0.00554206,0.04064179,0.053
 54726,-0.08512218,-0.07875525,-0.12119686,0.18203128,0.00172246,-0.019
 06634,0.00470247,0.06331510,0.01937266,-0.01416072,-0.00054122,0.00959
 384,-0.00157900,-0.00431214,0.00144821,0.00049896,0.00021573,-0.000097
 23,-0.00000763,0.00080368,0.00018540,-0.00034199,0.00121454,0.00015391
 ,0.00032984,-0.00013376,0.00006799,-0.00020390,-0.04786796,0.04491955,
 -0.00337260,-0.15194010,0.06150113,-0.00002682,-0.05870007,0.02965233,
 0.00197284,-0.01707269,-0.08261443,0.02383561,-0.36931830,0.02410793,0
 .04477801,0.70915810,-0.00843226,0.01380497,-0.00077123,-0.01928661,-0
 .04206511,0.01456267,-0.00025100,-0.00903300,0.00318509,0.00596928,-0.
 00066192,-0.00043410,-0.00102084,0.00144850,-0.00035086,-0.00128724,-0
 .00038207,0.00069827,-0.00150237,-0.00030213,-0.00046491,0.00014304,-0
 .00009661,0.00025803,0.01979035,-0.00090484,-0.00372183,0.11068509,-0.
 28220753,0.03595455,0.02933681,-0.01500060,-0.00154452,-0.03036530,0.0
 3326170,-0.00165229,-0.04358247,-0.13103396,0.02373956,0.02418866,0.70
 475242,0.00246102,0.00080316,0.00349351,-0.00477051,0.00831885,0.00387
 238,0.00075867,0.00163010,0.00345534,-0.00052823,0.00017769,0.00132466
 ,0.00012651,-0.00042324,-0.00036959,-0.00001154,0.00003940,-0.00009350
 ,0.00034254,0.00010691,0.00014542,-0.00004644,-0.00001368,-0.00007670,
 0.00275898,-0.00765824,-0.00115383,-0.01222084,0.04385664,-0.06946712,
 0.00209771,-0.00167537,-0.00184531,0.01121375,0.00689272,0.00269066,0.
 06123773,0.01265572,-0.07612937,-0.10007408,-0.14254223,0.18722083,0.0
 0018932,0.00107427,0.00012810,0.00033856,0.00002979,-0.00017428,0.0003
 8527,-0.00022721,0.00020621,-0.00923357,-0.02386045,-0.00590935,0.0022
 3982,-0.00334367,-0.00218363,-0.00101843,0.00133794,0.00262166,-0.0066
 1712,0.02107129,-0.00169924,-0.00305694,-0.00982372,0.00096177,-0.0003
 5380,0.00030162,-0.00046450,-0.00012650,0.00031021,0.00012574,-0.00005
 545,-0.00009173,-0.00006878,0.00009928,-0.00003491,0.00001184,0.000071
 10,0.00002124,-0.00004449,-0.00004107,0.00010813,0.00002824,0.01714443
 ,0.00008185,0.00072369,0.00100318,0.00042648,0.00000980,0.00006418,0.0
 0024445,-0.00016106,0.00009817,-0.00038116,-0.01740577,-0.00460980,-0.
 00065133,0.00273836,-0.00021390,0.00007127,0.00231464,0.00310235,-0.01
 690977,-0.42596126,0.04687766,0.00334316,-0.00303615,-0.00217224,0.000
 28745,0.00022627,0.00008070,0.00020117,0.00005204,-0.00009662,-0.00014
 195,-0.00013146,-0.00010162,0.00013721,-0.00013829,0.00003288,0.000190
 10,0.00007028,-0.00006177,-0.00009540,0.00016385,-0.00002976,0.0131425
 3,0.44055942,0.00029368,0.00042092,-0.00068555,0.00004862,-0.00007499,
 -0.00022994,0.00012621,0.00000717,0.00004972,0.00340795,-0.02677693,0.
 00689564,-0.00402133,-0.00673302,-0.00314226,-0.00015338,0.00265778,-0
 .00025712,-0.00491087,0.04102402,-0.06880805,-0.00080832,0.03307754,0.
 00268349,-0.00035794,0.00016207,-0.00009930,-0.00004984,0.00018162,0.0
 0015032,0.00001132,0.00005121,0.00009717,-0.00000354,-0.00000143,-0.00
 003412,-0.00000857,0.00001032,0.00001824,-0.00001629,-0.00001963,-0.00
 003085,0.00644593,-0.04399084,0.06338349,-0.00004303,-0.00101293,0.000
 19204,-0.00936709,-0.02598601,0.00826324,0.00064634,-0.00029515,-0.000
 20695,0.00030976,-0.00002103,-0.00002852,-0.00007082,0.00009215,-0.000
 00738,-0.00006412,0.00000423,0.00002614,-0.00007027,-0.00001302,-0.000
 02425,0.00000851,-0.00000341,0.00001293,-0.00161759,-0.00095761,0.0005
 1895,-0.00350537,0.00244442,0.00100987,-0.11367814,-0.10945063,0.03884
 592,0.01236936,0.01613103,-0.00517901,-0.00146402,0.00332910,0.0006983
 6,-0.00081045,0.00057346,-0.00014987,0.00001052,0.00001291,0.00000244,
 0.11607195,-0.00042884,-0.00005360,-0.00000517,0.00172566,0.00509444,-
 0.00095728,-0.00015269,0.00000977,-0.00041213,0.00035883,-0.00005337,-
 0.00002464,-0.00010214,0.00004412,0.00000399,-0.00009889,-0.00001282,0
 .00006624,-0.00009185,-0.00001553,-0.00004692,0.00000504,-0.00000392,0
 .00001609,0.00046423,0.00043167,-0.00014225,0.00105140,0.00118774,0.00
 110258,-0.10879574,-0.27523808,0.07547472,-0.01253372,-0.01592124,0.00
 705266,0.00393350,-0.00174158,0.00166918,0.00056960,0.00002124,-0.0003
 1282,0.00000841,0.00001286,-0.00000005,0.11532859,0.28615924,0.0000517
 1,0.00009990,-0.00038186,0.00152015,0.00351109,0.00125191,-0.00036396,
 -0.00038622,-0.00183847,-0.00011250,0.00002513,0.00007165,0.00003110,-
 0.00001999,0.00000490,0.00002541,-0.00000660,-0.00002098,0.00004278,0.
 00001124,0.00000367,-0.00000515,0.00000537,-0.00000789,0.00017201,0.00
 006538,0.00012317,0.00134253,0.00092126,0.00598308,0.03881968,0.075623
 01,-0.06210197,0.00178855,0.00237255,0.00381210,0.00055910,0.00176569,
 0.00724364,-0.00014979,-0.00031825,-0.00078232,-0.00000332,-0.00000602
 ,0.00000289,-0.04283069,-0.08221012,0.05212659,-0.00016079,0.00045321,
 -0.00009568,0.00029728,0.00264847,0.00051305,-0.00039224,-0.00031794,0
 .00026007,0.00038170,-0.00009849,-0.00010154,-0.00012294,0.00007101,0.
 00000085,-0.00010595,-0.00001810,0.00009656,-0.00014650,-0.00002609,-0
 .00007113,0.00000799,-0.00000650,0.00002186,-0.00009331,-0.00016081,-0
 .00002611,0.00052051,0.00000569,-0.00016639,-0.01106241,-0.00198932,0.
 00302255,-0.34456568,-0.00654285,0.05138427,-0.00740989,0.00177888,0.0
 0143290,0.00091065,-0.00187938,0.00131694,0.00001509,0.00001933,-0.000
 00034,0.00067592,-0.00040809,-0.00080711,0.36110112,0.00013581,-0.0006
 7899,0.00016365,0.00285173,-0.00337354,0.00212433,0.00103702,0.0006100
 0,-0.00011843,-0.00029395,0.00007444,-0.00007194,0.00011288,-0.0000345
 6,-0.00000606,0.00016599,0.00001929,-0.00012894,0.00006279,0.00002152,
 0.00005746,-0.00000144,0.00000519,-0.00001228,-0.00019791,0.00051480,-
 0.00020880,0.00048705,-0.00131065,0.00012572,0.02669221,0.00387189,-0.
 00421179,-0.00687010,-0.05766133,0.00566543,-0.02721954,0.00351779,0.0
 0455539,-0.00164662,-0.00413164,0.00276725,-0.00000803,-0.00001192,0.0
 0000076,-0.00086103,0.00097241,-0.00128268,0.00639781,0.05649192,-0.00
 003410,0.00009403,-0.00002622,0.00048081,0.00217577,0.00670728,-0.0000
 6533,0.00009637,0.00076300,-0.00004199,-0.00010651,-0.00037747,-0.0000
 0142,-0.00002120,0.00000642,0.00014855,0.00000695,-0.00003422,-0.00018
 714,-0.00000325,-0.00005502,0.00000661,-0.00000142,0.00001542,0.000013
 38,-0.00023851,-0.00041489,-0.00031628,0.00017743,-0.00048648,-0.00397
 070,0.00053033,0.00502350,0.05148797,0.00556800,-0.04912713,0.00845011
 ,-0.00017132,0.00261091,0.00126665,0.00279576,0.00527849,0.00001709,0.
 00001564,0.00000175,-0.00069498,-0.00135427,-0.00442311,-0.05613073,-0
 .00838670,0.03789593,-0.00063959,-0.00010876,0.00000242,-0.00071582,-0
 .00041998,0.00013124,0.00016259,0.00008295,-0.00010992,0.00053320,-0.0
 0002871,-0.00010104,-0.00015929,0.00018119,-0.00000666,-0.00013844,-0.
 00002755,0.00009575,-0.00015080,-0.00004049,-0.00006232,0.00001260,-0.
 00000807,0.00002555,-0.00073852,0.00163055,-0.00014476,-0.00393061,-0.
 00191028,0.00247129,-0.00051325,-0.00267873,0.00168772,0.01161935,-0.0
 1317314,0.00189091,-0.15265995,0.13702941,-0.01468525,-0.01294425,0.02
 602250,-0.00352780,0.00001165,0.00002177,-0.00000161,0.00045091,-0.000
 65830,0.00008260,0.00057984,0.00047781,-0.00080391,0.15786424,0.000130
 12,0.00002903,-0.00020606,-0.00097280,0.00018303,-0.00000612,0.0000006
 3,-0.00005227,-0.00007159,-0.00024232,0.00007754,-0.00002493,0.0000456
 9,-0.00002853,0.00001721,0.00007988,0.00001069,-0.00005042,0.00006637,
 0.00000331,0.00003170,-0.00000448,0.00000398,-0.00001023,-0.00009594,0
 .00020812,0.00016944,-0.00106804,0.00156102,0.00178878,-0.00297295,-0.
 00275184,0.00257005,0.01611262,-0.01635461,0.00222355,0.13725546,-0.25
 490932,0.02981518,-0.00324380,0.00629191,0.00002555,-0.00000902,-0.000
 00945,-0.00000026,0.00084192,-0.00083481,0.00005888,-0.00010083,0.0009
 8800,-0.00110425,-0.14593859,0.26535469,-0.00003247,-0.00016206,-0.000
 66570,0.00027022,-0.00009852,-0.00054515,-0.00009001,-0.00008937,-0.00
 033560,-0.00005793,-0.00005838,-0.00016413,0.00003039,-0.00001223,0.00
 006298,0.00002988,0.00001625,-0.00001300,-0.00002134,-0.00001101,-0.00
 000178,0.00000230,0.00000154,0.00000317,0.00026204,-0.00012106,0.00083
 368,0.00225731,0.00193656,0.00735204,0.00175636,0.00253140,0.00495385,
 -0.00522767,0.00699478,0.00277947,-0.01474640,0.02987481,-0.04441118,0
 .00360468,-0.00476782,0.00478546,-0.00000523,0.00000077,0.00000095,-0.
 00028128,0.00030428,-0.00004931,-0.00066545,-0.00120452,-0.00324132,0.
 01398409,-0.03393871,0.03318017,0.00047105,0.00008251,-0.00017150,-0.0
 0154478,0.00267262,0.00053063,-0.00018019,0.00110615,-0.00016997,-0.00
 007302,0.00003500,0.00002673,-0.00002395,-0.00004894,0.00001373,-0.000
 00157,-0.00001187,0.00001030,0.00001647,-0.00000393,-0.00000011,-0.000
 00336,0.00000209,-0.00000191,0.00126480,-0.00115733,-0.00043956,0.0109
 6383,0.01610064,-0.00507881,-0.00070631,0.00035387,-0.00015350,-0.0048
 4111,0.00146810,0.00179486,-0.00705757,-0.02670738,0.00841412,-0.11365
 825,-0.10920985,0.03898721,-0.00000215,-0.00000006,-0.00000413,0.00014
 763,-0.00017502,-0.00016311,-0.00043041,-0.00132249,0.00037539,0.00135
 616,0.00011609,-0.00106950,0.11430274,-0.00008909,-0.00023123,-0.00002
 561,0.00315384,-0.00164026,0.00126890,0.00006932,-0.00058294,0.0002448
 9,-0.00037688,0.00001089,0.00008261,0.00015619,-0.00006454,-0.00001211
 ,0.00012648,0.00002316,-0.00010151,0.00011143,0.00004615,0.00005983,-0
 .00000872,0.00000377,-0.00001937,-0.00099961,0.00140494,-0.00095475,-0
 .01253030,-0.01666569,0.00708668,0.00053983,0.00005559,-0.00036909,0.0
 0097615,0.00181595,0.00140011,0.00161220,0.00491258,-0.00032494,-0.108
 99739,-0.27392517,0.07538135,-0.00000672,-0.00001588,0.00000376,-0.000
 15699,-0.00005852,-0.00022963,0.00017400,0.00011538,-0.00007284,-0.000
 45356,0.00022949,-0.00119673,0.11669981,0.28456633,-0.00013449,-0.0000
 6470,-0.00035466,0.00037215,0.00135840,0.00525084,0.00011330,0.0000587
 5,0.00039816,0.00013298,0.00002710,0.00009069,-0.00004541,0.00002165,-
 0.00001241,-0.00002569,-0.00003435,0.00002314,-0.00002234,0.00001678,-
 0.00001313,-0.00000205,-0.00000201,0.00000534,-0.00047881,-0.00096178,
 -0.00293153,0.00188383,0.00247055,0.00311527,-0.00016326,-0.00035664,-
 0.00097331,0.00189663,0.00133164,0.00757569,0.00150391,0.00429509,0.00
 336956,0.03894374,0.07539376,-0.06231817,0.00000623,0.00000705,0.00000
 354,-0.00016696,-0.00022410,-0.00101769,0.00001542,0.00017216,-0.00011
 684,-0.00092830,-0.00128778,-0.00452462,-0.04290087,-0.08222156,0.0524
 3013\\0.00001333,-0.00001610,-0.00002826,0.00001052,-0.00005052,0.0000
 1016,-0.00002403,0.00004848,-0.00002675,-0.00003018,-0.00000157,-0.000
 01606,0.00001009,-0.00002282,-0.00000719,-0.00002353,0.00000986,0.0000
 1048,-0.00001956,-0.00004218,-0.00000900,0.00000826,-0.00000975,0.0000
 0302,-0.00002428,0.00002007,0.00001248,0.00005973,0.00001241,-0.000003
 67,-0.00001551,0.00001181,-0.00001800,0.00000698,-0.00000672,0.0000006
 9,0.00001143,0.00001350,0.00000815,-0.00001131,0.00000652,0.00000860,0
 .00001857,0.00000252,0.00002904,-0.00000464,0.00000065,-0.00001480,0.0
 0000053,0.00000463,-0.00000246,0.00000584,0.00001018,0.00001765,0.0000
 0775,0.00000903,0.00002590\\\@
 The archive entry for this job was punched.


 WE STILL HAVE JUDGEMENT HERE,
 THAT WE TEACH BUT BLOODY INSTRUCTIONS,
 WHICH, BEING TAUGHT,
 RETURN TO PLAGUE THE INVENTOR.
           MACBETH ACT I, SCENE VII
 Job cpu time:       0 days  0 hours 59 minutes 23.6 seconds.
 Elapsed time:       0 days  0 hours  3 minutes 44.4 seconds.
 File lengths (MBytes):  RWF=    217 Int=      0 D2E=      0 Chk=     12 Scr=      1
 Normal termination of Gaussian 16 at Thu Jun 23 14:44:58 2022.
