 Entering Gaussian System, Link 0=g16
 AtFile(1): /home/561/yj5695/Basis/6-31pGd.gbs
 Initial command:
 /apps/gaussian/g16c01/g16/l1.exe "/jobfs/40783899.gadi-pbs/Gau-1966781.inp" -scrdir="/jobfs/40783899.gadi-pbs/"
 Entering Link 1 = /apps/gaussian/g16c01/g16/l1.exe PID=   1966782.
  
 Copyright (c) 1988-2019, Gaussian, Inc.  All Rights Reserved.
  
 This is part of the Gaussian(R) 16 program.  It is based on
 the Gaussian(R) 09 system (copyright 2009, Gaussian, Inc.),
 the Gaussian(R) 03 system (copyright 2003, Gaussian, Inc.),
 the Gaussian(R) 98 system (copyright 1998, Gaussian, Inc.),
 the Gaussian(R) 94 system (copyright 1995, Gaussian, Inc.),
 the Gaussian 92(TM) system (copyright 1992, Gaussian, Inc.),
 the Gaussian 90(TM) system (copyright 1990, Gaussian, Inc.),
 the Gaussian 88(TM) system (copyright 1988, Gaussian, Inc.),
 the Gaussian 86(TM) system (copyright 1986, Carnegie Mellon
 University), and the Gaussian 82(TM) system (copyright 1983,
 Carnegie Mellon University). Gaussian is a federally registered
 trademark of Gaussian, Inc.
  
 This software contains proprietary and confidential information,
 including trade secrets, belonging to Gaussian, Inc.
  
 This software is provided under written license and may be
 used, copied, transmitted, or stored only in accord with that
 written license.
  
 The following legend is applicable only to US Government
 contracts under FAR:
  
                    RESTRICTED RIGHTS LEGEND
  
 Use, reproduction and disclosure by the US Government is
 subject to restrictions as set forth in subparagraphs (a)
 and (c) of the Commercial Computer Software - Restricted
 Rights clause in FAR 52.227-19.
  
 Gaussian, Inc.
 340 Quinnipiac St., Bldg. 40, Wallingford CT 06492
  
  
 ---------------------------------------------------------------
 Warning -- This program may not be used in any manner that
 competes with the business of Gaussian, Inc. or will provide
 assistance to any competitor of Gaussian, Inc.  The licensee
 of this program is prohibited from giving any competitor of
 Gaussian, Inc. access to this program.  By using this program,
 the user acknowledges that Gaussian, Inc. is engaged in the
 business of creating and licensing software in the field of
 computational chemistry and represents and warrants to the
 licensee that it is not a competitor of Gaussian, Inc. and that
 it will not use this program in any manner prohibited above.
 ---------------------------------------------------------------
  

 Cite this work as:
 Gaussian 16, Revision C.01,
 M. J. Frisch, G. W. Trucks, H. B. Schlegel, G. E. Scuseria, 
 M. A. Robb, J. R. Cheeseman, G. Scalmani, V. Barone, 
 G. A. Petersson, H. Nakatsuji, X. Li, M. Caricato, A. V. Marenich, 
 J. Bloino, B. G. Janesko, R. Gomperts, B. Mennucci, H. P. Hratchian, 
 J. V. Ortiz, A. F. Izmaylov, J. L. Sonnenberg, D. Williams-Young, 
 F. Ding, F. Lipparini, F. Egidi, J. Goings, B. Peng, A. Petrone, 
 T. Henderson, D. Ranasinghe, V. G. Zakrzewski, J. Gao, N. Rega, 
 G. Zheng, W. Liang, M. Hada, M. Ehara, K. Toyota, R. Fukuda, 
 J. Hasegawa, M. Ishida, T. Nakajima, Y. Honda, O. Kitao, H. Nakai, 
 T. Vreven, K. Throssell, J. A. Montgomery, Jr., J. E. Peralta, 
 F. Ogliaro, M. J. Bearpark, J. J. Heyd, E. N. Brothers, K. N. Kudin, 
 V. N. Staroverov, T. A. Keith, R. Kobayashi, J. Normand, 
 K. Raghavachari, A. P. Rendell, J. C. Burant, S. S. Iyengar, 
 J. Tomasi, M. Cossi, J. M. Millam, M. Klene, C. Adamo, R. Cammi, 
 J. W. Ochterski, R. L. Martin, K. Morokuma, O. Farkas, 
 J. B. Foresman, and D. J. Fox, Gaussian, Inc., Wallingford CT, 2019.
 
 ******************************************
 Gaussian 16:  ES64L-G16RevC.01  3-Jul-2019
                20-May-2022 
 ******************************************
 %nproc=16
 Will use up to   16 processors via shared memory.
 %mem=20gb
 -----------------------------------------------------
 #m062X/gen 6D OPT Freq=noraman SCRF=(SMD,Solvent=h2o)
 -----------------------------------------------------
 1/18=20,19=15,26=3,38=1/1,3;
 2/9=110,12=2,17=6,18=5,40=1/2;
 3/5=7,8=2,11=2,25=1,30=1,70=32201,71=1,72=1,74=-55/1,2,3;
 4//1;
 5/5=2,38=5,53=1/2;
 6/7=2,8=2,9=2,10=2,28=1/1;
 7//1,2,3,16;
 1/18=20,19=15,26=3/3(2);
 2/9=110/2;
 99//99;
 2/9=110/2;
 3/5=7,6=1,8=2,11=2,25=1,30=1,70=32205,71=1,72=1,74=-55,82=7/1,2,3;
 4/5=5,16=3,69=1/1;
 5/5=2,38=5,53=1/2;
 7//1,2,3,16;
 1/18=20,19=15,26=3/3(-5);
 2/9=110/2;
 6/7=2,8=2,9=2,10=2,19=2,28=1/1;
 99/9=1/99;
 --------------------
 HA.26.smd.a2c2d2.smd
 --------------------
 Symbolic Z-matrix:
 Charge =  0 Multiplicity = 1
 C                    -0.82755   0.63555  -0.63974 
 N                    -1.4919    1.56362  -1.22233 
 N                    -1.00846   1.79266  -2.46296 
 C                     0.04122   1.0129   -2.87105 
 N                     0.72272   1.04353  -3.96233 
 S                     0.46567  -0.07696  -1.54887 
 S                    -1.2593    0.09659   1.00981 
 O                    -2.42798  -0.75074   0.81838 
 O                    -0.04348  -0.40854   1.62309 
 N                    -1.7362    1.40005   1.8643 
 H                    -2.58281   1.83811   1.49563 
 C                    -1.56974   2.91346  -3.21677 
 H                    -1.84826   3.68445  -2.49945 
 H                    -2.44399   2.59418  -3.78618 
 H                    -0.80254   3.3073   -3.88501 
 H                    -0.98614   2.07561   2.02461 
 C                     1.37933  -0.01683  -4.53815 
 C                     2.49738   0.25761  -5.51595 
 O                     0.98273  -1.16911  -4.36007 
 H                     2.78212   1.30998  -5.56675 
 H                     2.15383  -0.06139  -6.50534 
 H                     3.36461  -0.35314  -5.24919 
 

 GradGradGradGradGradGradGradGradGradGradGradGradGradGradGradGradGradGrad
 Berny optimization.
 Initialization pass.
                           ----------------------------
                           !    Initial Parameters    !
                           ! (Angstroms and Degrees)  !
 --------------------------                            --------------------------
 ! Name  Definition              Value          Derivative Info.                !
 --------------------------------------------------------------------------------
 ! R1    R(1,2)                  1.2814         estimate D2E/DX2                !
 ! R2    R(1,6)                  1.734          estimate D2E/DX2                !
 ! R3    R(1,7)                  1.7883         estimate D2E/DX2                !
 ! R4    R(2,3)                  1.3511         estimate D2E/DX2                !
 ! R5    R(3,4)                  1.3698         estimate D2E/DX2                !
 ! R6    R(3,12)                 1.4627         estimate D2E/DX2                !
 ! R7    R(4,5)                  1.287          estimate D2E/DX2                !
 ! R8    R(4,6)                  1.7653         estimate D2E/DX2                !
 ! R9    R(5,17)                 1.3737         estimate D2E/DX2                !
 ! R10   R(7,8)                  1.4562         estimate D2E/DX2                !
 ! R11   R(7,9)                  1.4524         estimate D2E/DX2                !
 ! R12   R(7,10)                 1.6299         estimate D2E/DX2                !
 ! R13   R(10,11)                1.022          estimate D2E/DX2                !
 ! R14   R(10,16)                1.0221         estimate D2E/DX2                !
 ! R15   R(12,13)                1.0893         estimate D2E/DX2                !
 ! R16   R(12,14)                1.0911         estimate D2E/DX2                !
 ! R17   R(12,15)                1.091          estimate D2E/DX2                !
 ! R18   R(17,18)                1.5104         estimate D2E/DX2                !
 ! R19   R(17,19)                1.2316         estimate D2E/DX2                !
 ! R20   R(18,20)                1.0914         estimate D2E/DX2                !
 ! R21   R(18,21)                1.0948         estimate D2E/DX2                !
 ! R22   R(18,22)                1.0937         estimate D2E/DX2                !
 ! A1    A(2,1,6)              116.481          estimate D2E/DX2                !
 ! A2    A(2,1,7)              120.8287         estimate D2E/DX2                !
 ! A3    A(6,1,7)              122.6741         estimate D2E/DX2                !
 ! A4    A(1,2,3)              110.7781         estimate D2E/DX2                !
 ! A5    A(2,3,4)              116.8247         estimate D2E/DX2                !
 ! A6    A(2,3,12)             117.7643         estimate D2E/DX2                !
 ! A7    A(4,3,12)             125.2192         estimate D2E/DX2                !
 ! A8    A(3,4,5)              130.1547         estimate D2E/DX2                !
 ! A9    A(3,4,6)              108.2136         estimate D2E/DX2                !
 ! A10   A(5,4,6)              121.4994         estimate D2E/DX2                !
 ! A11   A(4,5,17)             126.1698         estimate D2E/DX2                !
 ! A12   A(1,6,4)               87.6892         estimate D2E/DX2                !
 ! A13   A(1,7,8)              104.3523         estimate D2E/DX2                !
 ! A14   A(1,7,9)              106.9902         estimate D2E/DX2                !
 ! A15   A(1,7,10)             108.253          estimate D2E/DX2                !
 ! A16   A(8,7,9)              121.6663         estimate D2E/DX2                !
 ! A17   A(8,7,10)             107.4239         estimate D2E/DX2                !
 ! A18   A(9,7,10)             107.5592         estimate D2E/DX2                !
 ! A19   A(7,10,11)            113.3303         estimate D2E/DX2                !
 ! A20   A(7,10,16)            113.3341         estimate D2E/DX2                !
 ! A21   A(11,10,16)           112.4056         estimate D2E/DX2                !
 ! A22   A(3,12,13)            107.5237         estimate D2E/DX2                !
 ! A23   A(3,12,14)            110.6219         estimate D2E/DX2                !
 ! A24   A(3,12,15)            108.8106         estimate D2E/DX2                !
 ! A25   A(13,12,14)           110.2368         estimate D2E/DX2                !
 ! A26   A(13,12,15)           109.1256         estimate D2E/DX2                !
 ! A27   A(14,12,15)           110.453          estimate D2E/DX2                !
 ! A28   A(5,17,18)            119.0071         estimate D2E/DX2                !
 ! A29   A(5,17,19)            120.5081         estimate D2E/DX2                !
 ! A30   A(18,17,19)           120.1309         estimate D2E/DX2                !
 ! A31   A(17,18,20)           113.4813         estimate D2E/DX2                !
 ! A32   A(17,18,21)           107.4453         estimate D2E/DX2                !
 ! A33   A(17,18,22)           109.1209         estimate D2E/DX2                !
 ! A34   A(20,18,21)           108.7088         estimate D2E/DX2                !
 ! A35   A(20,18,22)           110.0554         estimate D2E/DX2                !
 ! A36   A(21,18,22)           107.8488         estimate D2E/DX2                !
 ! D1    D(6,1,2,3)             -0.4042         estimate D2E/DX2                !
 ! D2    D(7,1,2,3)           -178.9758         estimate D2E/DX2                !
 ! D3    D(2,1,6,4)             -0.2605         estimate D2E/DX2                !
 ! D4    D(7,1,6,4)            178.2824         estimate D2E/DX2                !
 ! D5    D(2,1,7,8)             77.4013         estimate D2E/DX2                !
 ! D6    D(2,1,7,9)           -152.4486         estimate D2E/DX2                !
 ! D7    D(2,1,7,10)           -36.7941         estimate D2E/DX2                !
 ! D8    D(6,1,7,8)           -101.0798         estimate D2E/DX2                !
 ! D9    D(6,1,7,9)             29.0703         estimate D2E/DX2                !
 ! D10   D(6,1,7,10)           144.7247         estimate D2E/DX2                !
 ! D11   D(1,2,3,4)              1.1281         estimate D2E/DX2                !
 ! D12   D(1,2,3,12)          -174.1045         estimate D2E/DX2                !
 ! D13   D(2,3,4,5)           -177.0684         estimate D2E/DX2                !
 ! D14   D(2,3,4,6)             -1.2887         estimate D2E/DX2                !
 ! D15   D(12,3,4,5)            -2.2332         estimate D2E/DX2                !
 ! D16   D(12,3,4,6)           173.5465         estimate D2E/DX2                !
 ! D17   D(2,3,12,13)           31.8876         estimate D2E/DX2                !
 ! D18   D(2,3,12,14)          -88.5361         estimate D2E/DX2                !
 ! D19   D(2,3,12,15)          149.9562         estimate D2E/DX2                !
 ! D20   D(4,3,12,13)         -142.9036         estimate D2E/DX2                !
 ! D21   D(4,3,12,14)           96.6727         estimate D2E/DX2                !
 ! D22   D(4,3,12,15)          -24.835          estimate D2E/DX2                !
 ! D23   D(3,4,5,17)          -153.0449         estimate D2E/DX2                !
 ! D24   D(6,4,5,17)            31.6578         estimate D2E/DX2                !
 ! D25   D(3,4,6,1)              0.8206         estimate D2E/DX2                !
 ! D26   D(5,4,6,1)            177.0383         estimate D2E/DX2                !
 ! D27   D(4,5,17,18)         -158.9823         estimate D2E/DX2                !
 ! D28   D(4,5,17,19)           27.8374         estimate D2E/DX2                !
 ! D29   D(1,7,10,11)           63.73           estimate D2E/DX2                !
 ! D30   D(1,7,10,16)          -65.9221         estimate D2E/DX2                !
 ! D31   D(8,7,10,11)          -48.4228         estimate D2E/DX2                !
 ! D32   D(8,7,10,16)         -178.0749         estimate D2E/DX2                !
 ! D33   D(9,7,10,11)          179.0129         estimate D2E/DX2                !
 ! D34   D(9,7,10,16)           49.3608         estimate D2E/DX2                !
 ! D35   D(5,17,18,20)           8.516          estimate D2E/DX2                !
 ! D36   D(5,17,18,21)        -111.6891         estimate D2E/DX2                !
 ! D37   D(5,17,18,22)         131.6318         estimate D2E/DX2                !
 ! D38   D(19,17,18,20)       -178.2773         estimate D2E/DX2                !
 ! D39   D(19,17,18,21)         61.5175         estimate D2E/DX2                !
 ! D40   D(19,17,18,22)        -55.1615         estimate D2E/DX2                !
 --------------------------------------------------------------------------------
 Trust Radius=3.00D-01 FncErr=1.00D-07 GrdErr=1.00D-06 EigMax=2.50D+02 EigMin=1.00D-04
 Number of steps in this run=    108 maximum allowed number of steps=    132.
 GradGradGradGradGradGradGradGradGradGradGradGradGradGradGradGradGradGrad

                          Input orientation:                          
 ---------------------------------------------------------------------
 Center     Atomic      Atomic             Coordinates (Angstroms)
 Number     Number       Type             X           Y           Z
 ---------------------------------------------------------------------
      1          6           0       -0.827549    0.635551   -0.639742
      2          7           0       -1.491898    1.563615   -1.222326
      3          7           0       -1.008463    1.792657   -2.462963
      4          6           0        0.041223    1.012902   -2.871052
      5          7           0        0.722717    1.043534   -3.962328
      6         16           0        0.465671   -0.076963   -1.548866
      7         16           0       -1.259303    0.096594    1.009807
      8          8           0       -2.427981   -0.750740    0.818383
      9          8           0       -0.043480   -0.408535    1.623092
     10          7           0       -1.736200    1.400049    1.864299
     11          1           0       -2.582807    1.838113    1.495630
     12          6           0       -1.569737    2.913455   -3.216766
     13          1           0       -1.848260    3.684448   -2.499447
     14          1           0       -2.443989    2.594183   -3.786182
     15          1           0       -0.802542    3.307304   -3.885006
     16          1           0       -0.986143    2.075612    2.024613
     17          6           0        1.379333   -0.016826   -4.538152
     18          6           0        2.497381    0.257614   -5.515954
     19          8           0        0.982729   -1.169107   -4.360066
     20          1           0        2.782124    1.309984   -5.566754
     21          1           0        2.153833   -0.061391   -6.505335
     22          1           0        3.364613   -0.353144   -5.249189
 ---------------------------------------------------------------------
                    Distance matrix (angstroms):
                    1          2          3          4          5
     1  C    0.000000
     2  N    1.281431   0.000000
     3  N    2.166970   1.351055   0.000000
     4  C    2.424026   2.317767   1.369816   0.000000
     5  N    3.689086   3.561266   2.409619   1.286956   0.000000
     6  S    1.733955   2.574918   2.550318   1.765259   2.673272
     7  S    1.788267   2.681169   3.872942   4.194288   5.435736
     8  O    2.570859   3.224435   4.387611   4.776958   6.000126
     9  O    2.612527   3.752825   4.740494   4.714339   5.821725
    10  N    2.771340   3.100595   4.405558   5.072737   6.334269
    11  H    3.014448   2.941550   4.260409   5.160854   6.430175
    12  C    3.518628   2.409547   1.462681   2.515315   3.050871
    13  H    3.714314   2.501193   2.070136   3.293235   3.965397
    14  H    4.043415   2.922654   2.110471   3.084508   3.530378
    15  H    4.203645   3.256613   2.087766   2.646568   2.730760
    16  H    3.032774   3.325739   4.496543   5.113939   6.311010
    17  C    4.526977   4.662238   3.644476   2.372783   1.373711
    18  C    5.914004   6.004600   4.895718   3.687639   2.486133
    19  O    4.513835   4.841173   4.041768   2.804418   2.263091
    20  H    6.144920   6.099643   4.922910   3.855853   2.624183
    21  H    6.616612   6.621343   5.456957   4.338806   3.120230
    22  H    6.308624   6.593579   5.611712   4.308891   3.253665
                    6          7          8          9         10
     6  S    0.000000
     7  S    3.090706   0.000000
     8  O    3.798824   1.456168   0.000000
     9  O    3.229627   1.452412   2.539785   0.000000
    10  N    4.321978   1.629903   2.489658   2.488867   0.000000
    11  H    4.714837   2.240664   2.680447   3.392913   1.022037
    12  C    3.983387   5.088712   5.517729   6.065419   5.304275
    13  H    4.517310   5.053160   5.569108   6.083179   4.926796
    14  H    4.539463   5.535607   5.691290   6.636189   5.818493
    15  H    4.303391   5.871668   6.421187   6.687509   6.128935
    16  H    4.417137   2.240750   3.394430   2.687158   1.022092
    17  C    3.126376   6.144519   6.612620   6.335516   7.259853
    18  C    4.469628   7.531544   8.087014   7.606951   8.584667
    19  O    3.059898   5.955186   6.214846   6.117986   7.261946
    20  H    4.840764   7.813872   8.494807   7.913990   8.697351
    21  H    5.236098   8.255411   8.666318   8.427338   9.344460
    22  H    4.708772   7.794735   8.398075   7.671142   8.927132
                   11         12         13         14         15
    11  H    0.000000
    12  C    4.938557   0.000000
    13  H    4.461967   1.089290   0.000000
    14  H    5.337457   1.091094   1.788647   0.000000
    15  H    5.854836   1.090986   1.776383   1.792388   0.000000
    16  H    1.698695   5.339908   4.878393   6.013283   6.039402
    17  C    7.452911   4.362295   5.317246   4.690482   4.029518
    18  C    8.801625   5.374124   6.302944   5.733132   4.780177
    19  O    7.486361   4.948690   5.918902   5.121923   4.842637
    20  H    8.884744   5.199255   6.040439   5.668497   4.434794
    21  H    9.489959   5.790455   6.789344   5.965386   5.191761
    22  H    9.255593   6.256934   7.144038   6.675851   5.711835
                   16         17         18         19         20
    16  H    0.000000
    17  C    7.283108   0.000000
    18  C    8.502953   1.510445   0.000000
    19  O    7.427569   1.231568   2.380290   0.000000
    20  H    8.509693   2.187754   1.091394   3.292387   0.000000
    21  H    9.337357   2.114627   1.094835   2.683412   1.776613
    22  H    8.816809   2.135420   1.093746   2.670151   1.790569
                   21         22
    21  H    0.000000
    22  H    1.768901   0.000000
 Stoichiometry    C5H8N4O3S2
 Framework group  C1[X(C5H8N4O3S2)]
 Deg. of freedom    60
 Full point group                 C1      NOp   1
 Largest Abelian subgroup         C1      NOp   1
 Largest concise Abelian subgroup C1      NOp   1
                         Standard orientation:                         
 ---------------------------------------------------------------------
 Center     Atomic      Atomic             Coordinates (Angstroms)
 Number     Number       Type             X           Y           Z
 ---------------------------------------------------------------------
      1          6           0        1.034480    0.119878   -0.011048
      2          7           0        0.785943    1.367438    0.143516
      3          7           0       -0.543569    1.601576    0.089417
      4          6           0       -1.356198    0.513168   -0.087780
      5          7           0       -2.634022    0.445063   -0.224828
      6         16           0       -0.335537   -0.919970   -0.230978
      7         16           0        2.713444   -0.493480    0.041573
      8          8           0        3.042996   -0.522120    1.459671
      9          8           0        2.752417   -1.694195   -0.774677
     10          7           0        3.682912    0.611465   -0.662565
     11          1           0        3.708128    1.503677   -0.164687
     12          6           0       -0.991930    2.993583    0.116341
     13          1           0       -0.228350    3.593708   -0.376960
     14          1           0       -1.132568    3.332201    1.143981
     15          1           0       -1.925536    3.073318   -0.442473
     16          1           0        3.504602    0.728062   -1.662206
     17          6           0       -3.429318   -0.624249    0.108576
     18          6           0       -4.791905   -0.751107   -0.530728
     19          8           0       -3.093135   -1.397627    1.006144
     20          1           0       -4.964738   -0.031235   -1.332635
     21          1           0       -5.538693   -0.589369    0.253371
     22          1           0       -4.917192   -1.770066   -0.907965
 ---------------------------------------------------------------------
 Rotational constants (GHZ):           1.1804287           0.3128652           0.2682571
 General basis read from cards:  (6D, 7F)
 There are   290 symmetry adapted cartesian basis functions of A   symmetry.
 There are   290 symmetry adapted basis functions of A   symmetry.
   290 basis functions,   528 primitive gaussians,   290 cartesian basis functions
    61 alpha electrons       61 beta electrons
       nuclear repulsion energy      1189.3371290503 Hartrees.
 NAtoms=   22 NActive=   22 NUniq=   22 SFac= 1.00D+00 NAtFMM=   60 NAOKFM=F Big=F
 Integral buffers will be    131072 words long.
 Raffenetti 2 integral format.
 Two-electron integral symmetry is turned on.
 ------------------------------------------------------------------------------
 Polarizable Continuum Model (PCM)
 =================================
 Model                : PCM.
 Atomic radii         : SMD-Coulomb.
 Polarization charges : Total charges.
 Charge compensation  : None.
 Solution method      : On-the-fly selection.
 Cavity type          : VdW (van der Waals Surface) (Alpha=1.000).
 Cavity algorithm     : GePol (No added spheres)
                        Default sphere list used, NSphG=   22.
                        Lebedev-Laikov grids with approx.  5.0 points / Ang**2.
                        Smoothing algorithm: York/Karplus (Gamma=1.0000).
                        Polarization charges: spherical gaussians, with
                                              point-specific exponents (IZeta= 3).
                        Self-potential: point-specific (ISelfS= 7).
                        Self-field    : sphere-specific E.n sum rule (ISelfD= 2).
 1st derivatives      : Analytical E(r).r(x)/FMM algorithm (CHGder, D1EAlg=3).
                        Cavity 1st derivative terms included.
 Solvent              : Water, Eps=  78.355300 Eps(inf)=   1.777849
 ------------------------------------------------------------------------------
 ------------------------------------------------------------------------------
 Atomic radii for non-electrostatic terms: SMD-CDS.
 ------------------------------------------------------------------------------
 Nuclear repulsion after PCM non-electrostatic terms =     1189.3431540013 Hartrees.
 One-electron integrals computed using PRISM.
 NBasis=   290 RedAO= T EigKep=  1.47D-05  NBF=   290
 NBsUse=   290 1.00D-06 EigRej= -1.00D+00 NBFU=   290
 ExpMin= 4.05D-02 ExpMax= 2.19D+04 ExpMxC= 3.30D+03 IAcc=3 IRadAn=         5 AccDes= 0.00D+00
 Harris functional with IExCor= 1009 and IRadAn=       5 diagonalized for initial guess.
 HarFok:  IExCor= 1009 AccDes= 0.00D+00 IRadAn=         5 IDoV= 1 UseB2=F ITyADJ=14
 ICtDFT=  3500011 ScaDFX=  1.000000  1.000000  1.000000  1.000000
 FoFCou: FMM=F IPFlag=           0 FMFlag=      100000 FMFlg1=           0
         NFxFlg=           0 DoJE=T BraDBF=F KetDBF=T FulRan=T
         wScrn=  0.000000 ICntrl=       500 IOpCl=  0 I1Cent=   200000004 NGrid=           0
         NMat0=    1 NMatS0=      1 NMatT0=    0 NMatD0=    1 NMtDS0=    0 NMtDT0=    0
 Petite list used in FoFCou.
 Requested convergence on RMS density matrix=1.00D-08 within 128 cycles.
 Requested convergence on MAX density matrix=1.00D-06.
 Requested convergence on             energy=1.00D-06.
 No special actions if energy rises.
 Inv3:  Mode=1 IEnd=    10367643.
 Iteration    1 A*A^-1 deviation from unit magnitude is 5.11D-15 for   1849.
 Iteration    1 A*A^-1 deviation from orthogonality  is 2.69D-15 for    767    179.
 Iteration    1 A^-1*A deviation from unit magnitude is 5.33D-15 for   1849.
 Iteration    1 A^-1*A deviation from orthogonality  is 5.72D-15 for    859    853.
 Error on total polarization charges =  0.04274
 SCF Done:  E(RM062X) =  -1436.02325047     A.U. after   15 cycles
            NFock= 15  Conv=0.79D-08     -V/T= 2.0056
 SMD-CDS (non-electrostatic) energy       (kcal/mol) =       3.78
 (included in total energy above)

 **********************************************************************

            Population analysis using the SCF Density.

 **********************************************************************

 Orbital symmetries:
       Occupied  (A) (A) (A) (A) (A) (A) (A) (A) (A) (A) (A) (A)
                 (A) (A) (A) (A) (A) (A) (A) (A) (A) (A) (A) (A)
                 (A) (A) (A) (A) (A) (A) (A) (A) (A) (A) (A) (A)
                 (A) (A) (A) (A) (A) (A) (A) (A) (A) (A) (A) (A)
                 (A) (A) (A) (A) (A) (A) (A) (A) (A) (A) (A) (A)
                 (A)
       Virtual   (A) (A) (A) (A) (A) (A) (A) (A) (A) (A) (A) (A)
                 (A) (A) (A) (A) (A) (A) (A) (A) (A) (A) (A) (A)
                 (A) (A) (A) (A) (A) (A) (A) (A) (A) (A) (A) (A)
                 (A) (A) (A) (A) (A) (A) (A) (A) (A) (A) (A) (A)
                 (A) (A) (A) (A) (A) (A) (A) (A) (A) (A) (A) (A)
                 (A) (A) (A) (A) (A) (A) (A) (A) (A) (A) (A) (A)
                 (A) (A) (A) (A) (A) (A) (A) (A) (A) (A) (A) (A)
                 (A) (A) (A) (A) (A) (A) (A) (A) (A) (A) (A) (A)
                 (A) (A) (A) (A) (A) (A) (A) (A) (A) (A) (A) (A)
                 (A) (A) (A) (A) (A) (A) (A) (A) (A) (A) (A) (A)
                 (A) (A) (A) (A) (A) (A) (A) (A) (A) (A) (A) (A)
                 (A) (A) (A) (A) (A) (A) (A) (A) (A) (A) (A) (A)
                 (A) (A) (A) (A) (A) (A) (A) (A) (A) (A) (A) (A)
                 (A) (A) (A) (A) (A) (A) (A) (A) (A) (A) (A) (A)
                 (A) (A) (A) (A) (A) (A) (A) (A) (A) (A) (A) (A)
                 (A) (A) (A) (A) (A) (A) (A) (A) (A) (A) (A) (A)
                 (A) (A) (A) (A) (A) (A) (A) (A) (A) (A) (A) (A)
                 (A) (A) (A) (A) (A) (A) (A) (A) (A) (A) (A) (A)
                 (A) (A) (A) (A) (A) (A) (A) (A) (A) (A) (A) (A)
                 (A)
 The electronic state is 1-A.
 Alpha  occ. eigenvalues --  -90.20553 -89.99864 -19.68164 -19.67652 -19.63932
 Alpha  occ. eigenvalues --  -14.88805 -14.85929 -14.81735 -14.77186 -10.70587
 Alpha  occ. eigenvalues --  -10.67783 -10.67091 -10.59186 -10.54477  -8.51433
 Alpha  occ. eigenvalues --   -8.34376  -6.43625  -6.43608  -6.43559  -6.26372
 Alpha  occ. eigenvalues --   -6.26148  -6.25832  -1.28343  -1.22205  -1.18129
 Alpha  occ. eigenvalues --   -1.16763  -1.06091  -1.04828  -1.00277  -0.92687
 Alpha  occ. eigenvalues --   -0.84789  -0.83886  -0.79970  -0.74538  -0.70733
 Alpha  occ. eigenvalues --   -0.68084  -0.63295  -0.61636  -0.60619  -0.59679
 Alpha  occ. eigenvalues --   -0.58167  -0.57072  -0.55840  -0.53357  -0.52559
 Alpha  occ. eigenvalues --   -0.50217  -0.49544  -0.47887  -0.46517  -0.45744
 Alpha  occ. eigenvalues --   -0.45017  -0.44090  -0.43417  -0.42750  -0.41769
 Alpha  occ. eigenvalues --   -0.41000  -0.40037  -0.38073  -0.36640  -0.33769
 Alpha  occ. eigenvalues --   -0.30222
 Alpha virt. eigenvalues --   -0.03937  -0.00501   0.00653   0.00821   0.02431
 Alpha virt. eigenvalues --    0.03313   0.03552   0.04201   0.04988   0.05274
 Alpha virt. eigenvalues --    0.05443   0.05758   0.06373   0.06719   0.07293
 Alpha virt. eigenvalues --    0.07775   0.08518   0.09012   0.09325   0.09927
 Alpha virt. eigenvalues --    0.10178   0.10470   0.11376   0.11486   0.11938
 Alpha virt. eigenvalues --    0.12959   0.13233   0.14561   0.15006   0.15465
 Alpha virt. eigenvalues --    0.15896   0.16344   0.17366   0.17795   0.18737
 Alpha virt. eigenvalues --    0.19089   0.19109   0.19398   0.20432   0.21071
 Alpha virt. eigenvalues --    0.21446   0.22179   0.22795   0.23428   0.24202
 Alpha virt. eigenvalues --    0.24845   0.25054   0.25600   0.26367   0.26579
 Alpha virt. eigenvalues --    0.26967   0.27579   0.28537   0.28759   0.29715
 Alpha virt. eigenvalues --    0.29891   0.30003   0.30397   0.30747   0.31566
 Alpha virt. eigenvalues --    0.31993   0.32322   0.32787   0.33487   0.34225
 Alpha virt. eigenvalues --    0.34810   0.35379   0.35804   0.36494   0.36919
 Alpha virt. eigenvalues --    0.37840   0.38434   0.39916   0.41076   0.42192
 Alpha virt. eigenvalues --    0.42814   0.44204   0.45550   0.47052   0.49078
 Alpha virt. eigenvalues --    0.50911   0.52712   0.55709   0.56940   0.60750
 Alpha virt. eigenvalues --    0.61603   0.63467   0.64381   0.66650   0.67549
 Alpha virt. eigenvalues --    0.69087   0.70314   0.71590   0.72038   0.74944
 Alpha virt. eigenvalues --    0.75842   0.77631   0.79021   0.79793   0.81625
 Alpha virt. eigenvalues --    0.84646   0.87369   0.88996   0.90045   0.90828
 Alpha virt. eigenvalues --    0.92985   0.94101   0.96378   0.97847   0.98157
 Alpha virt. eigenvalues --    1.00079   1.00932   1.01961   1.03063   1.03752
 Alpha virt. eigenvalues --    1.05355   1.05871   1.06579   1.06854   1.07952
 Alpha virt. eigenvalues --    1.09290   1.10824   1.11678   1.12780   1.13089
 Alpha virt. eigenvalues --    1.13776   1.15695   1.15862   1.16566   1.18429
 Alpha virt. eigenvalues --    1.18831   1.20352   1.22911   1.26040   1.28565
 Alpha virt. eigenvalues --    1.30268   1.30677   1.32436   1.33112   1.34257
 Alpha virt. eigenvalues --    1.34854   1.36016   1.36731   1.37811   1.39151
 Alpha virt. eigenvalues --    1.40875   1.42478   1.44712   1.45556   1.47389
 Alpha virt. eigenvalues --    1.48876   1.50654   1.52170   1.54440   1.59450
 Alpha virt. eigenvalues --    1.62145   1.65511   1.69685   1.72282   1.73795
 Alpha virt. eigenvalues --    1.75365   1.76638   1.77422   1.79632   1.82154
 Alpha virt. eigenvalues --    1.83523   1.83586   1.84800   1.85768   1.88018
 Alpha virt. eigenvalues --    1.90538   1.91037   1.93752   1.95351   1.97803
 Alpha virt. eigenvalues --    1.99665   2.01021   2.04512   2.05908   2.07827
 Alpha virt. eigenvalues --    2.08733   2.12609   2.14041   2.14705   2.18107
 Alpha virt. eigenvalues --    2.19676   2.26570   2.28959   2.30751   2.30896
 Alpha virt. eigenvalues --    2.32996   2.34959   2.36774   2.38638   2.39332
 Alpha virt. eigenvalues --    2.42833   2.43982   2.45607   2.47092   2.49893
 Alpha virt. eigenvalues --    2.51457   2.56438   2.56858   2.63569   2.71795
 Alpha virt. eigenvalues --    2.80951   2.85635   2.87607   2.89308   2.92213
 Alpha virt. eigenvalues --    2.95903   3.08295   3.10965   3.19456   3.25315
 Alpha virt. eigenvalues --    3.87659   3.97545   4.03717   4.05742   4.14325
 Alpha virt. eigenvalues --    4.21979   4.28415   4.30026   4.31174   4.35377
 Alpha virt. eigenvalues --    4.41106   4.44599   4.50105   4.63530
          Condensed to atoms (all electrons):
               1          2          3          4          5          6
     1  C    8.796943  -0.312516   0.499086  -0.378439   0.097280  -0.618958
     2  N   -0.312516   8.393833  -1.373079   0.736542  -0.133579  -0.279337
     3  N    0.499086  -1.373079   8.383640  -0.634223  -0.078389   0.006747
     4  C   -0.378439   0.736542  -0.634223   7.339578   0.461220  -0.321731
     5  N    0.097280  -0.133579  -0.078389   0.461220   7.255620  -0.145681
     6  S   -0.618958  -0.279337   0.006747  -0.321731  -0.145681  16.915735
     7  S   -0.725712  -0.160186   0.170262  -0.409751   0.020785  -0.312672
     8  O   -0.212459   0.026450  -0.030461  -0.035382   0.000047  -0.048260
     9  O   -0.012185   0.012990  -0.010585   0.028182  -0.000780   0.062317
    10  N   -0.024236  -0.161353   0.128484  -0.023001   0.002450   0.094443
    11  H   -0.064017   0.013469   0.003694  -0.004293  -0.000021  -0.006365
    12  C   -0.071657   0.117346   0.049101  -0.141936   0.001931  -0.036712
    13  H    0.002884   0.051375  -0.087415   0.000353  -0.001893  -0.001107
    14  H    0.007265  -0.033107   0.010133  -0.001638  -0.005139  -0.005801
    15  H   -0.001072  -0.011680  -0.033380  -0.029910   0.024875  -0.002364
    16  H    0.013324   0.000275  -0.009499   0.002811  -0.000055  -0.000639
    17  C   -0.120143   0.026017  -0.040223  -0.082922   0.172070  -0.123935
    18  C   -0.001672  -0.009051   0.026118  -0.137203  -0.182118   0.006488
    19  O    0.000135  -0.001478  -0.008474  -0.074418  -0.166706  -0.004625
    20  H    0.001098  -0.000148  -0.000492   0.009347   0.008582   0.000986
    21  H    0.000090   0.000048   0.000534  -0.007729   0.000209   0.001091
    22  H   -0.000923  -0.000038  -0.000187  -0.003243   0.004123  -0.001413
               7          8          9         10         11         12
     1  C   -0.725712  -0.212459  -0.012185  -0.024236  -0.064017  -0.071657
     2  N   -0.160186   0.026450   0.012990  -0.161353   0.013469   0.117346
     3  N    0.170262  -0.030461  -0.010585   0.128484   0.003694   0.049101
     4  C   -0.409751  -0.035382   0.028182  -0.023001  -0.004293  -0.141936
     5  N    0.020785   0.000047  -0.000780   0.002450  -0.000021   0.001931
     6  S   -0.312672  -0.048260   0.062317   0.094443  -0.006365  -0.036712
     7  S   15.332440   0.498308   0.083856  -0.106316   0.076209  -0.020638
     8  O    0.498308   8.694102  -0.175712  -0.142734  -0.002896  -0.001480
     9  O    0.083856  -0.175712   8.783608  -0.163365   0.009677   0.000108
    10  N   -0.106316  -0.142734  -0.163365   7.953149   0.225352  -0.006122
    11  H    0.076209  -0.002896   0.009677   0.225352   0.248446   0.000401
    12  C   -0.020638  -0.001480   0.000108  -0.006122   0.000401   5.446333
    13  H    0.002497   0.000040   0.000009  -0.000236   0.000002   0.383361
    14  H   -0.000108  -0.000034  -0.000002   0.000016  -0.000000   0.381580
    15  H    0.000119  -0.000000   0.000000   0.000031  -0.000000   0.388523
    16  H    0.013811   0.006481  -0.004384   0.230639  -0.011185  -0.000031
    17  C   -0.030607  -0.001698   0.000656   0.000020   0.000035   0.027450
    18  C   -0.002968  -0.000055  -0.000087  -0.000087   0.000003   0.009288
    19  O    0.000274   0.000199   0.000067  -0.000032   0.000000  -0.002527
    20  H    0.000046  -0.000000  -0.000000  -0.000000  -0.000000   0.000245
    21  H   -0.000001   0.000000   0.000000   0.000000  -0.000000   0.000005
    22  H   -0.000044  -0.000000  -0.000000  -0.000000  -0.000000   0.000010
              13         14         15         16         17         18
     1  C    0.002884   0.007265  -0.001072   0.013324  -0.120143  -0.001672
     2  N    0.051375  -0.033107  -0.011680   0.000275   0.026017  -0.009051
     3  N   -0.087415   0.010133  -0.033380  -0.009499  -0.040223   0.026118
     4  C    0.000353  -0.001638  -0.029910   0.002811  -0.082922  -0.137203
     5  N   -0.001893  -0.005139   0.024875  -0.000055   0.172070  -0.182118
     6  S   -0.001107  -0.005801  -0.002364  -0.000639  -0.123935   0.006488
     7  S    0.002497  -0.000108   0.000119   0.013811  -0.030607  -0.002968
     8  O    0.000040  -0.000034  -0.000000   0.006481  -0.001698  -0.000055
     9  O    0.000009  -0.000002   0.000000  -0.004384   0.000656  -0.000087
    10  N   -0.000236   0.000016   0.000031   0.230639   0.000020  -0.000087
    11  H    0.000002  -0.000000  -0.000000  -0.011185   0.000035   0.000003
    12  C    0.383361   0.381580   0.388523  -0.000031   0.027450   0.009288
    13  H    0.417663  -0.022975  -0.019641   0.000001  -0.000571  -0.000068
    14  H   -0.022975   0.411967  -0.021853   0.000000  -0.005953   0.000272
    15  H   -0.019641  -0.021853   0.415810  -0.000000   0.011837   0.000457
    16  H    0.000001   0.000000  -0.000000   0.238347  -0.000067  -0.000002
    17  C   -0.000571  -0.005953   0.011837  -0.000067   5.748722  -0.321632
    18  C   -0.000068   0.000272   0.000457  -0.000002  -0.321632   6.323315
    19  O    0.000011  -0.000049   0.000099   0.000000   0.458069  -0.072211
    20  H   -0.000000  -0.000000  -0.000001  -0.000000  -0.108973   0.428589
    21  H    0.000000  -0.000000   0.000001  -0.000000  -0.036437   0.391161
    22  H    0.000000   0.000000   0.000000  -0.000000  -0.059768   0.411567
              19         20         21         22
     1  C    0.000135   0.001098   0.000090  -0.000923
     2  N   -0.001478  -0.000148   0.000048  -0.000038
     3  N   -0.008474  -0.000492   0.000534  -0.000187
     4  C   -0.074418   0.009347  -0.007729  -0.003243
     5  N   -0.166706   0.008582   0.000209   0.004123
     6  S   -0.004625   0.000986   0.001091  -0.001413
     7  S    0.000274   0.000046  -0.000001  -0.000044
     8  O    0.000199  -0.000000   0.000000  -0.000000
     9  O    0.000067  -0.000000   0.000000  -0.000000
    10  N   -0.000032  -0.000000   0.000000  -0.000000
    11  H    0.000000  -0.000000  -0.000000  -0.000000
    12  C   -0.002527   0.000245   0.000005   0.000010
    13  H    0.000011  -0.000000   0.000000   0.000000
    14  H   -0.000049  -0.000000  -0.000000   0.000000
    15  H    0.000099  -0.000001   0.000001   0.000000
    16  H    0.000000  -0.000000  -0.000000  -0.000000
    17  C    0.458069  -0.108973  -0.036437  -0.059768
    18  C   -0.072211   0.428589   0.391161   0.411567
    19  O    8.445665   0.007731  -0.004705  -0.003091
    20  H    0.007731   0.443944  -0.021548  -0.020705
    21  H   -0.004705  -0.021548   0.427023  -0.020451
    22  H   -0.003091  -0.020705  -0.020451   0.427454
 Mulliken charges:
               1
     1  C   -0.874116
     2  N    0.097206
     3  N    0.028607
     4  C   -0.292216
     5  N   -0.334832
     6  S    0.821793
     7  S    1.570394
     8  O   -0.574458
     9  O   -0.614371
    10  N   -1.007102
    11  H    0.511490
    12  C   -0.524580
    13  H    0.275709
    14  H    0.285429
    15  H    0.278147
    16  H    0.520172
    17  C    0.488052
    18  C   -0.870104
    19  O   -0.573935
    20  H    0.251299
    21  H    0.270708
    22  H    0.266708
 Sum of Mulliken charges =  -0.00000
 Mulliken charges with hydrogens summed into heavy atoms:
               1
     1  C   -0.874116
     2  N    0.097206
     3  N    0.028607
     4  C   -0.292216
     5  N   -0.334832
     6  S    0.821793
     7  S    1.570394
     8  O   -0.574458
     9  O   -0.614371
    10  N    0.024560
    12  C    0.314705
    17  C    0.488052
    18  C   -0.081388
    19  O   -0.573935
 Electronic spatial extent (au):  <R**2>=           4002.4474
 Charge=             -0.0000 electrons
 Dipole moment (field-independent basis, Debye):
    X=             -0.7199    Y=              9.7824    Z=             -5.6858  Tot=             11.3376
 Quadrupole moment (field-independent basis, Debye-Ang):
   XX=            -99.1171   YY=            -89.8005   ZZ=           -100.2067
   XY=              9.4447   XZ=             -2.1879   YZ=              2.5234
 Traceless Quadrupole moment (field-independent basis, Debye-Ang):
   XX=             -2.7423   YY=              6.5742   ZZ=             -3.8319
   XY=              9.4447   XZ=             -2.1879   YZ=              2.5234
 Octapole moment (field-independent basis, Debye-Ang**2):
  XXX=            -47.8463  YYY=             60.3691  ZZZ=            -16.1961  XYY=              2.6103
  XXY=             61.6543  XXZ=            -59.5037  XZZ=              8.6216  YZZ=             13.9601
  YYZ=             -4.0645  XYZ=            -26.4187
 Hexadecapole moment (field-independent basis, Debye-Ang**3):
 XXXX=          -3723.7188 YYYY=           -865.2148 ZZZZ=           -289.8501 XXXY=            193.8681
 XXXZ=            -14.2219 YYYX=            -12.5438 YYYZ=              5.7337 ZZZX=            -45.0504
 ZZZY=              3.2442 XXYY=           -835.7543 XXZZ=           -731.7964 YYZZ=           -216.1036
 XXYZ=             27.2766 YYXZ=             28.0066 ZZXY=              7.8856
 N-N= 1.189343154001D+03 E-N=-5.761470940583D+03  KE= 1.428078193489D+03
 D1PCM: PCM CHGder 1st derivatives, ID1Alg=3 FixD1E=F DoIter=F DoCFld=F I1PDM=0.
 Calling FoFJK, ICntrl=      2127 FMM=F ISym2X=0 I1Cent= 0 IOpClX= 0 NMat=1 NMatS=1 NMatT=0.
 ***** Axes restored to original set *****
 -------------------------------------------------------------------
 Center     Atomic                   Forces (Hartrees/Bohr)
 Number     Number              X              Y              Z
 -------------------------------------------------------------------
      1        6           0.007240670    0.000952848    0.001509575
      2        7           0.002516121    0.000810662    0.001470925
      3        7           0.007804397    0.000491258   -0.008012136
      4        6           0.007375535   -0.015004353    0.005841661
      5        7          -0.004638359    0.026388444   -0.013625652
      6       16          -0.005856249   -0.004531516    0.007333307
      7       16          -0.010310977    0.005103768   -0.001043284
      8        8           0.000544917   -0.003380385    0.004154423
      9        8           0.002542409   -0.002668291   -0.002680532
     10        7           0.000743998   -0.000899274   -0.001946273
     11        1          -0.000131992    0.000311127    0.000262842
     12        6           0.001478787    0.000680570   -0.002380934
     13        1          -0.000373494   -0.000398750    0.000010806
     14        1           0.000524725   -0.001001304   -0.000200499
     15        1          -0.000303350   -0.001987768    0.000030649
     16        1          -0.000161044    0.000165862   -0.000089529
     17        6          -0.007966590    0.001071998    0.000709128
     18        6          -0.004002629    0.003918723    0.003490257
     19        8           0.004355469   -0.009227724    0.002603966
     20        1          -0.000803319   -0.000412250    0.002035361
     21        1           0.000257782   -0.000463944   -0.000003901
     22        1          -0.000836809    0.000080298    0.000529843
 -------------------------------------------------------------------
 Cartesian Forces:  Max     0.026388444 RMS     0.005427597

 GradGradGradGradGradGradGradGradGradGradGradGradGradGradGradGradGradGrad
 Berny optimization.
 FormGI is forming the generalized inverse of G from B-inverse, IUseBI=4.
 Internal  Forces:  Max     0.025882672 RMS     0.005067163
 Search for a local minimum.
 Step number   1 out of a maximum of  108
 All quantities printed in internal units (Hartrees-Bohrs-Radians)
 Mixed Optimization -- RFO/linear search
 Second derivative matrix not updated -- first step.
 ITU=  0
     Eigenvalues ---    0.00526   0.00628   0.00863   0.01026   0.01188
     Eigenvalues ---    0.01375   0.01786   0.02040   0.02124   0.02223
     Eigenvalues ---    0.02370   0.03187   0.04321   0.06957   0.07494
     Eigenvalues ---    0.07695   0.07859   0.09710   0.10764   0.14031
     Eigenvalues ---    0.16000   0.16000   0.16000   0.16000   0.16000
     Eigenvalues ---    0.16000   0.16000   0.16000   0.19702   0.24902
     Eigenvalues ---    0.24915   0.24942   0.24962   0.24995   0.24996
     Eigenvalues ---    0.25000   0.25000   0.25000   0.27063   0.28752
     Eigenvalues ---    0.31306   0.31432   0.34260   0.34383   0.34652
     Eigenvalues ---    0.34687   0.34699   0.34895   0.36631   0.44006
     Eigenvalues ---    0.44015   0.45845   0.48605   0.50270   0.53097
     Eigenvalues ---    0.69333   0.70950   0.90436   0.93237   0.94871
 RFO step:  Lambda=-1.24776632D-02 EMin= 5.25509531D-03
 Linear search not attempted -- first point.
 Iteration  1 RMS(Cart)=  0.12527635 RMS(Int)=  0.00742963
 Iteration  2 RMS(Cart)=  0.01178294 RMS(Int)=  0.00076486
 Iteration  3 RMS(Cart)=  0.00008218 RMS(Int)=  0.00076294
 Iteration  4 RMS(Cart)=  0.00000009 RMS(Int)=  0.00076294
 Variable       Old X    -DE/DX   Delta X   Delta X   Delta X     New X
                                 (Linear)    (Quad)   (Total)
    R1        2.42155   0.00024   0.00000   0.00081   0.00091   2.42246
    R2        3.27670  -0.00042   0.00000   0.00030   0.00042   3.27712
    R3        3.37933   0.00082   0.00000   0.00289   0.00289   3.38223
    R4        2.55312   0.00047   0.00000   0.00041   0.00037   2.55349
    R5        2.58858  -0.01254   0.00000  -0.02502  -0.02514   2.56343
    R6        2.76407  -0.00127   0.00000  -0.00336  -0.00336   2.76071
    R7        2.43199  -0.00309   0.00000  -0.00428  -0.00428   2.42771
    R8        3.33586   0.00716   0.00000   0.02307   0.02302   3.35887
    R9        2.59594  -0.00435   0.00000  -0.00844  -0.00844   2.58750
   R10        2.75176   0.00099   0.00000   0.00105   0.00105   2.75281
   R11        2.74466   0.00192   0.00000   0.00200   0.00200   2.74666
   R12        3.08007  -0.00142   0.00000  -0.00301  -0.00301   3.07706
   R13        1.93137   0.00014   0.00000   0.00031   0.00031   1.93168
   R14        1.93147  -0.00002   0.00000  -0.00005  -0.00005   1.93142
   R15        2.05846  -0.00017   0.00000  -0.00047  -0.00047   2.05799
   R16        2.06187  -0.00004   0.00000  -0.00010  -0.00010   2.06177
   R17        2.06166  -0.00095   0.00000  -0.00263  -0.00263   2.05903
   R18        2.85433  -0.00734   0.00000  -0.02255  -0.02255   2.83178
   R19        2.32733   0.00761   0.00000   0.00830   0.00830   2.33563
   R20        2.06244  -0.00070   0.00000  -0.00196  -0.00196   2.06048
   R21        2.06894   0.00006   0.00000   0.00018   0.00018   2.06912
   R22        2.06688  -0.00058   0.00000  -0.00164  -0.00164   2.06524
    A1        2.03298  -0.00092   0.00000  -0.00084  -0.00097   2.03200
    A2        2.10886  -0.00131   0.00000  -0.00662  -0.00672   2.10214
    A3        2.14107   0.00222   0.00000   0.00683   0.00672   2.14778
    A4        1.93344   0.00054   0.00000   0.00269   0.00246   1.93590
    A5        2.03898   0.00142   0.00000   0.00302   0.00264   2.04161
    A6        2.05537   0.00500   0.00000   0.02048   0.02065   2.07602
    A7        2.18549  -0.00639   0.00000  -0.02283  -0.02266   2.16283
    A8        2.27163  -0.02588   0.00000  -0.09731  -0.09717   2.17446
    A9        1.88868   0.00130   0.00000   0.00256   0.00215   1.89084
   A10        2.12056   0.02459   0.00000   0.09556   0.09578   2.21635
   A11        2.20208  -0.01224   0.00000  -0.04662  -0.04662   2.15546
   A12        1.53046  -0.00230   0.00000  -0.00632  -0.00651   1.52395
   A13        1.82129   0.00653   0.00000   0.03734   0.03734   1.85863
   A14        1.86733  -0.00529   0.00000  -0.03327  -0.03317   1.83416
   A15        1.88937  -0.00236   0.00000  -0.00508  -0.00520   1.88417
   A16        2.12348  -0.00298   0.00000  -0.01975  -0.01957   2.10391
   A17        1.87490  -0.00038   0.00000   0.00747   0.00730   1.88220
   A18        1.87726   0.00422   0.00000   0.01368   0.01351   1.89077
   A19        1.97799   0.00056   0.00000   0.00346   0.00345   1.98144
   A20        1.97805   0.00006   0.00000   0.00058   0.00058   1.97864
   A21        1.96185  -0.00034   0.00000  -0.00161  -0.00161   1.96024
   A22        1.87664   0.00068   0.00000   0.00652   0.00654   1.88318
   A23        1.93072  -0.00137   0.00000  -0.00976  -0.00982   1.92090
   A24        1.89910  -0.00163   0.00000  -0.01034  -0.01040   1.88870
   A25        1.92400   0.00063   0.00000   0.00516   0.00517   1.92916
   A26        1.90460   0.00132   0.00000   0.01155   0.01157   1.91617
   A27        1.92777   0.00039   0.00000  -0.00280  -0.00293   1.92483
   A28        2.07707  -0.01393   0.00000  -0.04781  -0.05179   2.02528
   A29        2.10326   0.01242   0.00000   0.05292   0.04889   2.15216
   A30        2.09668   0.00184   0.00000   0.01197   0.00804   2.10472
   A31        1.98062  -0.00260   0.00000  -0.01576  -0.01581   1.96481
   A32        1.87527   0.00105   0.00000   0.00857   0.00860   1.88387
   A33        1.90452  -0.00096   0.00000  -0.00744  -0.00751   1.89701
   A34        1.89733   0.00138   0.00000   0.01135   0.01139   1.90872
   A35        1.92083   0.00104   0.00000   0.00170   0.00156   1.92239
   A36        1.88232   0.00023   0.00000   0.00270   0.00271   1.88503
    D1       -0.00705   0.00080   0.00000   0.00844   0.00814   0.00109
    D2       -3.12372   0.00133   0.00000   0.03588   0.03553  -3.08819
    D3       -0.00455   0.00018   0.00000   0.01829   0.01827   0.01372
    D4        3.11161  -0.00041   0.00000  -0.00992  -0.01012   3.10149
    D5        1.35091   0.00107   0.00000  -0.00434  -0.00423   1.34667
    D6       -2.66073  -0.00162   0.00000  -0.02480  -0.02501  -2.68574
    D7       -0.64218  -0.00060   0.00000  -0.02845  -0.02847  -0.67065
    D8       -1.76418   0.00167   0.00000   0.02497   0.02516  -1.73902
    D9        0.50737  -0.00102   0.00000   0.00451   0.00438   0.51175
   D10        2.52592   0.00001   0.00000   0.00086   0.00092   2.52684
   D11        0.01969  -0.00165   0.00000  -0.04187  -0.04188  -0.02219
   D12       -3.03870  -0.00162   0.00000  -0.04894  -0.04899  -3.08768
   D13       -3.09043   0.00029   0.00000   0.03589   0.03651  -3.05391
   D14       -0.02249   0.00174   0.00000   0.05403   0.05402   0.03153
   D15       -0.03898   0.00091   0.00000   0.04598   0.04640   0.00742
   D16        3.02896   0.00236   0.00000   0.06412   0.06390   3.09286
   D17        0.55654   0.00004   0.00000   0.00443   0.00435   0.56089
   D18       -1.54525  -0.00034   0.00000  -0.00018  -0.00020  -1.54545
   D19        2.61723   0.00110   0.00000   0.01618   0.01603   2.63326
   D20       -2.49414  -0.00040   0.00000  -0.00490  -0.00482  -2.49896
   D21        1.68726  -0.00079   0.00000  -0.00951  -0.00937   1.67788
   D22       -0.43345   0.00065   0.00000   0.00684   0.00686  -0.42659
   D23       -2.67114  -0.00491   0.00000  -0.10758  -0.10766  -2.77879
   D24        0.55253  -0.00532   0.00000  -0.12306  -0.12299   0.42954
   D25        0.01432  -0.00100   0.00000  -0.03811  -0.03821  -0.02389
   D26        3.08990  -0.00215   0.00000  -0.03115  -0.03007   3.05983
   D27       -2.77476  -0.00106   0.00000   0.00106   0.00255  -2.77221
   D28        0.48585  -0.00429   0.00000  -0.16369  -0.16518   0.32068
   D29        1.11230   0.00392   0.00000   0.02888   0.02893   1.14123
   D30       -1.15056   0.00384   0.00000   0.02746   0.02751  -1.12305
   D31       -0.84514  -0.00232   0.00000  -0.01544  -0.01545  -0.86059
   D32       -3.10799  -0.00240   0.00000  -0.01686  -0.01687  -3.12486
   D33        3.12436  -0.00128   0.00000  -0.00552  -0.00555   3.11881
   D34        0.86151  -0.00136   0.00000  -0.00693  -0.00697   0.85454
   D35        0.14863  -0.00118   0.00000  -0.06882  -0.06832   0.08032
   D36       -1.94934  -0.00203   0.00000  -0.07919  -0.07861  -2.02796
   D37        2.29741  -0.00236   0.00000  -0.08315  -0.08252   2.21489
   D38       -3.11153   0.00278   0.00000   0.09817   0.09753  -3.01399
   D39        1.07368   0.00193   0.00000   0.08779   0.08723   1.16092
   D40       -0.96275   0.00160   0.00000   0.08384   0.08333  -0.87942
         Item               Value     Threshold  Converged?
 Maximum Force            0.025883     0.000450     NO 
 RMS     Force            0.005067     0.000300     NO 
 Maximum Displacement     0.486503     0.001800     NO 
 RMS     Displacement     0.130782     0.001200     NO 
 Predicted change in Energy=-7.192381D-03
 GradGradGradGradGradGradGradGradGradGradGradGradGradGradGradGradGradGrad

                          Input orientation:                          
 ---------------------------------------------------------------------
 Center     Atomic      Atomic             Coordinates (Angstroms)
 Number     Number       Type             X           Y           Z
 ---------------------------------------------------------------------
      1          6           0       -0.849468    0.602895   -0.617730
      2          7           0       -1.444458    1.573782   -1.206515
      3          7           0       -0.963100    1.747364   -2.457129
      4          6           0        0.039668    0.922821   -2.850457
      5          7           0        0.665815    1.017735   -3.968204
      6         16           0        0.377678   -0.216552   -1.528765
      7         16           0       -1.346150    0.097913    1.025948
      8          8           0       -2.572675   -0.672186    0.869019
      9          8           0       -0.161713   -0.510065    1.609086
     10          7           0       -1.704712    1.439435    1.876330
     11          1           0       -2.518223    1.944283    1.518249
     12          6           0       -1.471989    2.854289   -3.263344
     13          1           0       -1.717772    3.673783   -2.589526
     14          1           0       -2.355970    2.537276   -3.818730
     15          1           0       -0.685472    3.164931   -3.950444
     16          1           0       -0.900808    2.053273    2.023149
     17          6           0        1.363060   -0.015987   -4.533977
     18          6           0        2.409423    0.366858   -5.536020
     19          8           0        1.197750   -1.199412   -4.218108
     20          1           0        2.530202    1.446994   -5.623197
     21          1           0        2.113595   -0.044825   -6.506523
     22          1           0        3.356593   -0.095698   -5.247418
 ---------------------------------------------------------------------
                    Distance matrix (angstroms):
                    1          2          3          4          5
     1  C    0.000000
     2  N    1.281913   0.000000
     3  N    2.169357   1.351248   0.000000
     4  C    2.424455   2.308446   1.356511   0.000000
     5  N    3.700520   3.519853   2.338604   1.284689   0.000000
     6  S    1.734175   2.574746   2.552745   1.777439   2.749063
     7  S    1.789798   2.678011   3.872886   4.198509   5.462200
     8  O    2.608773   3.259614   4.416811   4.816937   6.061549
     9  O    2.582711   3.730343   4.719355   4.688416   5.841673
    10  N    2.766148   3.096726   4.407230   5.064806   6.321060
    11  H    3.024314   2.952047   4.273268   5.164473   6.410753
    12  C    3.529247   2.423016   1.460902   2.487198   2.905162
    13  H    3.751304   2.529313   2.073198   3.274824   3.825811
    14  H    4.032093   2.929648   2.101905   3.046817   3.385635
    15  H    4.206887   3.261435   2.077634   2.600549   2.537073
    16  H    3.013383   3.310014   4.491141   5.090624   6.278770
    17  C    4.540406   4.634817   3.582419   2.338155   1.369245
    18  C    5.904715   5.920614   4.770668   3.624511   2.433487
    19  O    4.516872   4.872531   4.056329   2.777678   2.293720
    20  H    6.098309   5.943154   4.724126   3.763722   2.529665
    21  H    6.623984   6.585568   5.392178   4.313274   3.109367
    22  H    6.293885   6.493546   5.462814   4.217202   3.180630
                    6          7          8          9         10
     6  S    0.000000
     7  S    3.097907   0.000000
     8  O    3.829040   1.456722   0.000000
     9  O    3.197374   1.453471   2.527195   0.000000
    10  N    4.321262   1.628311   2.495391   2.500563   0.000000
    11  H    4.726494   2.241695   2.696363   3.403706   1.022201
    12  C    3.982474   5.100145   5.542920   6.064345   5.335937
    13  H    4.544318   5.098686   5.619594   6.128152   4.993631
    14  H    4.505589   5.517348   5.685297   6.600169   5.836360
    15  H    4.292929   5.882820   6.442998   6.684930   6.161775
    16  H    4.404852   2.239682   3.399306   2.699706   1.022064
    17  C    3.168991   6.185916   6.716619   6.348722   7.254069
    18  C    4.530612   7.565453   8.180797   7.644101   8.545142
    19  O    2.978439   5.971147   6.353970   6.023249   7.247756
    20  H    4.915803   7.813914   8.525206   7.961307   8.612633
    21  H    5.274559   8.290255   8.760898   8.441362   9.330312
    22  H    4.766227   7.842729   8.538112   7.717631   8.872498
                   11         12         13         14         15
    11  H    0.000000
    12  C    4.978590   0.000000
    13  H    4.528323   1.089041   0.000000
    14  H    5.372272   1.091042   1.791616   0.000000
    15  H    5.895385   1.089593   1.782322   1.789375   0.000000
    16  H    1.697891   5.377256   4.956839   6.039809   6.079964
    17  C    7.452279   4.229716   5.185250   4.567484   3.828215
    18  C    8.748296   5.139818   6.054033   5.510786   4.463366
    19  O    7.523102   4.946876   5.907671   5.172163   4.760846
    20  H    8.759803   4.854577   5.675124   5.321606   4.011230
    21  H    9.476669   5.637330   6.621955   5.819664   4.966976
    22  H    9.189626   5.996180   6.857300   6.450354   5.352768
                   16         17         18         19         20
    16  H    0.000000
    17  C    7.238980   0.000000
    18  C    8.422746   1.498511   0.000000
    19  O    7.344194   1.235960   2.378707   0.000000
    20  H    8.402738   2.165394   1.090357   3.279202   0.000000
    21  H    9.286761   2.110704   1.094931   2.721890   1.783073
    22  H    8.695095   2.118850   1.092877   2.634059   1.789980
                   21         22
    21  H    0.000000
    22  H    1.770022   0.000000
 Stoichiometry    C5H8N4O3S2
 Framework group  C1[X(C5H8N4O3S2)]
 Deg. of freedom    60
 Full point group                 C1      NOp   1
 Largest Abelian subgroup         C1      NOp   1
 Largest concise Abelian subgroup C1      NOp   1
                         Standard orientation:                         
 ---------------------------------------------------------------------
 Center     Atomic      Atomic             Coordinates (Angstroms)
 Number     Number       Type             X           Y           Z
 ---------------------------------------------------------------------
      1          6           0        1.040191    0.113396   -0.016486
      2          7           0        0.754926    1.357722    0.100041
      3          7           0       -0.582875    1.547870    0.102058
      4          6           0       -1.361210    0.446076   -0.040649
      5          7           0       -2.640974    0.466583   -0.151147
      6         16           0       -0.301974   -0.977820   -0.139798
      7         16           0        2.743081   -0.435219    0.034132
      8          8           0        3.142617   -0.414935    1.434845
      9          8           0        2.763367   -1.676425   -0.721895
     10          7           0        3.647781    0.662223   -0.758671
     11          1           0        3.670990    1.577265   -0.303641
     12          6           0       -1.103114    2.911854    0.158050
     13          1           0       -0.399770    3.559971   -0.362778
     14          1           0       -1.216789    3.226679    1.196479
     15          1           0       -2.066945    2.929867   -0.349806
     16          1           0        3.424151    0.729218   -1.753717
     17          6           0       -3.439753   -0.613573    0.113516
     18          6           0       -4.800884   -0.594419   -0.512976
     19          8           0       -3.068477   -1.584813    0.781679
     20          1           0       -4.945455    0.260612   -1.173961
     21          1           0       -5.542215   -0.560307    0.292094
     22          1           0       -4.945134   -1.526095   -1.065745
 ---------------------------------------------------------------------
 Rotational constants (GHZ):           1.2183661           0.3116130           0.2668733
 Basis read from rwf:  (6D, 7F)
 There are   290 symmetry adapted cartesian basis functions of A   symmetry.
 There are   290 symmetry adapted basis functions of A   symmetry.
   290 basis functions,   528 primitive gaussians,   290 cartesian basis functions
    61 alpha electrons       61 beta electrons
       nuclear repulsion energy      1190.7262952554 Hartrees.
 NAtoms=   22 NActive=   22 NUniq=   22 SFac= 1.00D+00 NAtFMM=   60 NAOKFM=F Big=F
 Integral buffers will be    131072 words long.
 Raffenetti 2 integral format.
 Two-electron integral symmetry is turned on.
 ------------------------------------------------------------------------------
 Polarizable Continuum Model (PCM)
 =================================
 Model                : PCM.
 Atomic radii         : SMD-Coulomb.
 Polarization charges : Total charges.
 Charge compensation  : None.
 Solution method      : On-the-fly selection.
 Cavity type          : VdW (van der Waals Surface) (Alpha=1.000).
 Cavity algorithm     : GePol (No added spheres)
                        Default sphere list used, NSphG=   22.
                        Lebedev-Laikov grids with approx.  5.0 points / Ang**2.
                        Smoothing algorithm: York/Karplus (Gamma=1.0000).
                        Polarization charges: spherical gaussians, with
                                              point-specific exponents (IZeta= 3).
                        Self-potential: point-specific (ISelfS= 7).
                        Self-field    : sphere-specific E.n sum rule (ISelfD= 2).
 1st derivatives      : Analytical E(r).r(x)/FMM algorithm (CHGder, D1EAlg=3).
                        Cavity 1st derivative terms included.
 Solvent              : Water, Eps=  78.355300 Eps(inf)=   1.777849
 ------------------------------------------------------------------------------
 ------------------------------------------------------------------------------
 Atomic radii for non-electrostatic terms: SMD-CDS.
 ------------------------------------------------------------------------------
 Nuclear repulsion after PCM non-electrostatic terms =     1190.7325574551 Hartrees.
 One-electron integrals computed using PRISM.
 NBasis=   290 RedAO= T EigKep=  1.33D-05  NBF=   290
 NBsUse=   290 1.00D-06 EigRej= -1.00D+00 NBFU=   290
 Initial guess from the checkpoint file:  "/jobfs/40783899.gadi-pbs/Gau-1966782.chk"
 B after Tr=     0.000000    0.000000   -0.000000
         Rot=    0.999962   -0.006519   -0.001629   -0.005633 Ang=  -1.00 deg.
 ExpMin= 4.05D-02 ExpMax= 2.19D+04 ExpMxC= 3.30D+03 IAcc=3 IRadAn=         5 AccDes= 0.00D+00
 Harris functional with IExCor= 1009 and IRadAn=       5 diagonalized for initial guess.
 HarFok:  IExCor= 1009 AccDes= 0.00D+00 IRadAn=         5 IDoV= 1 UseB2=F ITyADJ=14
 ICtDFT=  3500011 ScaDFX=  1.000000  1.000000  1.000000  1.000000
 FoFCou: FMM=F IPFlag=           0 FMFlag=      100000 FMFlg1=           0
         NFxFlg=           0 DoJE=T BraDBF=F KetDBF=T FulRan=T
         wScrn=  0.000000 ICntrl=       500 IOpCl=  0 I1Cent=   200000004 NGrid=           0
         NMat0=    1 NMatS0=      1 NMatT0=    0 NMatD0=    1 NMtDS0=    0 NMtDT0=    0
 Petite list used in FoFCou.
 Requested convergence on RMS density matrix=1.00D-08 within 128 cycles.
 Requested convergence on MAX density matrix=1.00D-06.
 Requested convergence on             energy=1.00D-06.
 No special actions if energy rises.
 Inv3:  Mode=1 IEnd=    10223148.
 Iteration    1 A*A^-1 deviation from unit magnitude is 5.77D-15 for   1841.
 Iteration    1 A*A^-1 deviation from orthogonality  is 2.16D-15 for    768     71.
 Iteration    1 A^-1*A deviation from unit magnitude is 5.77D-15 for   1841.
 Iteration    1 A^-1*A deviation from orthogonality  is 1.44D-13 for   1105   1035.
 Error on total polarization charges =  0.04248
 SCF Done:  E(RM062X) =  -1436.03085564     A.U. after   14 cycles
            NFock= 14  Conv=0.43D-08     -V/T= 2.0055
 SMD-CDS (non-electrostatic) energy       (kcal/mol) =       3.93
 (included in total energy above)
 D1PCM: PCM CHGder 1st derivatives, ID1Alg=3 FixD1E=F DoIter=F DoCFld=F I1PDM=0.
 Calling FoFJK, ICntrl=      2127 FMM=F ISym2X=0 I1Cent= 0 IOpClX= 0 NMat=1 NMatS=1 NMatT=0.
 ***** Axes restored to original set *****
 -------------------------------------------------------------------
 Center     Atomic                   Forces (Hartrees/Bohr)
 Number     Number              X              Y              Z
 -------------------------------------------------------------------
      1        6           0.002226059    0.002126005   -0.001296573
      2        7          -0.001929157    0.001452291   -0.000955203
      3        7           0.002163311    0.003248770    0.004713884
      4        6          -0.000775205   -0.012241422    0.007645838
      5        7          -0.002704119    0.010403562   -0.014676768
      6       16          -0.002318870   -0.002539627   -0.001980851
      7       16          -0.003734204    0.001545740   -0.001628192
      8        8           0.001030702    0.000630117    0.001160311
      9        8           0.001974395   -0.001581871    0.000798680
     10        7           0.000131193   -0.001142228   -0.001140892
     11        1          -0.000277994   -0.000010291    0.000306762
     12        6           0.000394853    0.000758990   -0.000602932
     13        1          -0.000593389   -0.000303752    0.000159144
     14        1           0.000024995   -0.000400728   -0.000185084
     15        1          -0.000633709   -0.000535490    0.000278132
     16        1           0.000123149    0.000121954   -0.000098423
     17        6           0.009837163   -0.000766083    0.013050551
     18        6          -0.003791000    0.000242952   -0.005182220
     19        8          -0.002437325   -0.000431868    0.000507616
     20        1          -0.000408601   -0.000398070    0.000314158
     21        1           0.001707658    0.000212548   -0.001259487
     22        1          -0.000009904   -0.000391499    0.000071547
 -------------------------------------------------------------------
 Cartesian Forces:  Max     0.014676768 RMS     0.003825029

 GradGradGradGradGradGradGradGradGradGradGradGradGradGradGradGradGradGrad
 Berny optimization.
 Using GEDIIS/GDIIS optimizer.
 FormGI is forming the generalized inverse of G from B-inverse, IUseBI=4.
 Internal  Forces:  Max     0.015383248 RMS     0.002408673
 Search for a local minimum.
 Step number   2 out of a maximum of  108
 All quantities printed in internal units (Hartrees-Bohrs-Radians)
 Mixed Optimization -- RFO/linear search
 Update second derivatives using D2CorX and points    1    2
 DE= -7.61D-03 DEPred=-7.19D-03 R= 1.06D+00
 TightC=F SS=  1.41D+00  RLast= 3.90D-01 DXNew= 5.0454D-01 1.1705D+00
 Trust test= 1.06D+00 RLast= 3.90D-01 DXMaxT set to 5.05D-01
 ITU=  1  0
 Use linear search instead of GDIIS.
     Eigenvalues ---    0.00525   0.00628   0.00862   0.01156   0.01338
     Eigenvalues ---    0.01377   0.01608   0.01865   0.02081   0.02223
     Eigenvalues ---    0.02455   0.02664   0.04302   0.07071   0.07606
     Eigenvalues ---    0.07690   0.07846   0.09768   0.10674   0.14031
     Eigenvalues ---    0.15594   0.16000   0.16000   0.16000   0.16000
     Eigenvalues ---    0.16000   0.16000   0.16058   0.18620   0.20517
     Eigenvalues ---    0.24926   0.24972   0.24976   0.24982   0.24988
     Eigenvalues ---    0.24993   0.25000   0.27060   0.28317   0.30227
     Eigenvalues ---    0.31431   0.33356   0.34287   0.34402   0.34653
     Eigenvalues ---    0.34688   0.34712   0.34895   0.36646   0.44006
     Eigenvalues ---    0.44015   0.45831   0.49425   0.50432   0.53514
     Eigenvalues ---    0.69331   0.72552   0.90392   0.93297   0.94872
 RFO step:  Lambda=-9.22546006D-03 EMin= 5.25266336D-03
 Quartic linear search produced a step of  0.21493.
 Iteration  1 RMS(Cart)=  0.16049383 RMS(Int)=  0.02248110
 Iteration  2 RMS(Cart)=  0.06632512 RMS(Int)=  0.00306697
 Iteration  3 RMS(Cart)=  0.00541049 RMS(Int)=  0.00091905
 Iteration  4 RMS(Cart)=  0.00003277 RMS(Int)=  0.00091895
 Iteration  5 RMS(Cart)=  0.00000003 RMS(Int)=  0.00091895
 Variable       Old X    -DE/DX   Delta X   Delta X   Delta X     New X
                                 (Linear)    (Quad)   (Total)
    R1        2.42246   0.00014   0.00020   0.00069   0.00099   2.42345
    R2        3.27712   0.00073   0.00009   0.00285   0.00302   3.28013
    R3        3.38223  -0.00022   0.00062   0.00069   0.00132   3.38355
    R4        2.55349  -0.00233   0.00008  -0.00475  -0.00466   2.54883
    R5        2.56343   0.00228  -0.00540  -0.00926  -0.01476   2.54867
    R6        2.76071   0.00011  -0.00072  -0.00156  -0.00228   2.75843
    R7        2.42771   0.00797  -0.00092   0.01038   0.00946   2.43717
    R8        3.35887  -0.00175   0.00495   0.00628   0.01115   3.37002
    R9        2.58750   0.00055  -0.00181  -0.00356  -0.00538   2.58212
   R10        2.75281  -0.00133   0.00022  -0.00103  -0.00080   2.75200
   R11        2.74666   0.00259   0.00043   0.00430   0.00473   2.75139
   R12        3.07706  -0.00133  -0.00065  -0.00500  -0.00565   3.07141
   R13        1.93168   0.00011   0.00007   0.00045   0.00051   1.93219
   R14        1.93142   0.00016  -0.00001   0.00038   0.00037   1.93179
   R15        2.05799   0.00001  -0.00010  -0.00025  -0.00035   2.05764
   R16        2.06177   0.00019  -0.00002   0.00056   0.00054   2.06231
   R17        2.05903  -0.00079  -0.00057  -0.00404  -0.00460   2.05443
   R18        2.83178   0.00221  -0.00485  -0.00468  -0.00953   2.82225
   R19        2.33563   0.00087   0.00178   0.00590   0.00769   2.34331
   R20        2.06048  -0.00047  -0.00042  -0.00262  -0.00304   2.05743
   R21        2.06912   0.00058   0.00004   0.00201   0.00205   2.07117
   R22        2.06524   0.00017  -0.00035  -0.00036  -0.00071   2.06453
    A1        2.03200   0.00216  -0.00021   0.00861   0.00814   2.04014
    A2        2.10214  -0.00093  -0.00144  -0.00790  -0.00948   2.09266
    A3        2.14778  -0.00126   0.00144  -0.00198  -0.00070   2.14709
    A4        1.93590  -0.00216   0.00053  -0.00913  -0.00877   1.92713
    A5        2.04161   0.00104   0.00057   0.00616   0.00632   2.04794
    A6        2.07602  -0.00074   0.00444   0.00860   0.01311   2.08913
    A7        2.16283  -0.00026  -0.00487  -0.01320  -0.01801   2.14482
    A8        2.17446  -0.00259  -0.02088  -0.06552  -0.08625   2.08821
    A9        1.89084   0.00021   0.00046   0.00216   0.00222   1.89306
   A10        2.21635   0.00238   0.02059   0.06354   0.08434   2.30069
   A11        2.15546  -0.01538  -0.01002  -0.09455  -0.10457   2.05089
   A12        1.52395  -0.00127  -0.00140  -0.00893  -0.01066   1.51329
   A13        1.85863   0.00148   0.00803   0.02913   0.03719   1.89582
   A14        1.83416  -0.00044  -0.00713  -0.02009  -0.02710   1.80706
   A15        1.88417  -0.00058  -0.00112  -0.00511  -0.00633   1.87784
   A16        2.10391  -0.00048  -0.00421  -0.01371  -0.01769   2.08622
   A17        1.88220  -0.00065   0.00157  -0.00031   0.00111   1.88331
   A18        1.89077   0.00065   0.00290   0.01022   0.01295   1.90372
   A19        1.98144   0.00034   0.00074   0.00472   0.00546   1.98690
   A20        1.97864  -0.00011   0.00013   0.00010   0.00022   1.97885
   A21        1.96024  -0.00004  -0.00035  -0.00026  -0.00062   1.95962
   A22        1.88318   0.00002   0.00140   0.00412   0.00553   1.88871
   A23        1.92090  -0.00058  -0.00211  -0.01036  -0.01254   1.90836
   A24        1.88870   0.00002  -0.00224  -0.00490  -0.00721   1.88149
   A25        1.92916   0.00007   0.00111   0.00200   0.00312   1.93228
   A26        1.91617   0.00050   0.00249   0.01196   0.01444   1.93061
   A27        1.92483  -0.00002  -0.00063  -0.00278  -0.00356   1.92127
   A28        2.02528   0.00123  -0.01113  -0.02143  -0.03771   1.98757
   A29        2.15216  -0.00294   0.01051   0.01590   0.02122   2.17337
   A30        2.10472   0.00187   0.00173   0.01433   0.01091   2.11562
   A31        1.96481  -0.00109  -0.00340  -0.01609  -0.01959   1.94522
   A32        1.88387   0.00326   0.00185   0.02851   0.03044   1.91431
   A33        1.89701  -0.00073  -0.00161  -0.01048  -0.01222   1.88478
   A34        1.90872  -0.00072   0.00245   0.00379   0.00633   1.91505
   A35        1.92239   0.00040   0.00033   0.00068   0.00071   1.92310
   A36        1.88503  -0.00109   0.00058  -0.00565  -0.00501   1.88002
    D1        0.00109  -0.00051   0.00175  -0.01842  -0.01704  -0.01595
    D2       -3.08819  -0.00008   0.00764   0.00785   0.01523  -3.07296
    D3        0.01372   0.00065   0.00393   0.03134   0.03531   0.04903
    D4        3.10149   0.00022  -0.00218   0.00413   0.00168   3.10318
    D5        1.34667  -0.00040  -0.00091  -0.01499  -0.01573   1.33094
    D6       -2.68574  -0.00037  -0.00538  -0.02634  -0.03189  -2.71763
    D7       -0.67065  -0.00011  -0.00612  -0.02675  -0.03283  -0.70348
    D8       -1.73902  -0.00004   0.00541   0.01279   0.01834  -1.72068
    D9        0.51175  -0.00001   0.00094   0.00143   0.00218   0.51394
   D10        2.52684   0.00025   0.00020   0.00102   0.00124   2.52809
   D11       -0.02219   0.00002  -0.00900  -0.01163  -0.02055  -0.04275
   D12       -3.08768  -0.00043  -0.01053  -0.03281  -0.04353  -3.13121
   D13       -3.05391   0.00042   0.00785   0.02834   0.03670  -3.01721
   D14        0.03153   0.00048   0.01161   0.03405   0.04572   0.07725
   D15        0.00742   0.00087   0.00997   0.05177   0.06200   0.06942
   D16        3.09286   0.00093   0.01373   0.05748   0.07103  -3.11930
   D17        0.56089  -0.00021   0.00094  -0.00495  -0.00410   0.55679
   D18       -1.54545   0.00005  -0.00004  -0.00379  -0.00385  -1.54930
   D19        2.63326   0.00041   0.00345   0.00883   0.01213   2.64539
   D20       -2.49896  -0.00074  -0.00104  -0.02869  -0.02965  -2.52860
   D21        1.67788  -0.00049  -0.00201  -0.02753  -0.02939   1.64849
   D22       -0.42659  -0.00013   0.00148  -0.01491  -0.01341  -0.44000
   D23       -2.77879  -0.00703  -0.02314  -0.23822  -0.26145  -3.04024
   D24        0.42954  -0.00699  -0.02643  -0.24186  -0.26820   0.16135
   D25       -0.02389  -0.00054  -0.00821  -0.03411  -0.04222  -0.06611
   D26        3.05983  -0.00069  -0.00646  -0.03361  -0.03932   3.02051
   D27       -2.77221  -0.00664   0.00055  -0.31062  -0.31006  -3.08228
   D28        0.32068  -0.00277  -0.03550  -0.10331  -0.13882   0.18186
   D29        1.14123   0.00074   0.00622   0.02506   0.03132   1.17254
   D30       -1.12305   0.00059   0.00591   0.02099   0.02693  -1.09612
   D31       -0.86059  -0.00036  -0.00332  -0.00615  -0.00947  -0.87006
   D32       -3.12486  -0.00051  -0.00363  -0.01023  -0.01386  -3.13872
   D33        3.11881   0.00026  -0.00119   0.00418   0.00296   3.12177
   D34        0.85454   0.00010  -0.00150   0.00011  -0.00143   0.85311
   D35        0.08032   0.00220  -0.01468   0.10636   0.09133   0.17165
   D36       -2.02796   0.00156  -0.01690   0.09237   0.07530  -1.95266
   D37        2.21489   0.00146  -0.01774   0.08916   0.07138   2.28627
   D38       -3.01399  -0.00141   0.02096  -0.09498  -0.07398  -3.08798
   D39        1.16092  -0.00205   0.01875  -0.10897  -0.09002   1.07090
   D40       -0.87942  -0.00214   0.01791  -0.11218  -0.09394  -0.97336
         Item               Value     Threshold  Converged?
 Maximum Force            0.015383     0.000450     NO 
 RMS     Force            0.002409     0.000300     NO 
 Maximum Displacement     0.859460     0.001800     NO 
 RMS     Displacement     0.211870     0.001200     NO 
 Predicted change in Energy=-6.492088D-03
 GradGradGradGradGradGradGradGradGradGradGradGradGradGradGradGradGradGrad

                          Input orientation:                          
 ---------------------------------------------------------------------
 Center     Atomic      Atomic             Coordinates (Angstroms)
 Number     Number       Type             X           Y           Z
 ---------------------------------------------------------------------
      1          6           0       -0.889883    0.568792   -0.621116
      2          7           0       -1.412037    1.586399   -1.201181
      3          7           0       -0.903942    1.732764   -2.441999
      4          6           0        0.054435    0.864640   -2.825230
      5          7           0        0.668332    1.045576   -3.944920
      6         16           0        0.268598   -0.346475   -1.533864
      7         16           0       -1.460921    0.076720    1.002969
      8          8           0       -2.744116   -0.596982    0.860363
      9          8           0       -0.327050   -0.649034    1.557472
     10          7           0       -1.700799    1.430199    1.870277
     11          1           0       -2.473126    2.007526    1.530200
     12          6           0       -1.350567    2.841178   -3.280245
     13          1           0       -1.588381    3.683460   -2.632470
     14          1           0       -2.228683    2.532461   -3.849982
     15          1           0       -0.537693    3.095458   -3.955885
     16          1           0       -0.847519    1.973096    2.019255
     17          6           0        1.543439    0.076911   -4.348557
     18          6           0        2.267566    0.405101   -5.612829
     19          8           0        1.652557   -1.037710   -3.816222
     20          1           0        2.101532    1.439309   -5.909841
     21          1           0        1.936856   -0.267143   -6.412808
     22          1           0        3.332672    0.226663   -5.447692
 ---------------------------------------------------------------------
                    Distance matrix (angstroms):
                    1          2          3          4          5
     1  C    0.000000
     2  N    1.282437   0.000000
     3  N    2.161167   1.348781   0.000000
     4  C    2.416067   2.304129   1.348700   0.000000
     5  N    3.701760   3.485474   2.281018   1.289695   0.000000
     6  S    1.735771   2.582870   2.553976   1.783338   2.812612
     7  S    1.790495   2.672041   3.862708   4.191925   5.473025
     8  O    2.644237   3.285050   4.440670   4.853023   6.118296
     9  O    2.558540   3.712751   4.690578   4.652399   5.842842
    10  N    2.758015   3.088954   4.395708   5.044650   6.291044
    11  H    3.033938   2.960355   4.279743   5.163771   6.385221
[...]
 608219,0.06110489,-0.14178804,-0.00678767,-0.00183678,0.01225871,0.006
 60282,-0.00467666,-0.00410992,0.00311700,-0.00116270,0.00133105,0.0008
 7774,0.00125486,-0.00179515,-0.00057796,-0.00010182,0.00045517,-0.0001
 0329,-0.00030722,0.00020725,0.00002001,0.00021742,0.00100482,0.0000434
 9,-0.00011395,-0.00006845,-0.05364303,0.06251161,0.57620984,0.00013325
 ,-0.00016939,-0.00017796,0.00086800,-0.00136309,0.00231378,-0.01278938
 ,0.00654630,0.00358439,0.00068097,0.00059832,-0.00140611,-0.00013843,0
 .00022130,0.00005099,0.00013181,0.00006674,0.00013633,-0.00009377,-0.0
 0003733,0.00012348,0.00004781,0.00000981,-0.00002666,0.00001161,0.0000
 1245,-0.00002884,-0.00000200,-0.00003023,-0.00006784,-0.00000351,0.000
 00795,-0.00000617,-0.23439594,0.09779167,0.10152146,0.24884112,0.00007
 155,-0.00030969,0.00002954,0.00071307,0.00188171,-0.00234677,0.0228308
 6,-0.01708123,-0.00832426,-0.00072312,-0.00127854,0.00383603,0.0000924
 0,0.00024581,-0.00027504,0.00045114,-0.00017657,0.00022993,0.00007295,
 -0.00001232,-0.00025044,-0.00009922,0.00000281,0.00004227,-0.00001183,
 -0.00000957,0.00006727,0.00000381,0.00001378,0.00006614,0.00000739,-0.
 00000283,-0.00000802,0.09117343,-0.09755040,-0.05025190,-0.10818919,0.
 10614999,-0.00064745,0.00044041,0.00001151,-0.00111235,0.00061568,0.00
 131176,-0.02493923,0.01555690,0.00682075,0.00079520,0.00199604,-0.0041
 5778,0.00023846,-0.00041252,0.00053474,-0.00052735,0.00077801,-0.00027
 386,-0.00008006,-0.00006600,0.00014791,0.00006847,-0.00001076,-0.00003
 534,0.00002844,-0.00001455,-0.00002195,0.00000127,-0.00002289,-0.00006
 731,-0.00000512,0.00000532,0.00000358,0.11310342,-0.06000874,-0.111111
 23,-0.11082341,0.05265783,0.11657430,-0.00047493,0.00081254,-0.0009580
 2,-0.00132563,-0.00118262,0.00148082,-0.00463673,0.00009578,-0.0126543
 8,0.00148682,-0.00031284,-0.00213421,-0.00074814,-0.00075373,0.0005494
 8,0.00073328,0.00002467,-0.00010635,-0.00015330,0.00003418,0.00064954,
 0.00014319,-0.00002905,-0.00010147,-0.00003429,0.00010273,-0.00018240,
 0.00000315,-0.00004801,-0.00015275,-0.00001222,0.00001936,0.00001176,-
 0.06945604,-0.03534998,-0.06129269,0.01050237,0.01094906,0.02174546,0.
 06868980,-0.00018539,-0.00178880,0.00131650,0.00274812,-0.00006260,0.0
 0071059,0.00989426,0.00977534,0.02963461,-0.00168928,0.00155775,0.0017
 6497,0.00155172,-0.00009161,-0.00102984,-0.00090174,-0.00027675,0.0001
 9789,0.00032065,-0.00010831,-0.00124141,-0.00030794,0.00003787,0.00022
 794,0.00006707,-0.00026571,0.00044422,0.00001775,0.00009623,0.00025740
 ,0.00002793,-0.00004274,-0.00001505,-0.03845659,-0.11706985,-0.1216992
 9,-0.00501063,-0.00516754,-0.00882047,0.03614838,0.12198017,0.00025730
 ,0.00119381,-0.00121223,-0.00350136,-0.00017487,-0.00075736,-0.0064842
 2,-0.00027571,-0.02193149,0.00300873,-0.00154913,-0.00176361,-0.001416
 26,0.00056119,0.00173335,0.00029741,-0.00003113,-0.00012005,-0.0003158
 6,0.00000918,0.00112140,0.00028781,-0.00002280,-0.00021657,-0.00005049
 ,0.00025978,-0.00036040,-0.00001696,-0.00008399,-0.00025401,-0.0000216
 3,0.00003864,0.00001992,-0.06345706,-0.11324182,-0.24776178,-0.0036687
 5,-0.00518474,-0.00810084,0.07203457,0.11683013,0.27220303,-0.00052943
 ,0.00060752,-0.00110552,-0.00026827,0.00066582,0.00062959,0.01293008,0
 .01512200,-0.00449289,0.00116140,0.00040078,-0.00066225,-0.00012130,0.
 00055020,0.00080029,0.00009954,-0.00059218,-0.00063924,-0.00044008,-0.
 00021239,0.00051797,0.00012810,0.00000549,-0.00007579,0.00003390,0.000
 14981,-0.00012171,0.00001469,-0.00007191,-0.00026486,-0.00000726,0.000
 02614,0.00001180,-0.19825030,-0.14336206,0.03704822,-0.01391899,-0.017
 21728,0.00203054,-0.00493244,-0.00380956,0.00227390,0.20444093,0.00041
 992,-0.00113809,0.00162091,0.00049060,-0.00207732,-0.00254103,-0.00926
 056,-0.01948095,0.01203997,-0.00313008,0.00079203,0.00260591,0.0008824
 9,-0.00026897,-0.00180278,-0.00027796,0.00056646,0.00048409,0.00063352
 ,0.00036819,-0.00096111,-0.00022226,-0.00000137,0.00015510,-0.00001050
 ,-0.00023274,0.00022829,-0.00001263,0.00010683,0.00042443,0.00001732,-
 0.00004658,-0.00002200,-0.13598561,-0.17997440,0.03226297,0.00958535,0
 .01308534,-0.00248720,-0.01042388,-0.00847547,0.00236920,0.14777949,0.
 19616427,-0.00046598,0.00029291,-0.00177136,-0.00059499,0.00369342,0.0
 0004696,0.01468529,0.02051436,-0.01027404,0.00261199,-0.00116061,-0.00
 080596,-0.00174121,0.00036010,0.00117605,0.00002753,-0.00021620,-0.000
 33655,-0.00064137,-0.00035020,0.00092212,0.00024171,0.00001721,-0.0001
 7817,0.00002270,0.00028478,-0.00025157,0.00000093,-0.00012299,-0.00042
 048,-0.00001695,0.00004968,0.00001744,0.03178515,0.02996573,-0.0565887
 2,0.00849525,0.00981297,-0.00187883,-0.01918679,-0.01853339,0.00738398
 ,-0.03580709,-0.04419012,0.06307664,0.00115926,0.00062434,0.00077144,0
 .00019889,0.00056918,-0.00062367,-0.00098842,-0.00000125,0.00106948,0.
 00064921,-0.00028021,-0.00049918,-0.00059968,0.00005405,0.00063871,0.0
 0041112,-0.00033546,-0.00012066,-0.01201025,-0.00487692,-0.00162022,0.
 00325389,0.00046994,-0.00029174,0.00175187,0.00301201,0.00062641,-0.43
 350362,0.02159966,-0.02286327,-0.00535568,-0.00345179,0.00265713,-0.00
 015118,0.00013635,-0.00011079,0.00000812,-0.00000731,0.00000720,0.0000
 2032,-0.00003979,0.00003694,0.00003078,-0.00004940,0.00005040,0.444999
 18,0.00028568,-0.00045018,0.00002830,0.00010370,-0.00006211,0.00009595
 ,0.00005345,-0.00006456,-0.00009297,0.00004895,0.00011084,0.00000220,-
 0.00000828,-0.00002677,-0.00001282,-0.00005937,0.00001605,-0.00020087,
 -0.02352834,0.00342459,0.00470565,-0.00554217,-0.00235141,-0.00490796,
 0.00263176,-0.00006040,0.00008802,0.00994192,-0.06044013,-0.01564790,0
 .03335511,0.00501248,0.00163831,0.00000311,-0.00001429,0.00000331,-0.0
 0000009,-0.00000125,0.00000127,-0.00000159,0.00000579,-0.00000340,0.00
 000208,0.00000070,0.00000034,-0.01730291,0.05489851,0.00242768,-0.0004
 5666,0.00018469,0.00035808,0.00078666,-0.00043939,-0.00104089,-0.00010
 739,0.00102337,0.00078686,-0.00036343,-0.00060762,-0.00055449,0.000130
 90,0.00055150,0.00012922,-0.00039840,-0.00065441,-0.02819975,-0.005477
 65,-0.01015209,-0.00398776,-0.00342849,0.00125474,0.00146669,0.0028447
 5,-0.00038052,0.01200633,-0.00939183,-0.00887365,-0.00373128,0.0016677
 0,-0.00287590,-0.00015623,0.00009397,-0.00011604,0.00000956,-0.0000062
 7,0.00000549,0.00002413,-0.00003231,0.00002985,0.00003470,-0.00004972,
 0.00004423,0.02024729,0.01430460,0.02099458,0.00744654,-0.00323311,-0.
 00477669,-0.00149465,0.00624204,-0.00304306,0.02704234,-0.01577526,-0.
 00465383,-0.07359710,0.00956519,0.07779721,-0.17225721,0.07964956,0.00
 564381,-0.00125153,0.01056717,-0.01582102,-0.00413367,-0.00285141,0.01
 037141,0.00267069,-0.00003252,-0.00204927,0.00004770,0.00195757,-0.002
 58493,-0.00027463,-0.00094029,-0.00374758,-0.00022280,0.00049000,0.000
 30020,-0.00263830,0.00505425,-0.00415558,0.00039507,-0.00034197,0.0001
 6509,0.00025070,-0.00084586,0.00103517,-0.00037346,-0.00059698,0.00093
 898,0.00043245,-0.00000804,0.00041139,0.47585965,-0.00943442,0.0045308
 8,0.00329224,0.00421041,-0.00373575,0.00651507,-0.01919901,0.01642200,
 0.00883131,0.03309604,-0.00012590,-0.05943371,0.05920092,-0.13014607,0
 .01456911,-0.00168120,-0.00837710,0.01877655,0.00273342,0.00133417,-0.
 00866067,-0.00193025,0.00016510,0.00175015,0.00010883,-0.00155427,0.00
 208622,0.00013693,0.00057582,0.00251503,0.00015583,-0.00034840,-0.0002
 2639,0.00301687,-0.00436218,0.00353245,-0.00024561,0.00042337,-0.00021
 771,0.00000842,0.00007084,-0.00115495,-0.00024567,0.00082881,-0.000865
 24,-0.00032366,0.00000847,-0.00030459,-0.16316910,0.50767138,0.0046004
 4,-0.00427425,0.00042337,0.00016042,0.00376075,-0.00285682,0.00179724,
 0.00347691,-0.00344931,0.03800283,-0.02654351,-0.01626479,0.04063611,-
 0.01433943,-0.10537992,0.00578347,0.00088438,-0.00868648,-0.00023612,0
 .00003339,-0.00102146,-0.00080228,-0.00002498,0.00049802,-0.00009262,-
 0.00013504,0.00038981,0.00010495,0.00013995,0.00016684,0.00001943,-0.0
 0002972,-0.00001282,-0.00084576,0.00083046,0.00024225,-0.00001715,-0.0
 0007114,0.00022560,0.00025622,-0.00010615,0.00016772,-0.00037871,-0.00
 018939,0.00000177,-0.00004455,0.00000437,-0.00001418,-0.05883532,-0.22
 416694,0.70273818,-0.00049438,-0.00070028,-0.00017911,-0.00038541,-0.0
 0029921,-0.00020286,-0.00110823,0.00015860,0.00137562,-0.00049449,0.00
 417509,0.00115726,-0.01832058,0.00602749,0.03174300,0.00015666,0.00092
 321,0.00128971,0.00013272,0.00002195,-0.00044832,-0.00012737,0.0000143
 9,0.00012699,0.00000965,-0.00008746,0.00011347,-0.00000493,0.00004705,
 0.00012633,0.00001208,-0.00001663,-0.00000656,0.00017825,-0.00009526,0
 .00025418,-0.00002529,0.00002918,-0.00001653,-0.00003312,0.00005522,-0
 .00001643,-0.00002105,0.00001594,-0.00003235,-0.00001628,0.00000341,-0
 .00002371,-0.12711648,-0.00835971,0.06326309,0.58484951,-0.00081697,-0
 .00029950,-0.00067852,-0.00040207,-0.00066451,0.00012638,0.00025793,0.
 00054018,-0.00127241,0.00648645,0.00103200,-0.00173888,0.01646879,0.00
 664906,-0.01518062,0.00191656,0.00034006,0.00025774,0.00000533,0.00002
 070,-0.00017295,-0.00008548,-0.00000690,0.00008333,0.00000172,-0.00003
 937,0.00001879,0.00000386,0.00001415,-0.00000012,0.00000458,-0.0000034
 6,0.00000153,0.00013391,0.00008829,0.00008905,0.00000749,-0.00000589,-
 0.00000281,-0.00003533,0.00001410,-0.00001745,0.00001698,0.00001493,-0
 .00001166,0.00000024,0.00000130,-0.00001198,-0.00684962,-0.08816525,0.
 00245533,-0.04267955,0.58517840,0.00018767,-0.00082825,-0.00021829,-0.
 00005657,-0.00008148,-0.00069562,0.00119254,-0.00110199,0.00017289,-0.
 00265496,0.00157166,0.00649241,0.01388266,-0.00038986,-0.00748265,-0.0
 0061492,0.00178869,-0.00000379,-0.00032737,-0.00026396,0.00093738,0.00
 024577,0.00000692,-0.00018519,0.00001599,0.00016536,-0.00024251,-0.000
 03082,-0.00007749,-0.00029550,-0.00001846,0.00004112,0.00002598,-0.000
 11381,0.00039846,-0.00025190,0.00002147,-0.00003332,0.00002461,0.00004
 717,-0.00006318,0.00006211,0.00005597,-0.00008720,0.00004650,0.0000388
 4,0.00000049,0.00002800,0.06119154,0.00448239,-0.18647016,0.02229261,0
 .00004960,0.51925701,0.00023753,0.00170300,0.00422503,-0.00214633,0.00
 040044,-0.00016660,-0.00550786,0.00370861,0.00117506,0.00994286,0.0043
 3146,-0.02408897,-0.03719699,0.05946865,-0.00896867,-0.00264925,-0.003
 88264,0.00076458,0.00156212,0.00208077,-0.00622112,-0.00196467,-0.0001
 8330,0.00150515,0.00004119,-0.00117528,0.00149350,0.00028127,0.0005456
 8,0.00196591,0.00011931,-0.00026850,-0.00015771,0.00027874,-0.00163086
 ,0.00182224,-0.00022841,0.00015861,-0.00000941,-0.00001150,0.00037137,
 -0.00021710,0.00004647,0.00007992,-0.00030952,-0.00025458,0.00002029,-
 0.00017682,-0.12846668,0.10233640,-0.09769701,0.01898079,-0.00216334,0
 .01235747,0.14669629,0.00615333,0.00131124,-0.00179415,-0.00223016,0.0
 0135660,-0.00241780,0.00957925,-0.00647917,-0.00317843,-0.02084520,-0.
 00642435,0.03783286,0.08320245,-0.04364787,0.00313883,-0.00312002,-0.0
 0128804,-0.00637194,-0.00148204,-0.00113935,0.00500888,0.00133443,-0.0
 0002046,-0.00112838,-0.00009214,0.00098163,-0.00117026,-0.00010330,-0.
 00038140,-0.00157560,-0.00009433,0.00020889,0.00012774,-0.00117827,0.0
 0191012,-0.00215496,0.00019069,-0.00019723,0.00000107,-0.00008353,-0.0
 0016034,0.00044572,0.00018667,-0.00021765,0.00043841,0.00019098,-0.000
 00765,0.00018894,0.08380600,-0.29213735,0.24895181,0.00934261,0.003171
 99,0.02372987,-0.16161178,0.34277651,-0.00354571,0.00389449,0.00256863
 ,0.00402726,-0.00602324,0.00219822,-0.00902578,0.00541950,0.00364477,0
 .01919463,0.00194183,-0.03220413,-0.04969729,0.03699350,0.03526752,-0.
 00077879,-0.00495371,0.00307843,0.00067786,-0.00039619,0.00026261,0.00
 059569,0.00020353,-0.00040353,0.00004999,0.00003324,-0.00002916,-0.000
 10570,-0.00006749,0.00020176,0.00000376,-0.00001609,-0.00002941,0.0010
 7914,-0.00158897,0.00073276,-0.00006001,0.00003982,-0.00003003,-0.0000
 4550,0.00020144,-0.00029559,0.00013971,0.00016675,-0.00025894,-0.00000
 245,-0.00000635,-0.00003045,-0.06605491,0.22251329,-0.35918161,-0.0072
 2634,0.04004226,-0.03269415,0.10897518,-0.30011368,0.38489902,-0.00027
 983,0.00012688,0.00001130,-0.00011032,-0.00019608,0.00020100,-0.000312
 30,0.00025662,-0.00000789,0.00113098,0.00042158,-0.00126810,-0.0009596
 1,0.00145607,0.00204189,0.00028385,-0.00019120,0.00016447,0.00008514,0
 .00006949,-0.00027405,-0.00007451,-0.00000132,0.00006326,0.00000133,-0
 .00005247,0.00006452,0.00000701,0.00002150,0.00008101,0.00000618,-0.00
 001151,-0.00000637,0.00007459,-0.00010214,0.00009360,-0.00000668,0.000
 01096,-0.00000961,-0.00001187,0.00001770,-0.00002186,0.00000182,0.0000
 2069,-0.00001467,-0.00001047,0.00000081,-0.00000996,-0.00476044,-0.015
 29468,-0.00338680,-0.07479897,-0.08181972,0.01127143,0.00024998,0.0003
 0593,0.00201233,0.07524196,0.00013536,-0.00010053,-0.00005163,-0.00000
 885,0.00014429,-0.00007225,0.00043456,-0.00033473,-0.00006475,-0.00094
 522,0.00026916,0.00154743,0.00200008,0.00025769,-0.00163390,-0.0000634
 9,0.00016859,-0.00040453,-0.00008403,-0.00006013,0.00016141,0.00003774
 ,-0.00000050,-0.00002691,0.00000204,0.00003282,-0.00003848,-0.00000324
 ,-0.00001396,-0.00006516,-0.00000465,0.00000870,0.00000542,-0.00005136
 ,0.00008841,-0.00004794,0.00000504,-0.00000494,0.00000651,0.00001408,-
 0.00001995,0.00001978,0.00000156,-0.00000537,0.00001084,0.00000762,-0.
 00000033,0.00000740,0.00000678,-0.00305266,0.00178809,-0.08271498,-0.2
 9598622,0.02081081,-0.00142992,0.00053179,0.00062742,0.09051532,0.3175
 7673,0.00029757,0.00002911,0.00014160,0.00022030,0.00014174,-0.0001630
 8,0.00010117,-0.00008316,0.00006220,-0.00098155,-0.00075217,0.00058355
 ,-0.00051260,-0.00146715,-0.00082470,-0.00063096,0.00003889,-0.0001016
 1,-0.00006437,-0.00004598,0.00025071,0.00007756,0.00000288,-0.00006902
 ,0.00000229,0.00004754,-0.00005995,-0.00000718,-0.00002385,-0.00006458
 ,-0.00000519,0.00000970,0.00000510,-0.00006754,0.00003789,-0.00007898,
 0.00000654,-0.00000764,0.00000528,0.00000708,-0.00001515,0.00001529,-0
 .00000131,-0.00000693,0.00001660,0.00000966,-0.00000059,0.00000981,0.0
 0898500,0.03160304,-0.00047020,0.01175124,0.02243391,-0.04336525,0.000
 25140,-0.00169218,-0.00680676,-0.01090053,-0.02427038,0.04862236,-0.00
 021391,0.00027583,0.00009809,0.00006810,0.00000243,0.00033321,-0.00049
 300,0.00040478,0.00002605,0.00123437,-0.00018996,-0.00217674,-0.002359
 68,0.00001274,0.00184379,0.00013509,-0.00062405,0.00017442,0.00011443,
 0.00007492,-0.00035657,-0.00009400,-0.00000147,0.00007208,-0.00000284,
 -0.00006151,0.00008998,0.00001235,0.00002956,0.00010825,0.00000523,-0.
 00001549,-0.00000973,0.00007737,-0.00014671,0.00009165,-0.00000706,0.0
 0001435,-0.00000894,-0.00000143,0.00001323,-0.00002431,-0.00001525,0.0
 0003220,-0.00002700,-0.00001342,-0.00000049,-0.00001122,0.01373978,0.0
 0556415,0.01153688,-0.15940965,-0.02907667,-0.13254022,-0.00169577,-0.
 00287714,0.00148427,-0.00654644,-0.00085866,-0.00757512,0.16841689,0.0
 0016047,0.00000396,-0.00000580,-0.00003906,0.00008324,-0.00008006,0.00
 020783,-0.00016098,-0.00001993,-0.00055666,-0.00011484,0.00060486,0.00
 120346,-0.00021472,-0.00114733,-0.00001789,-0.00005644,-0.00020146,-0.
 00002124,-0.00001436,0.00008601,0.00001879,-0.00000245,-0.00002026,-0.
 00000335,0.00001639,-0.00001714,-0.00000201,-0.00000600,-0.00002196,-0
 .00000127,0.00000355,0.00000176,-0.00004368,0.00003970,-0.00004520,0.0
 0000197,-0.00000461,0.00000500,0.00000950,-0.00000129,0.00000980,0.000
 00240,-0.00001020,0.00000673,0.00000295,0.00000025,0.00000304,0.002881
 28,-0.00090777,0.00604635,-0.02794434,-0.04975378,-0.03982206,-0.00183
 651,-0.00095316,0.00130293,-0.01895848,-0.00460800,-0.02421962,0.03379
 185,0.05197931,0.00001816,-0.00027498,-0.00008191,0.00004911,-0.000087
 51,-0.00024711,-0.00005015,-0.00002064,0.00005940,0.00042120,0.0004493
 7,0.00086567,0.00141215,0.00113292,0.00116356,-0.00024495,0.00038180,0
 .00031135,-0.00007478,-0.00008069,0.00018589,0.00005715,0.00001037,-0.
 00003336,0.00000656,0.00003633,-0.00004724,-0.00001084,-0.00001665,-0.
 00006761,-0.00000306,0.00000931,0.00000680,-0.00000011,0.00008032,-0.0
 0003287,0.00000526,-0.00000650,0.00000479,0.00000312,-0.00000469,0.000
 01558,0.00000181,-0.00000686,0.00000823,0.00000760,0.00000067,0.000004
 99,-0.02214651,-0.00589596,-0.02104123,-0.13306712,-0.04109177,-0.2048
 4183,0.00435876,0.00258215,-0.00343168,0.00257161,0.00057167,0.0033026
 9,0.14400489,0.04083603,0.22069147,-0.00012928,0.00001808,0.00018156,-
 0.00007002,-0.00003531,0.00007059,-0.00040441,0.00012012,0.00030561,0.
 00036173,0.00055252,-0.00047682,-0.00219919,0.00059208,0.00433971,-0.0
 0009323,-0.00010624,0.00017471,0.00007876,0.00007597,-0.00028840,-0.00
 008846,-0.00000559,0.00007030,0.00000258,-0.00005740,0.00007323,0.0000
 1039,0.00002518,0.00009183,0.00000565,-0.00001224,-0.00000753,0.000058
 58,-0.00008999,0.00010207,-0.00001067,0.00001117,-0.00000411,0.0000020
 2,0.00001338,-0.00001955,-0.00000989,0.00001243,-0.00002204,-0.0000114
 8,0.00000099,-0.00000982,-0.01129798,0.00931509,-0.00382475,-0.2219634
 1,0.13862486,0.01355600,0.00168551,-0.00057444,-0.00169734,0.01078862,
 -0.00699578,-0.00096346,-0.01295114,0.01114400,0.00268014,0.23623533,0
 .00004892,0.00000240,-0.00003773,-0.00006035,-0.00000604,-0.00002945,-
 0.00000105,-0.00006161,0.00002874,-0.00012937,0.00055813,0.00043129,0.
 00026205,0.00094360,0.00062626,-0.00001866,-0.00003796,-0.00008657,-0.
 00000897,-0.00001719,0.00002990,0.00001000,0.00000258,-0.00000657,-0.0
 0000044,0.00000656,-0.00000645,-0.00000183,-0.00000295,-0.00001292,-0.
 00000047,0.00000154,0.00000152,0.00000664,0.00002058,-0.00000116,0.000
 00048,-0.00000020,-0.00000041,0.00000185,-0.00000714,0.00000278,-0.000
 00589,0.00000156,0.00000293,0.00000136,0.00000009,0.00000076,-0.005575
 68,0.00088186,0.00150876,0.14208327,-0.16214028,-0.01029657,-0.0010230
 8,0.00080526,-0.00021427,0.02340403,-0.01489086,-0.00175990,-0.0063638
 9,0.00468221,0.00139533,-0.15262890,0.16925786,0.00013267,0.00000823,-
 0.00016588,0.00010100,-0.00005957,-0.00012861,0.00052445,-0.00016688,-
 0.00053030,0.00065195,-0.00052992,0.00072319,0.00489056,0.00018387,-0.
 00565844,0.00001687,0.00004226,-0.00021909,-0.00011140,-0.00009818,0.0
 0036270,0.00010727,0.00000635,-0.00008304,-0.00000198,0.00007226,-0.00
 009258,-0.00001429,-0.00003347,-0.00011963,-0.00000708,0.00001685,0.00
 000948,-0.00006104,0.00013967,-0.00012063,0.00001441,-0.00001574,0.000
 00684,0.00000521,-0.00002477,0.00002168,0.00000487,-0.00001327,0.00002
 410,0.00001543,-0.00000062,0.00001302,0.02102891,-0.01954066,-0.000004
 58,0.00772582,-0.00537874,-0.05030004,-0.00088138,-0.00084891,0.002541
 72,-0.00267659,0.00111916,-0.00101106,-0.01713371,0.01669834,0.0032044
 4,-0.01433194,0.00842373,0.05152671\\0.00000876,-0.00001454,-0.0000059
 0,-0.00000701,0.00001610,-0.00000109,0.00000639,0.00000882,0.00000230,
 -0.00000487,-0.00001301,-0.00000826,-0.00000641,0.00001242,0.00000663,
 -0.00001420,0.00000102,0.00001443,-0.00003582,0.00002119,-0.00001055,0
 .00000679,0.00000987,-0.00000939,0.00000436,-0.00003558,-0.00000022,-0
 .00001490,0.00000794,-0.00001335,-0.00000188,-0.00000213,0.00000732,0.
 00000184,0.00001015,-0.00000156,0.00001198,0.00000566,-0.00000240,0.00
 000978,0.00000822,-0.00000431,0.00001218,0.00000375,-0.00000293,-0.000
 01075,-0.00000062,0.00000854,0.00002268,-0.00002443,0.00001166,0.00000
 363,0.00000269,-0.00000088,-0.00000940,0.00000683,-0.00000902,0.000009
 91,-0.00000841,0.00000904,0.00000565,-0.00000676,0.00000407,0.00000129
 ,-0.00000920,0.00000589\\\@
 The archive entry for this job was punched.


 WE TEND TO MEET ANY NEW SITUATION BY REORGANIZING. IT CAN BE A
 WONDERFUL METHOD FOR CREATING THE ILLUSION OF PROGRESS WHILE PRODUCING
 CONFUSION, INEFFICIENCY, AND DEMORALIZATION.
     -- PETRONIUS ARBITER, 210 B.C.
 Job cpu time:       0 days  1 hours 18 minutes 39.7 seconds.
 Elapsed time:       0 days  0 hours  5 minutes 42.6 seconds.
 File lengths (MBytes):  RWF=    289 Int=      0 D2E=      0 Chk=     14 Scr=      1
 Normal termination of Gaussian 16 at Sat May 21 01:15:37 2022.
