 Entering Gaussian System, Link 0=g16
 AtFile(1): /home/561/yj5695/Basis/6-31pGd.gbs
 Initial command:
 /apps/gaussian/g16c01/g16/l1.exe "/jobfs/45185364.gadi-pbs/Gau-2116476.inp" -scrdir="/jobfs/45185364.gadi-pbs/"
 Entering Link 1 = /apps/gaussian/g16c01/g16/l1.exe PID=   2116477.
  
 Copyright (c) 1988-2019, Gaussian, Inc.  All Rights Reserved.
  
 This is part of the Gaussian(R) 16 program.  It is based on
 the Gaussian(R) 09 system (copyright 2009, Gaussian, Inc.),
 the Gaussian(R) 03 system (copyright 2003, Gaussian, Inc.),
 the Gaussian(R) 98 system (copyright 1998, Gaussian, Inc.),
 the Gaussian(R) 94 system (copyright 1995, Gaussian, Inc.),
 the Gaussian 92(TM) system (copyright 1992, Gaussian, Inc.),
 the Gaussian 90(TM) system (copyright 1990, Gaussian, Inc.),
 the Gaussian 88(TM) system (copyright 1988, Gaussian, Inc.),
 the Gaussian 86(TM) system (copyright 1986, Carnegie Mellon
 University), and the Gaussian 82(TM) system (copyright 1983,
 Carnegie Mellon University). Gaussian is a federally registered
 trademark of Gaussian, Inc.
  
 This software contains proprietary and confidential information,
 including trade secrets, belonging to Gaussian, Inc.
  
 This software is provided under written license and may be
 used, copied, transmitted, or stored only in accord with that
 written license.
  
 The following legend is applicable only to US Government
 contracts under FAR:
  
                    RESTRICTED RIGHTS LEGEND
  
 Use, reproduction and disclosure by the US Government is
 subject to restrictions as set forth in subparagraphs (a)
 and (c) of the Commercial Computer Software - Restricted
 Rights clause in FAR 52.227-19.
  
 Gaussian, Inc.
 340 Quinnipiac St., Bldg. 40, Wallingford CT 06492
  
  
 ---------------------------------------------------------------
 Warning -- This program may not be used in any manner that
 competes with the business of Gaussian, Inc. or will provide
 assistance to any competitor of Gaussian, Inc.  The licensee
 of this program is prohibited from giving any competitor of
 Gaussian, Inc. access to this program.  By using this program,
 the user acknowledges that Gaussian, Inc. is engaged in the
 business of creating and licensing software in the field of
 computational chemistry and represents and warrants to the
 licensee that it is not a competitor of Gaussian, Inc. and that
 it will not use this program in any manner prohibited above.
 ---------------------------------------------------------------
  

 Cite this work as:
 Gaussian 16, Revision C.01,
 M. J. Frisch, G. W. Trucks, H. B. Schlegel, G. E. Scuseria, 
 M. A. Robb, J. R. Cheeseman, G. Scalmani, V. Barone, 
 G. A. Petersson, H. Nakatsuji, X. Li, M. Caricato, A. V. Marenich, 
 J. Bloino, B. G. Janesko, R. Gomperts, B. Mennucci, H. P. Hratchian, 
 J. V. Ortiz, A. F. Izmaylov, J. L. Sonnenberg, D. Williams-Young, 
 F. Ding, F. Lipparini, F. Egidi, J. Goings, B. Peng, A. Petrone, 
 T. Henderson, D. Ranasinghe, V. G. Zakrzewski, J. Gao, N. Rega, 
 G. Zheng, W. Liang, M. Hada, M. Ehara, K. Toyota, R. Fukuda, 
 J. Hasegawa, M. Ishida, T. Nakajima, Y. Honda, O. Kitao, H. Nakai, 
 T. Vreven, K. Throssell, J. A. Montgomery, Jr., J. E. Peralta, 
 F. Ogliaro, M. J. Bearpark, J. J. Heyd, E. N. Brothers, K. N. Kudin, 
 V. N. Staroverov, T. A. Keith, R. Kobayashi, J. Normand, 
 K. Raghavachari, A. P. Rendell, J. C. Burant, S. S. Iyengar, 
 J. Tomasi, M. Cossi, J. M. Millam, M. Klene, C. Adamo, R. Cammi, 
 J. W. Ochterski, R. L. Martin, K. Morokuma, O. Farkas, 
 J. B. Foresman, and D. J. Fox, Gaussian, Inc., Wallingford CT, 2019.
 
 ******************************************
 Gaussian 16:  ES64L-G16RevC.01  3-Jul-2019
                23-Jun-2022 
 ******************************************
 %nproc=16
 Will use up to   16 processors via shared memory.
 %mem=50gb
 -----------------------------------------------------
 #m062X/gen 6D OPT Freq=noraman SCRF=(SMD,Solvent=h2o)
 -----------------------------------------------------
 1/18=20,19=15,26=3,38=1/1,3;
 2/9=110,12=2,17=6,18=5,40=1/2;
 3/5=7,8=2,11=2,25=1,30=1,70=32201,71=1,72=1,74=-55/1,2,3;
 4//1;
 5/5=2,38=5,53=1/2;
 6/7=2,8=2,9=2,10=2,28=1/1;
 7//1,2,3,16;
 1/18=20,19=15,26=3/3(2);
 2/9=110/2;
 99//99;
 2/9=110/2;
 3/5=7,6=1,8=2,11=2,25=1,30=1,70=32205,71=1,72=1,74=-55,82=7/1,2,3;
 4/5=5,16=3,69=1/1;
 5/5=2,38=5,53=1/2;
 7//1,2,3,16;
 1/18=20,19=15,26=3/3(-5);
 2/9=110/2;
 6/7=2,8=2,9=2,10=2,19=2,28=1/1;
 99/9=1/99;
 ------------------
 HA.23.smd.a1b2.smd
 ------------------
 Symbolic Z-matrix:
 Charge =  0 Multiplicity = 1
 C                     1.12998   0.41854  -0.24654 
 C                    -1.16413   0.89712   0.04318 
 N                    -2.45706   1.00249   0.3823 
 S                    -0.11966  -0.34778   0.68566 
 S                     2.8209   -0.12393  -0.21566 
 O                     2.77956  -1.47507   0.3322 
 O                     3.38523   0.13762  -1.53093 
 N                     3.64638   0.80079   0.85365 
 H                     3.30206   0.69846   1.81065 
 N                     0.75814   1.45389  -0.91694 
 N                    -0.55634   1.74276  -0.77134 
 H                    -2.66368   1.32311   1.32314 
 H                     3.69389   1.7826    0.57278 
 H                    -3.16602   1.17099  -0.32109 
 

 GradGradGradGradGradGradGradGradGradGradGradGradGradGradGradGradGradGrad
 Berny optimization.
 Initialization pass.
                           ----------------------------
                           !    Initial Parameters    !
                           ! (Angstroms and Degrees)  !
 --------------------------                            --------------------------
 ! Name  Definition              Value          Derivative Info.                !
 --------------------------------------------------------------------------------
 ! R1    R(1,4)                  1.7372         estimate D2E/DX2                !
 ! R2    R(1,5)                  1.7761         estimate D2E/DX2                !
 ! R3    R(1,10)                 1.2883         estimate D2E/DX2                !
 ! R4    R(2,3)                  1.3408         estimate D2E/DX2                !
 ! R5    R(2,4)                  1.7474         estimate D2E/DX2                !
 ! R6    R(2,11)                 1.3221         estimate D2E/DX2                !
 ! R7    R(3,12)                 1.0152         estimate D2E/DX2                !
 ! R8    R(3,14)                 1.0128         estimate D2E/DX2                !
 ! R9    R(5,6)                  1.4586         estimate D2E/DX2                !
 ! R10   R(5,7)                  1.4549         estimate D2E/DX2                !
 ! R11   R(5,8)                  1.637          estimate D2E/DX2                !
 ! R12   R(8,9)                  1.0222         estimate D2E/DX2                !
 ! R13   R(8,13)                 1.0223         estimate D2E/DX2                !
 ! R14   R(10,11)                1.3537         estimate D2E/DX2                !
 ! A1    A(4,1,5)              122.7374         estimate D2E/DX2                !
 ! A2    A(4,1,10)             115.2226         estimate D2E/DX2                !
 ! A3    A(5,1,10)             121.9591         estimate D2E/DX2                !
 ! A4    A(3,2,4)              122.6408         estimate D2E/DX2                !
 ! A5    A(3,2,11)             123.2883         estimate D2E/DX2                !
 ! A6    A(4,2,11)             114.0423         estimate D2E/DX2                !
 ! A7    A(2,3,12)             117.0949         estimate D2E/DX2                !
 ! A8    A(2,3,14)             120.8247         estimate D2E/DX2                !
 ! A9    A(12,3,14)            116.655          estimate D2E/DX2                !
 ! A10   A(1,4,2)               85.3196         estimate D2E/DX2                !
 ! A11   A(1,5,6)              105.2173         estimate D2E/DX2                !
 ! A12   A(1,5,7)              107.3765         estimate D2E/DX2                !
 ! A13   A(1,5,8)              108.5967         estimate D2E/DX2                !
 ! A14   A(6,5,7)              121.136          estimate D2E/DX2                !
 ! A15   A(6,5,8)              106.9901         estimate D2E/DX2                !
 ! A16   A(7,5,8)              107.0599         estimate D2E/DX2                !
 ! A17   A(5,8,9)              112.6523         estimate D2E/DX2                !
 ! A18   A(5,8,13)             112.7348         estimate D2E/DX2                !
 ! A19   A(9,8,13)             111.6556         estimate D2E/DX2                !
 ! A20   A(1,10,11)            113.316          estimate D2E/DX2                !
 ! A21   A(2,11,10)            112.0966         estimate D2E/DX2                !
 ! D1    D(5,1,4,2)            176.9708         estimate D2E/DX2                !
 ! D2    D(10,1,4,2)             0.1851         estimate D2E/DX2                !
 ! D3    D(4,1,5,6)             17.8653         estimate D2E/DX2                !
 ! D4    D(4,1,5,7)            148.1515         estimate D2E/DX2                !
 ! D5    D(4,1,5,8)            -96.4046         estimate D2E/DX2                !
 ! D6    D(10,1,5,6)          -165.5623         estimate D2E/DX2                !
 ! D7    D(10,1,5,7)           -35.276          estimate D2E/DX2                !
 ! D8    D(10,1,5,8)            80.1679         estimate D2E/DX2                !
 ! D9    D(4,1,10,11)           -0.4865         estimate D2E/DX2                !
 ! D10   D(5,1,10,11)         -177.2998         estimate D2E/DX2                !
 ! D11   D(4,2,3,12)            71.3471         estimate D2E/DX2                !
 ! D12   D(4,2,3,14)          -135.5151         estimate D2E/DX2                !
 ! D13   D(11,2,3,12)         -106.5928         estimate D2E/DX2                !
 ! D14   D(11,2,3,14)           46.545          estimate D2E/DX2                !
 ! D15   D(3,2,4,1)           -177.9477         estimate D2E/DX2                !
 ! D16   D(11,2,4,1)             0.1667         estimate D2E/DX2                !
 ! D17   D(3,2,11,10)          177.6383         estimate D2E/DX2                !
 ! D18   D(4,2,11,10)           -0.4622         estimate D2E/DX2                !
 ! D19   D(1,5,8,9)             63.0324         estimate D2E/DX2                !
 ! D20   D(1,5,8,13)           -64.4437         estimate D2E/DX2                !
 ! D21   D(6,5,8,9)            -50.0706         estimate D2E/DX2                !
 ! D22   D(6,5,8,13)          -177.5467         estimate D2E/DX2                !
 ! D23   D(7,5,8,9)            178.6816         estimate D2E/DX2                !
 ! D24   D(7,5,8,13)            51.2055         estimate D2E/DX2                !
 ! D25   D(1,10,11,2)            0.6045         estimate D2E/DX2                !
 --------------------------------------------------------------------------------
 Trust Radius=3.00D-01 FncErr=1.00D-07 GrdErr=1.00D-06 EigMax=2.50D+02 EigMin=1.00D-04
 Number of steps in this run=     70 maximum allowed number of steps=    100.
 GradGradGradGradGradGradGradGradGradGradGradGradGradGradGradGradGradGrad

                          Input orientation:                          
 ---------------------------------------------------------------------
 Center     Atomic      Atomic             Coordinates (Angstroms)
 Number     Number       Type             X           Y           Z
 ---------------------------------------------------------------------
      1          6           0        1.129981    0.418539   -0.246544
      2          6           0       -1.164129    0.897116    0.043175
      3          7           0       -2.457061    1.002488    0.382301
      4         16           0       -0.119656   -0.347780    0.685657
      5         16           0        2.820900   -0.123925   -0.215656
      6          8           0        2.779558   -1.475071    0.332200
      7          8           0        3.385226    0.137615   -1.530931
      8          7           0        3.646376    0.800788    0.853653
      9          1           0        3.302064    0.698458    1.810651
     10          7           0        0.758137    1.453892   -0.916940
     11          7           0       -0.556337    1.742764   -0.771336
     12          1           0       -2.663678    1.323106    1.323144
     13          1           0        3.693892    1.782598    0.572777
     14          1           0       -3.166018    1.170988   -0.321094
 ---------------------------------------------------------------------
                    Distance matrix (angstroms):
                    1          2          3          4          5
     1  C    0.000000
     2  C    2.361337   0.000000
     3  N    3.688267   1.340814   0.000000
     4  S    1.737192   1.747419   2.716378   0.000000
     5  S    1.776071   4.121890   5.429846   3.083723   0.000000
     6  O    2.577170   4.611233   5.793357   3.130680   1.458578
     7  O    2.610498   4.873529   6.208122   4.175293   1.454928
     8  N    2.772867   4.879253   6.124933   3.940866   1.637048
     9  H    3.004721   4.807319   5.941392   3.750786   2.239141
    10  N    1.288276   2.219668   3.497040   2.566098   2.690037
    11  N    2.207407   1.322104   2.343425   2.585323   3.898594
    12  H    4.204047   2.017036   1.015220   3.109710   5.877278
    13  H    3.017546   4.966379   6.203150   4.369714   2.240217
    14  H    4.362034   2.053109   1.012806   3.549722   6.126263
                    6          7          8          9         10
     6  O    0.000000
     7  O    2.537488   0.000000
     8  N    2.490546   2.488823   0.000000
     9  H    2.680123   3.389341   1.022188   0.000000
    10  N    3.771647   3.001861   3.450140   3.805522   0.000000
    11  N    4.764499   4.323125   4.603336   4.758623   1.353695
    12  H    6.200047   6.792671   6.349017   6.018133   4.091931
    13  H    3.392092   2.688277   1.022301   1.691514   3.308468
    14  H    6.540512   6.741688   6.922846   6.826691   3.979203
                   11         12         13         14
    11  N    0.000000
    12  H    3.000641   0.000000
    13  H    4.457878   6.418168   0.000000
    14  H    2.709258   1.725979   6.944886   0.000000
 Stoichiometry    C2H4N4O2S2
 Framework group  C1[X(C2H4N4O2S2)]
 Deg. of freedom    36
 Full point group                 C1      NOp   1
 Largest Abelian subgroup         C1      NOp   1
 Largest concise Abelian subgroup C1      NOp   1
                         Standard orientation:                         
 ---------------------------------------------------------------------
 Center     Atomic      Atomic             Coordinates (Angstroms)
 Number     Number       Type             X           Y           Z
 ---------------------------------------------------------------------
      1          6           0        0.001677    0.209708   -0.104141
      2          6           0       -2.355482    0.123902    0.006988
      3          7           0       -3.661899   -0.161520    0.104930
      4         16           0       -1.123919   -1.113138   -0.073366
      5         16           0        1.761890   -0.026926   -0.113307
      6          8           0        1.959760   -1.412666   -0.523214
      7          8           0        2.344063    1.071597   -0.869044
      8          7           0        2.313861    0.101078    1.422554
      9          1           0        1.937281   -0.623106    2.037869
     10          7           0       -0.528402    1.382832   -0.054645
     11          7           0       -1.880669    1.357794    0.002241
     12          1           0       -3.988358   -0.535593    0.990461
     13          1           0        2.179714    1.035904    1.813967
     14          1           0       -4.344160    0.329431   -0.460105
 ---------------------------------------------------------------------
 Rotational constants (GHZ):           2.5286701           0.6567168           0.5870324
 General basis read from cards:  (6D, 7F)
 There are   206 symmetry adapted cartesian basis functions of A   symmetry.
 There are   206 symmetry adapted basis functions of A   symmetry.
   206 basis functions,   384 primitive gaussians,   206 cartesian basis functions
    46 alpha electrons       46 beta electrons
       nuclear repulsion energy       763.7180454715 Hartrees.
 NAtoms=   14 NActive=   14 NUniq=   14 SFac= 1.00D+00 NAtFMM=   60 NAOKFM=F Big=F
 Integral buffers will be    131072 words long.
 Raffenetti 2 integral format.
 Two-electron integral symmetry is turned on.
 ------------------------------------------------------------------------------
 Polarizable Continuum Model (PCM)
 =================================
 Model                : PCM.
 Atomic radii         : SMD-Coulomb.
 Polarization charges : Total charges.
 Charge compensation  : None.
 Solution method      : On-the-fly selection.
 Cavity type          : VdW (van der Waals Surface) (Alpha=1.000).
 Cavity algorithm     : GePol (No added spheres)
                        Default sphere list used, NSphG=   14.
                        Lebedev-Laikov grids with approx.  5.0 points / Ang**2.
                        Smoothing algorithm: York/Karplus (Gamma=1.0000).
                        Polarization charges: spherical gaussians, with
                                              point-specific exponents (IZeta= 3).
                        Self-potential: point-specific (ISelfS= 7).
                        Self-field    : sphere-specific E.n sum rule (ISelfD= 2).
 1st derivatives      : Analytical E(r).r(x)/FMM algorithm (CHGder, D1EAlg=3).
                        Cavity 1st derivative terms included.
 Solvent              : Water, Eps=  78.355300 Eps(inf)=   1.777849
 ------------------------------------------------------------------------------
 Spheres list:
 ISph  on   Nord     Re0    Alpha      Xe            Ye            Ze
    1   C      1    1.8500  1.000      0.001677      0.209708     -0.104141
    2   C      2    1.8500  1.000     -2.355482      0.123902      0.006988
    3   N      3    1.8900  1.000     -3.661899     -0.161520      0.104930
    4   S      4    2.4900  1.000     -1.123919     -1.113138     -0.073366
    5   S      5    2.4900  1.000      1.761890     -0.026926     -0.113307
    6   O      6    1.5200  1.000      1.959760     -1.412666     -0.523214
    7   O      7    1.5200  1.000      2.344063      1.071597     -0.869044
    8   N      8    1.8900  1.000      2.313861      0.101078      1.422554
    9   H      9    1.2000  1.000      1.937281     -0.623106      2.037869
   10   N     10    1.8900  1.000     -0.528402      1.382832     -0.054645
   11   N     11    1.8900  1.000     -1.880669      1.357794      0.002241
   12   H     12    1.2000  1.000     -3.988358     -0.535593      0.990461
   13   H     13    1.2000  1.000      2.179714      1.035904      1.813967
   14   H     14    1.2000  1.000     -4.344160      0.329431     -0.460105
 ------------------------------------------------------------------------------
 ------------------------------------------------------------------------------
 Atomic radii for non-electrostatic terms: SMD-CDS.
 ------------------------------------------------------------------------------
 Nuclear repulsion after PCM non-electrostatic terms =      763.7203341863 Hartrees.
 One-electron integrals computed using PRISM.
 NBasis=   206 RedAO= T EigKep=  2.70D-05  NBF=   206
 NBsUse=   206 1.00D-06 EigRej= -1.00D+00 NBFU=   206
 ExpMin= 4.05D-02 ExpMax= 2.19D+04 ExpMxC= 3.30D+03 IAcc=3 IRadAn=         5 AccDes= 0.00D+00
 Harris functional with IExCor= 1009 and IRadAn=       5 diagonalized for initial guess.
 HarFok:  IExCor= 1009 AccDes= 0.00D+00 IRadAn=         5 IDoV= 1 UseB2=F ITyADJ=14
 ICtDFT=  3500011 ScaDFX=  1.000000  1.000000  1.000000  1.000000
 FoFCou: FMM=F IPFlag=           0 FMFlag=      100000 FMFlg1=           0
         NFxFlg=           0 DoJE=T BraDBF=F KetDBF=T FulRan=T
         wScrn=  0.000000 ICntrl=       500 IOpCl=  0 I1Cent=   200000004 NGrid=           0
         NMat0=    1 NMatS0=      1 NMatT0=    0 NMatD0=    1 NMtDS0=    0 NMtDT0=    0
 Petite list used in FoFCou.
 Requested convergence on RMS density matrix=1.00D-08 within 128 cycles.
 Requested convergence on MAX density matrix=1.00D-06.
 Requested convergence on             energy=1.00D-06.
 No special actions if energy rises.
 Inv3:  Mode=1 IEnd=     5565132.
 Iteration    1 A*A^-1 deviation from unit magnitude is 3.33D-15 for   1341.
 Iteration    1 A*A^-1 deviation from orthogonality  is 1.73D-15 for   1034    218.
 Iteration    1 A^-1*A deviation from unit magnitude is 2.89D-15 for   1341.
 Iteration    1 A^-1*A deviation from orthogonality  is 1.46D-15 for    343     66.
 Error on total polarization charges =  0.02589
 SCF Done:  E(RM062X) =  -1244.13936548     A.U. after   15 cycles
            NFock= 15  Conv=0.34D-08     -V/T= 2.0050
 SMD-CDS (non-electrostatic) energy       (kcal/mol) =       1.44
 (included in total energy above)

 **********************************************************************

            Population analysis using the SCF Density.

 **********************************************************************

 Orbital symmetries:
       Occupied  (A) (A) (A) (A) (A) (A) (A) (A) (A) (A) (A) (A)
                 (A) (A) (A) (A) (A) (A) (A) (A) (A) (A) (A) (A)
                 (A) (A) (A) (A) (A) (A) (A) (A) (A) (A) (A) (A)
                 (A) (A) (A) (A) (A) (A) (A) (A) (A) (A)
       Virtual   (A) (A) (A) (A) (A) (A) (A) (A) (A) (A) (A) (A)
                 (A) (A) (A) (A) (A) (A) (A) (A) (A) (A) (A) (A)
                 (A) (A) (A) (A) (A) (A) (A) (A) (A) (A) (A) (A)
                 (A) (A) (A) (A) (A) (A) (A) (A) (A) (A) (A) (A)
                 (A) (A) (A) (A) (A) (A) (A) (A) (A) (A) (A) (A)
                 (A) (A) (A) (A) (A) (A) (A) (A) (A) (A) (A) (A)
                 (A) (A) (A) (A) (A) (A) (A) (A) (A) (A) (A) (A)
                 (A) (A) (A) (A) (A) (A) (A) (A) (A) (A) (A) (A)
                 (A) (A) (A) (A) (A) (A) (A) (A) (A) (A) (A) (A)
                 (A) (A) (A) (A) (A) (A) (A) (A) (A) (A) (A) (A)
                 (A) (A) (A) (A) (A) (A) (A) (A) (A) (A) (A) (A)
                 (A) (A) (A) (A) (A) (A) (A) (A) (A) (A) (A) (A)
                 (A) (A) (A) (A) (A) (A) (A) (A) (A) (A) (A) (A)
                 (A) (A) (A) (A)
 The electronic state is 1-A.
 Alpha  occ. eigenvalues --  -90.20091 -89.99893 -19.67601 -19.67533 -14.83589
 Alpha  occ. eigenvalues --  -14.81834 -14.81340 -14.78301 -10.68111 -10.66085
 Alpha  occ. eigenvalues --   -8.50997  -8.34398  -6.43184  -6.43176  -6.43120
 Alpha  occ. eigenvalues --   -6.26356  -6.26162  -6.25915  -1.27847  -1.18385
 Alpha  occ. eigenvalues --   -1.16307  -1.05668  -1.04406  -0.95027  -0.91277
 Alpha  occ. eigenvalues --   -0.80071  -0.71773  -0.69660  -0.65160  -0.62735
 Alpha  occ. eigenvalues --   -0.61154  -0.61019  -0.56617  -0.55254  -0.53731
 Alpha  occ. eigenvalues --   -0.52682  -0.45564  -0.43934  -0.43508  -0.42180
 Alpha  occ. eigenvalues --   -0.41351  -0.39536  -0.38625  -0.37440  -0.36457
 Alpha  occ. eigenvalues --   -0.31883
 Alpha virt. eigenvalues --   -0.03972   0.00691   0.00943   0.02543   0.03019
 Alpha virt. eigenvalues --    0.03789   0.04198   0.04962   0.06043   0.07025
 Alpha virt. eigenvalues --    0.07327   0.07574   0.08404   0.08901   0.10283
 Alpha virt. eigenvalues --    0.11060   0.11225   0.12146   0.13056   0.13866
 Alpha virt. eigenvalues --    0.14657   0.14906   0.15516   0.16841   0.18178
 Alpha virt. eigenvalues --    0.18464   0.18916   0.19879   0.21094   0.21371
 Alpha virt. eigenvalues --    0.21956   0.22178   0.22695   0.23193   0.23451
 Alpha virt. eigenvalues --    0.24406   0.25940   0.26604   0.27909   0.28312
 Alpha virt. eigenvalues --    0.29275   0.29916   0.30313   0.30946   0.32192
 Alpha virt. eigenvalues --    0.33420   0.33627   0.34381   0.35487   0.35909
 Alpha virt. eigenvalues --    0.37807   0.38821   0.39938   0.42230   0.44314
 Alpha virt. eigenvalues --    0.49820   0.51635   0.52438   0.54472   0.56395
 Alpha virt. eigenvalues --    0.57373   0.60008   0.63001   0.63944   0.67531
 Alpha virt. eigenvalues --    0.68148   0.69833   0.73355   0.75296   0.84786
 Alpha virt. eigenvalues --    0.88183   0.91179   0.91429   0.91879   0.95305
 Alpha virt. eigenvalues --    0.96910   0.98245   0.99886   1.00579   1.02229
 Alpha virt. eigenvalues --    1.03540   1.03845   1.04555   1.05743   1.06742
 Alpha virt. eigenvalues --    1.08298   1.09493   1.10151   1.10922   1.11694
 Alpha virt. eigenvalues --    1.12216   1.13602   1.14859   1.16184   1.18554
 Alpha virt. eigenvalues --    1.19936   1.24240   1.26162   1.30214   1.32485
 Alpha virt. eigenvalues --    1.35636   1.36713   1.36887   1.37724   1.42156
 Alpha virt. eigenvalues --    1.44210   1.44878   1.53506   1.56391   1.57346
 Alpha virt. eigenvalues --    1.60559   1.62789   1.66808   1.70812   1.74736
 Alpha virt. eigenvalues --    1.75797   1.77902   1.81650   1.83817   1.86037
 Alpha virt. eigenvalues --    1.87216   1.91335   1.93893   1.96811   2.00398
 Alpha virt. eigenvalues --    2.02468   2.05107   2.12458   2.13404   2.15352
 Alpha virt. eigenvalues --    2.18346   2.24042   2.28635   2.31636   2.33890
 Alpha virt. eigenvalues --    2.38734   2.39768   2.41557   2.45008   2.49007
 Alpha virt. eigenvalues --    2.50199   2.55705   2.65555   2.73051   2.80233
 Alpha virt. eigenvalues --    2.86615   2.87880   2.91724   3.05743   3.10233
 Alpha virt. eigenvalues --    3.85961   3.95241   3.99965   4.05262   4.09168
 Alpha virt. eigenvalues --    4.13175   4.18586   4.30550   4.35143   4.40644
          Condensed to atoms (all electrons):
               1          2          3          4          5          6
     1  C    8.124722  -0.378010   0.016141  -0.687850  -0.342569   0.000018
     2  C   -0.378010   6.505846   0.403232  -0.427090  -0.144165   0.012099
     3  N    0.016141   0.403232   7.148372  -0.150724   0.005172  -0.000119
     4  S   -0.687850  -0.427090  -0.150724  16.928157  -0.313767   0.042104
     5  S   -0.342569  -0.144165   0.005172  -0.313767  14.822754   0.146078
     6  O    0.000018   0.012099  -0.000119   0.042104   0.146078   8.758635
     7  O   -0.080864   0.004760  -0.000249   0.012713   0.269800  -0.175253
     8  N   -0.262079  -0.035190   0.000682   0.086779   0.034018  -0.133520
     9  H   -0.000894  -0.001747  -0.000012  -0.012321   0.039187  -0.006117
    10  N   -0.023666   0.432321  -0.054868  -0.055500  -0.155142   0.009427
    11  N    0.319304  -0.089890  -0.155812  -0.149679   0.097819  -0.007227
    12  H   -0.000819   0.008858   0.295940  -0.020436   0.000063  -0.000002
    13  H   -0.007376   0.001693  -0.000017   0.000881   0.022843   0.008213
    14  H    0.007815  -0.034678   0.305851   0.005846   0.000262  -0.000000
               7          8          9         10         11         12
     1  C   -0.080864  -0.262079  -0.000894  -0.023666   0.319304  -0.000819
     2  C    0.004760  -0.035190  -0.001747   0.432321  -0.089890   0.008858
     3  N   -0.000249   0.000682  -0.000012  -0.054868  -0.155812   0.295940
     4  S    0.012713   0.086779  -0.012321  -0.055500  -0.149679  -0.020436
     5  S    0.269800   0.034018   0.039187  -0.155142   0.097819   0.000063
     6  O   -0.175253  -0.133520  -0.006117   0.009427  -0.007227  -0.000002
     7  O    8.742615  -0.154931   0.007902   0.013480  -0.032405  -0.000000
     8  N   -0.154931   7.963923   0.234182  -0.046995   0.061863  -0.000020
     9  H    0.007902   0.234182   0.249568  -0.000880  -0.001791   0.000000
    10  N    0.013480  -0.046995  -0.000880   7.292612  -0.280136  -0.000551
    11  N   -0.032405   0.061863  -0.001791  -0.280136   7.340068  -0.001321
    12  H   -0.000000  -0.000020   0.000000  -0.000551  -0.001321   0.248739
    13  H   -0.004089   0.230635  -0.012959   0.002813  -0.002107   0.000000
    14  H    0.000001   0.000006   0.000000  -0.001227   0.003744  -0.008755
              13         14
     1  C   -0.007376   0.007815
     2  C    0.001693  -0.034678
     3  N   -0.000017   0.305851
     4  S    0.000881   0.005846
     5  S    0.022843   0.000262
     6  O    0.008213  -0.000000
     7  O   -0.004089   0.000001
     8  N    0.230635   0.000006
     9  H   -0.012959   0.000000
    10  N    0.002813  -0.001227
    11  N   -0.002107   0.003744
    12  H    0.000000  -0.008755
    13  H    0.251592  -0.000000
    14  H   -0.000000   0.244950
 Mulliken charges:
               1
     1  C   -0.683874
     2  C   -0.258039
     3  N   -0.813589
     4  S    0.740889
     5  S    1.517648
     6  O   -0.654336
     7  O   -0.603480
     8  N   -0.979352
     9  H    0.505883
    10  N   -0.131690
    11  N   -0.102427
    12  H    0.478305
    13  H    0.507878
    14  H    0.476186
 Sum of Mulliken charges =  -0.00000
 Mulliken charges with hydrogens summed into heavy atoms:
               1
     1  C   -0.683874
     2  C   -0.258039
     3  N    0.140902
     4  S    0.740889
     5  S    1.517648
     6  O   -0.654336
     7  O   -0.603480
     8  N    0.034408
    10  N   -0.131690
    11  N   -0.102427
 Electronic spatial extent (au):  <R**2>=           1886.0841
 Charge=             -0.0000 electrons
 Dipole moment (field-independent basis, Debye):
    X=             -7.2520    Y=             -2.8361    Z=              6.3735  Tot=             10.0627
 Quadrupole moment (field-independent basis, Debye-Ang):
   XX=            -62.3955   YY=            -83.3786   ZZ=            -64.2768
   XY=              6.2011   XZ=              8.4884   YZ=             -0.4189
 Traceless Quadrupole moment (field-independent basis, Debye-Ang):
   XX=              7.6214   YY=            -13.3616   ZZ=              5.7402
   XY=              6.2011   XZ=              8.4884   YZ=             -0.4189
 Octapole moment (field-independent basis, Debye-Ang**2):
  XXX=           -132.6984  YYY=            -14.8319  ZZZ=             22.2641  XYY=              3.2454
  XXY=             -5.2975  XXZ=             27.7543  XZZ=              4.0175  YZZ=             -2.1291
  YYZ=             11.4727  XYZ=             11.4791
 Hexadecapole moment (field-independent basis, Debye-Ang**3):
 XXXX=          -1429.4726 YYYY=           -459.4990 ZZZZ=           -167.8728 XXXY=              6.7611
 XXXZ=             -5.1542 YYYX=             36.4971 YYYZ=              1.8100 ZZZX=             28.2257
 ZZZY=             -0.5174 XXYY=           -416.2359 XXZZ=           -295.2665 YYZZ=            -99.2668
 XXYZ=            -17.3574 YYXZ=             19.5772 ZZXY=              5.9323
 N-N= 7.637203341863D+02 E-N=-4.464114621215D+03  KE= 1.237892899751D+03
 D1PCM: PCM CHGder 1st derivatives, ID1Alg=3 FixD1E=F DoIter=F DoCFld=F I1PDM=0.
 Calling FoFJK, ICntrl=      2127 FMM=F ISym2X=0 I1Cent= 0 IOpClX= 0 NMat=1 NMatS=1 NMatT=0.
 ***** Axes restored to original set *****
 -------------------------------------------------------------------
 Center     Atomic                   Forces (Hartrees/Bohr)
 Number     Number              X              Y              Z
 -------------------------------------------------------------------
      1        6          -0.006735921   -0.004781379    0.007007283
      2        6           0.017502515    0.016454634   -0.008153172
      3        7          -0.022475031   -0.010932009    0.012564561
      4       16           0.004159188    0.004789253   -0.005427444
      5       16           0.005224094   -0.000705720    0.001463785
      6        8          -0.000491733    0.000762563   -0.000539678
      7        8          -0.001152276   -0.000224586    0.000192464
      8        7          -0.000657539    0.000050058   -0.000130762
      9        1           0.000185349   -0.000007867    0.000095550
     10        7           0.000859298    0.000479873   -0.008369750
     11        7           0.002337359   -0.009473978    0.003916479
     12        1          -0.002708866   -0.003139019   -0.000218012
     13        1           0.000141063    0.000130397   -0.000045055
     14        1           0.003812501    0.006597780   -0.002356249
 -------------------------------------------------------------------
 Cartesian Forces:  Max     0.022475031 RMS     0.006741013

 GradGradGradGradGradGradGradGradGradGradGradGradGradGradGradGradGradGrad
 Berny optimization.
 FormGI is forming the generalized inverse of G from B-inverse, IUseBI=4.
 Internal  Forces:  Max     0.022549979 RMS     0.004140453
 Search for a local minimum.
 Step number   1 out of a maximum of   70
 All quantities printed in internal units (Hartrees-Bohrs-Radians)
 Mixed Optimization -- RFO/linear search
 Second derivative matrix not updated -- first step.
 ITU=  0
     Eigenvalues ---    0.00687   0.01255   0.01816   0.02129   0.02158
     Eigenvalues ---    0.02475   0.02541   0.03207   0.04443   0.09643
     Eigenvalues ---    0.10707   0.14156   0.16000   0.16000   0.16000
     Eigenvalues ---    0.16000   0.19781   0.24973   0.24988   0.24991
     Eigenvalues ---    0.24997   0.25000   0.28096   0.30265   0.31239
     Eigenvalues ---    0.43973   0.43991   0.44673   0.45109   0.45506
     Eigenvalues ---    0.52487   0.57023   0.58147   0.67824   0.92209
     Eigenvalues ---    0.93772
 RFO step:  Lambda=-6.58602993D-03 EMin= 6.86835813D-03
 Linear search not attempted -- first point.
 Iteration  1 RMS(Cart)=  0.05496013 RMS(Int)=  0.00634030
 Iteration  2 RMS(Cart)=  0.00580725 RMS(Int)=  0.00084085
 Iteration  3 RMS(Cart)=  0.00007666 RMS(Int)=  0.00083702
 Iteration  4 RMS(Cart)=  0.00000006 RMS(Int)=  0.00083702
 Variable       Old X    -DE/DX   Delta X   Delta X   Delta X     New X
                                 (Linear)    (Quad)   (Total)
    R1        3.28282  -0.00696   0.00000  -0.02108  -0.02145   3.26136
    R2        3.35629   0.00311   0.00000   0.01082   0.01082   3.36711
    R3        2.43449   0.00240   0.00000   0.00379   0.00319   2.43768
    R4        2.53377   0.02255   0.00000   0.03909   0.03909   2.57287
    R5        3.30214  -0.00054   0.00000  -0.00261  -0.00213   3.30001
    R6        2.49842  -0.00397   0.00000  -0.00673  -0.00621   2.49220
    R7        1.91849  -0.00064   0.00000  -0.00140  -0.00140   1.91709
    R8        1.91393   0.00006   0.00000   0.00014   0.00014   1.91407
    R9        2.75631  -0.00090   0.00000  -0.00097  -0.00097   2.75534
   R10        2.74942  -0.00065   0.00000  -0.00069  -0.00069   2.74872
   R11        3.09357  -0.00013   0.00000  -0.00028  -0.00028   3.09330
   R12        1.93165   0.00003   0.00000   0.00007   0.00007   1.93172
   R13        1.93187   0.00014   0.00000   0.00031   0.00031   1.93218
   R14        2.55811   0.00164   0.00000   0.00320   0.00313   2.56124
    A1        2.14217   0.00113   0.00000   0.00406   0.00442   2.14659
    A2        2.01101  -0.00083   0.00000  -0.00167  -0.00253   2.00848
    A3        2.12859  -0.00028   0.00000  -0.00159  -0.00121   2.12738
    A4        2.14049  -0.00546   0.00000  -0.01925  -0.02197   2.11852
    A5        2.15179   0.01026   0.00000   0.04216   0.03913   2.19092
    A6        1.99041  -0.00469   0.00000  -0.01911  -0.02056   1.96985
    A7        2.04369   0.00604   0.00000   0.02785   0.02685   2.07054
    A8        2.10879  -0.00801   0.00000  -0.05643  -0.05744   2.05135
    A9        2.03601   0.00048   0.00000  -0.00648  -0.00765   2.02837
   A10        1.48911   0.00401   0.00000   0.01413   0.01428   1.50339
   A11        1.83639  -0.00045   0.00000  -0.00293  -0.00294   1.83344
   A12        1.87407  -0.00107   0.00000  -0.00680  -0.00681   1.86726
   A13        1.89537   0.00029   0.00000   0.00121   0.00122   1.89659
   A14        2.11422   0.00005   0.00000  -0.00006  -0.00010   2.11412
   A15        1.86733   0.00049   0.00000   0.00427   0.00427   1.87160
   A16        1.86855   0.00071   0.00000   0.00437   0.00436   1.87291
   A17        1.96615   0.00023   0.00000   0.00205   0.00205   1.96820
   A18        1.96759   0.00010   0.00000   0.00126   0.00126   1.96885
   A19        1.94876  -0.00007   0.00000   0.00065   0.00065   1.94941
   A20        1.97774  -0.00309   0.00000  -0.01011  -0.01099   1.96675
   A21        1.95645   0.00462   0.00000   0.01720   0.01780   1.97425
    D1        3.08872  -0.00139   0.00000  -0.04394  -0.04405   3.04467
    D2        0.00323  -0.00177   0.00000  -0.05975  -0.05967  -0.05644
    D3        0.31181   0.00014   0.00000  -0.01396  -0.01385   0.29795
    D4        2.58573  -0.00075   0.00000  -0.02015  -0.02001   2.56572
    D5       -1.68258  -0.00033   0.00000  -0.01797  -0.01785  -1.70042
    D6       -2.88961   0.00053   0.00000   0.00291   0.00278  -2.88683
    D7       -0.61568  -0.00036   0.00000  -0.00327  -0.00338  -0.61906
    D8        1.39919   0.00005   0.00000  -0.00109  -0.00121   1.39798
    D9       -0.00849   0.00228   0.00000   0.07254   0.07179   0.06330
   D10       -3.09447   0.00185   0.00000   0.05666   0.05617  -3.03830
   D11        1.24524  -0.00050   0.00000  -0.01709  -0.01691   1.22834
   D12       -2.36518  -0.00368   0.00000  -0.09934  -0.09862  -2.46381
   D13       -1.86040  -0.00425   0.00000  -0.15385  -0.15457  -2.01496
   D14        0.81236  -0.00743   0.00000  -0.23610  -0.23629   0.57608
   D15       -3.10577  -0.00286   0.00000  -0.09311  -0.08984   3.08758
   D16        0.00291   0.00087   0.00000   0.03325   0.03287   0.03578
   D17        3.10037   0.00353   0.00000   0.12354   0.12545  -3.05736
   D18       -0.00807   0.00011   0.00000  -0.00243  -0.00191  -0.00997
   D19        1.10012   0.00031   0.00000   0.00373   0.00373   1.10386
   D20       -1.12476   0.00012   0.00000   0.00002   0.00002  -1.12473
   D21       -0.87390   0.00044   0.00000   0.00443   0.00444  -0.86946
   D22       -3.09878   0.00026   0.00000   0.00072   0.00073  -3.09805
   D23        3.11858  -0.00043   0.00000  -0.00133  -0.00134   3.11724
   D24        0.89370  -0.00062   0.00000  -0.00504  -0.00505   0.88865
   D25        0.01055  -0.00149   0.00000  -0.04424  -0.04412  -0.03356
         Item               Value     Threshold  Converged?
 Maximum Force            0.022550     0.000450     NO 
 RMS     Force            0.004140     0.000300     NO 
 Maximum Displacement     0.249607     0.001800     NO 
 RMS     Displacement     0.056142     0.001200     NO 
 Predicted change in Energy=-3.747334D-03
 GradGradGradGradGradGradGradGradGradGradGradGradGradGradGradGradGradGrad

                          Input orientation:                          
 ---------------------------------------------------------------------
 Center     Atomic      Atomic             Coordinates (Angstroms)
 Number     Number       Type             X           Y           Z
 ---------------------------------------------------------------------
      1          6           0        1.132081    0.412535   -0.252010
      2          6           0       -1.155075    0.942156    0.080377
      3          7           0       -2.481438    0.978369    0.385560
      4         16           0       -0.121685   -0.337709    0.666536
      5         16           0        2.827476   -0.133725   -0.206932
      6          8           0        2.778310   -1.473923    0.365258
      7          8           0        3.384220    0.098913   -1.530437
      8          7           0        3.654767    0.811629    0.842517
      9          1           0        3.313426    0.729613    1.802570
     10          7           0        0.764067    1.435952   -0.945693
     11          7           0       -0.536185    1.762405   -0.746330
     12          1           0       -2.755282    1.191020    1.338952
     13          1           0        3.705637    1.787473    0.541560
     14          1           0       -3.121064    1.276868   -0.340870
 ---------------------------------------------------------------------
                    Distance matrix (angstroms):
                    1          2          3          4          5
     1  C    0.000000
     2  C    2.371088   0.000000
     3  N    3.712705   1.361502   0.000000
     4  S    1.725840   1.746291   2.716513   0.000000
     5  S    1.781796   4.135308   5.456406   3.082549   0.000000
     6  O    2.578724   4.624944   5.803369   3.129172   1.458064
     7  O    2.608613   4.889885   6.233011   4.160372   1.454562
     8  N    2.778707   4.871599   6.155455   3.951397   1.636901
     9  H    3.013321   4.793602   5.970782   3.772232   2.240446
    10  N    1.289966   2.231537   3.537643   2.555331   2.695795
    11  N    2.202183   1.318817   2.383254   2.564855   3.898778
    12  H    4.271860   2.051001   1.014478   3.118491   5.942381
    13  H    3.023805   4.955176   6.241705   4.379544   2.241072
    14  H    4.340992   2.038282   1.012880   3.552183   6.114969
                    6          7          8          9         10
     6  O    0.000000
     7  O    2.536652   0.000000
     8  N    2.493933   2.492402   0.000000
     9  H    2.684732   3.392894   1.022225   0.000000
    10  N    3.774009   2.999133   3.455954   3.814590   0.000000
    11  N    4.763961   4.330312   4.581756   4.731073   1.355349
    12  H    6.218572   6.864369   6.440428   6.103855   4.203024
    13  H    3.395250   2.692158   1.022465   1.692053   3.314864
    14  H    6.547372   6.717244   6.894109   6.804152   3.935144
                   11         12         13         14
    11  N    0.000000
    12  H    3.098270   0.000000
    13  H    4.433096   6.537206   0.000000
    14  H    2.661155   1.721328   6.902409   0.000000
 Stoichiometry    C2H4N4O2S2
 Framework group  C1[X(C2H4N4O2S2)]
 Deg. of freedom    36
 Full point group                 C1      NOp   1
 Largest Abelian subgroup         C1      NOp   1
 Largest concise Abelian subgroup C1      NOp   1
                         Standard orientation:                         
 ---------------------------------------------------------------------
 Center     Atomic      Atomic             Coordinates (Angstroms)
 Number     Number       Type             X           Y           Z
 ---------------------------------------------------------------------
      1          6           0        0.003299    0.210410   -0.113350
      2          6           0       -2.360280    0.136097    0.059946
      3          7           0       -3.682986   -0.185790    0.082896
      4         16           0       -1.127600   -1.092857   -0.080425
      5         16           0        1.767969   -0.036003   -0.109505
      6          8           0        1.956239   -1.431055   -0.489421
      7          8           0        2.349284    1.042073   -0.894091
      8          7           0        2.316409    0.127258    1.424120
      9          1           0        1.938137   -0.580748    2.057035
     10          7           0       -0.520229    1.389205   -0.093969
     11          7           0       -1.869759    1.359880    0.028011
     12          1           0       -4.054905   -0.655356    0.901645
     13          1           0        2.186635    1.071997    1.792983
     14          1           0       -4.322120    0.424812   -0.411673
 ---------------------------------------------------------------------
 Rotational constants (GHZ):           2.5368188           0.6537102           0.5852289
 Basis read from rwf:  (6D, 7F)
 There are   206 symmetry adapted cartesian basis functions of A   symmetry.
 There are   206 symmetry adapted basis functions of A   symmetry.
   206 basis functions,   384 primitive gaussians,   206 cartesian basis functions
    46 alpha electrons       46 beta electrons
       nuclear repulsion energy       763.1928645522 Hartrees.
 NAtoms=   14 NActive=   14 NUniq=   14 SFac= 1.00D+00 NAtFMM=   60 NAOKFM=F Big=F
 Integral buffers will be    131072 words long.
 Raffenetti 2 integral format.
 Two-electron integral symmetry is turned on.
 ------------------------------------------------------------------------------
 Polarizable Continuum Model (PCM)
 =================================
 Model                : PCM.
 Atomic radii         : SMD-Coulomb.
 Polarization charges : Total charges.
 Charge compensation  : None.
 Solution method      : On-the-fly selection.
 Cavity type          : VdW (van der Waals Surface) (Alpha=1.000).
 Cavity algorithm     : GePol (No added spheres)
                        Default sphere list used, NSphG=   14.
                        Lebedev-Laikov grids with approx.  5.0 points / Ang**2.
                        Smoothing algorithm: York/Karplus (Gamma=1.0000).
                        Polarization charges: spherical gaussians, with
                                              point-specific exponents (IZeta= 3).
                        Self-potential: point-specific (ISelfS= 7).
                        Self-field    : sphere-specific E.n sum rule (ISelfD= 2).
 1st derivatives      : Analytical E(r).r(x)/FMM algorithm (CHGder, D1EAlg=3).
                        Cavity 1st derivative terms included.
 Solvent              : Water, Eps=  78.355300 Eps(inf)=   1.777849
 ------------------------------------------------------------------------------
 Spheres list:
 ISph  on   Nord     Re0    Alpha      Xe            Ye            Ze
    1   C      1    1.8500  1.000      0.003299      0.210410     -0.113350
    2   C      2    1.8500  1.000     -2.360280      0.136097      0.059946
    3   N      3    1.8900  1.000     -3.682986     -0.185790      0.082896
    4   S      4    2.4900  1.000     -1.127600     -1.092857     -0.080425
    5   S      5    2.4900  1.000      1.767969     -0.036003     -0.109505
    6   O      6    1.5200  1.000      1.956239     -1.431055     -0.489421
    7   O      7    1.5200  1.000      2.349284      1.042073     -0.894091
    8   N      8    1.8900  1.000      2.316409      0.127258      1.424120
    9   H      9    1.2000  1.000      1.938137     -0.580748      2.057035
   10   N     10    1.8900  1.000     -0.520229      1.389205     -0.093969
   11   N     11    1.8900  1.000     -1.869759      1.359880      0.028011
   12   H     12    1.2000  1.000     -4.054905     -0.655356      0.901645
   13   H     13    1.2000  1.000      2.186635      1.071997      1.792983
   14   H     14    1.2000  1.000     -4.322120      0.424812     -0.411673
 ------------------------------------------------------------------------------
 ------------------------------------------------------------------------------
 Atomic radii for non-electrostatic terms: SMD-CDS.
 ------------------------------------------------------------------------------
 Nuclear repulsion after PCM non-electrostatic terms =      763.1951967799 Hartrees.
 One-electron integrals computed using PRISM.
 NBasis=   206 RedAO= T EigKep=  2.84D-05  NBF=   206
 NBsUse=   206 1.00D-06 EigRej= -1.00D+00 NBFU=   206
 Initial guess from the checkpoint file:  "/jobfs/45185364.gadi-pbs/Gau-2116477.chk"
 B after Tr=     0.000000   -0.000000   -0.000000
         Rot=    0.999988    0.004900    0.000196    0.000903 Ang=   0.57 deg.
 ExpMin= 4.05D-02 ExpMax= 2.19D+04 ExpMxC= 3.30D+03 IAcc=3 IRadAn=         5 AccDes= 0.00D+00
 Harris functional with IExCor= 1009 and IRadAn=       5 diagonalized for initial guess.
 HarFok:  IExCor= 1009 AccDes= 0.00D+00 IRadAn=         5 IDoV= 1 UseB2=F ITyADJ=14
 ICtDFT=  3500011 ScaDFX=  1.000000  1.000000  1.000000  1.000000
 FoFCou: FMM=F IPFlag=           0 FMFlag=      100000 FMFlg1=           0
         NFxFlg=           0 DoJE=T BraDBF=F KetDBF=T FulRan=T
         wScrn=  0.000000 ICntrl=       500 IOpCl=  0 I1Cent=   200000004 NGrid=           0
         NMat0=    1 NMatS0=      1 NMatT0=    0 NMatD0=    1 NMtDS0=    0 NMtDT0=    0
 Petite list used in FoFCou.
 Requested convergence on RMS density matrix=1.00D-08 within 128 cycles.
 Requested convergence on MAX density matrix=1.00D-06.
 Requested convergence on             energy=1.00D-06.
 No special actions if energy rises.
 Inv3:  Mode=1 IEnd=     5589675.
 Iteration    1 A*A^-1 deviation from unit magnitude is 4.66D-15 for   1346.
 Iteration    1 A*A^-1 deviation from orthogonality  is 1.93D-15 for    812    125.
 Iteration    1 A^-1*A deviation from unit magnitude is 4.88D-15 for   1346.
 Iteration    1 A^-1*A deviation from orthogonality  is 1.41D-15 for   1348   1272.
 Error on total polarization charges =  0.02593
 SCF Done:  E(RM062X) =  -1244.14357704     A.U. after   13 cycles
            NFock= 13  Conv=0.29D-08     -V/T= 2.0051
 SMD-CDS (non-electrostatic) energy       (kcal/mol) =       1.46
 (included in total energy above)
 D1PCM: PCM CHGder 1st derivatives, ID1Alg=3 FixD1E=F DoIter=F DoCFld=F I1PDM=0.
 Calling FoFJK, ICntrl=      2127 FMM=F ISym2X=0 I1Cent= 0 IOpClX= 0 NMat=1 NMatS=1 NMatT=0.
 ***** Axes restored to original set *****
 -------------------------------------------------------------------
 Center     Atomic                   Forces (Hartrees/Bohr)
 Number     Number              X              Y              Z
 -------------------------------------------------------------------
      1        6          -0.003464079   -0.004505103    0.001549343
      2        6           0.004160180    0.004774092   -0.005004875
      3        7           0.000305424   -0.006577340   -0.000047019
      4       16           0.002740024    0.001198998    0.004310528
      5       16           0.000839942   -0.000589687   -0.000460247
      6        8           0.000418369    0.000523118    0.000209896
      7        8           0.000167253    0.000171202    0.000307858
      8        7          -0.001183699   -0.000303423   -0.000694208
      9        1           0.000060048   -0.000230729    0.000093338
     10        7          -0.000341081    0.004123513    0.001404129
     11        7          -0.005705931   -0.003471744   -0.001835983
     12        1           0.000007236   -0.002166877    0.000389085
     13        1           0.000091576   -0.000124215   -0.000088763
     14        1           0.001904737    0.007178193   -0.000133083
 -------------------------------------------------------------------
 Cartesian Forces:  Max     0.007178193 RMS     0.002680622

 GradGradGradGradGradGradGradGradGradGradGradGradGradGradGradGradGradGrad
 Berny optimization.
 Using GEDIIS/GDIIS optimizer.
 FormGI is forming the generalized inverse of G from B-inverse, IUseBI=4.
 Internal  Forces:  Max     0.006509071 RMS     0.001836281
 Search for a local minimum.
 Step number   2 out of a maximum of   70
 All quantities printed in internal units (Hartrees-Bohrs-Radians)
 Mixed Optimization -- RFO/linear search
 Update second derivatives using D2CorX and points    1    2
 DE= -4.21D-03 DEPred=-3.75D-03 R= 1.12D+00
 TightC=F SS=  1.41D+00  RLast= 3.75D-01 DXNew= 5.0454D-01 1.1258D+00
 Trust test= 1.12D+00 RLast= 3.75D-01 DXMaxT set to 5.05D-01
 ITU=  1  0
 Use linear search instead of GDIIS.
     Eigenvalues ---    0.00687   0.01168   0.01329   0.01837   0.02129
     Eigenvalues ---    0.02365   0.03174   0.03622   0.04418   0.09636
     Eigenvalues ---    0.10718   0.14230   0.15218   0.16000   0.16000
     Eigenvalues ---    0.16077   0.19787   0.24655   0.24967   0.24988
     Eigenvalues ---    0.24998   0.27974   0.29057   0.30376   0.31121
     Eigenvalues ---    0.43973   0.43991   0.44686   0.45109   0.45513
     Eigenvalues ---    0.52493   0.56736   0.63331   0.67985   0.92201
     Eigenvalues ---    0.93770
 RFO step:  Lambda=-4.61793904D-03 EMin= 6.86698607D-03
 Quartic linear search produced a step of  0.36764.
 Iteration  1 RMS(Cart)=  0.05800084 RMS(Int)=  0.02641649
 Iteration  2 RMS(Cart)=  0.02761907 RMS(Int)=  0.00244354
 Iteration  3 RMS(Cart)=  0.00170943 RMS(Int)=  0.00156815
 Iteration  4 RMS(Cart)=  0.00000451 RMS(Int)=  0.00156815
 Iteration  5 RMS(Cart)=  0.00000003 RMS(Int)=  0.00156815
 Variable       Old X    -DE/DX   Delta X   Delta X   Delta X     New X
                                 (Linear)    (Quad)   (Total)
    R1        3.26136  -0.00284  -0.00789  -0.01651  -0.02456   3.23680
    R2        3.36711   0.00053   0.00398   0.00570   0.00968   3.37679
    R3        2.43768   0.00325   0.00117   0.00741   0.00835   2.44603
    R4        2.57287  -0.00215   0.01437   0.00769   0.02207   2.59493
    R5        3.30001   0.00149  -0.00078   0.00431   0.00372   3.30373
    R6        2.49220  -0.00493  -0.00228  -0.01287  -0.01494   2.47726
    R7        1.91709  -0.00008  -0.00052  -0.00067  -0.00118   1.91590
    R8        1.91407   0.00100   0.00005   0.00280   0.00285   1.91691
    R9        2.75534  -0.00041  -0.00036  -0.00087  -0.00123   2.75411
   R10        2.74872  -0.00019  -0.00025  -0.00048  -0.00073   2.74799
   R11        3.09330  -0.00135  -0.00010  -0.00387  -0.00398   3.08932
   R12        1.93172   0.00007   0.00003   0.00022   0.00025   1.93197
   R13        1.93218  -0.00007   0.00011  -0.00011   0.00000   1.93218
   R14        2.56124  -0.00084   0.00115  -0.00109   0.00004   2.56128
    A1        2.14659   0.00023   0.00162  -0.00003   0.00156   2.14815
    A2        2.00848   0.00080  -0.00093   0.00658   0.00502   2.01350
    A3        2.12738  -0.00105  -0.00044  -0.00810  -0.00855   2.11883
    A4        2.11852  -0.00117  -0.00808  -0.01085  -0.02006   2.09846
    A5        2.19092  -0.00292   0.01439  -0.00054   0.01249   2.20341
    A6        1.96985   0.00414  -0.00756   0.01224   0.00394   1.97379
    A7        2.07054   0.00078   0.00987  -0.00212   0.00227   2.07281
    A8        2.05135  -0.00399  -0.02112  -0.06434  -0.09118   1.96017
    A9        2.02837   0.00076  -0.00281  -0.01529  -0.02561   2.00276
   A10        1.50339  -0.00252   0.00525  -0.00642  -0.00121   1.50218
   A11        1.83344   0.00078  -0.00108   0.00426   0.00317   1.83661
   A12        1.86726   0.00047  -0.00250   0.00096  -0.00155   1.86572
   A13        1.89659  -0.00123   0.00045  -0.00691  -0.00647   1.89012
   A14        2.11412   0.00006  -0.00004   0.00276   0.00270   2.11683
   A15        1.87160  -0.00028   0.00157  -0.00200  -0.00043   1.87117
   A16        1.87291   0.00002   0.00160  -0.00027   0.00133   1.87424
   A17        1.96820  -0.00003   0.00075   0.00098   0.00172   1.96992
   A18        1.96885  -0.00004   0.00046   0.00068   0.00113   1.96999
   A19        1.94941   0.00015   0.00024   0.00239   0.00262   1.95202
   A20        1.96675   0.00015  -0.00404   0.00081  -0.00366   1.96309
   A21        1.97425  -0.00248   0.00654  -0.00914  -0.00241   1.97184
    D1        3.04467   0.00065  -0.01620   0.01345  -0.00300   3.04167
    D2       -0.05644   0.00129  -0.02194   0.05646   0.03457  -0.02187
    D3        0.29795  -0.00017  -0.00509   0.01484   0.00976   0.30771
    D4        2.56572   0.00067  -0.00736   0.02141   0.01407   2.57979
    D5       -1.70042   0.00032  -0.00656   0.01814   0.01160  -1.68882
    D6       -2.88683  -0.00081   0.00102  -0.03069  -0.02970  -2.91652
    D7       -0.61906   0.00004  -0.00124  -0.02412  -0.02539  -0.64445
    D8        1.39798  -0.00031  -0.00045  -0.02739  -0.02785   1.37013
    D9        0.06330  -0.00141   0.02639  -0.06065  -0.03467   0.02863
   D10       -3.03830  -0.00081   0.02065  -0.01837   0.00195  -3.03634
   D11        1.22834  -0.00212  -0.00622  -0.11830  -0.12666   1.10168
   D12       -2.46381  -0.00651  -0.03626  -0.27776  -0.31166  -2.77546
   D13       -2.01496  -0.00122  -0.05683  -0.10669  -0.16587  -2.18084
   D14        0.57608  -0.00561  -0.08687  -0.26615  -0.35087   0.22520
   D15        3.08758  -0.00018  -0.03303  -0.02819  -0.05974   3.02784
   D16        0.03578  -0.00063   0.01208  -0.03793  -0.02607   0.00970
   D17       -3.05736  -0.00055   0.04612   0.00447   0.05160  -3.00576
   D18       -0.00997   0.00005  -0.00070   0.01410   0.01350   0.00353
   D19        1.10386   0.00017   0.00137   0.00429   0.00567   1.10953
   D20       -1.12473   0.00002   0.00001  -0.00042  -0.00041  -1.12515
   D21       -0.86946  -0.00000   0.00163   0.00368   0.00531  -0.86415
   D22       -3.09805  -0.00015   0.00027  -0.00104  -0.00077  -3.09882
   D23        3.11724   0.00010  -0.00049   0.00179   0.00129   3.11853
   D24        0.88865  -0.00004  -0.00186  -0.00293  -0.00479   0.88386
   D25       -0.03356   0.00092  -0.01622   0.02952   0.01330  -0.02027
         Item               Value     Threshold  Converged?
 Maximum Force            0.006509     0.000450     NO 
 RMS     Force            0.001836     0.000300     NO 
 Maximum Displacement     0.395707     0.001800     NO 
 RMS     Displacement     0.076489     0.001200     NO 
 Predicted change in Energy=-3.076867D-03
 GradGradGradGradGradGradGradGradGradGradGradGradGradGradGradGradGradGrad

                          Input orientation:                          
 ---------------------------------------------------------------------
 Center     Atomic      Atomic             Coordinates (Angstroms)
 Number     Number       Type             X           Y           Z
 ---------------------------------------------------------------------
      1          6           0        1.122963    0.397242   -0.247418
      2          6           0       -1.151060    0.946089    0.080029
      3          7           0       -2.496319    0.932561    0.355200
      4         16           0       -0.113426   -0.318039    0.697857
      5         16           0        2.824854   -0.145269   -0.199188
      6          8           0        2.786978   -1.471538    0.403830
      7          8           0        3.373041    0.063940   -1.529731
      8          7           0        3.645172    0.828881    0.825835
      9          1           0        3.310096    0.763774    1.789525
     10          7           0        0.763112    1.427808   -0.943025
     11          7           0       -0.537494    1.755820   -0.748438
     12          1           0       -2.797882    1.015965    1.319565
     13          1           0        3.689442    1.798076    0.503130
     14          1           0       -3.030224    1.486267   -0.306114
 ---------------------------------------------------------------------
                    Distance matrix (angstroms):
                    1          2          3          4          5
     1  C    0.000000
     2  C    2.362126   0.000000
     3  N    3.707953   1.373179   0.000000
     4  S    1.712842   1.748261   2.712857   0.000000
     5  S    1.786918   4.132423   5.457467   3.077015   0.000000
     6  O    2.585615   4.632269   5.804764   3.135180   1.457413
     7  O    2.611181   4.882316   6.225500   4.154938   1.454175
     8  N    2.774838   4.855287   6.160370   3.931776   1.634798
     9  H    3.011151   4.780955   5.983329   3.752674   2.239820
    10  N    1.294383   2.223229   3.543239   2.551233   2.697896
    11  N    2.203150   1.310910   2.394319   2.563687   3.901435
    12  H    4.267468   2.062366   1.013853   3.061437   5.938875
    13  H    3.018688   4.933089   6.247771   4.356337   2.239946
    14  H    4.293994   1.993027   1.014387   3.573680   6.079085
                    6          7          8          9         10
     6  O    0.000000
     7  O    2.537680   0.000000
     8  N    2.491288   2.491563   0.000000
     9  H    2.681496   3.392814   1.022356   0.000000
    10  N    3.783683   3.002681   3.434218   3.794060   0.000000
    11  N    4.774481   4.331877   4.564236   4.714802   1.355371
    12  H    6.181982   6.863318   6.464652   6.131220   4.239057
    13  H    3.393329   2.690700   1.022467   1.693664   3.285098
    14  H    6.564486   6.672485   6.802528   6.716647   3.846878
                   11         12         13         14
    11  N    0.000000
    12  H    3.151726   0.000000
    13  H    4.408537   6.585108   0.000000
    14  H    2.545980   1.708215   6.775398   0.000000
 Stoichiometry    C2H4N4O2S2
 Framework group  C1[X(C2H4N4O2S2)]
 Deg. of freedom    36
 Full point group                 C1      NOp   1
 Largest Abelian subgroup         C1      NOp   1
 Largest concise Abelian subgroup C1      NOp   1
                         Standard orientation:                         
 ---------------------------------------------------------------------
 Center     Atomic      Atomic             Coordinates (Angstroms)
 Number     Number       Type             X           Y           Z
 ---------------------------------------------------------------------
      1          6           0       -0.002464    0.204144   -0.120008
      2          6           0       -2.356556    0.143142    0.064842
      3          7           0       -3.685170   -0.201844    0.027541
      4         16           0       -1.123166   -1.089718   -0.058523
      5         16           0        1.767968   -0.037977   -0.115200
      6          8           0        1.964289   -1.435298   -0.479897
      7          8           0        2.343769    1.037222   -0.907050
      8          7           0        2.306402    0.142051    1.417850
      9          1           0        1.932241   -0.563788    2.055821
     10          7           0       -0.521148    1.389377   -0.079810
     11          7           0       -1.870885    1.360518    0.040224
     12          1           0       -4.056973   -0.791425    0.763784
     13          1           0        2.171787    1.089610    1.777637
     14          1           0       -4.278613    0.578916   -0.231726
 ---------------------------------------------------------------------
 Rotational constants (GHZ):           2.5394799           0.6552437           0.5858285
 Basis read from rwf:  (6D, 7F)
 There are   206 symmetry adapted cartesian basis functions of A   symmetry.
 There are   206 symmetry adapted basis functions of A   symmetry.
   206 basis functions,   384 primitive gaussians,   206 cartesian basis functions
    46 alpha electrons       46 beta electrons
       nuclear repulsion energy       763.7135805980 Hartrees.
 NAtoms=   14 NActive=   14 NUniq=   14 SFac= 1.00D+00 NAtFMM=   60 NAOKFM=F Big=F
 Integral buffers will be    131072 words long.
 Raffenetti 2 integral format.
 Two-electron integral symmetry is turned on.
 ------------------------------------------------------------------------------
 Polarizable Continuum Model (PCM)
 =================================
 Model                : PCM.
 Atomic radii         : SMD-Coulomb.
 Polarization charges : Total charges.
 Charge compensation  : None.
 Solution method      : On-the-fly selection.
 Cavity type          : VdW (van der Waals Surface) (Alpha=1.000).
 Cavity algorithm     : GePol (No added spheres)
                        Default sphere list used, NSphG=   14.
                        Lebedev-Laikov grids with approx.  5.0 points / Ang**2.
                        Smoothing algorithm: York/Karplus (Gamma=1.0000).
                        Polarization charges: spherical gaussians, with
                                              point-specific exponents (IZeta= 3).
                        Self-potential: point-specific (ISelfS= 7).
                        Self-field    : sphere-specific E.n sum rule (ISelfD= 2).
 1st derivatives      : Analytical E(r).r(x)/FMM algorithm (CHGder, D1EAlg=3).
                        Cavity 1st derivative terms included.
 Solvent              : Water, Eps=  78.355300 Eps(inf)=   1.777849
 ------------------------------------------------------------------------------
 Spheres list:
 ISph  on   Nord     Re0    Alpha      Xe            Ye            Ze
    1   C      1    1.8500  1.000     -0.002464      0.204144     -0.120008
    2   C      2    1.8500  1.000     -2.356556      0.143142      0.064842
    3   N      3    1.8900  1.000     -3.685170     -0.201844      0.027541
    4   S      4    2.4900  1.000     -1.123166     -1.089718     -0.058523
    5   S      5    2.4900  1.000      1.767968     -0.037977     -0.115200
    6   O      6    1.5200  1.000      1.964289     -1.435298     -0.479897
    7   O      7    1.5200  1.000      2.343769      1.037222     -0.907050
    8   N      8    1.8900  1.000      2.306402      0.142051      1.417850
    9   H      9    1.2000  1.000      1.932241     -0.563788      2.055821
   10   N     10    1.8900  1.000     -0.521148      1.389377     -0.079810
   11   N     11    1.8900  1.000     -1.870885      1.360518      0.040224
   12   H     12    1.2000  1.000     -4.056973     -0.791425      0.763784
   13   H     13    1.2000  1.000      2.171787      1.089610      1.777637
   14   H     14    1.2000  1.000     -4.278613      0.578916     -0.231726
 ------------------------------------------------------------------------------
 ------------------------------------------------------------------------------
 Atomic radii for non-electrostatic terms: SMD-CDS.
 ------------------------------------------------------------------------------
 Nuclear repulsion after PCM non-electrostatic terms =      763.7158535309 Hartrees.
 One-electron integrals computed using PRISM.
 NBasis=   206 RedAO= T EigKep=  2.96D-05  NBF=   206
 NBsUse=   206 1.00D-06 EigRej= -1.00D+00 NBFU=   206
 Initial guess from the checkpoint file:  "/jobfs/45185364.gadi-pbs/Gau-2116477.chk"
 B after Tr=    -0.000000   -0.000000    0.000000
         Rot=    0.999999    0.000982    0.000353   -0.000518 Ang=   0.13 deg.
 ExpMin= 4.05D-02 ExpMax= 2.19D+04 ExpMxC= 3.30D+03 IAcc=3 IRadAn=         5 AccDes= 0.00D+00
 Harris functional with IExCor= 1009 and IRadAn=       5 diagonalized for initial guess.
 HarFok:  IExCor= 1009 AccDes= 0.00D+00 IRadAn=         5 IDoV= 1 UseB2=F ITyADJ=14
 ICtDFT=  3500011 ScaDFX=  1.000000  1.000000  1.000000  1.000000
 FoFCou: FMM=F IPFlag=           0 FMFlag=      100000 FMFlg1=           0
         NFxFlg=           0 DoJE=T BraDBF=F KetDBF=T FulRan=T
         wScrn=  0.000000 ICntrl=       500 IOpCl=  0 I1Cent=   200000004 NGrid=           0
         NMat0=    1 NMatS0=      1 NMatT0=    0 NMatD0=    1 NMtDS0=    0 NMtDT0=    0
 Petite list used in FoFCou.
 Requested convergence on RMS density matrix=1.00D-08 within 128 cycles.
 Requested convergence on MAX density matrix=1.00D-06.
 Requested convergence on             energy=1.00D-06.
 No special actions if energy rises.
 Inv3:  Mode=1 IEnd=     5655387.
 Iteration    1 A*A^-1 deviation from unit magnitude is 4.88D-15 for   1341.
 Iteration    1 A*A^-1 deviation from orthogonality  is 1.54D-15 for    418     59.
 Iteration    1 A^-1*A deviation from unit magnitude is 4.66D-15 for   1341.
 Iteration    1 A^-1*A deviation from orthogonality  is 1.33D-15 for   1370   1314.
 Error on total polarization charges =  0.02592
 SCF Done:  E(RM062X) =  -1244.14737169     A.U. after   13 cycles
            NFock= 13  Conv=0.43D-08     -V/T= 2.0051
 SMD-CDS (non-electrostatic) energy       (kcal/mol) =       1.43
 (included in total energy above)
 D1PCM: PCM CHGder 1st derivatives, ID1Alg=3 FixD1E=F DoIter=F DoCFld=F I1PDM=0.
 Calling FoFJK, ICntrl=      2127 FMM=F ISym2X=0 I1Cent= 0 IOpClX= 0 NMat=1 NMatS=1 NMatT=0.
 ***** Axes restored to original set *****
 -------------------------------------------------------------------
 Center     Atomic                   Forces (Hartrees/Bohr)
 Number     Number              X              Y              Z
 -------------------------------------------------------------------
      1        6           0.003930114    0.003994933   -0.003332774
      2        6          -0.005863398   -0.006294510    0.006987158
      3        7           0.011031947    0.000785294   -0.011638281
      4       16          -0.003074253   -0.002845303    0.005961060
      5       16          -0.002451555    0.001079482   -0.000619866
      6        8           0.000188463   -0.000135256    0.000079131
      7        8           0.000447066   -0.000116703    0.000110317
      8        7          -0.000047541    0.000199521   -0.000044443
      9        1           0.000083258   -0.000147539   -0.000115081
     10        7           0.001875172   -0.001203733    0.002554936
     11        7          -0.005463211    0.001274749   -0.004787982
     12        1           0.001478060   -0.001063488    0.002004381
     13        1           0.000031669   -0.000255317    0.000063241
     14        1          -0.002165791    0.004727870    0.002778201
 -------------------------------------------------------------------
 Cartesian Forces:  Max     0.011638281 RMS     0.003754903

 GradGradGradGradGradGradGradGradGradGradGradGradGradGradGradGradGradGrad
 Berny optimization.
 Using GEDIIS/GDIIS optimizer.
 FormGI is forming the generalized inverse of G from B-inverse, IUseBI=4.
 Internal  Forces:  Max     0.011546132 RMS     0.002419595
 Search for a local minimum.
 Step number   3 out of a maximum of   70
 All quantities printed in internal units (Hartrees-Bohrs-Radians)
 Mixed Optimization -- RFO/linear search
 Update second derivatives using D2CorX and points    2    3
 DE= -3.79D-03 DEPred=-3.08D-03 R= 1.23D+00
 TightC=F SS=  1.41D+00  RLast= 5.36D-01 DXNew= 8.4853D-01 1.6087D+00
 Trust test= 1.23D+00 RLast= 5.36D-01 DXMaxT set to 8.49D-01
 ITU=  1  1  0
 Use linear search instead of GDIIS.
     Eigenvalues ---    0.00629   0.00688   0.01319   0.01990   0.02129
     Eigenvalues ---    0.02398   0.03296   0.04107   0.04389   0.09721
     Eigenvalues ---    0.10762   0.14141   0.15995   0.16000   0.16012
     Eigenvalues ---    0.17180   0.19734   0.24866   0.24964   0.24994
     Eigenvalues ---    0.25528   0.27769   0.28636   0.30350   0.33285
     Eigenvalues ---    0.43974   0.43992   0.44702   0.45174   0.45519
     Eigenvalues ---    0.52636   0.58711   0.65393   0.68339   0.92208
     Eigenvalues ---    0.93771
 RFO step:  Lambda=-2.71741734D-03 EMin= 6.29476034D-03
 Quartic linear search produced a step of  0.50865.
 Iteration  1 RMS(Cart)=  0.06378565 RMS(Int)=  0.02866944
 Iteration  2 RMS(Cart)=  0.03211810 RMS(Int)=  0.00324300
 Iteration  3 RMS(Cart)=  0.00211211 RMS(Int)=  0.00222063
 Iteration  4 RMS(Cart)=  0.00001065 RMS(Int)=  0.00222061
 Iteration  5 RMS(Cart)=  0.00000015 RMS(Int)=  0.00222061
 Variable       Old X    -DE/DX   Delta X   Delta X   Delta X     New X
                                 (Linear)    (Quad)   (Total)
    R1        3.23680   0.00554  -0.01249   0.01657   0.00407   3.24087
    R2        3.37679  -0.00187   0.00492  -0.00518  -0.00025   3.37653
    R3        2.44603  -0.00161   0.00425  -0.00263   0.00162   2.44765
    R4        2.59493  -0.01155   0.01122  -0.01206  -0.00083   2.59410
    R5        3.30373   0.00062   0.00189   0.00165   0.00353   3.30726
    R6        2.47726   0.00046  -0.00760  -0.00023  -0.00782   2.46944
    R7        1.91590   0.00139  -0.00060   0.00370   0.00310   1.91901
    R8        1.91691   0.00190   0.00145   0.00548   0.00693   1.92384
    R9        2.75411   0.00015  -0.00063  -0.00010  -0.00073   2.75338
   R10        2.74799   0.00005  -0.00037  -0.00017  -0.00054   2.74745
   R11        3.08932  -0.00015  -0.00202  -0.00018  -0.00220   3.08712
   R12        1.93197  -0.00014   0.00013  -0.00043  -0.00031   1.93167
   R13        1.93218  -0.00025   0.00000  -0.00063  -0.00063   1.93155
   R14        2.56128   0.00055   0.00002   0.00271   0.00275   2.56403
    A1        2.14815  -0.00013   0.00079   0.00209   0.00279   2.15094
    A2        2.01350   0.00112   0.00256   0.00460   0.00683   2.02033
    A3        2.11883  -0.00098  -0.00435  -0.00397  -0.00840   2.11042
    A4        2.09846   0.00382  -0.01020   0.01359   0.00337   2.10183
    A5        2.20341  -0.00711   0.00636  -0.02167  -0.01534   2.18807
    A6        1.97379   0.00342   0.00201   0.00965   0.01138   1.98518
    A7        2.07281  -0.00444   0.00116  -0.03898  -0.04454   2.02827
    A8        1.96017   0.00323  -0.04638  -0.00188  -0.05556   1.90461
    A9        2.00276  -0.00097  -0.01303  -0.02602  -0.05041   1.95235
   A10        1.50218  -0.00308  -0.00061  -0.00981  -0.01072   1.49146
   A11        1.83661   0.00008   0.00161  -0.00074   0.00087   1.83748
   A12        1.86572   0.00045  -0.00079   0.00140   0.00061   1.86632
   A13        1.89012   0.00013  -0.00329   0.00258  -0.00072   1.88940
   A14        2.11683  -0.00011   0.00138  -0.00198  -0.00061   2.11622
   A15        1.87117  -0.00019  -0.00022  -0.00026  -0.00048   1.87069
   A16        1.87424  -0.00032   0.00067  -0.00040   0.00027   1.87451
   A17        1.96992  -0.00007   0.00088   0.00041   0.00128   1.97121
   A18        1.96999   0.00003   0.00058   0.00100   0.00157   1.97155
   A19        1.95202   0.00008   0.00133   0.00113   0.00245   1.95447
   A20        1.96309   0.00068  -0.00186  -0.00203  -0.00410   1.95899
   A21        1.97184  -0.00213  -0.00123  -0.00360  -0.00503   1.96681
    D1        3.04167   0.00006  -0.00153  -0.01304  -0.01448   3.02718
    D2       -0.02187  -0.00005   0.01758  -0.05209  -0.03443  -0.05630
    D3        0.30771  -0.00020   0.00496  -0.01812  -0.01314   0.29457
    D4        2.57979  -0.00000   0.00716  -0.02013  -0.01296   2.56683
    D5       -1.68882  -0.00008   0.00590  -0.01861  -0.01269  -1.70151
    D6       -2.91652   0.00002  -0.01511   0.02362   0.00849  -2.90803
    D7       -0.64445   0.00021  -0.01291   0.02161   0.00868  -0.63577
    D8        1.37013   0.00014  -0.01417   0.02313   0.00894   1.37907
    D9        0.02863  -0.00022  -0.01764   0.04246   0.02482   0.05345
   D10       -3.03634  -0.00038   0.00099   0.00384   0.00485  -3.03149
   D11        1.10168  -0.00213  -0.06442  -0.10145  -0.16999   0.93169
   D12       -2.77546  -0.00506  -0.15852  -0.19474  -0.34916  -3.12462
   D13       -2.18084  -0.00062  -0.08437  -0.08589  -0.17437  -2.35521
   D14        0.22520  -0.00355  -0.17847  -0.17919  -0.35354  -0.12834
   D15        3.02784   0.00084  -0.03038   0.06095   0.03068   3.05852
   D16        0.00970   0.00035  -0.01326   0.04983   0.03658   0.04628
   D17       -3.00576  -0.00210   0.02625  -0.05350  -0.02714  -3.03290
   D18        0.00353  -0.00059   0.00687  -0.03841  -0.03167  -0.02814
   D19        1.10953  -0.00006   0.00288   0.00180   0.00469   1.11421
   D20       -1.12515  -0.00014  -0.00021  -0.00099  -0.00120  -1.12634
   D21       -0.86415  -0.00013   0.00270   0.00156   0.00426  -0.85989
   D22       -3.09882  -0.00020  -0.00039  -0.00123  -0.00163  -3.10045
   D23        3.11853   0.00037   0.00066   0.00452   0.00518   3.12371
   D24        0.88386   0.00030  -0.00244   0.00173  -0.00071   0.88315
   D25       -0.02027   0.00053   0.00676  -0.00156   0.00513  -0.01514
         Item               Value     Threshold  Converged?
 Maximum Force            0.011546     0.000450     NO 
 RMS     Force            0.002420     0.000300     NO 
 Maximum Displacement     0.451607     0.001800     NO 
 RMS     Displacement     0.092218     0.001200     NO 
 Predicted change in Energy=-2.508938D-03
 GradGradGradGradGradGradGradGradGradGradGradGradGradGradGradGradGradGrad

                          Input orientation:                          
 ---------------------------------------------------------------------
 Center     Atomic      Atomic             Coordinates (Angstroms)
 Number     Number       Type             X           Y           Z
 ---------------------------------------------------------------------
      1          6           0        1.113054    0.372229   -0.258968
      2          6           0       -1.155468    0.914032    0.038784
      3          7           0       -2.499232    0.927017    0.319036
      4         16           0       -0.130518   -0.356018    0.670759
      5         16           0        2.822152   -0.143411   -0.183492
      6          8           0        2.798951   -1.459395    0.441471
      7          8           0        3.382229    0.051387   -1.510957
      8          7           0        3.614906    0.859809    0.833288
      9          1           0        3.273793    0.803247    1.795225
     10          7           0        0.753975    1.381652   -0.986829
     11          7           0       -0.552120    1.703735   -0.809737
     12          1           0       -2.753092    0.878092    1.301070
     13          1           0        3.649524    1.823954    0.495672
     14          1           0       -2.928899    1.725248   -0.144264
 ---------------------------------------------------------------------
                    Distance matrix (angstroms):
                    1          2          3          4          5
     1  C    0.000000
     2  C    2.351255   0.000000
     3  N    3.700066   1.372739   0.000000
     4  S    1.714995   1.750127   2.716744   0.000000
     5  S    1.786784   4.121778   5.451190   3.081104   0.000000
     6  O    2.586061   4.629551   5.812116   3.138758   1.457028
     7  O    2.611431   4.872017   6.221510   4.155148   1.453890
     8  N    2.773089   4.836388   6.136094   3.941174   1.633632
     9  H    3.012355   4.766101   5.960057   3.767977   2.239523
    10  N    1.295243   2.217323   3.534874   2.559184   2.692308
    11  N    2.202058   1.306769   2.380896   2.571419   3.897414
    12  H    4.199607   2.036433   1.015495   2.966179   5.859244
    13  H    3.018388   4.911685   6.216341   4.367109   2.239717
    14  H    4.263942   1.958733   1.018054   3.581462   6.047149
                    6          7          8          9         10
     6  O    0.000000
     7  O    2.536662   0.000000
     8  N    2.489581   2.490616   0.000000
     9  H    2.679118   3.392329   1.022194   0.000000
    10  N    3.780677   2.991995   3.430754   3.797876   0.000000
    11  N    4.774996   4.324473   4.558052   4.715328   1.356828
    12  H    6.085059   6.799493   6.385182   6.047573   4.217532
    13  H    3.392166   2.690725   1.022133   1.694655   3.282932
    14  H    6.579765   6.670832   6.672779   6.563924   3.793618
                   11         12         13         14
    11  N    0.000000
    12  H    3.159346   0.000000
    13  H    4.401404   6.522025   0.000000
    14  H    2.468278   1.684509   6.610213   0.000000
 Stoichiometry    C2H4N4O2S2
 Framework group  C1[X(C2H4N4O2S2)]
 Deg. of freedom    36
 Full point group                 C1      NOp   1
 Largest Abelian subgroup         C1      NOp   1
 Largest concise Abelian subgroup C1      NOp   1
                         Standard orientation:                         
 ---------------------------------------------------------------------
 Center     Atomic      Atomic             Coordinates (Angstroms)
 Number     Number       Type             X           Y           Z
 ---------------------------------------------------------------------
      1          6           0       -0.005577    0.197588   -0.128020
      2          6           0       -2.349039    0.144281    0.055684
      3          7           0       -3.681281   -0.186655    0.050998
      4         16           0       -1.126235   -1.099895   -0.084739
      5         16           0        1.765610   -0.036874   -0.105248
      6          8           0        1.972303   -1.435800   -0.456267
      7          8           0        2.344724    1.033768   -0.900326
      8          7           0        2.287839    0.157607    1.430398
      9          1           0        1.914679   -0.546716    2.070368
     10          7           0       -0.519817    1.386259   -0.111535
     11          7           0       -1.871377    1.359561    0.004890
     12          1           0       -3.971643   -0.887818    0.725749
     13          1           0        2.147317    1.106966    1.782149
     14          1           0       -4.236428    0.663502    0.125026
 ---------------------------------------------------------------------
 Rotational constants (GHZ):           2.5294481           0.6574948           0.5872037
 Basis read from rwf:  (6D, 7F)
 There are   206 symmetry adapted cartesian basis functions of A   symmetry.
 There are   206 symmetry adapted basis functions of A   symmetry.
   206 basis functions,   384 primitive gaussians,   206 cartesian basis functions
    46 alpha electrons       46 beta electrons
[...]
 ! A20   A(1,10,11)            113.2712         -DE/DX =    0.0                 !
 ! A21   A(2,11,10)            112.1186         -DE/DX =    0.0                 !
 ! D1    D(5,1,4,2)            176.597          -DE/DX =    0.0                 !
 ! D2    D(10,1,4,2)             0.1343         -DE/DX =    0.0                 !
 ! D3    D(4,1,5,6)             17.2896         -DE/DX =    0.0                 !
 ! D4    D(4,1,5,7)            147.5509         -DE/DX =    0.0                 !
 ! D5    D(4,1,5,8)            -96.9687         -DE/DX =    0.0                 !
 ! D6    D(10,1,5,6)          -166.484          -DE/DX =    0.0                 !
 ! D7    D(10,1,5,7)           -36.2227         -DE/DX =    0.0                 !
 ! D8    D(10,1,5,8)            79.2577         -DE/DX =    0.0                 !
 ! D9    D(4,1,10,11)           -0.2942         -DE/DX =    0.0                 !
 ! D10   D(5,1,10,11)         -176.7824         -DE/DX =    0.0                 !
 ! D11   D(4,2,3,12)            20.7977         -DE/DX =    0.0                 !
 ! D12   D(4,2,3,14)           170.2465         -DE/DX =    0.0                 !
 ! D13   D(11,2,3,12)         -162.9347         -DE/DX =    0.0                 !
 ! D14   D(11,2,3,14)          -13.4859         -DE/DX =    0.0                 !
 ! D15   D(3,2,4,1)            176.647          -DE/DX =    0.0                 !
 ! D16   D(11,2,4,1)             0.0606         -DE/DX =    0.0                 !
 ! D17   D(3,2,11,10)         -176.7853         -DE/DX =    0.0                 !
 ! D18   D(4,2,11,10)           -0.2302         -DE/DX =    0.0                 !
 ! D19   D(1,5,8,9)             62.9678         -DE/DX =    0.0                 !
 ! D20   D(1,5,8,13)           -64.5646         -DE/DX =    0.0                 !
 ! D21   D(6,5,8,9)            -50.0876         -DE/DX =    0.0                 !
 ! D22   D(6,5,8,13)          -177.62           -DE/DX =    0.0                 !
 ! D23   D(7,5,8,9)            178.6377         -DE/DX =    0.0                 !
 ! D24   D(7,5,8,13)            51.1052         -DE/DX =    0.0                 !
 ! D25   D(1,10,11,2)            0.3339         -DE/DX =    0.0                 !
 --------------------------------------------------------------------------------
 GradGradGradGradGradGradGradGradGradGradGradGradGradGradGradGradGradGrad


 ----------------------------------------------------------------------

 Electric dipole moment (input orientation):
 (Debye = 10**-18 statcoulomb cm , SI units = C m)
                  (au)            (Debye)         (10**-30 SI)
   Tot        0.436672D+01      0.110991D+02      0.370226D+02
   x         -0.277743D+01     -0.705951D+01     -0.235480D+02
   y          0.140699D+01      0.357621D+01      0.119290D+02
   z          0.306179D+01      0.778229D+01      0.259589D+02

 Dipole polarizability, Alpha (input orientation).
 (esu units = cm**3 , SI units = C**2 m**2 J**-1)
 Alpha(0;0):
               (au)            (10**-24 esu)      (10**-40 SI)
   iso        0.130933D+03      0.194022D+02      0.215879D+02
   aniso      0.722692D+02      0.107092D+02      0.119156D+02
   xx         0.169418D+03      0.251051D+02      0.279332D+02
   yx        -0.132416D+02     -0.196220D+01     -0.218324D+01
   yy         0.114172D+03      0.169186D+02      0.188245D+02
   zx        -0.692364D+01     -0.102598D+01     -0.114155D+01
   zy        -0.200173D+02     -0.296626D+01     -0.330041D+01
   zz         0.109208D+03      0.161830D+02      0.180060D+02

 ----------------------------------------------------------------------

 Dipole orientation:
     6          1.42997261          1.11864062         -1.41741419
     6         -1.41160126          1.36593540          2.01350817
     7         -2.96851938          1.03916762          3.99070821
    16          0.67094693         -0.98120645          0.98661220
    16          3.80887513          0.47932966         -3.69829133
     8          4.23338836         -2.24024805         -3.55544398
     8          3.03474928          1.67589781         -6.04940213
     7          6.43127386          1.85207696         -2.80028182
     1          7.10038861          1.15578382         -1.12729260
     7          0.23863846          3.24112934         -1.35647990
     7         -1.40805846          3.42023782          0.59392088
     1         -2.59286136         -0.30612260          5.30144352
     1          6.29233373          3.77854262         -2.76702488
     1         -3.89152150          2.59935053          4.62073919

 Electric dipole moment (dipole orientation):
 (Debye = 10**-18 statcoulomb cm , SI units = C m)
                  (au)            (Debye)         (10**-30 SI)
   Tot        0.436672D+01      0.110991D+02      0.370226D+02
   x          0.000000D+00      0.000000D+00      0.000000D+00
   y          0.000000D+00      0.000000D+00      0.000000D+00
   z          0.436672D+01      0.110991D+02      0.370226D+02

 Dipole polarizability, Alpha (dipole orientation).
 (esu units = cm**3 , SI units = C**2 m**2 J**-1)
 Alpha(0;0):
               (au)            (10**-24 esu)      (10**-40 SI)
   iso        0.130933D+03      0.194022D+02      0.215879D+02
   aniso      0.722692D+02      0.107092D+02      0.119156D+02
   xx         0.132046D+03      0.195672D+02      0.217714D+02
   yx        -0.135869D+02     -0.201338D+01     -0.224018D+01
   yy         0.124113D+03      0.183916D+02      0.204634D+02
   zx        -0.379257D+02     -0.562001D+01     -0.625310D+01
   zy        -0.882181D+01     -0.130726D+01     -0.145452D+01
   zz         0.136640D+03      0.202479D+02      0.225288D+02

 ----------------------------------------------------------------------
 Unable to Open any file for archive entry.
 1\1\GINC-GADI-CPU-CLX-2049\Freq\RM062X\Gen\C2H4N4O2S2\YJ5695\23-Jun-20
 22\0\\#N Geom=AllCheck Guess=TCheck SCRF=Check GenChk RM062X/ChkBas Fr
 eq\\HA.23.smd.a1b2.smd\\0,1\C,1.125142765,0.4053176901,-0.2353513417\C
 ,-1.1599755486,0.9320337518,0.0390775985\N,-2.4742508282,1.0075375865,
 0.3043866164\S,-0.1240090778,-0.2765501542,0.7592001599\S,2.811577113,
 -0.1495914546,-0.1719525141\O,2.7613466058,-1.4494845586,0.4876329663\
 O,3.3669622866,-0.005262813,-1.5088845288\N,3.6545409705,0.8527947989,
 0.8098312628\H,3.3169354438,0.8347269325,1.7745091029\N,0.7594351161,1
 .3943887297,-0.975615504\N,-0.5497815863,1.7109610883,-0.8367221005\H,
 -2.8496635028,0.5865204097,1.1465392123\H,3.7101192898,1.806835816,0.4
 469349963\H,-2.9591240467,1.8313481769,-0.0385289263\\Version=ES64L-G1
 6RevC.01\State=1-A\HF=-1244.1520697\RMSD=3.156e-09\RMSF=2.780e-05\Zero
 Point=0.0874988\Thermal=0.0974195\ETot=-1244.0546502\HTot=-1244.053706
 \GTot=-1244.1005743\Dipole=-2.7774259,1.40699,3.0617905\DipoleDeriv=-0
 .4601615,0.4003835,-0.324686,0.6464703,-0.1979892,-0.2899,-0.4627617,-
 0.2747831,0.089335,2.8372736,-0.3930322,-0.2887626,0.1285166,0.6345785
 ,-0.3321592,-0.7711452,-0.2051295,0.5704532,-2.5616017,0.1453792,0.288
 2732,-0.0696784,-0.5716865,-0.0929684,0.0579739,-0.1113435,-0.5531285,
 -0.246745,-0.0144215,0.1203592,0.3701562,-0.0791366,0.1759947,-0.22916
 43,0.2918508,0.0057171,3.7443223,-0.2682794,-0.0666149,-0.1629564,3.01
 68252,0.0040337,0.0778516,-0.0517192,3.0309658,-1.0536316,0.0999461,-0
 .019764,0.2739991,-1.5951259,0.2813877,-0.1199223,0.4279299,-0.9650632
 ,-1.3207816,0.0926402,0.352339,-0.0308898,-0.7918693,0.0876523,0.56335
 76,-0.0681562,-1.5446703,-1.4513732,-0.0309244,-0.2244718,-0.3475686,-
 1.0086585,-0.289616,-0.4574323,-0.2102121,-1.0209375,0.3750331,-0.0677
 339,0.0447812,-0.0804061,0.2552393,-0.0627368,0.1261068,0.0117946,0.40
 87769,0.4626118,-0.4511798,0.2162464,-0.494333,-0.2289503,0.1770881,0.
 1670266,0.1785741,-0.4208774,-1.6075891,0.4081356,-0.0703714,-0.532815
 ,-0.4958253,0.2662976,0.9045626,0.0068247,-0.5362428,0.4280981,0.08207
 4,-0.0791426,0.2760411,0.3343799,-0.0034328,-0.0347803,0.0561379,0.365
 9239,0.4550427,0.0363839,-0.0130308,0.0774717,0.3544006,0.0189089,-0.0
 691718,-0.0631527,0.2332272,0.3995022,-0.0393712,0.064845,-0.0540078,0
 .3738181,0.0594502,0.2474986,0.0113844,0.3365206\Polar=169.4175634,-13
 .2415689,114.1723329,-6.9236351,-20.0173352,109.208101\Quadrupole=10.4
 414741,-6.4188284,-4.0226457,5.6878929,-0.8368399,4.926442\PG=C01 [X(C
 2H4N4O2S2)]\NImag=0\\0.52451222,-0.14234421,0.44856195,0.00518390,-0.2
 6466606,0.32913333,-0.02698362,-0.00181040,0.01049093,0.75976872,0.042
 56974,-0.00207809,-0.00860892,-0.02204918,0.36029981,-0.02389203,0.010
 01899,0.00993872,-0.17478429,-0.19155628,0.36668327,-0.02013854,-0.001
 76978,0.00989421,-0.37442458,0.03758159,0.05363724,0.68274106,-0.00213
 120,-0.00374090,0.00524634,0.06026690,-0.08460222,0.03263433,-0.167279
 20,0.48711785,0.00221977,0.00238263,-0.00387624,0.08321504,0.03961522,
 -0.09553325,-0.19735158,-0.34601524,0.49491736,-0.10925836,-0.04390351
 ,0.06300001,-0.08387961,0.04058887,-0.02531629,-0.01997104,0.02657022,
 -0.01453487,0.23884827,-0.03039237,-0.04958574,0.02597247,0.02855763,-
 0.09512535,0.03409376,0.01943800,0.00091297,0.00230819,-0.01749099,0.2
 0231519,0.04986351,0.03030831,-0.07380542,-0.01102893,0.03152011,-0.06
 597586,-0.01204811,-0.00465051,0.00680752,-0.04777588,-0.14098479,0.17
 135903,-0.17159917,0.01172854,0.01362224,-0.01894567,-0.01407051,0.016
 60344,0.02038950,0.00210189,-0.00246126,-0.01142897,-0.00042723,0.0043
 3885,0.50979481,0.03510191,-0.05354354,0.00195859,0.00342361,0.0034837
 7,-0.00386012,-0.00741208,0.00030830,0.00088260,-0.01121423,0.00464794
 ,-0.00079571,0.06077719,0.75989145,0.00209719,0.00556722,-0.04921125,0
 .00334231,0.00134597,-0.00183904,0.00074988,0.00008290,0.00064875,0.01
 358729,-0.00400850,-0.00012531,-0.12994722,-0.17981451,0.87254809,0.00
 517829,0.02743160,-0.01380225,0.00456956,0.00052559,-0.00096801,-0.003
 42609,0.00025052,0.00012775,0.00101870,0.00072932,-0.00177683,-0.07998
 195,-0.00206509,0.00399451,0.06332508,-0.01021702,-0.01796928,0.014932
 30,-0.00324277,-0.00273388,0.00360062,0.00408211,0.00050485,-0.0006903
 7,0.00080578,-0.00153574,0.00009363,-0.01217640,-0.45474090,0.19629096
 ,0.01384463,0.51309159,0.00413687,0.01023503,0.00221218,0.00092244,0.0
 0277754,-0.00232240,-0.00195431,-0.00050315,0.00054007,-0.00133485,0.0
 0029760,-0.00052605,0.00695199,0.19253635,-0.17384084,-0.00387398,-0.2
 2327422,0.16912765,-0.00810652,-0.00062171,0.02625011,0.00329596,0.001
 68074,-0.00171871,-0.00556438,0.00008508,-0.00006466,-0.00255255,0.005
 13022,-0.00158511,-0.14913419,-0.02035529,0.18155052,0.01332016,0.0018
 6962,0.00389360,0.14233000,0.00330126,0.00862025,-0.00480881,0.0007177
 9,0.00041328,-0.00070426,0.00024239,-0.00020567,0.00012544,0.00136581,
 -0.00095579,0.00043545,-0.01764559,-0.08008989,0.04278565,-0.01399632,
 0.00042576,0.03421016,0.02218653,0.06216836,0.00092050,0.00484445,-0.0
 0879801,-0.00224945,-0.00011514,0.00074583,0.00317599,-0.00059517,0.00
 011630,0.00120767,-0.00345456,0.00213215,0.16990465,0.05024570,-0.4879
 8529,0.01142537,-0.00021307,-0.01116065,-0.19746170,-0.04682849,0.5458
 8447,-0.01128079,-0.01003662,-0.01967231,0.00561074,0.00531397,-0.0053
 2239,-0.00636283,-0.00030621,0.00102731,-0.00040422,0.00079375,-0.0023
 6892,-0.09163150,-0.05066603,-0.03382644,0.00310454,-0.00436206,-0.003
 88805,0.00815049,0.00592065,0.01420487,0.16945223,0.00362256,0.0041680
 7,-0.00183650,0.00096593,0.00032754,-0.00039890,-0.00095770,0.00010519
 ,0.00004880,0.00036312,0.00027370,-0.00043468,-0.07382441,-0.13961446,
 -0.05324346,-0.02457932,-0.03799925,-0.01662136,-0.00298087,0.00736109
 ,0.00007728,0.11639543,0.60680855,-0.00414875,-0.00576364,0.00267099,0
 .00168829,0.00087302,-0.00145448,-0.00269395,0.00024421,0.00026333,-0.
 00152983,0.00123686,-0.00166235,-0.05183289,-0.04757592,-0.14566641,0.
 00569612,0.01758298,0.01091726,-0.01583566,-0.02565582,-0.03995445,-0.
 08442510,-0.06261239,0.66837341,-0.00049999,-0.00070809,0.00180623,-0.
 00056205,-0.00036538,0.00045003,0.00040643,0.00008821,-0.00005564,-0.0
 0045918,-0.00010796,-0.00009306,-0.00189316,-0.00257148,-0.02462315,-0
 .00075201,0.00158203,0.00076203,0.00226292,-0.00376444,-0.00500815,-0.
 06325524,-0.01831520,0.15366176,0.06772024,-0.00003371,-0.00037149,0.0
 0005188,0.00007905,0.00017653,-0.00001013,-0.00009512,-0.00002596,-0.0
 0000672,-0.00014362,0.00002452,-0.00003644,0.01295568,0.00280937,-0.01
 785486,-0.00077794,-0.00026911,0.00238273,-0.00307620,-0.00161864,-0.0
 0663526,-0.01908257,-0.05739548,-0.00568692,0.02011726,0.05194021,0.00
 037408,0.00009550,0.00234118,-0.00090821,-0.00075220,0.00075526,0.0009
 5716,0.00006391,-0.00012737,-0.00031775,-0.00018813,0.00008915,0.00333
 109,-0.00624814,-0.02348426,-0.00005621,0.00360946,0.00235311,-0.00058
 887,-0.00089326,0.00124293,0.11920571,0.01095849,-0.38359917,-0.126158
 28,-0.00483144,0.40676987,-0.09380444,0.07890098,-0.06219516,-0.080376
 09,-0.04962805,0.06904909,0.00535151,0.00401223,0.00065521,-0.01268256
 ,0.01619458,-0.00224906,-0.03396242,0.02779084,-0.01661061,-0.00231378
 ,0.00586587,-0.00050718,0.00448594,0.00032120,-0.00308670,0.00566416,-
 0.00139398,0.00226140,-0.00039599,0.00009823,-0.00089117,0.45743490,0.
 06515080,-0.30339032,0.20061164,-0.01002728,0.00949757,-0.00373725,0.0
 0525321,-0.00028613,0.00587643,-0.02634795,-0.03388842,0.05535018,0.02
 847915,-0.01930067,-0.00196810,-0.00096412,0.00069377,0.00096411,-0.00
 250722,0.00019215,0.00114428,-0.00859415,0.00045613,-0.00210776,0.0007
 1380,-0.00015579,0.00113036,-0.11202552,0.42382812,-0.04343085,0.19193
 522,-0.20560421,0.03537821,0.01105299,-0.01583279,-0.00387337,0.002962
 79,0.00206004,0.03366942,0.04272095,-0.02633975,-0.01780101,-0.0007758
 9,-0.00571477,0.00404009,-0.00195975,0.00257189,0.00280971,0.00051920,
 0.00011562,0.00015754,-0.00057307,0.00027119,0.00019292,0.00012953,-0.
 00006321,-0.01423253,-0.25207326,0.31398933,-0.09024029,0.08226268,-0.
 03414761,-0.14418623,-0.05268653,0.07242142,-0.04667742,-0.03982814,0.
 04534127,0.00533928,-0.02031964,0.01974268,0.04146372,-0.00904555,-0.0
 0006879,-0.00650758,0.00648314,-0.00401983,-0.00810363,-0.00067136,0.0
 0510665,-0.01117066,-0.00172069,-0.00375539,0.00082655,-0.00021086,0.0
 0175609,-0.24668403,0.06124588,0.00264460,0.50332199,0.03326703,-0.031
 65699,0.03110244,-0.04476549,-0.19063957,0.13040734,-0.02954660,0.0039
 1766,-0.00010908,0.02872872,-0.02713590,0.02795518,0.00363401,-0.00078
 702,0.00755456,0.00119993,0.00001461,-0.00199928,-0.00178194,0.0002515
 1,-0.00015232,-0.00000493,0.00048208,-0.00034079,-0.00010745,-0.000074
 81,-0.00000317,0.03066576,-0.07948511,0.00470773,-0.02796179,0.3219887
 0,0.00474984,0.01376553,-0.00283562,0.06509057,0.12919722,-0.20123533,
 0.03977070,0.01214453,-0.00707368,-0.02206629,0.04330195,-0.01466851,-
 0.01338609,0.01237575,0.00227825,-0.00097219,-0.00219169,0.00109204,0.
 00276548,-0.00092610,-0.00075364,0.00724469,0.00051756,0.00234633,-0.0
 0055384,0.00008115,-0.00095844,0.02942702,-0.00470581,-0.06648218,-0.1
 0586183,-0.20080215,0.28991780,0.00070476,-0.00113979,0.00039858,-0.01
 723313,-0.01880538,0.02979517,-0.10050486,-0.03595166,0.12239104,-0.00
 248423,-0.00030941,0.00203739,-0.00132136,0.00028339,-0.00040009,0.000
 25727,-0.00021672,0.00011129,0.00053200,-0.00001798,-0.00031496,0.0002
 5445,0.00005854,0.00013749,-0.00002045,0.00000866,-0.00005075,-0.00093
 405,0.00002574,0.00118530,-0.00259428,0.00460979,-0.00208290,0.1134793
 6,0.00229323,-0.00034361,-0.00119319,-0.01072589,-0.00228498,-0.006949
 96,-0.02978861,-0.09950877,0.15643111,0.00194019,-0.00067722,0.0009510
 1,-0.00252835,0.00035822,-0.00059794,0.00040494,-0.00045822,0.00029600
 ,0.00075668,0.00003640,-0.00036177,0.00046448,0.00005354,0.00018227,-0
 .00004623,0.00001417,-0.00009106,-0.00024114,0.00178250,0.00209283,0.0
 0371057,0.00347476,-0.00209121,0.04786879,0.10376050,-0.00006277,0.000
 68078,-0.00062894,-0.00378235,-0.00643448,-0.00047196,0.14100074,0.173
 83174,-0.31998490,-0.00041040,-0.00005636,0.00117781,0.00048232,-0.000
 52773,-0.00020195,-0.00012153,0.00014642,-0.00002408,-0.00017714,0.000
 06045,0.00014754,-0.00034365,-0.00008545,-0.00016976,0.00001545,-0.000
 00286,0.00004510,-0.00036775,0.00092917,0.00238699,-0.00162225,0.00007
 063,0.00059628,-0.13643994,-0.16631507,0.32163938,0.00071195,0.0012620
 1,0.00005639,-0.00045260,-0.00039445,0.00032046,0.00066757,-0.00000204
 ,-0.00010610,0.00033671,-0.00016079,0.00028148,-0.01095023,-0.02449569
 ,-0.00019922,0.00215037,-0.00408446,-0.00130985,-0.00091989,0.00202432
 ,0.00215935,-0.00854843,0.00233226,0.00065431,-0.00334696,-0.00984208,
 0.00339677,-0.00115329,0.00058693,-0.00039718,0.00094067,0.00039606,-0
 .00054266,-0.00002897,-0.00006035,0.00002703,0.02062578,0.00070989,0.0
 0074735,0.00082012,-0.00055649,-0.00041221,0.00053711,0.00075444,-0.00
 000121,-0.00010776,0.00014451,-0.00018255,0.00022035,-0.00000538,-0.02
 352846,0.00333556,-0.00176350,0.00075886,-0.00116393,0.00016133,0.0033
 9700,0.00176531,-0.03572972,-0.38496082,0.12969138,0.00346999,0.004954
 20,-0.00288567,-0.00068694,0.00073605,-0.00017694,0.00114754,0.0001331
 3,-0.00067792,-0.00003610,-0.00006543,0.00003578,0.03242758,0.39840125
 ,0.00015454,0.00015246,-0.00105497,0.00021777,0.00013580,-0.00009236,-
 0.00015066,-0.00000308,-0.00000418,0.00012523,0.00005510,-0.00006848,0
 .00174944,-0.01970184,0.01196909,-0.00397629,-0.00760731,-0.00101109,-
 0.00009802,0.00176609,-0.00144926,0.00712590,0.12409153,-0.11271714,-0
 .00035297,0.03241396,-0.00525896,-0.00024223,-0.00010799,0.00005354,-0
 .00031869,0.00009998,0.00002790,0.00001130,0.00001630,-0.00000591,-0.0
 0424823,-0.13130203,0.10959356,0.00080451,0.00074830,-0.00088526,-0.02
 620140,0.02973897,-0.01027512,-0.13248632,0.15212339,-0.04040326,-0.00
 242225,-0.00163510,0.00266198,-0.00079942,0.00044850,0.00035380,0.0000
 5744,-0.00023377,0.00010983,0.00000369,0.00001573,0.00001592,0.0004170
 8,0.00003434,0.00012220,-0.00003110,0.00000323,-0.00004966,-0.00062987
 ,-0.00098927,-0.00034285,0.00427191,0.00166690,-0.00358250,0.00989349,
 -0.01404829,0.00180222,-0.00003268,-0.00003716,0.00000291,0.14715493,-
 0.00089791,0.00058233,0.00041770,-0.00083340,0.00367779,-0.00407525,0.
 16949735,-0.30449596,0.13925875,-0.00140691,0.00091239,0.00006790,0.00
 100140,0.00010589,0.00052455,-0.00024023,0.00021694,-0.00013759,-0.000
 54697,0.00000420,0.00027875,-0.00010599,-0.00006587,-0.00006747,0.0000
 1494,-0.00000773,0.00003533,0.00012593,-0.00067986,-0.00056230,-0.0024
 0526,-0.00048307,0.00001119,0.00362210,-0.00614186,-0.00233303,0.00001
 070,0.00002283,-0.00000898,-0.16783577,0.30635199,0.00183420,0.0004435
 7,-0.00048175,-0.00759233,-0.00905084,0.00663439,-0.03111394,0.1245563
 9,-0.07875374,0.00169654,-0.00129454,0.00160607,-0.00155555,0.00130086
 ,0.00062495,0.00026344,-0.00031998,0.00007092,0.00026045,-0.00008572,-
 0.00028354,0.00088083,0.00011214,0.00038126,-0.00004333,0.00000541,-0.
 00010520,-0.00101031,-0.00130599,-0.00141170,0.00278169,0.00150893,-0.
 00225121,-0.01677892,0.01763066,-0.00450560,-0.00009256,-0.00009136,0.
 00001824,0.05046978,-0.13340954,0.07845690\\-0.00002921,-0.00007028,0.
 00006890,-0.00003484,0.00004119,-0.00002442,-0.00001705,-0.00001290,0.
 00001645,0.00003281,0.00001742,0.00001125,-0.00002061,0.00000191,-0.00
 000841,0.00000712,0.00001170,0.00002815,-0.00000442,-0.00002271,-0.000
 00023,0.00002102,0.00001247,-0.00000375,0.00000495,0.00003393,-0.00001
 083,-0.00001858,0.00003188,-0.00006407,0.00002926,-0.00006130,0.000015
 09,0.00001704,0.00000948,0.00000847,-0.00000684,0.00001256,-0.00002860
 ,0.00001937,-0.00000537,-0.00000798\\\@
 The archive entry for this job was punched.


 "MATHEMATICS IS THE ART OF GIVING THE SAME NAME
 TO DIFFERENT THINGS."
                    - H. POINCARE
 Job cpu time:       0 days  0 hours 32 minutes  2.0 seconds.
 Elapsed time:       0 days  0 hours  2 minutes  6.9 seconds.
 File lengths (MBytes):  RWF=    114 Int=      0 D2E=      0 Chk=      9 Scr=      1
 Normal termination of Gaussian 16 at Thu Jun 23 14:29:17 2022.
