 Entering Gaussian System, Link 0=g16
 AtFile(1): /home/561/yj5695/Basis/6-31pGd.gbs
 Initial command:
 /apps/gaussian/g16c01/g16/l1.exe "/jobfs/48773064.gadi-pbs/Gau-3607237.inp" -scrdir="/jobfs/48773064.gadi-pbs/"
 Entering Link 1 = /apps/gaussian/g16c01/g16/l1.exe PID=   3607238.
  
 Copyright (c) 1988-2019, Gaussian, Inc.  All Rights Reserved.
  
 This is part of the Gaussian(R) 16 program.  It is based on
 the Gaussian(R) 09 system (copyright 2009, Gaussian, Inc.),
 the Gaussian(R) 03 system (copyright 2003, Gaussian, Inc.),
 the Gaussian(R) 98 system (copyright 1998, Gaussian, Inc.),
 the Gaussian(R) 94 system (copyright 1995, Gaussian, Inc.),
 the Gaussian 92(TM) system (copyright 1992, Gaussian, Inc.),
 the Gaussian 90(TM) system (copyright 1990, Gaussian, Inc.),
 the Gaussian 88(TM) system (copyright 1988, Gaussian, Inc.),
 the Gaussian 86(TM) system (copyright 1986, Carnegie Mellon
 University), and the Gaussian 82(TM) system (copyright 1983,
 Carnegie Mellon University). Gaussian is a federally registered
 trademark of Gaussian, Inc.
  
 This software contains proprietary and confidential information,
 including trade secrets, belonging to Gaussian, Inc.
  
 This software is provided under written license and may be
 used, copied, transmitted, or stored only in accord with that
 written license.
  
 The following legend is applicable only to US Government
 contracts under FAR:
  
                    RESTRICTED RIGHTS LEGEND
  
 Use, reproduction and disclosure by the US Government is
 subject to restrictions as set forth in subparagraphs (a)
 and (c) of the Commercial Computer Software - Restricted
 Rights clause in FAR 52.227-19.
  
 Gaussian, Inc.
 340 Quinnipiac St., Bldg. 40, Wallingford CT 06492
  
  
 ---------------------------------------------------------------
 Warning -- This program may not be used in any manner that
 competes with the business of Gaussian, Inc. or will provide
 assistance to any competitor of Gaussian, Inc.  The licensee
 of this program is prohibited from giving any competitor of
 Gaussian, Inc. access to this program.  By using this program,
 the user acknowledges that Gaussian, Inc. is engaged in the
 business of creating and licensing software in the field of
 computational chemistry and represents and warrants to the
 licensee that it is not a competitor of Gaussian, Inc. and that
 it will not use this program in any manner prohibited above.
 ---------------------------------------------------------------
  

 Cite this work as:
 Gaussian 16, Revision C.01,
 M. J. Frisch, G. W. Trucks, H. B. Schlegel, G. E. Scuseria, 
 M. A. Robb, J. R. Cheeseman, G. Scalmani, V. Barone, 
 G. A. Petersson, H. Nakatsuji, X. Li, M. Caricato, A. V. Marenich, 
 J. Bloino, B. G. Janesko, R. Gomperts, B. Mennucci, H. P. Hratchian, 
 J. V. Ortiz, A. F. Izmaylov, J. L. Sonnenberg, D. Williams-Young, 
 F. Ding, F. Lipparini, F. Egidi, J. Goings, B. Peng, A. Petrone, 
 T. Henderson, D. Ranasinghe, V. G. Zakrzewski, J. Gao, N. Rega, 
 G. Zheng, W. Liang, M. Hada, M. Ehara, K. Toyota, R. Fukuda, 
 J. Hasegawa, M. Ishida, T. Nakajima, Y. Honda, O. Kitao, H. Nakai, 
 T. Vreven, K. Throssell, J. A. Montgomery, Jr., J. E. Peralta, 
 F. Ogliaro, M. J. Bearpark, J. J. Heyd, E. N. Brothers, K. N. Kudin, 
 V. N. Staroverov, T. A. Keith, R. Kobayashi, J. Normand, 
 K. Raghavachari, A. P. Rendell, J. C. Burant, S. S. Iyengar, 
 J. Tomasi, M. Cossi, J. M. Millam, M. Klene, C. Adamo, R. Cammi, 
 J. W. Ochterski, R. L. Martin, K. Morokuma, O. Farkas, 
 J. B. Foresman, and D. J. Fox, Gaussian, Inc., Wallingford CT, 2019.
 
 ******************************************
 Gaussian 16:  ES64L-G16RevC.01  3-Jul-2019
                29-Jun-2022 
 ******************************************
 %nproc=16
 Will use up to   16 processors via shared memory.
 %mem=50gb
 -----------------------------------------------------
 #m062X/gen 6D OPT Freq=noraman SCRF=(SMD,Solvent=h2o)
 -----------------------------------------------------
 1/18=20,19=15,26=3,38=1/1,3;
 2/9=110,12=2,17=6,18=5,40=1/2;
 3/5=7,8=2,11=2,25=1,30=1,70=32201,71=1,72=1,74=-55/1,2,3;
 4//1;
 5/5=2,38=5,53=1/2;
 6/7=2,8=2,9=2,10=2,28=1/1;
 7//1,2,3,16;
 1/18=20,19=15,26=3/3(2);
 2/9=110/2;
 99//99;
 2/9=110/2;
 3/5=7,6=1,8=2,11=2,25=1,30=1,70=32205,71=1,72=1,74=-55,82=7/1,2,3;
 4/5=5,16=3,69=1/1;
 5/5=2,38=5,53=1/2;
 7//1,2,3,16;
 1/18=20,19=15,26=3/3(-5);
 2/9=110/2;
 6/7=2,8=2,9=2,10=2,19=2,28=1/1;
 99/9=1/99;
 ------------------
 HA.28.smd.a2c3.smd
 ------------------
 Symbolic Z-matrix:
 Charge =  0 Multiplicity = 1
 C                    -1.36835   0.6564   -0.85879 
 C                    -2.51472   0.72749  -1.67593 
 Cl                   -4.09531   0.93372  -0.98352 
 C                    -2.4294    0.62747  -3.04589 
 H                    -3.32278   0.6906   -3.65993 
 C                    -1.17584   0.4443   -3.67036 
 C                    -0.04383   0.3655   -2.83921 
 S                     1.54492   0.10174  -3.54626 
 C                    -0.1314    0.47342  -1.45758 
 H                     0.76437   0.42183  -0.84445 
 S                    -1.41297   0.81844   0.91326 
 O                    -2.2997   -0.23779   1.39462 
 O                    -0.04306   0.88583   1.41564 
 N                    -2.13023   2.24121   1.32221 
 H                    -3.07762   2.32276   0.94775 
 H                    -1.56441   3.0586    1.09002 
 N                    -1.0855    0.40207  -5.02335 
 C                     0.11798  -0.01673  -5.71728 
 N                     1.27344   0.68259  -5.10482 
 O                     2.52729   0.97342  -2.90294 
 O                     1.85773  -1.33271  -3.56268 
 C                     0.02112   0.37162  -7.1884 
 Cl                   -0.12386   2.15749  -7.33847 
 H                    -1.95921   0.29846  -5.53134 
 H                     0.25718  -1.10751  -5.64723 
 H                    -0.87613  -0.0435   -7.64104 
 H                     0.9119    0.06464  -7.73824 
 C                     2.52312   0.58623  -5.89741 
 H                     2.44299   1.26379  -6.74698 
 H                     2.70975  -0.43563  -6.24448 
 H                     3.35672   0.92315  -5.28038 
 

 GradGradGradGradGradGradGradGradGradGradGradGradGradGradGradGradGradGrad
 Berny optimization.
 Initialization pass.
                           ----------------------------
                           !    Initial Parameters    !
                           ! (Angstroms and Degrees)  !
 --------------------------                            --------------------------
 ! Name  Definition              Value          Derivative Info.                !
 --------------------------------------------------------------------------------
 ! R1    R(1,2)                  1.4096         estimate D2E/DX2                !
 ! R2    R(1,9)                  1.3864         estimate D2E/DX2                !
 ! R3    R(1,11)                 1.78           estimate D2E/DX2                !
 ! R4    R(2,3)                  1.7379         estimate D2E/DX2                !
 ! R5    R(2,4)                  1.3763         estimate D2E/DX2                !
 ! R6    R(4,5)                  1.0859         estimate D2E/DX2                !
 ! R7    R(4,6)                  1.4124         estimate D2E/DX2                !
 ! R8    R(6,7)                  1.4066         estimate D2E/DX2                !
 ! R9    R(6,17)                 1.3567         estimate D2E/DX2                !
 ! R10   R(7,8)                  1.7589         estimate D2E/DX2                !
 ! R11   R(7,9)                  1.3886         estimate D2E/DX2                !
 ! R12   R(8,19)                 1.6853         estimate D2E/DX2                !
 ! R13   R(8,20)                 1.4624         estimate D2E/DX2                !
 ! R14   R(8,21)                 1.4683         estimate D2E/DX2                !
 ! R15   R(9,10)                 1.0867         estimate D2E/DX2                !
 ! R16   R(11,12)                1.4607         estimate D2E/DX2                !
 ! R17   R(11,13)                1.4607         estimate D2E/DX2                !
 ! R18   R(11,14)                1.645          estimate D2E/DX2                !
 ! R19   R(14,15)                1.022          estimate D2E/DX2                !
 ! R20   R(14,16)                1.0209         estimate D2E/DX2                !
 ! R21   R(17,18)                1.451          estimate D2E/DX2                !
 ! R22   R(17,24)                1.016          estimate D2E/DX2                !
 ! R23   R(18,19)                1.483          estimate D2E/DX2                !
 ! R24   R(18,22)                1.5246         estimate D2E/DX2                !
 ! R25   R(18,25)                1.1019         estimate D2E/DX2                !
 ! R26   R(19,28)                1.483          estimate D2E/DX2                !
 ! R27   R(22,23)                1.798          estimate D2E/DX2                !
 ! R28   R(22,26)                1.0873         estimate D2E/DX2                !
 ! R29   R(22,27)                1.0909         estimate D2E/DX2                !
 ! R30   R(28,29)                1.0896         estimate D2E/DX2                !
 ! R31   R(28,30)                1.0952         estimate D2E/DX2                !
 ! R32   R(28,31)                1.0905         estimate D2E/DX2                !
 ! A1    A(2,1,9)              118.8081         estimate D2E/DX2                !
 ! A2    A(2,1,11)             123.5134         estimate D2E/DX2                !
 ! A3    A(9,1,11)             117.6691         estimate D2E/DX2                !
 ! A4    A(1,2,3)              120.976          estimate D2E/DX2                !
 ! A5    A(1,2,4)              121.5316         estimate D2E/DX2                !
 ! A6    A(3,2,4)              117.4909         estimate D2E/DX2                !
 ! A7    A(2,4,5)              120.508          estimate D2E/DX2                !
 ! A8    A(2,4,6)              120.3014         estimate D2E/DX2                !
 ! A9    A(5,4,6)              119.1905         estimate D2E/DX2                !
 ! A10   A(4,6,7)              117.4061         estimate D2E/DX2                !
 ! A11   A(4,6,17)             120.2695         estimate D2E/DX2                !
 ! A12   A(7,6,17)             122.2737         estimate D2E/DX2                !
 ! A13   A(6,7,8)              119.8561         estimate D2E/DX2                !
 ! A14   A(6,7,9)              122.1964         estimate D2E/DX2                !
 ! A15   A(8,7,9)              117.943          estimate D2E/DX2                !
 ! A16   A(7,8,19)             100.0538         estimate D2E/DX2                !
 ! A17   A(7,8,20)             109.9107         estimate D2E/DX2                !
 ! A18   A(7,8,21)             110.0869         estimate D2E/DX2                !
 ! A19   A(19,8,20)            108.0346         estimate D2E/DX2                !
 ! A20   A(19,8,21)            111.1428         estimate D2E/DX2                !
 ! A21   A(20,8,21)            116.3675         estimate D2E/DX2                !
 ! A22   A(1,9,7)              119.7535         estimate D2E/DX2                !
 ! A23   A(1,9,10)             119.8682         estimate D2E/DX2                !
 ! A24   A(7,9,10)             120.3771         estimate D2E/DX2                !
 ! A25   A(1,11,12)            106.1089         estimate D2E/DX2                !
 ! A26   A(1,11,13)            108.8497         estimate D2E/DX2                !
 ! A27   A(1,11,14)            109.7039         estimate D2E/DX2                !
 ! A28   A(12,11,13)           119.2987         estimate D2E/DX2                !
 ! A29   A(12,11,14)           106.1887         estimate D2E/DX2                !
 ! A30   A(13,11,14)           106.4703         estimate D2E/DX2                !
 ! A31   A(11,14,15)           112.4655         estimate D2E/DX2                !
 ! A32   A(11,14,16)           113.2224         estimate D2E/DX2                !
 ! A33   A(15,14,16)           111.5048         estimate D2E/DX2                !
 ! A34   A(6,17,18)            122.7641         estimate D2E/DX2                !
 ! A35   A(6,17,24)            116.3956         estimate D2E/DX2                !
 ! A36   A(18,17,24)           116.4064         estimate D2E/DX2                !
 ! A37   A(17,18,19)           108.2172         estimate D2E/DX2                !
 ! A38   A(17,18,22)           109.5885         estimate D2E/DX2                !
 ! A39   A(17,18,25)           111.1068         estimate D2E/DX2                !
 ! A40   A(19,18,22)           109.1413         estimate D2E/DX2                !
 ! A41   A(19,18,25)           110.0068         estimate D2E/DX2                !
 ! A42   A(22,18,25)           108.756          estimate D2E/DX2                !
 ! A43   A(8,19,18)            110.1772         estimate D2E/DX2                !
 ! A44   A(8,19,28)            109.6412         estimate D2E/DX2                !
 ! A45   A(18,19,28)           113.9043         estimate D2E/DX2                !
 ! A46   A(18,22,23)           109.7952         estimate D2E/DX2                !
 ! A47   A(18,22,26)           110.9083         estimate D2E/DX2                !
 ! A48   A(18,22,27)           111.2717         estimate D2E/DX2                !
 ! A49   A(23,22,26)           106.1361         estimate D2E/DX2                !
 ! A50   A(23,22,27)           107.654          estimate D2E/DX2                !
 ! A51   A(26,22,27)           110.8893         estimate D2E/DX2                !
 ! A52   A(19,28,29)           108.3209         estimate D2E/DX2                !
 ! A53   A(19,28,30)           111.9372         estimate D2E/DX2                !
 ! A54   A(19,28,31)           108.7656         estimate D2E/DX2                !
 ! A55   A(29,28,30)           110.2202         estimate D2E/DX2                !
 ! A56   A(29,28,31)           107.7746         estimate D2E/DX2                !
 ! A57   A(30,28,31)           109.7138         estimate D2E/DX2                !
 ! D1    D(9,1,2,3)            179.1477         estimate D2E/DX2                !
 ! D2    D(9,1,2,4)             -0.3855         estimate D2E/DX2                !
 ! D3    D(11,1,2,3)            -1.9926         estimate D2E/DX2                !
 ! D4    D(11,1,2,4)           178.4742         estimate D2E/DX2                !
 ! D5    D(2,1,9,7)              0.0546         estimate D2E/DX2                !
 ! D6    D(2,1,9,10)           179.6514         estimate D2E/DX2                !
 ! D7    D(11,1,9,7)          -178.8719         estimate D2E/DX2                !
 ! D8    D(11,1,9,10)            0.7248         estimate D2E/DX2                !
 ! D9    D(2,1,11,12)           58.4279         estimate D2E/DX2                !
 ! D10   D(2,1,11,13)         -172.0167         estimate D2E/DX2                !
 ! D11   D(2,1,11,14)          -55.8821         estimate D2E/DX2                !
 ! D12   D(9,1,11,12)         -122.7003         estimate D2E/DX2                !
 ! D13   D(9,1,11,13)            6.8551         estimate D2E/DX2                !
 ! D14   D(9,1,11,14)          122.9897         estimate D2E/DX2                !
 ! D15   D(1,2,4,5)           -179.6224         estimate D2E/DX2                !
 ! D16   D(1,2,4,6)              0.229          estimate D2E/DX2                !
 ! D17   D(3,2,4,5)              0.8289         estimate D2E/DX2                !
 ! D18   D(3,2,4,6)           -179.3198         estimate D2E/DX2                !
 ! D19   D(2,4,6,7)              0.2464         estimate D2E/DX2                !
 ! D20   D(2,4,6,17)          -177.2233         estimate D2E/DX2                !
 ! D21   D(5,4,6,7)           -179.9003         estimate D2E/DX2                !
 ! D22   D(5,4,6,17)             2.63           estimate D2E/DX2                !
 ! D23   D(4,6,7,8)            178.6275         estimate D2E/DX2                !
 ! D24   D(4,6,7,9)             -0.5834         estimate D2E/DX2                !
 ! D25   D(17,6,7,8)            -3.9572         estimate D2E/DX2                !
 ! D26   D(17,6,7,9)           176.832          estimate D2E/DX2                !
 ! D27   D(4,6,17,18)         -168.7215         estimate D2E/DX2                !
 ! D28   D(4,6,17,24)          -13.2384         estimate D2E/DX2                !
 ! D29   D(7,6,17,18)           13.9354         estimate D2E/DX2                !
 ! D30   D(7,6,17,24)          169.4184         estimate D2E/DX2                !
 ! D31   D(6,7,8,19)            23.6356         estimate D2E/DX2                !
 ! D32   D(6,7,8,20)           137.1279         estimate D2E/DX2                !
 ! D33   D(6,7,8,21)           -93.4215         estimate D2E/DX2                !
 ! D34   D(9,7,8,19)          -157.1203         estimate D2E/DX2                !
 ! D35   D(9,7,8,20)           -43.628          estimate D2E/DX2                !
 ! D36   D(9,7,8,21)            85.8226         estimate D2E/DX2                !
 ! D37   D(6,7,9,1)              0.4363         estimate D2E/DX2                !
 ! D38   D(6,7,9,10)          -179.1584         estimate D2E/DX2                !
 ! D39   D(8,7,9,1)           -178.789          estimate D2E/DX2                !
 ! D40   D(8,7,9,10)             1.6164         estimate D2E/DX2                !
 ! D41   D(7,8,19,18)          -55.2149         estimate D2E/DX2                !
 ! D42   D(7,8,19,28)          178.6619         estimate D2E/DX2                !
 ! D43   D(20,8,19,18)        -170.1418         estimate D2E/DX2                !
 ! D44   D(20,8,19,28)          63.7349         estimate D2E/DX2                !
 ! D45   D(21,8,19,18)          61.0512         estimate D2E/DX2                !
 ! D46   D(21,8,19,28)         -65.0721         estimate D2E/DX2                !
 ! D47   D(1,11,14,15)          57.8385         estimate D2E/DX2                !
 ! D48   D(1,11,14,16)         -69.6844         estimate D2E/DX2                !
 ! D49   D(12,11,14,15)        -56.4203         estimate D2E/DX2                !
 ! D50   D(12,11,14,16)        176.0568         estimate D2E/DX2                !
 ! D51   D(13,11,14,15)        175.4675         estimate D2E/DX2                !
 ! D52   D(13,11,14,16)         47.9447         estimate D2E/DX2                !
 ! D53   D(6,17,18,19)         -47.0878         estimate D2E/DX2                !
 ! D54   D(6,17,18,22)        -166.0037         estimate D2E/DX2                !
 ! D55   D(6,17,18,25)          73.7846         estimate D2E/DX2                !
 ! D56   D(24,17,18,19)        157.4316         estimate D2E/DX2                !
 ! D57   D(24,17,18,22)         38.5157         estimate D2E/DX2                !
 ! D58   D(24,17,18,25)        -81.6961         estimate D2E/DX2                !
 ! D59   D(17,18,19,8)          69.1706         estimate D2E/DX2                !
 ! D60   D(17,18,19,28)       -167.1475         estimate D2E/DX2                !
 ! D61   D(22,18,19,8)        -171.6306         estimate D2E/DX2                !
 ! D62   D(22,18,19,28)        -47.9487         estimate D2E/DX2                !
 ! D63   D(25,18,19,8)         -52.3826         estimate D2E/DX2                !
 ! D64   D(25,18,19,28)         71.2993         estimate D2E/DX2                !
 ! D65   D(17,18,22,23)         61.1902         estimate D2E/DX2                !
 ! D66   D(17,18,22,26)        -55.7909         estimate D2E/DX2                !
 ! D67   D(17,18,22,27)       -179.7316         estimate D2E/DX2                !
 ! D68   D(19,18,22,23)        -57.1534         estimate D2E/DX2                !
 ! D69   D(19,18,22,26)       -174.1345         estimate D2E/DX2                !
 ! D70   D(19,18,22,27)         61.9248         estimate D2E/DX2                !
 ! D71   D(25,18,22,23)       -177.1749         estimate D2E/DX2                !
 ! D72   D(25,18,22,26)         65.844          estimate D2E/DX2                !
 ! D73   D(25,18,22,27)        -58.0967         estimate D2E/DX2                !
 ! D74   D(8,19,28,29)        -160.2661         estimate D2E/DX2                !
 ! D75   D(8,19,28,30)          78.0074         estimate D2E/DX2                !
 ! D76   D(8,19,28,31)         -43.3858         estimate D2E/DX2                !
 ! D77   D(18,19,28,29)         75.7623         estimate D2E/DX2                !
 ! D78   D(18,19,28,30)        -45.9641         estimate D2E/DX2                !
 ! D79   D(18,19,28,31)       -167.3573         estimate D2E/DX2                !
 --------------------------------------------------------------------------------
 Trust Radius=3.00D-01 FncErr=1.00D-07 GrdErr=1.00D-06 EigMax=2.50D+02 EigMin=1.00D-04
 Number of steps in this run=    178 maximum allowed number of steps=    186.
 GradGradGradGradGradGradGradGradGradGradGradGradGradGradGradGradGradGrad

                          Input orientation:                          
 ---------------------------------------------------------------------
 Center     Atomic      Atomic             Coordinates (Angstroms)
 Number     Number       Type             X           Y           Z
 ---------------------------------------------------------------------
      1          6           0       -1.368346    0.656395   -0.858785
      2          6           0       -2.514722    0.727492   -1.675930
      3         17           0       -4.095311    0.933721   -0.983520
      4          6           0       -2.429404    0.627467   -3.045894
      5          1           0       -3.322783    0.690597   -3.659934
      6          6           0       -1.175840    0.444300   -3.670361
      7          6           0       -0.043827    0.365495   -2.839213
      8         16           0        1.544915    0.101743   -3.546257
      9          6           0       -0.131401    0.473416   -1.457583
     10          1           0        0.764372    0.421825   -0.844449
     11         16           0       -1.412971    0.818435    0.913264
     12          8           0       -2.299696   -0.237787    1.394623
     13          8           0       -0.043058    0.885833    1.415643
     14          7           0       -2.130228    2.241213    1.322212
     15          1           0       -3.077617    2.322756    0.947751
     16          1           0       -1.564405    3.058600    1.090016
     17          7           0       -1.085499    0.402073   -5.023346
     18          6           0        0.117984   -0.016727   -5.717284
     19          7           0        1.273436    0.682587   -5.104822
     20          8           0        2.527293    0.973421   -2.902944
     21          8           0        1.857726   -1.332706   -3.562684
     22          6           0        0.021116    0.371616   -7.188400
     23         17           0       -0.123862    2.157489   -7.338472
     24          1           0       -1.959211    0.298460   -5.531335
     25          1           0        0.257183   -1.107506   -5.647225
     26          1           0       -0.876127   -0.043501   -7.641039
     27          1           0        0.911899    0.064641   -7.738244
     28          6           0        2.523122    0.586231   -5.897406
     29          1           0        2.442992    1.263789   -6.746977
     30          1           0        2.709749   -0.435630   -6.244478
     31          1           0        3.356718    0.923146   -5.280381
 ---------------------------------------------------------------------
                    Distance matrix (angstroms):
                    1          2          3          4          5
     1  C    0.000000
     2  C    1.409595   0.000000
     3  Cl   2.743867   1.737879   0.000000
     4  C    2.431075   1.376258   2.668787   0.000000
     5  H    3.415762   2.142568   2.796265   1.085890   0.000000
     6  C    2.826129   2.418793   3.997744   1.412421   2.161050
     7  C    2.400223   2.754921   4.492327   2.408801   3.395707
     8  S    4.002154   4.513351   6.250757   4.040045   4.904504
     9  C    1.386389   2.406751   4.018607   2.797728   3.883611
    10  H    2.145627   3.396653   4.888548   3.884437   4.970315
    11  S    1.780002   2.815324   3.287252   4.092009   4.957607
    12  O    2.597079   3.225879   3.201910   4.525890   5.239957
    13  O    2.642357   3.961315   4.709462   5.066233   6.046172
    14  N    2.801582   3.380539   3.299619   4.666265   5.352418
    15  H    2.993650   3.121766   2.587456   4.386728   4.894365
    16  H    3.099492   3.740003   3.901301   4.874873   5.591186
    17  N    4.181896   3.654281   5.065749   2.401499   2.635826
    18  C    5.125162   4.880322   6.408099   3.747065   4.070857
    19  N    5.000853   5.109741   6.772861   4.237127   4.817987
    20  O    4.410793   5.194994   6.895263   4.970811   5.905625
    21  O    4.655656   5.188695   6.872221   4.742239   5.562453
    22  C    6.486581   6.078194   7.467360   4.819841   4.871702
    23  Cl   6.766710   6.310744   7.593117   5.107124   5.090826
    24  H    4.723342   3.918776   5.064494   2.550832   2.348455
    25  H    5.355637   5.178982   6.697832   4.122475   4.471986
    26  H    6.836015   6.233935   7.459267   4.896757   4.730140
    27  H    7.271633   6.995195   8.453032   5.787852   5.912442
    28  C    6.366800   6.574244   8.250496   5.714922   6.260334
    29  H    7.040315   7.112107   8.722144   6.151680   6.565253
    30  H    6.843177   7.037015   8.709859   6.145894   6.658806
    31  H    6.476720   6.892326   8.602085   6.209635   6.877184
                    6          7          8          9         10
     6  C    0.000000
     7  C    1.406581   0.000000
     8  S    2.745042   1.758857   0.000000
     9  C    2.447057   1.388603   2.703837   0.000000
    10  H    3.427930   2.153008   2.830453   1.086740   0.000000
    11  S    4.604978   4.020049   5.399080   2.717053   2.826248
    12  O    5.232815   4.835107   6.269658   3.652724   3.851888
    13  O    5.229300   4.286555   5.268482   2.904018   2.444435
    14  N    5.391246   5.018849   6.464209   3.853268   4.047629
    15  H    5.335945   5.232193   6.818857   4.229170   4.646117
    16  H    5.444882   5.000381   6.317112   3.902171   4.014715
    17  N    1.356655   2.420094   3.031677   3.691891   4.570076
    18  C    2.465040   2.907846   2.600678   4.295054   4.935045
    19  N    2.848405   2.639832   1.685291   3.914035   4.298595
    20  O    3.818651   2.642781   1.462443   3.067202   2.765782
    21  O    3.517367   2.650132   1.468252   3.413232   3.415055
    22  C    3.716798   4.349676   3.957272   5.733750   6.387540
    23  Cl   4.182907   4.843654   4.625127   6.117272   6.780400
    24  H    2.024392   3.304650   4.032137   4.468440   5.422179
    25  H    2.893034   3.185164   2.744923   4.494821   5.065842
    26  H    4.011740   4.890556   4.759178   6.249556   7.007239
    27  H    4.588079   5.000443   4.239675   6.379833   6.904618
    28  C    4.319976   3.998812   2.592204   5.174094   5.352813
    29  H    4.820070   4.718243   3.521577   5.935476   6.194070
    30  H    4.743222   4.451945   2.987642   5.640289   5.803450
    31  H    4.833791   4.223030   2.639038   5.194518   5.162274
                   11         12         13         14         15
    11  S    0.000000
    12  O    1.460682   0.000000
    13  O    1.460681   2.520988   0.000000
    14  N    1.644990   2.485841   2.490394   0.000000
    15  H    2.243929   2.713160   3.390018   1.021967   0.000000
    16  H    2.252224   3.391107   2.672348   1.020878   1.688643
    17  N    5.960196   6.563080   6.540741   6.688797   6.581152
    18  C    6.856055   7.514870   7.191606   7.727047   7.752918
    19  N    6.591858   7.473764   6.655143   7.437809   7.632526
    20  O    5.487544   6.575403   5.026387   6.414962   6.932790
    21  O    5.946341   6.561852   5.772230   7.248371   7.619976
    22  C    8.239734   8.912117   8.619634   8.975199   8.922222
    23  Cl   8.458488   9.313353   8.846365   8.890442   8.798493
    24  H    6.488575   6.955026   7.230294   7.125633   6.879474
    25  H    7.038372   7.541993   7.344906   8.092385   8.147472
    26  H    8.614362   9.149179   9.142273   9.334482   9.176767
    27  H    8.990095   9.685818   9.240127   9.802238   9.821498
    28  C    7.869687   8.781359   7.756012   8.747315   9.013322
    29  H    8.587554   9.541146   8.541174   9.326388   9.529290
    30  H    8.354805   9.137261   8.246312   9.372602   9.634856
    31  H    7.818065   8.826011   7.509767   8.685512   9.063620
                   16         17         18         19         20
    16  H    0.000000
    17  N    6.682790   0.000000
    18  C    7.656853   1.450970   0.000000
    19  N    7.216287   2.376952   1.482976   0.000000
    20  O    6.085531   4.227861   3.834798   2.550492   0.000000
    21  O    7.255492   3.715584   3.066073   2.604033   2.490341
    22  C    8.846803   2.431663   1.524590   2.450777   5.000822
    23  Cl   8.598056   3.060399   2.722858   3.019432   5.301372
    24  H    7.184465   1.015953   2.109184   3.283211   5.243351
    25  H    8.128040   2.114438   1.101855   2.128709   4.124892
    26  H    9.291290   2.663586   2.165596   3.402972   5.921735
    27  H    9.645416   3.387349   2.172833   2.729007   5.178369
    28  C    8.464310   3.717532   2.486100   1.482966   3.019393
    29  H    8.983264   4.020411   2.847043   2.098173   3.855906
    30  H    9.180024   4.073919   2.677809   2.147608   3.631056
    31  H    8.328240   4.480053   3.400536   2.104460   2.518468
                   21         22         23         24         25
    21  O    0.000000
    22  C    4.407229   0.000000
    23  Cl   5.510420   1.798022   0.000000
    24  H    4.594050   2.583198   3.176514   0.000000
    25  H    2.637757   2.149128   3.696715   2.627275   0.000000
    26  H    5.076316   1.087313   2.345593   2.396009   2.528199
    27  H    4.503606   1.090897   2.369099   3.628828   2.484943
    28  C    3.094511   2.823607   3.398830   4.506454   2.840038
    29  H    4.150186   2.618456   2.781601   4.667873   3.407382
    30  H    2.953423   2.961652   3.993800   4.779817   2.612127
    31  H    3.207231   3.882134   4.227739   5.358387   3.723606
                   26         27         28         29         30
    26  H    0.000000
    27  H    1.793929   0.000000
    28  C    3.871913   2.501356   0.000000
    29  H    3.677622   2.182845   1.089622   0.000000
    30  H    3.868159   2.390371   1.095212   1.792119   0.000000
    31  H    4.942073   3.571451   1.090465   1.761203   1.787267
                   31
    31  H    0.000000
 Stoichiometry    C9H11Cl2N3O4S2
 Framework group  C1[X(C9H11Cl2N3O4S2)]
 Deg. of freedom    87
 Full point group                 C1      NOp   1
 Largest Abelian subgroup         C1      NOp   1
 Largest concise Abelian subgroup C1      NOp   1
                         Standard orientation:                         
 ---------------------------------------------------------------------
 Center     Atomic      Atomic             Coordinates (Angstroms)
 Number     Number       Type             X           Y           Z
 ---------------------------------------------------------------------
      1          6           0       -2.117376   -0.052052   -0.054554
      2          6           0       -1.848857    1.315986   -0.262711
      3         17           0       -3.136440    2.481854   -0.318436
      4          6           0       -0.564730    1.778785   -0.438551
      5          1           0       -0.376332    2.837193   -0.591641
      6          6           0        0.525356    0.880870   -0.418737
      7          6           0        0.238285   -0.481678   -0.219933
      8         16           0        1.543569   -1.660582   -0.219941
      9          6           0       -1.057532   -0.945619   -0.035996
     10          1           0       -1.244318   -2.003429    0.128788
     11         16           0       -3.751782   -0.702498    0.217556
     12          8           0       -4.538183   -0.325815   -0.954313
     13          8           0       -3.643745   -2.112658    0.582747
     14          7           0       -4.445592    0.059491    1.499739
     15          1           0       -4.497944    1.071932    1.370751
     16          1           0       -4.014535   -0.182165    2.393039
     17          7           0        1.795092    1.344080   -0.535867
     18          6           0        2.931833    0.470933   -0.761138
     19          7           0        2.839902   -0.664221    0.188701
     20          8           0        1.348960   -2.619114    0.867295
     21          8           0        1.713006   -2.225304   -1.564614
     22          6           0        4.224144    1.236907   -0.501152
     23         17           0        4.269526    1.792062    1.208417
     24          1           0        1.898004    2.307634   -0.841048
     25          1           0        2.944725    0.095605   -1.797018
     26          1           0        4.272393    2.135156   -1.111946
     27          1           0        5.098437    0.606022   -0.667442
     28          6           0        4.079903   -1.472330    0.281145
     29          1           0        4.808273   -0.915836    0.870271
     30          1           0        4.490921   -1.705523   -0.706870
     31          1           0        3.857059   -2.397022    0.814436
 ---------------------------------------------------------------------
 Rotational constants (GHZ):           0.4662183           0.1426106           0.1193602
 General basis read from cards:  (6D, 7F)
 There are   418 symmetry adapted cartesian basis functions of A   symmetry.
 There are   418 symmetry adapted basis functions of A   symmetry.
   418 basis functions,   780 primitive gaussians,   418 cartesian basis functions
    92 alpha electrons       92 beta electrons
       nuclear repulsion energy      2336.1189619197 Hartrees.
 NAtoms=   31 NActive=   31 NUniq=   31 SFac= 1.00D+00 NAtFMM=   60 NAOKFM=F Big=F
 Integral buffers will be    131072 words long.
 Raffenetti 2 integral format.
 Two-electron integral symmetry is turned on.
 ------------------------------------------------------------------------------
 Polarizable Continuum Model (PCM)
 =================================
 Model                : PCM.
 Atomic radii         : SMD-Coulomb.
 Polarization charges : Total charges.
 Charge compensation  : None.
 Solution method      : On-the-fly selection.
 Cavity type          : VdW (van der Waals Surface) (Alpha=1.000).
 Cavity algorithm     : GePol (No added spheres)
                        Default sphere list used, NSphG=   31.
                        Lebedev-Laikov grids with approx.  5.0 points / Ang**2.
                        Smoothing algorithm: York/Karplus (Gamma=1.0000).
                        Polarization charges: spherical gaussians, with
                                              point-specific exponents (IZeta= 3).
                        Self-potential: point-specific (ISelfS= 7).
                        Self-field    : sphere-specific E.n sum rule (ISelfD= 2).
 1st derivatives      : Analytical E(r).r(x)/FMM algorithm (CHGder, D1EAlg=3).
                        Cavity 1st derivative terms included.
 Solvent              : Water, Eps=  78.355300 Eps(inf)=   1.777849
 ------------------------------------------------------------------------------
 ------------------------------------------------------------------------------
 Atomic radii for non-electrostatic terms: SMD-CDS.
 ------------------------------------------------------------------------------
 Nuclear repulsion after PCM non-electrostatic terms =     2336.1242696265 Hartrees.
 One-electron integrals computed using PRISM.
 NBasis=   418 RedAO= T EigKep=  1.21D-06  NBF=   418
 NBsUse=   416 1.00D-06 EigRej=  6.23D-07 NBFU=   416
 ExpMin= 4.05D-02 ExpMax= 2.52D+04 ExpMxC= 3.78D+03 IAcc=3 IRadAn=         5 AccDes= 0.00D+00
 Harris functional with IExCor= 1009 and IRadAn=       5 diagonalized for initial guess.
 HarFok:  IExCor= 1009 AccDes= 0.00D+00 IRadAn=         5 IDoV= 1 UseB2=F ITyADJ=14
 ICtDFT=  3500011 ScaDFX=  1.000000  1.000000  1.000000  1.000000
 FoFCou: FMM=F IPFlag=           0 FMFlag=      100000 FMFlg1=           0
         NFxFlg=           0 DoJE=T BraDBF=F KetDBF=T FulRan=T
         wScrn=  0.000000 ICntrl=       500 IOpCl=  0 I1Cent=   200000004 NGrid=           0
         NMat0=    1 NMatS0=      1 NMatT0=    0 NMatD0=    1 NMtDS0=    0 NMtDT0=    0
 Petite list used in FoFCou.
 Requested convergence on RMS density matrix=1.00D-08 within 128 cycles.
 Requested convergence on MAX density matrix=1.00D-06.
 Requested convergence on             energy=1.00D-06.
 No special actions if energy rises.
 Inv3:  Mode=1 IEnd=    18258267.
 Iteration    1 A*A^-1 deviation from unit magnitude is 6.00D-15 for   2441.
 Iteration    1 A*A^-1 deviation from orthogonality  is 3.24D-15 for   2460    567.
 Iteration    1 A^-1*A deviation from unit magnitude is 6.22D-15 for   2441.
 Iteration    1 A^-1*A deviation from orthogonality  is 2.21D-15 for   2463   2461.
 Error on total polarization charges =  0.04035
 SCF Done:  E(RM062X) =  -2530.97690317     A.U. after   16 cycles
            NFock= 16  Conv=0.89D-08     -V/T= 2.0048
 SMD-CDS (non-electrostatic) energy       (kcal/mol) =       3.33
 (included in total energy above)

 **********************************************************************

            Population analysis using the SCF Density.

 **********************************************************************

 Orbital symmetries:
       Occupied  (A) (A) (A) (A) (A) (A) (A) (A) (A) (A) (A) (A)
                 (A) (A) (A) (A) (A) (A) (A) (A) (A) (A) (A) (A)
                 (A) (A) (A) (A) (A) (A) (A) (A) (A) (A) (A) (A)
                 (A) (A) (A) (A) (A) (A) (A) (A) (A) (A) (A) (A)
                 (A) (A) (A) (A) (A) (A) (A) (A) (A) (A) (A) (A)
                 (A) (A) (A) (A) (A) (A) (A) (A) (A) (A) (A) (A)
                 (A) (A) (A) (A) (A) (A) (A) (A) (A) (A) (A) (A)
                 (A) (A) (A) (A) (A) (A) (A) (A)
       Virtual   (A) (A) (A) (A) (A) (A) (A) (A) (A) (A) (A) (A)
                 (A) (A) (A) (A) (A) (A) (A) (A) (A) (A) (A) (A)
                 (A) (A) (A) (A) (A) (A) (A) (A) (A) (A) (A) (A)
                 (A) (A) (A) (A) (A) (A) (A) (A) (A) (A) (A) (A)
                 (A) (A) (A) (A) (A) (A) (A) (A) (A) (A) (A) (A)
                 (A) (A) (A) (A) (A) (A) (A) (A) (A) (A) (A) (A)
                 (A) (A) (A) (A) (A) (A) (A) (A) (A) (A) (A) (A)
                 (A) (A) (A) (A) (A) (A) (A) (A) (A) (A) (A) (A)
                 (A) (A) (A) (A) (A) (A) (A) (A) (A) (A) (A) (A)
                 (A) (A) (A) (A) (A) (A) (A) (A) (A) (A) (A) (A)
                 (A) (A) (A) (A) (A) (A) (A) (A) (A) (A) (A) (A)
                 (A) (A) (A) (A) (A) (A) (A) (A) (A) (A) (A) (A)
                 (A) (A) (A) (A) (A) (A) (A) (A) (A) (A) (A) (A)
                 (A) (A) (A) (A) (A) (A) (A) (A) (A) (A) (A) (A)
                 (A) (A) (A) (A) (A) (A) (A) (A) (A) (A) (A) (A)
                 (A) (A) (A) (A) (A) (A) (A) (A) (A) (A) (A) (A)
                 (A) (A) (A) (A) (A) (A) (A) (A) (A) (A) (A) (A)
                 (A) (A) (A) (A) (A) (A) (A) (A) (A) (A) (A) (A)
                 (A) (A) (A) (A) (A) (A) (A) (A) (A) (A) (A) (A)
                 (A) (A) (A) (A) (A) (A) (A) (A) (A) (A) (A) (A)
                 (A) (A) (A) (A) (A) (A) (A) (A) (A) (A) (A) (A)
                 (A) (A) (A) (A) (A) (A) (A) (A) (A) (A) (A) (A)
                 (A) (A) (A) (A) (A) (A) (A) (A) (A) (A) (A) (A)
                 (A) (A) (A) (A) (A) (A) (A) (A) (A) (A) (A) (A)
                 (A) (A) (A) (A) (A) (A) (A) (A) (A) (A) (A) (A)
                 (A) (A) (A) (A) (A) (A) (A) (A) (A) (A) (A) (A)
                 (A) (A) (A) (A) (A) (A) (A) (A) (A) (A) (A) (A)
 The electronic state is 1-A.
 Alpha  occ. eigenvalues -- -102.70100-102.66587 -90.19086 -90.18534 -19.66927
 Alpha  occ. eigenvalues --  -19.66853 -19.66586 -19.66209 -14.82249 -14.81184
 Alpha  occ. eigenvalues --  -14.80701 -10.66068 -10.65729 -10.65200 -10.61923
 Alpha  occ. eigenvalues --  -10.61423 -10.61191 -10.61034 -10.58914 -10.58566
 Alpha  occ. eigenvalues --   -9.84754  -9.81269  -8.49985  -8.49641  -7.57161
 Alpha  occ. eigenvalues --   -7.56495  -7.56460  -7.53664  -7.53008  -7.53006
 Alpha  occ. eigenvalues --   -6.42193  -6.42167  -6.42075  -6.41813  -6.41793
 Alpha  occ. eigenvalues --   -6.41714  -1.26740  -1.26655  -1.15148  -1.14762
 Alpha  occ. eigenvalues --   -1.11944  -1.05556  -1.03942  -1.02494  -0.98045
 Alpha  occ. eigenvalues --   -0.96212  -0.90282  -0.89150  -0.84200  -0.82247
 Alpha  occ. eigenvalues --   -0.77519  -0.75677  -0.73738  -0.72361  -0.67711
 Alpha  occ. eigenvalues --   -0.66002  -0.63801  -0.63378  -0.62202  -0.60985
 Alpha  occ. eigenvalues --   -0.60096  -0.58878  -0.57388  -0.55939  -0.54704
 Alpha  occ. eigenvalues --   -0.54575  -0.53887  -0.53534  -0.52297  -0.51543
 Alpha  occ. eigenvalues --   -0.50391  -0.49035  -0.47724  -0.47422  -0.46946
 Alpha  occ. eigenvalues --   -0.44998  -0.44600  -0.43637  -0.42906  -0.42535
 Alpha  occ. eigenvalues --   -0.41691  -0.41420  -0.41182  -0.40581  -0.40167
 Alpha  occ. eigenvalues --   -0.39176  -0.38304  -0.37213  -0.37025  -0.34821
 Alpha  occ. eigenvalues --   -0.33529  -0.29036
 Alpha virt. eigenvalues --   -0.03002  -0.01760   0.00580   0.01809   0.02147
 Alpha virt. eigenvalues --    0.02497   0.02750   0.03378   0.04008   0.04093
 Alpha virt. eigenvalues --    0.04676   0.05018   0.05657   0.05869   0.06590
 Alpha virt. eigenvalues --    0.06807   0.07700   0.07776   0.08146   0.08398
 Alpha virt. eigenvalues --    0.08524   0.09089   0.09344   0.10040   0.10358
 Alpha virt. eigenvalues --    0.10579   0.10713   0.11048   0.11456   0.11696
 Alpha virt. eigenvalues --    0.11973   0.12230   0.13030   0.13387   0.13562
 Alpha virt. eigenvalues --    0.13978   0.14375   0.14789   0.15264   0.15284
 Alpha virt. eigenvalues --    0.15793   0.16027   0.16314   0.16987   0.17164
 Alpha virt. eigenvalues --    0.17830   0.17908   0.18260   0.18414   0.19366
 Alpha virt. eigenvalues --    0.19607   0.20169   0.20393   0.20667   0.21336
 Alpha virt. eigenvalues --    0.22000   0.22316   0.22408   0.22777   0.22883
 Alpha virt. eigenvalues --    0.23372   0.23854   0.24035   0.24408   0.24792
 Alpha virt. eigenvalues --    0.25040   0.25502   0.25832   0.26167   0.26697
 Alpha virt. eigenvalues --    0.27237   0.27950   0.28387   0.28602   0.28896
 Alpha virt. eigenvalues --    0.29130   0.29694   0.29755   0.30035   0.30357
 Alpha virt. eigenvalues --    0.30960   0.31320   0.31600   0.31889   0.31951
 Alpha virt. eigenvalues --    0.32595   0.33077   0.33531   0.34042   0.34644
 Alpha virt. eigenvalues --    0.34765   0.35157   0.35617   0.36107   0.36790
 Alpha virt. eigenvalues --    0.37235   0.38126   0.39378   0.39911   0.40265
 Alpha virt. eigenvalues --    0.41840   0.42030   0.42989   0.44240   0.44635
 Alpha virt. eigenvalues --    0.44907   0.45673   0.45951   0.46791   0.48724
 Alpha virt. eigenvalues --    0.51710   0.52986   0.54771   0.58048   0.59101
 Alpha virt. eigenvalues --    0.59945   0.60431   0.62068   0.64403   0.65092
 Alpha virt. eigenvalues --    0.65189   0.65977   0.66961   0.67687   0.68805
 Alpha virt. eigenvalues --    0.69484   0.69699   0.70077   0.70848   0.71590
 Alpha virt. eigenvalues --    0.72755   0.73223   0.73815   0.74518   0.76096
 Alpha virt. eigenvalues --    0.76496   0.76906   0.77907   0.79215   0.79356
 Alpha virt. eigenvalues --    0.79720   0.81914   0.83548   0.84906   0.86407
 Alpha virt. eigenvalues --    0.87601   0.88251   0.89364   0.89987   0.91573
 Alpha virt. eigenvalues --    0.91774   0.92833   0.93637   0.94144   0.95421
 Alpha virt. eigenvalues --    0.96482   0.97870   0.98381   0.99544   1.01083
 Alpha virt. eigenvalues --    1.01446   1.01787   1.02526   1.03073   1.03570
 Alpha virt. eigenvalues --    1.04259   1.04726   1.06024   1.06676   1.07033
 Alpha virt. eigenvalues --    1.07908   1.09309   1.09545   1.11476   1.11605
 Alpha virt. eigenvalues --    1.13461   1.13715   1.14076   1.15379   1.15888
 Alpha virt. eigenvalues --    1.16461   1.17019   1.17510   1.18313   1.19339
 Alpha virt. eigenvalues --    1.20352   1.21079   1.22804   1.23424   1.24758
 Alpha virt. eigenvalues --    1.24962   1.26414   1.27687   1.29994   1.30404
 Alpha virt. eigenvalues --    1.32740   1.33340   1.34208   1.35507   1.36379
 Alpha virt. eigenvalues --    1.36982   1.37425   1.38100   1.38798   1.39537
 Alpha virt. eigenvalues --    1.40356   1.41006   1.42680   1.43104   1.44835
 Alpha virt. eigenvalues --    1.45601   1.46450   1.46831   1.49388   1.50401
 Alpha virt. eigenvalues --    1.51402   1.52221   1.54046   1.56686   1.56839
 Alpha virt. eigenvalues --    1.58190   1.60919   1.62187   1.64796   1.66481
 Alpha virt. eigenvalues --    1.67693   1.72555   1.74740   1.75968   1.77551
 Alpha virt. eigenvalues --    1.78599   1.79927   1.80395   1.82445   1.83732
 Alpha virt. eigenvalues --    1.83774   1.85050   1.85504   1.86186   1.87003
 Alpha virt. eigenvalues --    1.87879   1.88605   1.91222   1.91559   1.93884
 Alpha virt. eigenvalues --    1.95206   1.95711   1.95974   2.00249   2.00365
 Alpha virt. eigenvalues --    2.00929   2.01876   2.03417   2.03638   2.04771
 Alpha virt. eigenvalues --    2.07281   2.08070   2.10508   2.11807   2.13193
 Alpha virt. eigenvalues --    2.14209   2.16039   2.16711   2.18188   2.19066
 Alpha virt. eigenvalues --    2.20785   2.21524   2.22849   2.23571   2.25032
 Alpha virt. eigenvalues --    2.26105   2.28827   2.29607   2.31220   2.34955
 Alpha virt. eigenvalues --    2.35750   2.37446   2.40432   2.41769   2.42782
 Alpha virt. eigenvalues --    2.44669   2.49086   2.49947   2.52532   2.54839
 Alpha virt. eigenvalues --    2.57664   2.61619   2.64600   2.64935   2.69741
 Alpha virt. eigenvalues --    2.75189   2.77372   2.78782   2.79706   2.82024
 Alpha virt. eigenvalues --    2.86274   2.89088   2.92424   2.94835   2.97620
 Alpha virt. eigenvalues --    3.00244   3.03353   3.20700   3.32208   3.91425
 Alpha virt. eigenvalues --    4.04648   4.05073   4.20740   4.21147   4.25013
 Alpha virt. eigenvalues --    4.25954   4.27800   4.30257   4.31081   4.35421
 Alpha virt. eigenvalues --    4.38593   4.41047   4.43939   4.46739   4.49050
 Alpha virt. eigenvalues --    4.50693   4.52414   4.65683   4.74019
          Condensed to atoms (all electrons):
               1          2          3          4          5          6
     1  C   52.100323  -8.621602   0.348734  -5.981312   0.045220   2.172692
     2  C   -8.621602  33.499906  -1.186457  -6.867074   0.021837   0.330258
     3  Cl   0.348734  -1.186457  17.080415   0.278635  -0.004029  -0.109876
     4  C   -5.981312  -6.867074   0.278635  32.290011   0.187927  -7.230590
     5  H    0.045220   0.021837  -0.004029   0.187927   0.393766  -0.076146
     6  C    2.172692   0.330258  -0.109876  -7.230590  -0.076146  37.019765
     7  C  -10.933883  -0.642343   0.037413 -14.343560   0.131488 -17.218332
     8  S   -4.140438   0.401293  -0.001508   1.709593   0.002363  -1.460621
     9  C  -12.447540 -12.328579   0.369821   8.024070  -0.006062  -6.573876
    10  H   -0.062425  -0.046629  -0.000170   0.001894   0.000009  -0.023101
    11  S   -1.067575  -0.515447   0.006563   1.159397  -0.001909   0.955870
    12  O   -0.238261   0.273666  -0.086629   0.064212  -0.000024   0.183279
    13  O   -0.491618  -0.254695   0.005568   0.072472   0.000019  -0.008620
    14  N   -0.514549   0.016030  -0.007148   0.071462  -0.000209   0.056341
    15  H    0.004274  -0.046577   0.025325   0.015019   0.000000   0.007518
    16  H   -0.074472   0.044880  -0.002014  -0.001783   0.000000   0.003739
    17  N    0.153409   0.109380  -0.001642  -0.177049  -0.012249  -0.554499
    18  C   -0.628714   0.213500  -0.007575  -2.444819   0.012798  -3.082886
    19  N   -0.539957   0.130546  -0.000289   0.816309  -0.000279   1.495666
    20  O   -0.222389   0.014143  -0.000427   0.026132   0.000013  -0.125514
    21  O   -0.052698   0.025449  -0.000125   0.006972   0.000005  -0.316412
    22  C   -0.184938  -0.019090   0.000601  -0.145793   0.000685  -0.326618
    23  Cl  -0.005505   0.013347  -0.000035   0.000077   0.000132   0.019917
    24  H    0.006545   0.010269  -0.000085   0.002768   0.004185  -0.057524
    25  H    0.001623   0.008719  -0.000027   0.001747  -0.000005  -0.055048
    26  H   -0.000588  -0.000429  -0.000003  -0.002246   0.000002   0.008569
    27  H    0.000156  -0.000110   0.000001   0.003142   0.000000  -0.003066
    28  C    0.010326  -0.019106   0.000268   0.108488  -0.000060   0.219822
    29  H   -0.000357  -0.000354  -0.000000  -0.001016   0.000000   0.008415
    30  H   -0.001074   0.000276  -0.000000   0.004069  -0.000000   0.016488
    31  H    0.002163   0.000339  -0.000000  -0.002869  -0.000000  -0.026243
               7          8          9         10         11         12
     1  C  -10.933883  -4.140438 -12.447540  -0.062425  -1.067575  -0.238261
     2  C   -0.642343   0.401293 -12.328579  -0.046629  -0.515447   0.273666
     3  Cl   0.037413  -0.001508   0.369821  -0.000170   0.006563  -0.086629
     4  C  -14.343560   1.709593   8.024070   0.001894   1.159397   0.064212
     5  H    0.131488   0.002363  -0.006062   0.000009  -0.001909  -0.000024
     6  C  -17.218332  -1.460621  -6.573876  -0.023101   0.955870   0.183279
     7  C   46.090950  -1.998315   4.284129  -0.029742  -2.908099  -0.424215
     8  S   -1.998315  18.806062   1.090757   0.036824  -0.355433  -0.024017
     9  C    4.284129   1.090757  24.259280   0.425004  -0.358804  -0.419809
    10  H   -0.029742   0.036824   0.425004   0.379833  -0.011408  -0.000691
    11  S   -2.908099  -0.355433  -0.358804  -0.011408  16.649836   0.630863
    12  O   -0.424215  -0.024017  -0.419809  -0.000691   0.630863   8.788861
    13  O   -0.017193   0.003468   0.410823   0.005463   0.340759  -0.135181
    14  N    0.022187   0.005399   0.035414  -0.000775  -0.038524  -0.105835
    15  H   -0.011926  -0.000411  -0.001466  -0.000005   0.036564  -0.007489
    16  H   -0.024972  -0.001029  -0.040313  -0.000011   0.095845   0.010401
    17  N    0.788646  -0.100629  -0.065888  -0.000609  -0.002415  -0.000403
    18  C    4.639709  -0.846604  -0.379992  -0.000274  -0.071039  -0.003115
    19  N   -2.129772   0.330109   0.113118   0.001163  -0.019866  -0.000367
    20  O   -0.097673   0.311629   0.117978   0.004894  -0.017351  -0.000357
    21  O    0.059947   0.768039  -0.041112  -0.000052  -0.004652  -0.000201
    22  C    0.131929   0.044208   0.006877  -0.000043  -0.005831  -0.000150
    23  Cl  -0.043127   0.059941   0.009654   0.000019  -0.000590  -0.000002
    24  H    0.029484   0.004465  -0.003905   0.000002  -0.000005   0.000001
    25  H   -0.000772   0.038151   0.002712  -0.000000  -0.000163  -0.000000
    26  H   -0.008386   0.006239   0.000321  -0.000000  -0.000009  -0.000000
    27  H    0.008758  -0.015702  -0.000499   0.000000   0.000004   0.000000
    28  C   -0.134299  -0.375662   0.018745  -0.000220   0.000277   0.000018
    29  H   -0.009304   0.005688  -0.000191   0.000000  -0.000007  -0.000000
    30  H   -0.006431   0.001759  -0.006191  -0.000000  -0.000007   0.000000
    31  H    0.023674  -0.026442   0.010240  -0.000001   0.000017  -0.000000
              13         14         15         16         17         18
     1  C   -0.491618  -0.514549   0.004274  -0.074472   0.153409  -0.628714
     2  C   -0.254695   0.016030  -0.046577   0.044880   0.109380   0.213500
     3  Cl   0.005568  -0.007148   0.025325  -0.002014  -0.001642  -0.007575
     4  C    0.072472   0.071462   0.015019  -0.001783  -0.177049  -2.444819
     5  H    0.000019  -0.000209   0.000000   0.000000  -0.012249   0.012798
     6  C   -0.008620   0.056341   0.007518   0.003739  -0.554499  -3.082886
     7  C   -0.017193   0.022187  -0.011926  -0.024972   0.788646   4.639709
     8  S    0.003468   0.005399  -0.000411  -0.001029  -0.100629  -0.846604
     9  C    0.410823   0.035414  -0.001466  -0.040313  -0.065888  -0.379992
    10  H    0.005463  -0.000775  -0.000005  -0.000011  -0.000609  -0.000274
    11  S    0.340759  -0.038524   0.036564   0.095845  -0.002415  -0.071039
    12  O   -0.135181  -0.105835  -0.007489   0.010401  -0.000403  -0.003115
    13  O    8.803687  -0.097002   0.010907  -0.004599   0.000245  -0.001204
    14  N   -0.097002   8.041776   0.225813   0.250521  -0.000472  -0.000935
    15  H    0.010907   0.225813   0.273009  -0.013891  -0.000004  -0.000014
    16  H   -0.004599   0.250521  -0.013891   0.247006   0.000001  -0.000075
    17  N    0.000245  -0.000472  -0.000004   0.000001   7.628841  -0.127666
    18  C   -0.001204  -0.000935  -0.000014  -0.000075  -0.127666  11.873201
    19  N   -0.000580   0.000173  -0.000003  -0.000008  -0.293835  -1.622458
    20  O   -0.000623  -0.000421  -0.000001  -0.000001  -0.022890   0.113710
    21  O    0.000144   0.000080  -0.000000  -0.000000   0.068749  -0.162769
    22  C   -0.000047  -0.000011   0.000001  -0.000002  -0.176248  -1.039539
    23  Cl  -0.000007  -0.000009   0.000000   0.000000   0.072976  -0.397244
    24  H    0.000000   0.000003   0.000000   0.000000   0.266657  -0.034071
    25  H   -0.000000  -0.000001  -0.000000  -0.000000  -0.039681   0.395872
    26  H   -0.000000  -0.000000  -0.000000   0.000000  -0.001081  -0.099857
    27  H   -0.000000   0.000000  -0.000000  -0.000000   0.013325  -0.040988
    28  C    0.000060   0.000130   0.000000  -0.000000  -0.030873  -0.259325
    29  H   -0.000000  -0.000000  -0.000000  -0.000000  -0.007110  -0.056491
    30  H   -0.000000   0.000000  -0.000000  -0.000000   0.005904   0.015266
    31  H    0.000000  -0.000000   0.000000   0.000000   0.000139   0.056614
              19         20         21         22         23         24
     1  C   -0.539957  -0.222389  -0.052698  -0.184938  -0.005505   0.006545
     2  C    0.130546   0.014143   0.025449  -0.019090   0.013347   0.010269
     3  Cl  -0.000289  -0.000427  -0.000125   0.000601  -0.000035  -0.000085
     4  C    0.816309   0.026132   0.006972  -0.145793   0.000077   0.002768
     5  H   -0.000279   0.000013   0.000005   0.000685   0.000132   0.004185
     6  C    1.495666  -0.125514  -0.316412  -0.326618   0.019917  -0.057524
     7  C   -2.129772  -0.097673   0.059947   0.131929  -0.043127   0.029484
     8  S    0.330109   0.311629   0.768039   0.044208   0.059941   0.004465
     9  C    0.113118   0.117978  -0.041112   0.006877   0.009654  -0.003905
    10  H    0.001163   0.004894  -0.000052  -0.000043   0.000019   0.000002
    11  S   -0.019866  -0.017351  -0.004652  -0.005831  -0.000590  -0.000005
    12  O   -0.000367  -0.000357  -0.000201  -0.000150  -0.000002   0.000001
    13  O   -0.000580  -0.000623   0.000144  -0.000047  -0.000007   0.000000
    14  N    0.000173  -0.000421   0.000080  -0.000011  -0.000009   0.000003
    15  H   -0.000003  -0.000001  -0.000000   0.000001   0.000000   0.000000
    16  H   -0.000008  -0.000001  -0.000000  -0.000002   0.000000   0.000000
    17  N   -0.293835  -0.022890   0.068749  -0.176248   0.072976   0.266657
    18  C   -1.622458   0.113710  -0.162769  -1.039539  -0.397244  -0.034071
    19  N    9.086453  -0.018590  -0.200401   0.095639   0.169371   0.007463
    20  O   -0.018590   8.699210  -0.206698   0.052650   0.002873   0.000013
    21  O   -0.200401  -0.206698   8.644404  -0.037288  -0.001015   0.000371
    22  C    0.095639   0.052650  -0.037288   7.700359   0.044201  -0.006251
    23  Cl   0.169371   0.002873  -0.001015   0.044201  17.118538  -0.001577
    24  H    0.007463   0.000013   0.000371  -0.006251  -0.001577   0.239123
    25  H   -0.053653  -0.000435   0.010821  -0.078006   0.004481   0.000887
    26  H    0.018721   0.000036   0.000085   0.407303  -0.037407   0.001415
    27  H   -0.017770   0.000000  -0.000364   0.366075  -0.040292  -0.000045
    28  C    0.324434  -0.036662  -0.061238  -0.058151  -0.010459   0.001232
    29  H   -0.016253   0.001286  -0.001238   0.036280   0.003391  -0.000009
    30  H   -0.023292  -0.002439   0.009775  -0.054004  -0.000873   0.000007
    31  H   -0.090912   0.015961  -0.005886   0.004490  -0.002385   0.000002
              25         26         27         28         29         30
     1  C    0.001623  -0.000588   0.000156   0.010326  -0.000357  -0.001074
     2  C    0.008719  -0.000429  -0.000110  -0.019106  -0.000354   0.000276
     3  Cl  -0.000027  -0.000003   0.000001   0.000268  -0.000000  -0.000000
     4  C    0.001747  -0.002246   0.003142   0.108488  -0.001016   0.004069
     5  H   -0.000005   0.000002   0.000000  -0.000060   0.000000  -0.000000
     6  C   -0.055048   0.008569  -0.003066   0.219822   0.008415   0.016488
     7  C   -0.000772  -0.008386   0.008758  -0.134299  -0.009304  -0.006431
     8  S    0.038151   0.006239  -0.015702  -0.375662   0.005688   0.001759
     9  C    0.002712   0.000321  -0.000499   0.018745  -0.000191  -0.006191
    10  H   -0.000000  -0.000000   0.000000  -0.000220   0.000000  -0.000000
    11  S   -0.000163  -0.000009   0.000004   0.000277  -0.000007  -0.000007
    12  O   -0.000000  -0.000000   0.000000   0.000018  -0.000000   0.000000
    13  O   -0.000000  -0.000000  -0.000000   0.000060  -0.000000  -0.000000
    14  N   -0.000001  -0.000000   0.000000   0.000130  -0.000000   0.000000
    15  H   -0.000000  -0.000000  -0.000000   0.000000  -0.000000  -0.000000
    16  H   -0.000000   0.000000  -0.000000  -0.000000  -0.000000  -0.000000
    17  N   -0.039681  -0.001081   0.013325  -0.030873  -0.007110   0.005904
    18  C    0.395872  -0.099857  -0.040988  -0.259325  -0.056491   0.015266
    19  N   -0.053653   0.018721  -0.017770   0.324434  -0.016253  -0.023292
    20  O   -0.000435   0.000036   0.000000  -0.036662   0.001286  -0.002439
    21  O    0.010821   0.000085  -0.000364  -0.061238  -0.001238   0.009775
    22  C   -0.078006   0.407303   0.366075  -0.058151   0.036280  -0.054004
    23  Cl   0.004481  -0.037407  -0.040292  -0.010459   0.003391  -0.000873
    24  H    0.000887   0.001415  -0.000045   0.001232  -0.000009   0.000007
    25  H    0.437109  -0.001973  -0.001034  -0.002148  -0.000348   0.004224
    26  H   -0.001973   0.398557  -0.017402  -0.000614   0.000170   0.000010
    27  H   -0.001034  -0.017402   0.407419   0.014032  -0.004528  -0.001206
    28  C   -0.002148  -0.000614   0.014032   5.732557   0.378128   0.364858
    29  H   -0.000348   0.000170  -0.004528   0.378128   0.433003  -0.030020
    30  H    0.004224   0.000010  -0.001206   0.364858  -0.030020   0.428576
    31  H   -0.000181  -0.000004   0.000215   0.383896  -0.016537  -0.022706
              31
     1  C    0.002163
     2  C    0.000339
     3  Cl  -0.000000
     4  C   -0.002869
     5  H   -0.000000
     6  C   -0.026243
     7  C    0.023674
     8  S   -0.026442
     9  C    0.010240
    10  H   -0.000001
    11  S    0.000017
    12  O   -0.000000
    13  O    0.000000
    14  N   -0.000000
    15  H    0.000000
    16  H    0.000000
    17  N    0.000139
    18  C    0.056614
    19  N   -0.090912
    20  O    0.015961
    21  O   -0.005886
    22  C    0.004490
    23  Cl  -0.002385
    24  H    0.000002
    25  H   -0.000181
    26  H   -0.000004
    27  H    0.000215
    28  C    0.383896
    29  H   -0.016537
    30  H   -0.022706
    31  H    0.422089
 Mulliken charges:
               1
     1  C   -2.635569
     2  C    1.434655
     3  Cl   0.254695
     4  C   -1.646284
     5  H    0.300522
     6  C    0.750634
     7  C    0.734028
     8  S    1.720823
     9  C   -0.504715
    10  H    0.321052
    11  S    1.503140
    12  O   -0.504555
    13  O   -0.642246
    14  N   -0.959438
    15  H    0.483359
    16  H    0.510776
    17  N   -0.493029
    18  C   -0.013018
    19  N   -0.560879
    20  O   -0.608057
    21  O   -0.502690
    22  C   -0.759289
    23  Cl   0.021609
    24  H    0.528584
    25  H    0.327129
    26  H    0.328573
    27  H    0.329879
    28  C   -0.568453
    29  H    0.277401
    30  H    0.297032
    31  H    0.274330
 Sum of Mulliken charges =  -0.00000
 Mulliken charges with hydrogens summed into heavy atoms:
               1
     1  C   -2.635569
     2  C    1.434655
     3  Cl   0.254695
     4  C   -1.345762
     6  C    0.750634
     7  C    0.734028
     8  S    1.720823
     9  C   -0.183663
    11  S    1.503140
    12  O   -0.504555
    13  O   -0.642246
    14  N    0.034697
    17  N    0.035554
    18  C    0.314111
    19  N   -0.560879
    20  O   -0.608057
    21  O   -0.502690
    22  C   -0.100837
    23  Cl   0.021609
    28  C    0.280310
 Electronic spatial extent (au):  <R**2>=           8539.1544
 Charge=             -0.0000 electrons
 Dipole moment (field-independent basis, Debye):
    X=              9.9827    Y=             11.6326    Z=             -0.0077  Tot=             15.3288
 Quadrupole moment (field-independent basis, Debye-Ang):
   XX=           -149.2872   YY=           -155.3466   ZZ=           -147.2327
   XY=             -9.6505   XZ=            -30.1896   YZ=             -7.4964
 Traceless Quadrupole moment (field-independent basis, Debye-Ang):
   XX=              1.3350   YY=             -4.7245   ZZ=              3.3895
   XY=             -9.6505   XZ=            -30.1896   YZ=             -7.4964
 Octapole moment (field-independent basis, Debye-Ang**2):
  XXX=            298.7653  YYY=             87.8294  ZZZ=             29.3338  XYY=             10.0484
  XXY=             63.7003  XXZ=             16.2420  XZZ=            -19.6617  YZZ=             21.2646
  YYZ=            -14.9125  XYZ=            -43.3440
 Hexadecapole moment (field-independent basis, Debye-Ang**3):
 XXXX=          -8459.8417 YYYY=          -2292.1713 ZZZZ=           -584.8811 XXXY=           -445.9164
 XXXZ=           -487.6694 YYYX=            -16.1638 YYYZ=            -38.0016 ZZZX=            -86.5330
 ZZZY=            -15.1567 XXYY=          -1778.1690 XXZZ=          -1431.5348 YYZZ=           -508.1728
 XXYZ=            -54.4381 YYXZ=            -18.7188 ZZXY=             19.5069
 N-N= 2.336124269626D+03 E-N=-1.064560355296D+04  KE= 2.518839253861D+03
 D1PCM: PCM CHGder 1st derivatives, ID1Alg=3 FixD1E=F DoIter=F DoCFld=F I1PDM=0.
 Calling FoFJK, ICntrl=      2127 FMM=F ISym2X=0 I1Cent= 0 IOpClX= 0 NMat=1 NMatS=1 NMatT=0.
 ***** Axes restored to original set *****
 -------------------------------------------------------------------
 Center     Atomic                   Forces (Hartrees/Bohr)
 Number     Number              X              Y              Z
 -------------------------------------------------------------------
      1        6           0.005975831    0.004381220   -0.000296191
      2        6           0.000410500   -0.001886185    0.000211700
      3       17          -0.001031163    0.000051129   -0.000738530
      4        6           0.000180715    0.000226847    0.000697935
      5        1           0.000095355   -0.000049784    0.000084663
      6        6           0.000398459    0.000124799   -0.001491924
      7        6           0.000326037   -0.000823590    0.000286719
      8       16           0.000157368    0.001407103   -0.002198185
      9        6          -0.000517882    0.001266701   -0.000052379
     10        1           0.000294606    0.000553625    0.000090664
     11       16          -0.006321228   -0.003163903    0.000279047
     12        8          -0.000651761   -0.001328817    0.003418232
     13        8          -0.000559878    0.000245537   -0.004215542
     14        7           0.000464652    0.000005814    0.000101546
     15        1           0.000569334    0.000881211    0.002314450
     16        1           0.000923053   -0.000077018   -0.001548529
     17        7          -0.001128724   -0.003528407    0.001109475
     18        6           0.001988031    0.006657000   -0.002422602
     19        7           0.002449342   -0.003578458    0.005998677
     20        8           0.000097183   -0.000050249    0.000704500
     21        8           0.000196061   -0.001040829    0.000455220
     22        6          -0.000191435    0.003360635    0.004636005
     23       17          -0.000212985    0.002375266   -0.004894513
     24        1           0.000183101    0.000315217   -0.001074714
     25        1          -0.000123549    0.000065551   -0.003415721
     26        1          -0.000387499   -0.004222287    0.000419249
     27        1          -0.003831762   -0.001830862    0.000004597
     28        6          -0.000353990   -0.000478665    0.001268251
     29        1           0.000383062    0.000278429    0.000217154
     30        1           0.000127459   -0.000121758   -0.000043055
     31        1           0.000091709   -0.000015270    0.000093800
 -------------------------------------------------------------------
 Cartesian Forces:  Max     0.006657000 RMS     0.002086781

 GradGradGradGradGradGradGradGradGradGradGradGradGradGradGradGradGradGrad
 Berny optimization.
 FormGI is forming the generalized inverse of G from B-inverse, IUseBI=4.
 Internal  Forces:  Max     0.012963874 RMS     0.002163592
 Search for a local minimum.
 Step number   1 out of a maximum of  178
 All quantities printed in internal units (Hartrees-Bohrs-Radians)
 Mixed Optimization -- RFO/linear search
 Second derivative matrix not updated -- first step.
 ITU=  0
     Eigenvalues ---    0.00441   0.00594   0.00635   0.01296   0.01488
     Eigenvalues ---    0.01519   0.01694   0.01732   0.01895   0.02024
     Eigenvalues ---    0.02057   0.02136   0.02150   0.02199   0.02246
     Eigenvalues ---    0.02254   0.02686   0.04332   0.04653   0.05135
     Eigenvalues ---    0.05703   0.05825   0.06977   0.07133   0.07641
     Eigenvalues ---    0.08604   0.09239   0.10441   0.11296   0.11651
     Eigenvalues ---    0.12373   0.13757   0.14509   0.15355   0.16000
     Eigenvalues ---    0.16000   0.16000   0.16000   0.16000   0.16000
     Eigenvalues ---    0.16000   0.16000   0.16000   0.17303   0.17797
     Eigenvalues ---    0.19993   0.20461   0.22370   0.23107   0.23947
     Eigenvalues ---    0.24622   0.24992   0.24995   0.24999   0.25000
     Eigenvalues ---    0.26273   0.27758   0.29022   0.29929   0.31692
     Eigenvalues ---    0.32438   0.33478   0.34217   0.34232   0.34709
     Eigenvalues ---    0.34759   0.34856   0.35125   0.35192   0.35292
     Eigenvalues ---    0.36059   0.36984   0.40083   0.41807   0.43417
     Eigenvalues ---    0.43696   0.44026   0.44198   0.44990   0.45688
     Eigenvalues ---    0.47396   0.49121   0.51964   0.88230   0.90591
     Eigenvalues ---    0.91324   0.91324
 RFO step:  Lambda=-6.41820539D-03 EMin= 4.40663274D-03
 Linear search not attempted -- first point.
 Iteration  1 RMS(Cart)=  0.06877607 RMS(Int)=  0.00263479
 Iteration  2 RMS(Cart)=  0.00361521 RMS(Int)=  0.00034884
 Iteration  3 RMS(Cart)=  0.00001023 RMS(Int)=  0.00034880
 Iteration  4 RMS(Cart)=  0.00000001 RMS(Int)=  0.00034880
 Variable       Old X    -DE/DX   Delta X   Delta X   Delta X     New X
                                 (Linear)    (Quad)   (Total)
    R1        2.66375   0.00053   0.00000   0.00124   0.00127   2.66502
    R2        2.61989  -0.00018   0.00000  -0.00033  -0.00031   2.61959
    R3        3.36372   0.00017   0.00000   0.00060   0.00060   3.36431
    R4        3.28412   0.00065   0.00000   0.00201   0.00201   3.28612
    R5        2.60075  -0.00013   0.00000  -0.00023  -0.00022   2.60053
    R6        2.05203  -0.00013   0.00000  -0.00036  -0.00036   2.05167
    R7        2.66909   0.00019   0.00000   0.00038   0.00036   2.66945
    R8        2.65805  -0.00016   0.00000  -0.00074  -0.00096   2.65709
    R9        2.56371  -0.00066   0.00000  -0.00179  -0.00185   2.56186
   R10        3.32376  -0.00033   0.00000  -0.00067  -0.00083   3.32293
   R11        2.62408  -0.00021   0.00000  -0.00046  -0.00047   2.62360
   R12        3.18474  -0.00150   0.00000  -0.00236  -0.00220   3.18254
   R13        2.76362   0.00035   0.00000   0.00038   0.00038   2.76400
   R14        2.77459   0.00105   0.00000   0.00118   0.00118   2.77577
   R15        2.05364   0.00027   0.00000   0.00075   0.00075   2.05439
   R16        2.76029   0.00249   0.00000   0.00270   0.00270   2.76299
   R17        2.76029  -0.00197   0.00000  -0.00214  -0.00214   2.75815
   R18        3.10858   0.00006   0.00000   0.00014   0.00014   3.10872
   R19        1.93124  -0.00130   0.00000  -0.00291  -0.00291   1.92833
   R20        1.92918   0.00080   0.00000   0.00178   0.00178   1.93096
   R21        2.74194  -0.00071   0.00000  -0.00187  -0.00171   2.74022
   R22        1.91987   0.00035   0.00000   0.00076   0.00076   1.92063
   R23        2.80242   0.00418   0.00000   0.01092   0.01101   2.81343
   R24        2.88106   0.00005   0.00000   0.00017   0.00017   2.88123
   R25        2.08220  -0.00030   0.00000  -0.00087  -0.00087   2.08133
   R26        2.80240  -0.00059   0.00000  -0.00169  -0.00169   2.80071
   R27        3.39777   0.00278   0.00000   0.01035   0.01035   3.40811
   R28        2.05472   0.00176   0.00000   0.00491   0.00491   2.05963
   R29        2.06150  -0.00261   0.00000  -0.00740  -0.00740   2.05410
   R30        2.05909  -0.00002   0.00000  -0.00006  -0.00006   2.05903
   R31        2.06965   0.00014   0.00000   0.00041   0.00041   2.07006
   R32        2.06068   0.00012   0.00000   0.00034   0.00034   2.06102
    A1        2.07359  -0.00043   0.00000  -0.00159  -0.00169   2.07191
    A2        2.15572   0.00301   0.00000   0.01194   0.01178   2.16750
    A3        2.05371  -0.00257   0.00000  -0.00983  -0.00999   2.04372
    A4        2.11143   0.00207   0.00000   0.00813   0.00811   2.11954
    A5        2.12113  -0.00055   0.00000  -0.00227  -0.00225   2.11888
    A6        2.05060  -0.00152   0.00000  -0.00588  -0.00590   2.04470
    A7        2.10326  -0.00046   0.00000  -0.00185  -0.00186   2.10140
    A8        2.09966   0.00090   0.00000   0.00362   0.00358   2.10324
    A9        2.08027  -0.00044   0.00000  -0.00174  -0.00174   2.07852
   A10        2.04912  -0.00057   0.00000  -0.00189  -0.00189   2.04723
   A11        2.09910  -0.00024   0.00000   0.00023   0.00033   2.09942
   A12        2.13408   0.00084   0.00000   0.00186   0.00175   2.13583
   A13        2.09188   0.00031   0.00000   0.00168   0.00149   2.09337
   A14        2.13273  -0.00014   0.00000  -0.00114  -0.00109   2.13164
   A15        2.05849  -0.00017   0.00000  -0.00062  -0.00050   2.05799
   A16        1.74627  -0.00088   0.00000   0.00352   0.00367   1.74994
   A17        1.91830  -0.00050   0.00000  -0.00259  -0.00263   1.91567
   A18        1.92138   0.00027   0.00000  -0.00373  -0.00379   1.91759
   A19        1.88556   0.00047   0.00000   0.00283   0.00287   1.88843
   A20        1.93981   0.00088   0.00000   0.00312   0.00300   1.94281
   A21        2.03100  -0.00031   0.00000  -0.00221  -0.00221   2.02878
   A22        2.09009   0.00078   0.00000   0.00321   0.00320   2.09329
   A23        2.09209  -0.00037   0.00000  -0.00145  -0.00146   2.09063
   A24        2.10098  -0.00041   0.00000  -0.00170  -0.00171   2.09926
   A25        1.85195   0.00466   0.00000   0.03743   0.03702   1.88897
   A26        1.89979  -0.00718   0.00000  -0.04831  -0.04825   1.85153
   A27        1.91469   0.00350   0.00000   0.01411   0.01360   1.92829
   A28        2.08215   0.00055   0.00000   0.00054   0.00093   2.08309
   A29        1.85334  -0.00055   0.00000   0.01467   0.01393   1.86728
   A30        1.85826  -0.00042   0.00000  -0.01534  -0.01550   1.84276
   A31        1.96289   0.00319   0.00000   0.02025   0.02028   1.98318
   A32        1.97610  -0.00256   0.00000  -0.01434  -0.01431   1.96179
   A33        1.94613  -0.00019   0.00000   0.00061   0.00065   1.94678
   A34        2.14264   0.00041   0.00000   0.00387   0.00420   2.14683
   A35        2.03149   0.00017   0.00000   0.00538   0.00531   2.03680
   A36        2.03167  -0.00064   0.00000  -0.00435  -0.00464   2.02703
   A37        1.88875  -0.00099   0.00000   0.01503   0.01431   1.90305
   A38        1.91268  -0.00313   0.00000  -0.00740  -0.00974   1.90294
   A39        1.93918   0.00138   0.00000  -0.01307  -0.01381   1.92537
   A40        1.90487   0.00932   0.00000   0.07526   0.07526   1.98013
   A41        1.91998  -0.00195   0.00000  -0.01470  -0.01368   1.90630
   A42        1.89815  -0.00440   0.00000  -0.05273  -0.05270   1.84545
   A43        1.92295   0.00145   0.00000   0.00361   0.00359   1.92655
   A44        1.91360  -0.00161   0.00000  -0.01113  -0.01128   1.90232
   A45        1.98801   0.00054   0.00000   0.00775   0.00782   1.99583
   A46        1.91629   0.01296   0.00000   0.06663   0.06646   1.98275
   A47        1.93571  -0.00582   0.00000  -0.04061  -0.04098   1.89473
   A48        1.94206  -0.00062   0.00000  -0.00528  -0.00642   1.93564
   A49        1.85242  -0.00191   0.00000   0.00913   0.00973   1.86215
   A50        1.87892  -0.00380   0.00000   0.00511   0.00427   1.88318
   A51        1.93538  -0.00054   0.00000  -0.03123  -0.03258   1.90281
   A52        1.89056   0.00032   0.00000   0.00225   0.00225   1.89281
   A53        1.95367   0.00017   0.00000   0.00145   0.00145   1.95512
   A54        1.89832  -0.00019   0.00000  -0.00190  -0.00190   1.89642
   A55        1.92371   0.00003   0.00000   0.00165   0.00164   1.92535
   A56        1.88102  -0.00025   0.00000  -0.00252  -0.00251   1.87851
   A57        1.91487  -0.00008   0.00000  -0.00109  -0.00109   1.91377
    D1        3.12672  -0.00020   0.00000  -0.00772  -0.00775   3.11897
    D2       -0.00673  -0.00001   0.00000  -0.00330  -0.00329  -0.01002
    D3       -0.03478   0.00047   0.00000   0.02375   0.02387  -0.01091
    D4        3.11496   0.00066   0.00000   0.02817   0.02833  -3.13989
    D5        0.00095  -0.00025   0.00000  -0.00666  -0.00672  -0.00576
    D6        3.13551   0.00004   0.00000   0.00289   0.00280   3.13831
    D7       -3.12190  -0.00095   0.00000  -0.03653  -0.03634   3.12494
    D8        0.01265  -0.00066   0.00000  -0.02697  -0.02682  -0.01417
    D9        1.01976   0.00018   0.00000  -0.07102  -0.07063   0.94913
   D10       -3.00226  -0.00067   0.00000  -0.07655  -0.07677  -3.07902
   D11       -0.97533  -0.00330   0.00000  -0.11446  -0.11466  -1.08999
   D12       -2.14152   0.00087   0.00000  -0.03980  -0.03940  -2.18092
   D13        0.11964   0.00002   0.00000  -0.04534  -0.04553   0.07411
   D14        2.14658  -0.00261   0.00000  -0.08325  -0.08343   2.06315
   D15       -3.13500  -0.00013   0.00000  -0.00098  -0.00095  -3.13596
   D16        0.00400   0.00013   0.00000   0.00855   0.00861   0.01260
   D17        0.01447   0.00004   0.00000   0.00323   0.00326   0.01772
   D18       -3.12972   0.00030   0.00000   0.01275   0.01282  -3.11690
   D19        0.00430   0.00002   0.00000  -0.00370  -0.00378   0.00052
   D20       -3.09313  -0.00053   0.00000  -0.00871  -0.00865  -3.10178
   D21       -3.13985   0.00028   0.00000   0.00570   0.00566  -3.13420
   D22        0.04590  -0.00028   0.00000   0.00069   0.00078   0.04669
   D23        3.11764  -0.00044   0.00000  -0.01368  -0.01355   3.10409
   D24       -0.01018  -0.00029   0.00000  -0.00637  -0.00633  -0.01651
   D25       -0.06907   0.00009   0.00000  -0.00861  -0.00861  -0.07767
   D26        3.08630   0.00025   0.00000  -0.00130  -0.00139   3.08491
   D27       -2.94475  -0.00031   0.00000  -0.01012  -0.01000  -2.95474
   D28       -0.23105  -0.00062   0.00000   0.00173   0.00194  -0.22911
   D29        0.24322  -0.00086   0.00000  -0.01527  -0.01503   0.22819
   D30        2.95691  -0.00116   0.00000  -0.00342  -0.00309   2.95382
   D31        0.41252   0.00056   0.00000   0.01241   0.01223   0.42475
   D32        2.39333   0.00050   0.00000   0.01633   0.01625   2.40959
   D33       -1.63051  -0.00009   0.00000   0.00855   0.00846  -1.62206
   D34       -2.74227   0.00041   0.00000   0.00540   0.00531  -2.73696
   D35       -0.76145   0.00035   0.00000   0.00932   0.00933  -0.75212
   D36        1.49789  -0.00024   0.00000   0.00154   0.00154   1.49942
   D37        0.00762   0.00041   0.00000   0.01166   0.01170   0.01932
   D38       -3.12690   0.00012   0.00000   0.00206   0.00213  -3.12477
   D39       -3.12046   0.00056   0.00000   0.01882   0.01877  -3.10169
   D40        0.02821   0.00027   0.00000   0.00921   0.00920   0.03741
   D41       -0.96368  -0.00028   0.00000   0.01014   0.01014  -0.95354
   D42        3.11824  -0.00085   0.00000   0.00562   0.00568   3.12392
   D43       -2.96954   0.00051   0.00000   0.01048   0.01043  -2.95911
   D44        1.11238  -0.00007   0.00000   0.00596   0.00596   1.11834
   D45        1.06554  -0.00009   0.00000   0.00893   0.00891   1.07445
   D46       -1.13572  -0.00066   0.00000   0.00440   0.00444  -1.13128
   D47        1.00947   0.00542   0.00000   0.06792   0.06801   1.07748
   D48       -1.21622   0.00512   0.00000   0.06190   0.06200  -1.15422
   D49       -0.98472  -0.00140   0.00000   0.00984   0.00969  -0.97503
   D50        3.07277  -0.00170   0.00000   0.00381   0.00369   3.07646
   D51        3.06249  -0.00149   0.00000   0.00955   0.00958   3.07207
   D52        0.83679  -0.00178   0.00000   0.00352   0.00358   0.84037
   D53       -0.82184   0.00264   0.00000   0.03236   0.03238  -0.78946
   D54       -2.89731  -0.00623   0.00000  -0.06301  -0.06263  -2.95994
   D55        1.28778   0.00043   0.00000   0.01588   0.01616   1.30394
   D56        2.74770   0.00276   0.00000   0.01830   0.01826   2.76596
   D57        0.67223  -0.00611   0.00000  -0.07707  -0.07675   0.59547
   D58       -1.42587   0.00056   0.00000   0.00183   0.00204  -1.42383
   D59        1.20726  -0.00092   0.00000  -0.02810  -0.02849   1.17877
   D60       -2.91727  -0.00152   0.00000  -0.03426  -0.03481  -2.95208
   D61       -2.99552   0.00005   0.00000   0.01471   0.01542  -2.98010
   D62       -0.83686  -0.00054   0.00000   0.00855   0.00911  -0.82776
   D63       -0.91425  -0.00080   0.00000  -0.01256  -0.01213  -0.92638
   D64        1.24441  -0.00139   0.00000  -0.01873  -0.01845   1.22596
   D65        1.06797   0.00153   0.00000   0.03887   0.03840   1.10638
   D66       -0.97374  -0.00059   0.00000   0.01121   0.01163  -0.96210
   D67       -3.13691   0.00479   0.00000   0.08493   0.08468  -3.05223
   D68       -0.99752  -0.00094   0.00000  -0.01953  -0.02050  -1.01802
   D69       -3.03922  -0.00306   0.00000  -0.04720  -0.04727  -3.08649
   D70        1.08079   0.00231   0.00000   0.02652   0.02578   1.10657
   D71       -3.09229  -0.00148   0.00000  -0.01482  -0.01449  -3.10678
   D72        1.14919  -0.00360   0.00000  -0.04249  -0.04127   1.10793
   D73       -1.01398   0.00178   0.00000   0.03124   0.03178  -0.98220
   D74       -2.79717   0.00088   0.00000   0.01591   0.01584  -2.78133
   D75        1.36149   0.00052   0.00000   0.01139   0.01132   1.37280
   D76       -0.75722   0.00065   0.00000   0.01312   0.01305  -0.74417
   D77        1.32230  -0.00018   0.00000   0.01413   0.01421   1.33651
   D78       -0.80223  -0.00053   0.00000   0.00962   0.00968  -0.79254
   D79       -2.92094  -0.00041   0.00000   0.01135   0.01142  -2.90952
         Item               Value     Threshold  Converged?
 Maximum Force            0.012964     0.000450     NO 
 RMS     Force            0.002164     0.000300     NO 
 Maximum Displacement     0.430420     0.001800     NO 
 RMS     Displacement     0.069999     0.001200     NO 
 Predicted change in Energy=-3.531495D-03
 GradGradGradGradGradGradGradGradGradGradGradGradGradGradGradGradGradGrad

                          Input orientation:                          
 ---------------------------------------------------------------------
 Center     Atomic      Atomic             Coordinates (Angstroms)
[...]
 406,0.00001081,0.01304360,-0.01903961,-0.00350354,-0.00222956,0.010777
 45,-0.05365968,-0.00663103,-0.02022523,-0.00344392,-0.00022952,0.00045
 909,-0.00017874,-0.00016264,0.00077047,0.00012506,-0.00386716,0.028049
 78,-0.00179094,-0.00130062,0.00569220,-0.00496899,0.00026465,-0.001020
 90,-0.00053120,0.00076954,-0.00076068,0.06181118,0.00001597,-0.0000058
 8,-0.00001498,-0.00000162,-0.00000867,-0.00000926,0.00000832,-0.000000
 89,-0.00000570,-0.00001196,0.00000396,-0.00004868,-0.00000048,0.000006
 98,0.00000028,0.00033833,0.00010147,0.00005510,-0.00005314,0.00001798,
 -0.00001072,0.00004491,-0.00015509,0.00062149,0.00003361,-0.00000191,0
 .00001467,0.00000217,-0.00000111,0.00000790,0.00000255,-0.00000068,0.0
 0002116,0.00000278,0.00000272,-0.00000602,-0.00000351,0.00000028,-0.00
 000500,0.00000128,-0.00000417,-0.00000652,-0.00000046,0.00000078,0.000
 00091,0.00000038,0.00000103,0.00000067,0.00030330,0.00027508,0.0020356
 2,-0.00252596,-0.00088810,0.00079602,0.00015525,0.00039099,0.00032277,
 0.00004454,0.00000662,-0.00006507,-0.00002254,0.00009974,-0.00009227,-
 0.25004265,-0.10583481,-0.08783281,0.00752562,0.00793498,0.00254550,0.
 00033435,-0.00027153,-0.00005849,0.00011840,0.00010148,-0.00030180,0.2
 6112199,-0.00002043,0.00002199,0.00010762,0.00001123,-0.00001835,-0.00
 006664,-0.00004463,0.00001001,0.00002295,-0.00008033,0.00001994,0.0000
 9271,-0.00000719,0.00000432,0.00000561,0.00012871,-0.00001207,-0.00022
 292,0.00005482,-0.00005623,0.00018815,0.00002424,0.00116883,-0.0012048
 3,-0.00000422,-0.00001192,-0.00007419,0.00000343,-0.00000408,-0.000004
 70,0.00000025,-0.00001287,-0.00015150,-0.00002102,-0.00001437,0.000044
 58,0.00002161,0.00000318,0.00003778,-0.00000978,0.00002704,0.00003642,
 0.00000422,-0.00000329,-0.00000452,-0.00000323,-0.00000688,-0.00000262
 ,-0.00001258,-0.00023327,0.00095130,0.00618001,0.00427989,0.00089440,0
 .00053077,0.00021631,0.00310145,0.00038273,0.00000600,0.00072639,0.000
 06223,-0.00038016,0.00014318,-0.10635490,-0.09630025,-0.04713207,-0.01
 669941,-0.02755309,-0.00542198,0.00009719,-0.00008566,-0.00067374,0.00
 041501,0.00055989,-0.00064004,0.10860827,0.11234048,0.00008619,-0.0000
 1572,0.00005912,-0.00006050,0.00000673,-0.00013109,0.00001164,0.000003
 31,0.00000604,-0.00005021,-0.00001530,0.00020010,0.00000966,-0.0000136
 5,-0.00001337,0.00001152,-0.00012438,-0.00037554,0.00010098,0.00014452
 ,0.00008299,-0.00077775,-0.00168785,0.00195217,0.00009366,0.00001026,0
 .00006535,-0.00001364,0.00000743,0.00002190,0.00000961,-0.00000401,-0.
 00003238,-0.00000075,0.00000409,0.00000194,0.00000572,-0.00000044,0.00
 000271,-0.00000121,0.00000039,0.00000514,0.00000039,-0.00000019,0.0000
 0148,-0.00000093,-0.00000125,-0.00000150,-0.00073915,-0.00039714,0.001
 33341,-0.02687479,-0.01399551,-0.01329989,0.00006866,0.00253832,-0.006
 64357,-0.00062303,-0.00013076,-0.00126940,-0.00004383,0.00072720,-0.00
 036328,-0.08418921,-0.04609168,-0.08850372,0.00400285,0.00568875,0.002
 81362,0.00091363,0.00005316,-0.00088825,0.00032607,-0.00005902,0.00107
 695,0.09250822,0.04492529,0.09539246,-0.00001651,0.00000604,0.00001274
 ,0.00003039,-0.00000527,0.00001152,0.00000851,0.00000107,-0.00001231,-
 0.00002122,-0.00002670,-0.00012154,-0.00000276,0.00000244,0.00000351,0
 .00056918,-0.00010926,-0.00020322,-0.00001190,-0.00002276,0.00011909,-
 0.00004552,0.00018478,-0.00027327,-0.00001030,-0.00000446,-0.00001610,
 -0.00000047,-0.00000216,-0.00000038,-0.00000181,0.00000187,-0.00001405
 ,-0.00000096,-0.00000211,0.00000456,0.00000016,0.00000022,0.00000372,-
 0.00000062,0.00000204,0.00000223,0.00000061,0.00000044,0.00000035,-0.0
 0000031,-0.00000042,0.00000007,-0.00003320,0.00016532,-0.00152947,0.00
 493716,-0.00240745,-0.00396740,-0.00002717,-0.00014584,0.00099011,0.00
 011152,0.00003856,0.00011852,0.00000775,-0.00007806,0.00006064,-0.2389
 2115,0.06756962,0.12849072,0.00277177,-0.00086635,-0.00153834,0.000292
 93,0.00006770,-0.00029334,0.00029003,-0.00012446,0.00059739,-0.0174192
 2,0.00693004,0.01426482,0.25014514,0.00003599,0.00001891,0.00022455,-0
 .00005974,-0.00004192,-0.00022405,-0.00008272,0.00002343,0.00005941,-0
 .00014045,0.00002557,0.00048560,0.00000109,0.00000778,0.00000099,-0.00
 055070,0.00037470,-0.00075375,0.00017913,-0.00002306,0.00024879,-0.000
 34522,0.00022774,-0.00042703,0.00004116,-0.00001554,-0.00007251,-0.000
 00574,0.00000047,0.00000468,0.00000745,-0.00002527,-0.00028532,-0.0000
 3593,-0.00002379,0.00007906,0.00004270,0.00000446,0.00006833,-0.000019
 44,0.00004853,0.00006519,0.00000747,-0.00000656,-0.00000826,-0.0000060
 6,-0.00001279,-0.00000486,0.00010899,0.00059491,0.00406802,-0.00721643
 ,0.00253853,0.00167409,0.00026818,-0.00000822,-0.00012129,0.00016937,0
 .00005448,0.00020620,0.00011134,-0.00022263,0.00008534,0.06712245,-0.0
 6554463,-0.04678958,0.02051368,-0.02396232,-0.00971175,0.00040383,-0.0
 0014497,-0.00012612,-0.00067699,0.00045062,-0.00013041,-0.01028968,0.0
 0609604,0.00804831,-0.06893809,0.07985658,-0.00009224,-0.00000860,-0.0
 0029293,0.00012748,-0.00003519,0.00035783,0.00010724,-0.00001344,-0.00
 008859,0.00013843,-0.00017089,-0.00081452,-0.00000182,0.00002176,0.000
 00097,0.00155952,0.00041577,0.00138746,-0.00027465,-0.00004685,-0.0000
 8403,0.00056205,0.00022606,-0.00046195,-0.00011609,-0.00002403,0.00005
 932,0.00001153,-0.00000414,-0.00001522,-0.00001682,0.00003628,0.000366
 85,0.00004834,0.00002750,-0.00009690,-0.00005760,-0.00000630,-0.000085
 80,0.00002346,-0.00005865,-0.00008363,-0.00000924,0.00000862,0.0000104
 0,0.00000774,0.00001640,0.00000700,-0.00127553,0.00141664,-0.00744886,
 0.02538876,-0.00894804,-0.01424966,0.00042056,-0.00014452,0.00125855,-
 0.00012499,-0.00002785,0.00019859,-0.00012016,0.00002228,0.00011608,0.
 12406109,-0.04529119,-0.13563426,-0.00527431,0.00627920,0.00364371,-0.
 00028280,-0.00019003,-0.00019689,-0.00014647,-0.00014871,0.00094925,-0
 .01006716,0.00389107,0.00853194,-0.13348335,0.04374145,0.14276100,0.00
 111949,-0.00038986,-0.00078566,-0.00064039,0.00011711,-0.00073481,0.00
 038743,-0.00007415,-0.00013535,-0.00026812,0.00010226,0.00061167,0.000
 09037,-0.00003870,-0.00007101,-0.00011280,-0.00034189,-0.00142718,-0.0
 0041403,0.00151361,-0.00616697,0.01091513,-0.00725510,0.02682537,0.001
 15858,0.00028100,0.00116317,-0.00001892,0.00008525,0.00013379,0.000126
 85,-0.00000383,0.00118355,0.00016748,0.00015834,-0.00038849,-0.0001761
 2,-0.00001643,-0.00031774,0.00008234,-0.00025359,-0.00034317,-0.000041
 30,0.00003104,0.00004475,0.00002804,0.00005627,0.00002010,-0.00276939,
 -0.00196686,-0.00178285,-0.03099504,0.00412684,0.01095964,-0.16660999,
 -0.00533167,0.03797557,-0.00369059,-0.00152890,-0.00251690,-0.00106254
 ,0.00554376,-0.00435383,-0.00135870,0.00059972,-0.00263314,-0.00110682
 ,-0.00027795,0.00014110,-0.00036492,-0.00014690,0.00070178,0.00334722,
 0.00042478,0.00097160,-0.00016895,-0.00027191,0.00109801,-0.00104220,0
 .00004765,0.00002844,0.50668811,0.00019575,-0.00007725,0.00041787,-0.0
 0000116,0.00003383,-0.00016927,0.00001111,0.00000931,-0.00000815,-0.00
 020358,-0.00005611,0.00009246,-0.00000899,-0.00001760,0.00000394,0.000
 37927,0.00000559,0.00009377,0.00140275,0.00073361,0.00230057,-0.010357
 77,-0.00516728,0.01826668,-0.00106433,0.00039493,0.00008538,0.00002132
 ,0.00005912,-0.00006989,-0.00005395,-0.00004732,-0.00019549,-0.0000462
 9,-0.00003977,0.00009985,0.00003001,0.00000454,0.00005018,-0.00001290,
 0.00004097,0.00003849,0.00000733,-0.00000132,-0.00000304,-0.00000464,-
 0.00000631,-0.00000132,-0.00090072,-0.00006866,-0.00166217,-0.01582677
 ,-0.00369235,0.00765073,0.02039935,-0.05796717,-0.02505202,-0.00076275
 ,0.00004578,0.00007470,0.00165031,-0.00073406,-0.00095656,-0.00025798,
 0.00048660,-0.00069950,0.00115134,-0.00110286,0.00007473,-0.00008358,0
 .00023203,0.00034223,-0.00153945,0.00064867,0.00039877,-0.00031416,0.0
 0009609,0.00042111,-0.00156239,0.00045124,-0.00054729,0.01385014,0.602
 20180,0.00022065,-0.00020342,0.00026190,-0.00024185,0.00000772,-0.0007
 6709,-0.00006074,0.00002296,0.00007475,-0.00057922,0.00012919,0.001082
 60,0.00003749,-0.00002106,0.00003356,-0.00032879,-0.00005614,-0.004107
 75,-0.00140425,0.00121292,-0.00324270,0.02768554,0.00351349,-0.0358123
 9,0.00146714,0.00038583,-0.00016659,0.00000108,0.00007623,0.00007326,0
 .00009271,-0.00012442,-0.00040079,-0.00005186,0.00000064,0.00009976,0.
 00006456,0.00000747,0.00007597,-0.00002102,0.00002518,0.00004545,0.000
 00438,-0.00000534,-0.00000629,-0.00000630,-0.00001545,-0.00001106,-0.0
 0733303,-0.00193862,0.00008369,-0.00584448,0.00127023,0.01382005,0.053
 06491,-0.00261991,-0.12270833,0.00151464,0.00096998,0.00240972,-0.0013
 2843,-0.00234235,0.00279474,-0.00327583,-0.00079246,0.00082758,-0.0003
 4699,0.00046610,-0.00064970,-0.00099224,-0.00029673,0.00131671,-0.0025
 7746,-0.00048011,-0.00071545,-0.00012219,0.00033458,-0.00046089,-0.001
 48545,-0.00017094,-0.00045435,0.08073222,-0.00769946,0.58787892,-0.000
 16043,0.00009044,0.00016517,0.00013218,-0.00001313,0.00016666,-0.00006
 237,0.00000960,0.00001370,0.00007088,-0.00002424,-0.00019881,-0.000019
 04,0.00000462,0.00001006,0.00024949,0.00006809,0.00054417,0.00056114,-
 0.00028800,0.00180229,-0.00704907,-0.00028802,-0.00038690,-0.00052341,
 -0.00001659,-0.00015067,0.00001136,-0.00001476,-0.00002995,-0.00004089
 ,-0.00000181,-0.00017716,-0.00002954,-0.00003397,0.00006955,0.00002754
 ,0.00000330,0.00005152,-0.00001153,0.00004981,0.00005821,0.00000704,-0
 .00000646,-0.00000754,-0.00000468,-0.00000804,-0.00000151,0.00036942,0
 .00020759,-0.00057840,0.00056707,-0.00077308,0.00121583,-0.00371387,-0
 .01706282,0.03062605,0.00122594,0.00049024,-0.00032471,0.00100401,-0.0
 0120944,0.00026104,-0.00108231,-0.00126586,-0.00091195,-0.00118879,0.0
 0042205,0.00002102,0.00002782,0.00001709,-0.00005227,-0.00000660,-0.00
 002099,-0.00023198,0.00006060,0.00011598,0.00008706,-0.00109279,-0.000
 77841,-0.00047703,-0.04831060,0.02227004,-0.02893775,0.05952401,0.0000
 5285,-0.00004690,-0.00007493,-0.00003392,0.00000722,-0.00002103,0.0000
 2886,-0.00000385,-0.00001008,0.00000387,-0.00001731,0.00001299,0.00000
 658,-0.00000127,-0.00000389,-0.00002776,0.00001875,-0.00009130,-0.0000
 9616,0.00015768,-0.00059541,0.00089293,-0.00051564,-0.00119832,0.00015
 501,-0.00004057,0.00001780,0.00000578,0.00000848,0.00001562,0.00001047
 ,0.00001073,0.00008845,0.00001340,0.00001325,-0.00003098,-0.00001340,-
 0.00000197,-0.00002462,0.00000562,-0.00002386,-0.00002605,-0.00000261,
 0.00000371,0.00000286,0.00000236,0.00000394,0.00000055,-0.00013318,-0.
 00000770,-0.00007631,-0.00005282,-0.00021891,0.00079522,-0.00194648,0.
 00407426,-0.00334308,0.00020017,0.00009586,-0.00031264,-0.00039480,0.0
 0059978,0.00010552,0.00001556,0.00045223,0.00049633,0.00045214,-0.0001
 7565,-0.00007624,-0.00002544,0.00000058,0.00000907,0.00012675,0.000008
 78,-0.00001140,0.00028012,-0.00018048,-0.00011353,-0.00067266,-0.00079
 673,-0.00081673,0.01832951,-0.16979022,0.14291420,-0.02025844,0.174940
 94,0.00014805,-0.00005902,-0.00017797,-0.00010477,0.00001759,-0.000082
 01,0.00007698,-0.00001392,-0.00002837,0.00000056,-0.00001630,0.0000636
 2,0.00001639,-0.00000189,-0.00001232,-0.00010781,0.00000226,-0.0001761
 9,-0.00041862,0.00024002,-0.00106856,0.00294469,-0.00126022,0.00217278
 ,0.00031900,0.00005719,0.00017723,0.00000346,0.00002116,0.00003828,0.0
 0002480,0.00000702,0.00024160,0.00003525,0.00003041,-0.00007856,-0.000
 03527,-0.00000565,-0.00006405,0.00001650,-0.00005384,-0.00006571,-0.00
 000783,0.00000728,0.00000803,0.00000588,0.00001134,0.00000286,0.000029
 73,0.00004519,0.00017942,-0.00055764,-0.00016202,-0.00049311,0.0036362
 1,0.00854848,-0.01793526,-0.00007451,0.00001507,-0.00065281,-0.0005473
 2,0.00105177,-0.00020560,-0.00074087,-0.00029758,-0.00052585,-0.000732
 02,-0.00042029,0.00006843,0.00001506,-0.00000776,-0.00002047,0.0001413
 6,0.00008641,0.00008938,-0.00015737,0.00010622,0.00020153,-0.00104192,
 -0.00058429,0.00016970,-0.02091024,0.13989855,-0.21235081,0.01918437,-
 0.15084312,0.23226117,-0.00020651,0.00007252,0.00008492,0.00011265,-0.
 00001216,0.00010903,-0.00009061,0.00001516,0.00003545,0.00005135,0.000
 01596,-0.00008796,-0.00001662,0.00000337,0.00001139,0.00013817,0.00003
 775,0.00004448,0.00008848,-0.00039593,0.00062740,-0.00263866,0.0035264
 6,-0.00498547,-0.00007512,-0.00011223,-0.00020132,-0.00000121,-0.00002
 132,-0.00001733,-0.00001350,-0.00000063,-0.00020706,-0.00002761,-0.000
 02634,0.00006424,0.00003031,0.00000422,0.00005663,-0.00001316,0.000043
 57,0.00005801,0.00000664,-0.00000617,-0.00000889,-0.00000474,-0.000010
 12,-0.00000381,-0.00003124,-0.00057212,-0.00010033,0.00188259,0.003564
 16,0.00149287,-0.01541753,0.02507653,0.02003936,0.00089174,0.00020839,
 0.00032996,0.00056366,-0.00126078,0.00037621,-0.00021264,0.00027003,-0
 .00008111,-0.00010982,0.00001604,-0.00003401,0.00000552,-0.00008855,0.
 00000240,0.00022885,-0.00078529,-0.00016245,0.00007068,-0.00005205,-0.
 00008886,-0.00065340,0.00013113,-0.00056387,-0.05732399,0.03623231,0.0
 1090592,-0.00009001,0.00324296,0.00033221,0.06580511,0.00014939,-0.000
 01245,-0.00010013,-0.00007217,0.00000620,-0.00006183,0.00003415,-0.000
 00799,-0.00001268,0.00000142,0.00000824,0.00000903,0.00000398,-0.00000
 478,-0.00000509,-0.00002953,-0.00004721,0.00003092,0.00003476,-0.00005
 211,-0.00042862,0.00014806,-0.00028997,0.00229894,-0.00000155,0.000041
 05,0.00021633,0.00000178,-0.00000177,0.00001094,0.00000731,0.00000569,
 0.00014826,0.00002059,0.00001484,-0.00004548,-0.00002209,-0.00000073,-
 0.00003462,0.00000925,-0.00002417,-0.00003706,-0.00000448,0.00000310,0
 .00000426,0.00000291,0.00000634,0.00000330,0.00002830,-0.00013665,-0.0
 0001137,-0.00055261,0.00248877,-0.00018158,0.00345347,0.00498649,-0.00
 193250,-0.00007215,-0.00001686,-0.00044780,-0.00038169,0.00071801,-0.0
 0011218,-0.00006951,-0.00038649,-0.00043007,0.00005011,0.00015169,0.00
 011133,0.00001746,0.00004380,-0.00004439,0.00137698,-0.00036052,0.0002
 4282,-0.00010505,0.00004012,0.00009083,-0.00004095,0.00011779,0.000376
 65,0.03966961,-0.28819420,-0.08126832,0.00146944,-0.01639568,-0.007674
 51,-0.04633163,0.30381542,0.00015126,-0.00008724,-0.00012904,-0.000080
 36,0.00002016,-0.00005226,0.00006324,-0.00001042,-0.00002490,-0.000007
 53,-0.00002793,-0.00000049,0.00000770,-0.00000280,-0.00000864,-0.00008
 545,-0.00001606,0.00019303,-0.00006292,0.00046192,-0.00070382,0.002088
 28,-0.00474209,0.00244349,0.00002108,0.00009394,0.00018196,0.00000309,
 0.00003171,0.00001069,0.00001272,-0.00000186,0.00020407,0.00002633,0.0
 0002331,-0.00005826,-0.00003130,-0.00000519,-0.00005171,0.00001574,-0.
 00004045,-0.00005915,-0.00000625,0.00000561,0.00000701,0.00000435,0.00
 000977,0.00000421,0.00010015,0.00014006,-0.00012117,-0.00219259,0.0000
 8831,-0.00020955,0.01047238,-0.01493256,-0.01236793,-0.00018644,0.0001
 7453,-0.00086044,-0.00027659,0.00067377,0.00032335,0.00010226,0.000658
 56,0.00000809,-0.00035262,0.00010600,-0.00001109,0.00001099,0.00006556
 ,-0.00004411,0.00052453,0.00035652,0.00021372,0.00002712,-0.00009577,0
 .00004635,-0.00034478,0.00007698,-0.00021737,0.01224626,-0.07855787,-0
 .07909448,-0.00431144,0.02231188,0.01055271,-0.02185486,0.09013993,0.0
 8451322,0.00005716,0.00000848,0.00017302,-0.00003708,-0.00001997,-0.00
 018810,-0.00002836,0.00000882,0.00002248,-0.00015052,0.00005779,0.0002
 9863,0.00000987,-0.00001339,0.00000517,0.00005192,0.00000957,-0.001165
 68,0.00022100,-0.00000381,0.00017288,-0.00393984,-0.00200673,-0.001772
 60,0.00007874,0.00004753,-0.00008616,0.00000587,0.00000871,0.00003509,
 0.00000311,-0.00002464,-0.00017005,-0.00002036,-0.00001052,0.00004572,
 0.00003018,0.00000305,0.00003695,-0.00000970,0.00002468,0.00003510,0.0
 0000422,-0.00000319,-0.00000302,-0.00000427,-0.00000694,-0.00000294,-0
 .00189114,-0.00061609,-0.00017957,-0.00097112,0.00199894,0.00434450,-0
 .02606246,-0.00877435,-0.01339916,0.00181983,0.00074515,-0.00125692,0.
 00040991,-0.00024659,0.00046721,0.00024255,0.00005387,0.00076454,-0.00
 007484,0.00008847,-0.00011559,-0.00019858,-0.00013347,0.00041985,-0.00
 019351,-0.00022776,-0.00015102,0.00006547,0.00001093,-0.00013483,0.000
 13635,-0.00004599,-0.00010050,-0.20763562,-0.06459961,-0.12085336,-0.0
 0045257,-0.00016730,-0.00149432,0.00705063,0.00120443,0.00391566,0.231
 48316,0.00003836,-0.00000524,-0.00006367,-0.00002451,-0.00000193,0.000
 00946,0.00002516,-0.00000404,-0.00001078,0.00003221,-0.00000316,-0.000
 01098,0.00000770,-0.00000101,-0.00000394,-0.00002176,-0.00003871,0.000
 04647,0.00000295,-0.00007732,-0.00009859,-0.00227601,0.00021937,0.0000
 0541,0.00003980,0.00003699,0.00004940,0.00000020,-0.00000141,0.0000175
 3,0.00000090,0.00000632,0.00008992,0.00001332,0.00000805,-0.00002654,-
 0.00001135,-0.00000456,-0.00002144,0.00000749,-0.00001892,-0.00002356,
 -0.00000269,0.00000227,0.00000258,0.00000221,0.00000445,0.00000108,0.0
 0019462,0.00008986,-0.00027794,-0.00010978,0.00044113,-0.00002472,0.00
 094427,-0.00041511,0.00411168,0.00057002,-0.00003745,-0.00049326,0.000
 27619,0.00040034,-0.00024007,0.00008622,-0.00004187,-0.00002610,0.0000
 3886,0.00019816,0.00002326,-0.00001608,0.00007601,0.00000024,0.0004419
 2,0.00013658,0.00004948,0.00004925,-0.00001715,-0.00001928,0.00003925,
 -0.00006332,0.00000279,-0.06703915,-0.07848160,-0.05330198,0.01684574,
 0.00782055,0.01125443,-0.02278524,-0.00651597,-0.01691830,0.07262992,0
 .07628869,-0.00008509,-0.00000098,-0.00006161,0.00005641,0.00001502,0.
 00014672,-0.00000532,-0.00000121,-0.00000389,0.00008953,-0.00005091,-0
 .00022105,-0.00001459,0.00000143,0.00001086,-0.00012234,-0.00002385,0.
 00075254,-0.00024593,-0.00029030,0.00019457,0.00304306,0.00206725,-0.0
 0107437,-0.00010458,-0.00002661,-0.00002872,0.00001789,0.00000018,-0.0
 0001159,-0.00001127,0.00002145,0.00005211,0.00000700,-0.00000178,-0.00
 001077,-0.00000973,-0.00000110,-0.00000868,0.00000171,-0.00000100,-0.0
 0000416,-0.00000101,0.00000031,-0.00000012,0.00000148,0.00000138,0.000
 00099,0.00146237,0.00046442,0.00032044,0.00222180,-0.00060786,-0.00333
 572,0.01946926,0.00756810,0.01317456,0.00049322,-0.00026793,-0.0021131
 8,-0.00031384,-0.00011320,-0.00018936,-0.00007651,-0.00032037,-0.00078
 243,-0.00007038,-0.00021640,-0.00003326,0.00023463,0.00005243,-0.00028
 385,0.00007509,0.00011925,0.00013768,-0.00015338,0.00008580,0.00018769
 ,-0.00035505,0.00027317,0.00040631,-0.13226971,-0.05468798,-0.14992999
 ,-0.01749864,-0.00910082,-0.01228910,-0.00617315,-0.00085529,-0.004687
 47,0.13033704,0.05589741,0.15968485\\0.00000228,-0.00000475,-0.0000012
 3,-0.00000357,-0.00000584,0.00000357,-0.00000381,-0.00001106,-0.000003
 42,0.00000455,-0.00000814,-0.00000675,-0.00000029,-0.00000528,-0.00000
 209,-0.00000310,0.00000650,0.00002233,-0.00000969,0.00000247,-0.000017
 05,0.00000455,0.00000439,0.00000838,-0.00000095,-0.00000862,0.00000191
 ,-0.00000135,-0.00000127,0.00000269,-0.00004641,-0.00002134,0.00001305
 ,0.00001866,0.00000512,-0.00001857,0.00001111,-0.00000592,0.00000065,-
 0.00000417,-0.00000826,-0.00000612,-0.00000725,-0.00001014,-0.00000095
 ,-0.00001041,-0.00000670,0.00000538,-0.00000558,-0.00002684,-0.0000109
 4,0.00001248,-0.00000398,0.00000575,0.00000267,0.00000761,-0.00000589,
 -0.00000151,0.00000817,-0.00000055,0.00000850,0.00000425,-0.00000030,-
 0.00000295,0.00003940,-0.00001432,0.00000451,-0.00001476,0.00000494,0.
 00000235,0.00001489,0.00000039,0.00000351,0.00000956,0.00000794,0.0000
 0758,-0.00000014,-0.00000206,0.00000594,0.00000161,0.00000070,0.000003
 92,0.00000789,0.00000241,0.00000264,0.00001050,0.00000436,0.00000461,0
 .00001050,0.00000156,0.00000119,0.00001017,0.00000423\\\@
 The archive entry for this job was punched.


 "ANNA, YOU MUSN'T SPEAK OF OXIDIZED MURIATIC ACID
 ANYMORE, FROM NOW ON YOU MUST SAY CHLORINE."
   -- JENS JACOB BERZELIUS, IN 1820, TO HIS COOK, WHO HAD
 COMPLAINED OF THE SMELL OF THE FLASK SHE WAS CLEANING.
 Job cpu time:       0 days  4 hours 25 minutes 49.5 seconds.
 Elapsed time:       0 days  0 hours 16 minutes 47.7 seconds.
 File lengths (MBytes):  RWF=    751 Int=      0 D2E=      0 Chk=     26 Scr=      1
 Normal termination of Gaussian 16 at Wed Jun 29 17:43:09 2022.
