 Entering Gaussian System, Link 0=g16
 AtFile(1): /home/561/yj5695/Basis/6-31pGd.gbs
 Initial command:
 /apps/gaussian/g16c01/g16/l1.exe "/jobfs/41417054.gadi-pbs/Gau-3275179.inp" -scrdir="/jobfs/41417054.gadi-pbs/"
 Entering Link 1 = /apps/gaussian/g16c01/g16/l1.exe PID=   3275180.
  
 Copyright (c) 1988-2019, Gaussian, Inc.  All Rights Reserved.
  
 This is part of the Gaussian(R) 16 program.  It is based on
 the Gaussian(R) 09 system (copyright 2009, Gaussian, Inc.),
 the Gaussian(R) 03 system (copyright 2003, Gaussian, Inc.),
 the Gaussian(R) 98 system (copyright 1998, Gaussian, Inc.),
 the Gaussian(R) 94 system (copyright 1995, Gaussian, Inc.),
 the Gaussian 92(TM) system (copyright 1992, Gaussian, Inc.),
 the Gaussian 90(TM) system (copyright 1990, Gaussian, Inc.),
 the Gaussian 88(TM) system (copyright 1988, Gaussian, Inc.),
 the Gaussian 86(TM) system (copyright 1986, Carnegie Mellon
 University), and the Gaussian 82(TM) system (copyright 1983,
 Carnegie Mellon University). Gaussian is a federally registered
 trademark of Gaussian, Inc.
  
 This software contains proprietary and confidential information,
 including trade secrets, belonging to Gaussian, Inc.
  
 This software is provided under written license and may be
 used, copied, transmitted, or stored only in accord with that
 written license.
  
 The following legend is applicable only to US Government
 contracts under FAR:
  
                    RESTRICTED RIGHTS LEGEND
  
 Use, reproduction and disclosure by the US Government is
 subject to restrictions as set forth in subparagraphs (a)
 and (c) of the Commercial Computer Software - Restricted
 Rights clause in FAR 52.227-19.
  
 Gaussian, Inc.
 340 Quinnipiac St., Bldg. 40, Wallingford CT 06492
  
  
 ---------------------------------------------------------------
 Warning -- This program may not be used in any manner that
 competes with the business of Gaussian, Inc. or will provide
 assistance to any competitor of Gaussian, Inc.  The licensee
 of this program is prohibited from giving any competitor of
 Gaussian, Inc. access to this program.  By using this program,
 the user acknowledges that Gaussian, Inc. is engaged in the
 business of creating and licensing software in the field of
 computational chemistry and represents and warrants to the
 licensee that it is not a competitor of Gaussian, Inc. and that
 it will not use this program in any manner prohibited above.
 ---------------------------------------------------------------
  

 Cite this work as:
 Gaussian 16, Revision C.01,
 M. J. Frisch, G. W. Trucks, H. B. Schlegel, G. E. Scuseria, 
 M. A. Robb, J. R. Cheeseman, G. Scalmani, V. Barone, 
 G. A. Petersson, H. Nakatsuji, X. Li, M. Caricato, A. V. Marenich, 
 J. Bloino, B. G. Janesko, R. Gomperts, B. Mennucci, H. P. Hratchian, 
 J. V. Ortiz, A. F. Izmaylov, J. L. Sonnenberg, D. Williams-Young, 
 F. Ding, F. Lipparini, F. Egidi, J. Goings, B. Peng, A. Petrone, 
 T. Henderson, D. Ranasinghe, V. G. Zakrzewski, J. Gao, N. Rega, 
 G. Zheng, W. Liang, M. Hada, M. Ehara, K. Toyota, R. Fukuda, 
 J. Hasegawa, M. Ishida, T. Nakajima, Y. Honda, O. Kitao, H. Nakai, 
 T. Vreven, K. Throssell, J. A. Montgomery, Jr., J. E. Peralta, 
 F. Ogliaro, M. J. Bearpark, J. J. Heyd, E. N. Brothers, K. N. Kudin, 
 V. N. Staroverov, T. A. Keith, R. Kobayashi, J. Normand, 
 K. Raghavachari, A. P. Rendell, J. C. Burant, S. S. Iyengar, 
 J. Tomasi, M. Cossi, J. M. Millam, M. Klene, C. Adamo, R. Cammi, 
 J. W. Ochterski, R. L. Martin, K. Morokuma, O. Farkas, 
 J. B. Foresman, and D. J. Fox, Gaussian, Inc., Wallingford CT, 2019.
 
 ******************************************
 Gaussian 16:  ES64L-G16RevC.01  3-Jul-2019
                27-May-2022 
 ******************************************
 %nproc=16
 Will use up to   16 processors via shared memory.
 %mem=60gb
 -----------------------------------------------------
 #m062X/gen 6D OPT Freq=noraman SCRF=(SMD,Solvent=h2o)
 -----------------------------------------------------
 1/18=20,19=15,26=3,38=1/1,3;
 2/9=110,12=2,17=6,18=5,40=1/2;
 3/5=7,8=2,11=2,25=1,30=1,70=32201,71=1,72=1,74=-55/1,2,3;
 4//1;
 5/5=2,38=5,53=1/2;
 6/7=2,8=2,9=2,10=2,28=1/1;
 7//1,2,3,16;
 1/18=20,19=15,26=3/3(2);
 2/9=110/2;
 99//99;
 2/9=110/2;
 3/5=7,6=1,8=2,11=2,25=1,30=1,70=32205,71=1,72=1,74=-55,82=7/1,2,3;
 4/5=5,16=3,69=1/1;
 5/5=2,38=5,53=1/2;
 7//1,2,3,16;
 1/18=20,19=15,26=3/3(-5);
 2/9=110/2;
 6/7=2,8=2,9=2,10=2,19=2,28=1/1;
 99/9=1/99;
 ----------------
 HA.21.smd.a1.smd
 ----------------
 Symbolic Z-matrix:
 Charge =  0 Multiplicity = 1
 C                    -1.4659    1.16056  -0.59656 
 S                    -1.66755   0.68673   1.09991 
 O                    -0.36344   0.8252    1.7332 
 O                    -2.82517   1.42554   1.59094 
 N                    -2.05684  -0.90289   1.15541 
 H                    -1.31391  -1.50266   0.78968 
 H                    -2.95524  -1.10534   0.71178 
 S                    -2.76776   1.88335  -1.4595 
 C                    -1.80699   1.9361   -2.88311 
 C                    -0.54991   1.42262  -2.66073 
 C                    -0.33292   0.96431  -1.3395 
 C                    -2.34147   2.49377  -4.14844 
 S                     0.65323   1.35094  -3.96284 
 O                     0.5406    0.04906  -4.63522 
 O                     1.95928   1.72184  -3.40473 
 H                     0.59042   0.53528  -0.96389 
 C                    -1.43512   2.44541  -5.3563 
 C                     0.0469    2.63811  -5.04157 
 O                    -3.47894   2.92681  -4.1957 
 H                    -1.75461   3.2246   -6.0522 
 H                    -1.60182   1.47609  -5.84471 
 H                     0.24729   3.58372  -4.52938 
 H                     0.65924   2.57668  -5.9467 
 

 GradGradGradGradGradGradGradGradGradGradGradGradGradGradGradGradGradGrad
 Berny optimization.
 Initialization pass.
                           ----------------------------
                           !    Initial Parameters    !
                           ! (Angstroms and Degrees)  !
 --------------------------                            --------------------------
 ! Name  Definition              Value          Derivative Info.                !
 --------------------------------------------------------------------------------
 ! R1    R(1,2)                  1.7729         estimate D2E/DX2                !
 ! R2    R(1,8)                  1.721          estimate D2E/DX2                !
 ! R3    R(1,11)                 1.369          estimate D2E/DX2                !
 ! R4    R(2,3)                  1.4563         estimate D2E/DX2                !
 ! R5    R(2,4)                  1.4584         estimate D2E/DX2                !
 ! R6    R(2,5)                  1.6375         estimate D2E/DX2                !
 ! R7    R(5,6)                  1.0225         estimate D2E/DX2                !
 ! R8    R(5,7)                  1.0222         estimate D2E/DX2                !
 ! R9    R(8,9)                  1.7183         estimate D2E/DX2                !
 ! R10   R(9,10)                 1.376          estimate D2E/DX2                !
 ! R11   R(9,12)                 1.4825         estimate D2E/DX2                !
 ! R12   R(10,11)                1.4152         estimate D2E/DX2                !
 ! R13   R(10,13)                1.7743         estimate D2E/DX2                !
 ! R14   R(11,16)                1.0852         estimate D2E/DX2                !
 ! R15   R(12,17)                1.5109         estimate D2E/DX2                !
 ! R16   R(12,19)                1.218          estimate D2E/DX2                !
 ! R17   R(13,14)                1.4696         estimate D2E/DX2                !
 ! R18   R(13,15)                1.4679         estimate D2E/DX2                !
 ! R19   R(13,18)                1.7855         estimate D2E/DX2                !
 ! R20   R(17,18)                1.5273         estimate D2E/DX2                !
 ! R21   R(17,20)                1.0925         estimate D2E/DX2                !
 ! R22   R(17,21)                1.0981         estimate D2E/DX2                !
 ! R23   R(18,22)                1.0939         estimate D2E/DX2                !
 ! R24   R(18,23)                1.0945         estimate D2E/DX2                !
 ! A1    A(2,1,8)              120.3977         estimate D2E/DX2                !
 ! A2    A(2,1,11)             125.1076         estimate D2E/DX2                !
 ! A3    A(8,1,11)             114.4648         estimate D2E/DX2                !
 ! A4    A(1,2,3)              106.7882         estimate D2E/DX2                !
 ! A5    A(1,2,4)              106.0848         estimate D2E/DX2                !
 ! A6    A(1,2,5)              108.597          estimate D2E/DX2                !
 ! A7    A(3,2,4)              121.0773         estimate D2E/DX2                !
 ! A8    A(3,2,5)              106.8847         estimate D2E/DX2                !
 ! A9    A(4,2,5)              106.9569         estimate D2E/DX2                !
 ! A10   A(2,5,6)              112.6172         estimate D2E/DX2                !
 ! A11   A(2,5,7)              112.7363         estimate D2E/DX2                !
 ! A12   A(6,5,7)              111.5425         estimate D2E/DX2                !
 ! A13   A(1,8,9)               90.3067         estimate D2E/DX2                !
 ! A14   A(8,9,10)             111.4362         estimate D2E/DX2                !
 ! A15   A(8,9,12)             121.1385         estimate D2E/DX2                !
 ! A16   A(10,9,12)            127.4231         estimate D2E/DX2                !
 ! A17   A(9,10,11)            114.3188         estimate D2E/DX2                !
 ! A18   A(9,10,13)            121.0612         estimate D2E/DX2                !
 ! A19   A(11,10,13)           124.6173         estimate D2E/DX2                !
 ! A20   A(1,11,10)            109.4715         estimate D2E/DX2                !
 ! A21   A(1,11,16)            124.9596         estimate D2E/DX2                !
 ! A22   A(10,11,16)           125.5641         estimate D2E/DX2                !
 ! A23   A(9,12,17)            117.0025         estimate D2E/DX2                !
 ! A24   A(9,12,19)            120.2345         estimate D2E/DX2                !
 ! A25   A(17,12,19)           122.7228         estimate D2E/DX2                !
 ! A26   A(10,13,14)           108.6379         estimate D2E/DX2                !
 ! A27   A(10,13,15)           108.3055         estimate D2E/DX2                !
 ! A28   A(10,13,18)           100.6018         estimate D2E/DX2                !
 ! A29   A(14,13,15)           117.7736         estimate D2E/DX2                !
 ! A30   A(14,13,18)           109.6444         estimate D2E/DX2                !
 ! A31   A(15,13,18)           110.4681         estimate D2E/DX2                !
 ! A32   A(12,17,18)           114.4141         estimate D2E/DX2                !
 ! A33   A(12,17,20)           108.1181         estimate D2E/DX2                !
 ! A34   A(12,17,21)           107.023          estimate D2E/DX2                !
 ! A35   A(18,17,20)           108.9691         estimate D2E/DX2                !
 ! A36   A(18,17,21)           110.5076         estimate D2E/DX2                !
 ! A37   A(20,17,21)           107.5691         estimate D2E/DX2                !
 ! A38   A(13,18,17)           111.2882         estimate D2E/DX2                !
 ! A39   A(13,18,22)           106.145          estimate D2E/DX2                !
 ! A40   A(13,18,23)           105.6146         estimate D2E/DX2                !
 ! A41   A(17,18,22)           112.539          estimate D2E/DX2                !
 ! A42   A(17,18,23)           111.4316         estimate D2E/DX2                !
 ! A43   A(22,18,23)           109.4644         estimate D2E/DX2                !
 ! D1    D(8,1,2,3)           -149.2027         estimate D2E/DX2                !
 ! D2    D(8,1,2,4)            -18.8017         estimate D2E/DX2                !
 ! D3    D(8,1,2,5)             95.8613         estimate D2E/DX2                !
 ! D4    D(11,1,2,3)            32.9002         estimate D2E/DX2                !
 ! D5    D(11,1,2,4)           163.3013         estimate D2E/DX2                !
 ! D6    D(11,1,2,5)           -82.0357         estimate D2E/DX2                !
 ! D7    D(2,1,8,9)           -177.7855         estimate D2E/DX2                !
 ! D8    D(11,1,8,9)             0.3246         estimate D2E/DX2                !
 ! D9    D(2,1,11,10)          177.8809         estimate D2E/DX2                !
 ! D10   D(2,1,11,16)           -2.8755         estimate D2E/DX2                !
 ! D11   D(8,1,11,10)           -0.1265         estimate D2E/DX2                !
 ! D12   D(8,1,11,16)          179.1172         estimate D2E/DX2                !
 ! D13   D(1,2,5,6)             63.4703         estimate D2E/DX2                !
 ! D14   D(1,2,5,7)            -63.8219         estimate D2E/DX2                !
 ! D15   D(3,2,5,6)            -51.4027         estimate D2E/DX2                !
 ! D16   D(3,2,5,7)           -178.6949         estimate D2E/DX2                !
 ! D17   D(4,2,5,6)            177.5624         estimate D2E/DX2                !
 ! D18   D(4,2,5,7)             50.2702         estimate D2E/DX2                !
 ! D19   D(1,8,9,10)            -0.4329         estimate D2E/DX2                !
 ! D20   D(1,8,9,12)          -179.9285         estimate D2E/DX2                !
 ! D21   D(8,9,10,11)            0.4566         estimate D2E/DX2                !
 ! D22   D(8,9,10,13)          179.8811         estimate D2E/DX2                !
 ! D23   D(12,9,10,11)         179.913          estimate D2E/DX2                !
 ! D24   D(12,9,10,13)          -0.6625         estimate D2E/DX2                !
 ! D25   D(8,9,12,17)         -177.7008         estimate D2E/DX2                !
 ! D26   D(8,9,12,19)            0.0546         estimate D2E/DX2                !
 ! D27   D(10,9,12,17)           2.8903         estimate D2E/DX2                !
 ! D28   D(10,9,12,19)        -179.3543         estimate D2E/DX2                !
 ! D29   D(9,10,11,1)           -0.2142         estimate D2E/DX2                !
 ! D30   D(9,10,11,16)        -179.4521         estimate D2E/DX2                !
 ! D31   D(13,10,11,1)        -179.6152         estimate D2E/DX2                !
 ! D32   D(13,10,11,16)          1.1469         estimate D2E/DX2                !
 ! D33   D(9,10,13,14)         -91.5341         estimate D2E/DX2                !
 ! D34   D(9,10,13,15)         139.4483         estimate D2E/DX2                !
 ! D35   D(9,10,13,18)          23.5583         estimate D2E/DX2                !
 ! D36   D(11,10,13,14)         87.8287         estimate D2E/DX2                !
 ! D37   D(11,10,13,15)        -41.1889         estimate D2E/DX2                !
 ! D38   D(11,10,13,18)       -157.0789         estimate D2E/DX2                !
 ! D39   D(9,12,17,18)         -34.8341         estimate D2E/DX2                !
 ! D40   D(9,12,17,20)        -156.4434         estimate D2E/DX2                !
 ! D41   D(9,12,17,21)          87.9407         estimate D2E/DX2                !
 ! D42   D(19,12,17,18)        147.471          estimate D2E/DX2                !
 ! D43   D(19,12,17,20)         25.8617         estimate D2E/DX2                !
 ! D44   D(19,12,17,21)        -89.7542         estimate D2E/DX2                !
 ! D45   D(10,13,18,17)        -51.6336         estimate D2E/DX2                !
 ! D46   D(10,13,18,22)         71.123          estimate D2E/DX2                !
 ! D47   D(10,13,18,23)       -172.7029         estimate D2E/DX2                !
 ! D48   D(14,13,18,17)         62.6997         estimate D2E/DX2                !
 ! D49   D(14,13,18,22)       -174.5438         estimate D2E/DX2                !
 ! D50   D(14,13,18,23)        -58.3696         estimate D2E/DX2                !
 ! D51   D(15,13,18,17)       -165.8972         estimate D2E/DX2                !
 ! D52   D(15,13,18,22)        -43.1407         estimate D2E/DX2                !
 ! D53   D(15,13,18,23)         73.0335         estimate D2E/DX2                !
 ! D54   D(12,17,18,13)         61.3908         estimate D2E/DX2                !
 ! D55   D(12,17,18,22)        -57.6099         estimate D2E/DX2                !
 ! D56   D(12,17,18,23)        178.99           estimate D2E/DX2                !
 ! D57   D(20,17,18,13)       -177.468          estimate D2E/DX2                !
 ! D58   D(20,17,18,22)         63.5313         estimate D2E/DX2                !
 ! D59   D(20,17,18,23)        -59.8688         estimate D2E/DX2                !
 ! D60   D(21,17,18,13)        -59.4757         estimate D2E/DX2                !
 ! D61   D(21,17,18,22)       -178.4764         estimate D2E/DX2                !
 ! D62   D(21,17,18,23)         58.1235         estimate D2E/DX2                !
 --------------------------------------------------------------------------------
 Trust Radius=3.00D-01 FncErr=1.00D-07 GrdErr=1.00D-06 EigMax=2.50D+02 EigMin=1.00D-04
 Number of steps in this run=    138 maximum allowed number of steps=    138.
 GradGradGradGradGradGradGradGradGradGradGradGradGradGradGradGradGradGrad

                          Input orientation:                          
 ---------------------------------------------------------------------
 Center     Atomic      Atomic             Coordinates (Angstroms)
 Number     Number       Type             X           Y           Z
 ---------------------------------------------------------------------
      1          6           0       -1.465901    1.160557   -0.596562
      2         16           0       -1.667552    0.686725    1.099911
      3          8           0       -0.363442    0.825204    1.733196
      4          8           0       -2.825167    1.425537    1.590942
      5          7           0       -2.056838   -0.902886    1.155405
      6          1           0       -1.313905   -1.502655    0.789683
      7          1           0       -2.955240   -1.105344    0.711775
      8         16           0       -2.767757    1.883345   -1.459499
      9          6           0       -1.806985    1.936096   -2.883110
     10          6           0       -0.549905    1.422619   -2.660725
     11          6           0       -0.332917    0.964310   -1.339497
     12          6           0       -2.341466    2.493765   -4.148443
     13         16           0        0.653230    1.350943   -3.962838
     14          8           0        0.540600    0.049057   -4.635219
     15          8           0        1.959275    1.721844   -3.404732
     16          1           0        0.590423    0.535277   -0.963893
     17          6           0       -1.435119    2.445405   -5.356297
     18          6           0        0.046897    2.638110   -5.041570
     19          8           0       -3.478942    2.926813   -4.195696
     20          1           0       -1.754614    3.224597   -6.052199
     21          1           0       -1.601818    1.476090   -5.844713
     22          1           0        0.247289    3.583720   -4.529376
     23          1           0        0.659244    2.576681   -5.946695
 ---------------------------------------------------------------------
                    Distance matrix (angstroms):
                    1          2          3          4          5
     1  C    0.000000
     2  S    1.772907   0.000000
     3  O    2.599163   1.456341   0.000000
     4  O    2.589014   1.458433   2.537859   0.000000
     5  N    2.770630   1.637524   2.487514   2.490296   0.000000
     6  H    3.006240   2.239351   2.685614   3.391200   1.022460
     7  H    3.010678   2.240603   3.389356   2.682389   1.022215
     8  S    1.721021   3.031985   4.134452   3.085138   3.886671
     9  C    2.438463   4.176700   4.962679   4.616764   4.942858
    10  C    2.273432   3.991623   4.438267   4.822188   4.716107
    11  C    1.368984   2.794462   3.075992   3.874469   3.561300
    12  C    3.893574   5.591491   6.425757   5.857953   6.304685
    13  S    3.982308   5.608800   5.809890   6.553570   6.214549
    14  O    4.644591   6.178533   6.478920   7.210282   6.417492
    15  O    4.464604   5.875130   5.709403   6.923543   6.619156
    16  H    2.180453   3.062789   2.875449   4.357293   3.683440
    17  C    4.930199   6.695491   7.350813   7.157967   7.348459
    18  C    4.922379   6.668210   7.025131   7.328663   7.440891
    19  O    4.486174   6.028481   7.019605   6.013853   6.732255
    20  H    5.840170   7.589536   8.264673   7.924664   8.311258
    21  H    5.259384   6.989651   7.705967   7.535788   7.407309
    22  H    4.926841   6.614232   6.870387   7.180253   7.599695
    23  H    5.928370   7.657713   7.943191   8.383449   8.362076
                    6          7          8          9         10
     6  H    0.000000
     7  H    1.690534   0.000000
     8  S    4.317117   3.698897   0.000000
     9  C    5.055447   4.846859   1.718294   0.000000
    10  C    4.587618   4.852833   2.563997   1.375996   0.000000
    11  C    3.403184   3.920174   2.605278   2.345205   1.415194
    12  C    6.435242   6.078818   2.790118   1.482475   2.563269
    13  S    5.882100   6.395812   4.272389   2.749704   1.774308
    14  O    5.939407   6.491832   4.939133   3.484531   2.640928
    15  O    6.221271   7.006503   5.114181   3.808242   2.634211
    16  H    3.294641   4.251027   3.652436   3.375389   2.228668
    17  C    7.305816   7.193058   4.156545   2.552319   3.015925
    18  C    7.280194   7.491812   4.617703   2.930640   2.738980
    19  O    7.011532   6.373055   3.013533   2.345174   3.632904
    20  H    8.327814   8.120421   4.890635   3.421418   4.024990
    21  H    7.278120   7.175172   4.555806   3.004129   3.353679
    22  H    7.523359   7.727430   4.626653   3.105624   2.966097
    23  H    8.118688   8.423599   5.688583   3.984744   3.686665
                   11         12         13         14         15
    11  C    0.000000
    12  C    3.776729   0.000000
    13  S    2.829115   3.210716   0.000000
    14  O    3.530227   3.810492   1.469588   0.000000
    15  O    3.176979   4.432307   1.467925   2.514946   0.000000
    16  H    1.085221   4.751106   3.108525   3.703718   3.039637
    17  C    4.420766   1.510866   2.738755   3.188401   3.981715
    18  C    4.080589   2.553975   1.785526   2.666844   2.678800
    19  O    4.680466   1.218037   4.428593   4.963001   5.625991
    20  H    5.416611   2.121980   3.697800   4.166521   4.802116
    21  H    4.708397   2.111889   2.939789   2.844161   4.323805
    22  H    4.168126   2.834566   2.339027   3.548391   2.768086
    23  H    4.981004   3.499264   2.331986   2.850075   2.980336
                   16         17         18         19         20
    16  H    0.000000
    17  C    5.200444   0.000000
    18  C    4.620041   1.527272   0.000000
    19  O    5.720466   2.399158   3.637361   0.000000
    20  H    6.214700   1.092473   2.147273   2.551193   0.000000
    21  H    5.432629   1.098139   2.171080   2.889195   1.767392
    22  H    4.703553   2.193184   1.093928   3.798377   2.540782
    23  H    5.385200   2.179945   1.094529   4.507014   2.501527
                   21         22         23
    21  H    0.000000
    22  H    3.097001   0.000000
    23  H    2.516764   1.786793   0.000000
 Stoichiometry    C7H7NO5S3
 Framework group  C1[X(C7H7NO5S3)]
 Deg. of freedom    63
 Full point group                 C1      NOp   1
 Largest Abelian subgroup         C1      NOp   1
 Largest concise Abelian subgroup C1      NOp   1
                         Standard orientation:                         
 ---------------------------------------------------------------------
 Center     Atomic      Atomic             Coordinates (Angstroms)
 Number     Number       Type             X           Y           Z
 ---------------------------------------------------------------------
      1          6           0        1.447348    0.007433   -0.100063
      2         16           0        3.200239   -0.258017   -0.110482
      3          8           0        3.434374   -1.492430   -0.846916
      4          8           0        3.796993    1.000818   -0.542044
      5          7           0        3.697892   -0.520006    1.427436
      6          1           0        3.294600   -1.367929    1.832167
      7          1           0        3.552976    0.290619    2.033085
      8         16           0        0.808722    1.605294   -0.069899
      9          6           0       -0.788862    0.975540   -0.009309
     10          6           0       -0.787895   -0.400382   -0.023452
     11          6           0        0.501391   -0.981791   -0.073231
     12          6           0       -1.966211    1.875168    0.038141
     13         16           0       -2.305681   -1.317549    0.034000
     14          8           0       -2.626952   -1.606484    1.438632
     15          8           0       -2.193482   -2.453004   -0.889556
     16          1           0        0.713377   -2.045775   -0.099793
     17          6           0       -3.324632    1.222241    0.143465
     18          6           0       -3.447773   -0.103111   -0.605428
     19          8           0       -1.815145    3.083793    0.033765
     20          1           0       -4.068526    1.920886   -0.246425
     21          1           0       -3.531224    1.080611    1.212656
     22          1           0       -3.222203   -0.004973   -1.671338
     23          1           0       -4.443208   -0.541167   -0.482107
 ---------------------------------------------------------------------
 Rotational constants (GHZ):           0.7331258           0.2624482           0.2106424
 General basis read from cards:  (6D, 7F)
 There are   330 symmetry adapted cartesian basis functions of A   symmetry.
 There are   330 symmetry adapted basis functions of A   symmetry.
   330 basis functions,   612 primitive gaussians,   330 cartesian basis functions
    72 alpha electrons       72 beta electrons
       nuclear repulsion energy      1593.6608394668 Hartrees.
 NAtoms=   23 NActive=   23 NUniq=   23 SFac= 1.00D+00 NAtFMM=   60 NAOKFM=F Big=F
 Integral buffers will be    131072 words long.
 Raffenetti 2 integral format.
 Two-electron integral symmetry is turned on.
 ------------------------------------------------------------------------------
 Polarizable Continuum Model (PCM)
 =================================
 Model                : PCM.
 Atomic radii         : SMD-Coulomb.
 Polarization charges : Total charges.
 Charge compensation  : None.
 Solution method      : On-the-fly selection.
 Cavity type          : VdW (van der Waals Surface) (Alpha=1.000).
 Cavity algorithm     : GePol (No added spheres)
                        Default sphere list used, NSphG=   23.
                        Lebedev-Laikov grids with approx.  5.0 points / Ang**2.
                        Smoothing algorithm: York/Karplus (Gamma=1.0000).
                        Polarization charges: spherical gaussians, with
                                              point-specific exponents (IZeta= 3).
                        Self-potential: point-specific (ISelfS= 7).
                        Self-field    : sphere-specific E.n sum rule (ISelfD= 2).
 1st derivatives      : Analytical E(r).r(x)/FMM algorithm (CHGder, D1EAlg=3).
                        Cavity 1st derivative terms included.
 Solvent              : Water, Eps=  78.355300 Eps(inf)=   1.777849
 ------------------------------------------------------------------------------
 ------------------------------------------------------------------------------
 Atomic radii for non-electrostatic terms: SMD-CDS.
 ------------------------------------------------------------------------------
 Nuclear repulsion after PCM non-electrostatic terms =     1593.6677157643 Hartrees.
 One-electron integrals computed using PRISM.
 NBasis=   330 RedAO= T EigKep=  2.80D-06  NBF=   330
 NBsUse=   329 1.00D-06 EigRej=  9.54D-07 NBFU=   329
 ExpMin= 4.05D-02 ExpMax= 2.19D+04 ExpMxC= 3.30D+03 IAcc=3 IRadAn=         5 AccDes= 0.00D+00
 Harris functional with IExCor= 1009 and IRadAn=       5 diagonalized for initial guess.
 HarFok:  IExCor= 1009 AccDes= 0.00D+00 IRadAn=         5 IDoV= 1 UseB2=F ITyADJ=14
 ICtDFT=  3500011 ScaDFX=  1.000000  1.000000  1.000000  1.000000
 FoFCou: FMM=F IPFlag=           0 FMFlag=      100000 FMFlg1=           0
         NFxFlg=           0 DoJE=T BraDBF=F KetDBF=T FulRan=T
         wScrn=  0.000000 ICntrl=       500 IOpCl=  0 I1Cent=   200000004 NGrid=           0
         NMat0=    1 NMatS0=      1 NMatT0=    0 NMatD0=    1 NMtDS0=    0 NMtDT0=    0
 Petite list used in FoFCou.
 Requested convergence on RMS density matrix=1.00D-08 within 128 cycles.
 Requested convergence on MAX density matrix=1.00D-06.
 Requested convergence on             energy=1.00D-06.
 No special actions if energy rises.
 Inv3:  Mode=1 IEnd=    10212075.
 Iteration    1 A*A^-1 deviation from unit magnitude is 4.77D-15 for   1824.
 Iteration    1 A*A^-1 deviation from orthogonality  is 1.89D-15 for   1845   1751.
 Iteration    1 A^-1*A deviation from unit magnitude is 4.55D-15 for   1824.
 Iteration    1 A^-1*A deviation from orthogonality  is 3.53D-15 for   1821    514.
 Error on total polarization charges =  0.04341
 SCF Done:  E(RM062X) =  -1895.93586104     A.U. after   15 cycles
            NFock= 15  Conv=0.98D-08     -V/T= 2.0052
 SMD-CDS (non-electrostatic) energy       (kcal/mol) =       4.31
 (included in total energy above)

 **********************************************************************

            Population analysis using the SCF Density.

 **********************************************************************

 Orbital symmetries:
       Occupied  (A) (A) (A) (A) (A) (A) (A) (A) (A) (A) (A) (A)
                 (A) (A) (A) (A) (A) (A) (A) (A) (A) (A) (A) (A)
                 (A) (A) (A) (A) (A) (A) (A) (A) (A) (A) (A) (A)
                 (A) (A) (A) (A) (A) (A) (A) (A) (A) (A) (A) (A)
                 (A) (A) (A) (A) (A) (A) (A) (A) (A) (A) (A) (A)
                 (A) (A) (A) (A) (A) (A) (A) (A) (A) (A) (A) (A)
       Virtual   (A) (A) (A) (A) (A) (A) (A) (A) (A) (A) (A) (A)
                 (A) (A) (A) (A) (A) (A) (A) (A) (A) (A) (A) (A)
                 (A) (A) (A) (A) (A) (A) (A) (A) (A) (A) (A) (A)
                 (A) (A) (A) (A) (A) (A) (A) (A) (A) (A) (A) (A)
                 (A) (A) (A) (A) (A) (A) (A) (A) (A) (A) (A) (A)
                 (A) (A) (A) (A) (A) (A) (A) (A) (A) (A) (A) (A)
                 (A) (A) (A) (A) (A) (A) (A) (A) (A) (A) (A) (A)
                 (A) (A) (A) (A) (A) (A) (A) (A) (A) (A) (A) (A)
                 (A) (A) (A) (A) (A) (A) (A) (A) (A) (A) (A) (A)
                 (A) (A) (A) (A) (A) (A) (A) (A) (A) (A) (A) (A)
                 (A) (A) (A) (A) (A) (A) (A) (A) (A) (A) (A) (A)
                 (A) (A) (A) (A) (A) (A) (A) (A) (A) (A) (A) (A)
                 (A) (A) (A) (A) (A) (A) (A) (A) (A) (A) (A) (A)
                 (A) (A) (A) (A) (A) (A) (A) (A) (A) (A) (A) (A)
                 (A) (A) (A) (A) (A) (A) (A) (A) (A) (A) (A) (A)
                 (A) (A) (A) (A) (A) (A) (A) (A) (A) (A) (A) (A)
                 (A) (A) (A) (A) (A) (A) (A) (A) (A) (A) (A) (A)
                 (A) (A) (A) (A) (A) (A) (A) (A) (A) (A) (A) (A)
                 (A) (A) (A) (A) (A) (A) (A) (A) (A) (A) (A) (A)
                 (A) (A) (A) (A) (A) (A) (A) (A) (A) (A) (A) (A)
                 (A) (A) (A) (A) (A) (A) (A) (A) (A) (A) (A) (A)
                 (A) (A) (A) (A) (A)
 The electronic state is 1-A.
 Alpha  occ. eigenvalues --  -90.20150 -90.17270 -90.01040 -19.67783 -19.67473
 Alpha  occ. eigenvalues --  -19.67459 -19.66925 -19.66790 -14.81273 -10.68762
 Alpha  occ. eigenvalues --  -10.64441 -10.63724 -10.62904 -10.61193 -10.60419
 Alpha  occ. eigenvalues --  -10.58342  -8.51009  -8.48680  -8.35341  -6.43204
 Alpha  occ. eigenvalues --   -6.43190  -6.43133  -6.40844  -6.40802  -6.40717
 Alpha  occ. eigenvalues --   -6.27324  -6.27094  -6.26890  -1.27734  -1.25674
 Alpha  occ. eigenvalues --   -1.20708  -1.16252  -1.14730  -1.04973  -1.04133
 Alpha  occ. eigenvalues --   -0.95581  -0.89455  -0.89145  -0.83428  -0.79594
 Alpha  occ. eigenvalues --   -0.74243  -0.71785  -0.68516  -0.64934  -0.62921
 Alpha  occ. eigenvalues --   -0.62196  -0.61130  -0.59690  -0.58502  -0.57704
 Alpha  occ. eigenvalues --   -0.56198  -0.55907  -0.54701  -0.53486  -0.51956
 Alpha  occ. eigenvalues --   -0.49655  -0.49301  -0.48651  -0.46643  -0.45235
 Alpha  occ. eigenvalues --   -0.44990  -0.43695  -0.43362  -0.42959  -0.41661
 Alpha  occ. eigenvalues --   -0.41495  -0.40654  -0.40196  -0.38039  -0.36501
 Alpha  occ. eigenvalues --   -0.35112  -0.33902
 Alpha virt. eigenvalues --   -0.07898  -0.00039   0.00517   0.01462   0.02292
 Alpha virt. eigenvalues --    0.02865   0.03077   0.03512   0.03827   0.04644
 Alpha virt. eigenvalues --    0.04852   0.05052   0.05895   0.06209   0.06926
 Alpha virt. eigenvalues --    0.07136   0.07302   0.07642   0.08337   0.09106
 Alpha virt. eigenvalues --    0.09479   0.10382   0.10628   0.10685   0.11510
 Alpha virt. eigenvalues --    0.11929   0.12040   0.12444   0.12658   0.13477
 Alpha virt. eigenvalues --    0.14014   0.14378   0.15005   0.15494   0.15837
 Alpha virt. eigenvalues --    0.16290   0.16384   0.17130   0.17396   0.18208
 Alpha virt. eigenvalues --    0.18806   0.19017   0.19245   0.19961   0.20159
 Alpha virt. eigenvalues --    0.20706   0.21190   0.22252   0.22602   0.22940
 Alpha virt. eigenvalues --    0.23220   0.23820   0.24038   0.25133   0.25446
 Alpha virt. eigenvalues --    0.26334   0.26698   0.27042   0.27457   0.27985
 Alpha virt. eigenvalues --    0.28445   0.28991   0.29239   0.30300   0.30708
 Alpha virt. eigenvalues --    0.30740   0.31319   0.31615   0.31863   0.32136
 Alpha virt. eigenvalues --    0.32431   0.33171   0.33432   0.34244   0.34722
 Alpha virt. eigenvalues --    0.35359   0.35892   0.36774   0.37652   0.38252
 Alpha virt. eigenvalues --    0.39517   0.39778   0.40897   0.41550   0.42869
 Alpha virt. eigenvalues --    0.44544   0.46077   0.46260   0.47927   0.51997
 Alpha virt. eigenvalues --    0.53287   0.54391   0.56315   0.57553   0.57796
 Alpha virt. eigenvalues --    0.61416   0.62427   0.62825   0.63911   0.65600
 Alpha virt. eigenvalues --    0.66271   0.66985   0.68075   0.69157   0.70855
 Alpha virt. eigenvalues --    0.71581   0.72804   0.72960   0.73903   0.74078
 Alpha virt. eigenvalues --    0.75758   0.76085   0.77868   0.80588   0.82323
 Alpha virt. eigenvalues --    0.85372   0.86492   0.88192   0.90853   0.92392
 Alpha virt. eigenvalues --    0.93478   0.93699   0.96034   0.97435   0.99039
 Alpha virt. eigenvalues --    0.99975   1.00151   1.01914   1.02844   1.04234
 Alpha virt. eigenvalues --    1.04461   1.06501   1.06968   1.09268   1.09883
 Alpha virt. eigenvalues --    1.10950   1.12156   1.13710   1.14086   1.15329
 Alpha virt. eigenvalues --    1.16211   1.17777   1.18836   1.18864   1.19149
 Alpha virt. eigenvalues --    1.21052   1.23521   1.24498   1.27337   1.29157
 Alpha virt. eigenvalues --    1.30925   1.31306   1.32377   1.33273   1.34030
 Alpha virt. eigenvalues --    1.35027   1.35509   1.35706   1.36523   1.36870
 Alpha virt. eigenvalues --    1.37363   1.38160   1.39883   1.41874   1.42396
 Alpha virt. eigenvalues --    1.43028   1.43921   1.45181   1.46559   1.48603
 Alpha virt. eigenvalues --    1.50080   1.52963   1.54724   1.56423   1.59382
 Alpha virt. eigenvalues --    1.62707   1.67515   1.68405   1.72484   1.73777
 Alpha virt. eigenvalues --    1.75487   1.76434   1.77309   1.77692   1.80727
 Alpha virt. eigenvalues --    1.81553   1.83626   1.83707   1.84306   1.85101
 Alpha virt. eigenvalues --    1.85192   1.87817   1.89783   1.90718   1.91010
 Alpha virt. eigenvalues --    1.93927   1.94564   1.95754   1.97043   1.99206
 Alpha virt. eigenvalues --    2.00195   2.02146   2.03591   2.04748   2.07565
 Alpha virt. eigenvalues --    2.08355   2.11245   2.12224   2.13446   2.13910
 Alpha virt. eigenvalues --    2.15260   2.16318   2.21883   2.24997   2.27215
 Alpha virt. eigenvalues --    2.27414   2.29013   2.31150   2.32571   2.33765
 Alpha virt. eigenvalues --    2.37408   2.38116   2.40605   2.44923   2.45997
 Alpha virt. eigenvalues --    2.48248   2.49545   2.58590   2.60558   2.63021
 Alpha virt. eigenvalues --    2.67209   2.76163   2.79240   2.86407   2.87590
 Alpha virt. eigenvalues --    2.91173   2.93020   2.98041   3.02460   3.09873
 Alpha virt. eigenvalues --    3.20546   3.86770   3.97118   4.00197   4.06020
 Alpha virt. eigenvalues --    4.16520   4.21769   4.22725   4.25041   4.27760
 Alpha virt. eigenvalues --    4.29196   4.32052   4.36159   4.42581   4.48764
 Alpha virt. eigenvalues --    4.53682   4.73799
          Condensed to atoms (all electrons):
               1          2          3          4          5          6
     1  C   15.167735  -0.058638  -0.047170  -0.122120  -0.791691   0.048863
     2  S   -0.058638  15.599086   0.318798   0.280177  -0.364766   0.053928
     3  O   -0.047170   0.318798   8.717908  -0.176100  -0.140484  -0.005977
     4  O   -0.122120   0.280177  -0.176100   8.752475  -0.127065   0.008748
     5  N   -0.791691  -0.364766  -0.140484  -0.127065   8.100166   0.218727
     6  H    0.048863   0.053928  -0.005977   0.008748   0.218727   0.251807
     7  H   -0.024739   0.073164   0.007957  -0.006854   0.229201  -0.012105
     8  S    0.231362  -0.188736   0.033241   0.027578  -0.010726   0.007976
     9  C   -0.320611  -0.732258  -0.149850   0.070249   0.100079  -0.001650
    10  C   -3.616788  -0.783507  -0.004827  -0.077937   0.299033  -0.026108
    11  C   -1.757453   0.375627   0.033256  -0.025868   0.422137  -0.052155
    12  C   -0.641607  -0.289295  -0.018059   0.014435   0.011498  -0.000127
    13  S   -0.732111  -0.077605   0.007987  -0.006951   0.010952  -0.000877
    14  O   -0.061061  -0.000804   0.000050  -0.000075  -0.000165   0.000000
    15  O    0.045775   0.000077   0.000451  -0.000036   0.000221   0.000003
    16  H    0.035612  -0.001104   0.001470   0.000677  -0.000111  -0.000035
    17  C   -0.090309  -0.014740  -0.000116   0.000545   0.002081  -0.000027
    18  C   -0.068040   0.000078   0.000003   0.000356   0.000553  -0.000027
    19  O    0.018867   0.000162  -0.000010   0.000164  -0.000144  -0.000000
    20  H    0.002047   0.000029   0.000000   0.000000   0.000000   0.000000
    21  H    0.008443   0.000375   0.000000  -0.000000  -0.000002   0.000000
    22  H    0.014907   0.000560  -0.000000   0.000000  -0.000000  -0.000000
    23  H    0.000044  -0.000012  -0.000000  -0.000000  -0.000000  -0.000000
               7          8          9         10         11         12
     1  C   -0.024739   0.231362  -0.320611  -3.616788  -1.757453  -0.641607
     2  S    0.073164  -0.188736  -0.732258  -0.783507   0.375627  -0.289295
     3  O    0.007957   0.033241  -0.149850  -0.004827   0.033256  -0.018059
     4  O   -0.006854   0.027578   0.070249  -0.077937  -0.025868   0.014435
     5  N    0.229201  -0.010726   0.100079   0.299033   0.422137   0.011498
     6  H   -0.012105   0.007976  -0.001650  -0.026108  -0.052155  -0.000127
     7  H    0.247190  -0.019995  -0.015486  -0.000603   0.012999  -0.001851
     8  S   -0.019995  16.568664   0.746891  -0.995188  -1.263319   0.453827
     9  C   -0.015486   0.746891  24.077917  -6.006789 -10.546947   1.072693
    10  C   -0.000603  -0.995188  -6.006789  19.211241   3.357777  -2.810972
    11  C    0.012999  -1.263319 -10.546947   3.357777  16.629004  -3.426767
    12  C   -0.001851   0.453827   1.072693  -2.810972  -3.426767  12.647483
    13  S   -0.000110  -0.007411  -2.119335  -0.616951   1.626611  -0.991785
    14  O   -0.000001  -0.021247   0.087648   0.090306  -0.175880   0.021201
    15  O    0.000000   0.000055  -0.176636  -0.262358   0.173968  -0.065211
    16  H    0.000014   0.010442   0.080244  -0.053472   0.234480   0.006272
    17  C   -0.000080   0.089870  -0.045751  -0.685416  -0.254726  -0.312545
    18  C    0.000014   0.010391   0.114954  -0.044621  -0.168002  -0.342127
    19  O    0.000001   0.015489  -0.169973  -0.004051  -0.007228   0.458247
    20  H    0.000000  -0.002765   0.027304   0.001530   0.002551  -0.089791
    21  H    0.000000  -0.006206   0.021430   0.023254   0.005347  -0.040205
    22  H   -0.000000  -0.006537  -0.055633   0.061234   0.031656   0.002160
    23  H   -0.000000   0.001730   0.029439   0.030988  -0.015539   0.034705
              13         14         15         16         17         18
     1  C   -0.732111  -0.061061   0.045775   0.035612  -0.090309  -0.068040
     2  S   -0.077605  -0.000804   0.000077  -0.001104  -0.014740   0.000078
     3  O    0.007987   0.000050   0.000451   0.001470  -0.000116   0.000003
     4  O   -0.006951  -0.000075  -0.000036   0.000677   0.000545   0.000356
     5  N    0.010952  -0.000165   0.000221  -0.000111   0.002081   0.000553
     6  H   -0.000877   0.000000   0.000003  -0.000035  -0.000027  -0.000027
     7  H   -0.000110  -0.000001   0.000000   0.000014  -0.000080   0.000014
     8  S   -0.007411  -0.021247   0.000055   0.010442   0.089870   0.010391
     9  C   -2.119335   0.087648  -0.176636   0.080244  -0.045751   0.114954
    10  C   -0.616951   0.090306  -0.262358  -0.053472  -0.685416  -0.044621
    11  C    1.626611  -0.175880   0.173968   0.234480  -0.254726  -0.168002
    12  C   -0.991785   0.021201  -0.065211   0.006272  -0.312545  -0.342127
    13  S   16.870112   0.363371   0.592999  -0.012191  -0.010069  -0.250515
    14  O    0.363371   8.623343  -0.205825  -0.001110   0.018026  -0.217315
    15  O    0.592999  -0.205825   8.743013   0.001402   0.022517  -0.292509
    16  H   -0.012191  -0.001110   0.001402   0.362775   0.000874  -0.001032
    17  C   -0.010069   0.018026   0.022517   0.000874   7.582391  -0.353077
    18  C   -0.250515  -0.217315  -0.292509  -0.001032  -0.353077   7.703712
    19  O    0.001655  -0.000613   0.000092   0.000029  -0.081867   0.013470
    20  H    0.014392  -0.000674  -0.000362  -0.000000   0.383431  -0.017893
    21  H   -0.013913   0.006513  -0.000256  -0.000000   0.391266  -0.086390
    22  H   -0.009880   0.009476  -0.003188  -0.000005  -0.052214   0.301590
    23  H   -0.105957  -0.003700  -0.006133   0.000000  -0.013181   0.360145
              19         20         21         22         23
     1  C    0.018867   0.002047   0.008443   0.014907   0.000044
     2  S    0.000162   0.000029   0.000375   0.000560  -0.000012
     3  O   -0.000010   0.000000   0.000000  -0.000000  -0.000000
     4  O    0.000164   0.000000  -0.000000   0.000000  -0.000000
     5  N   -0.000144   0.000000  -0.000002  -0.000000  -0.000000
     6  H   -0.000000   0.000000   0.000000  -0.000000  -0.000000
     7  H    0.000001   0.000000   0.000000  -0.000000  -0.000000
     8  S    0.015489  -0.002765  -0.006206  -0.006537   0.001730
     9  C   -0.169973   0.027304   0.021430  -0.055633   0.029439
    10  C   -0.004051   0.001530   0.023254   0.061234   0.030988
    11  C   -0.007228   0.002551   0.005347   0.031656  -0.015539
    12  C    0.458247  -0.089791  -0.040205   0.002160   0.034705
    13  S    0.001655   0.014392  -0.013913  -0.009880  -0.105957
    14  O   -0.000613  -0.000674   0.006513   0.009476  -0.003700
    15  O    0.000092  -0.000362  -0.000256  -0.003188  -0.006133
    16  H    0.000029  -0.000000  -0.000000  -0.000005   0.000000
    17  C   -0.081867   0.383431   0.391266  -0.052214  -0.013181
    18  C    0.013470  -0.017893  -0.086390   0.301590   0.360145
    19  O    8.254685  -0.000719  -0.005479  -0.000543  -0.000074
    20  H   -0.000719   0.388033  -0.013400  -0.002076  -0.003343
    21  H   -0.005479  -0.013400   0.372895   0.002212  -0.001701
    22  H   -0.000543  -0.002076   0.002212   0.369364  -0.011915
    23  H   -0.000074  -0.003343  -0.001701  -0.011915   0.356131
 Mulliken charges:
               1
     1  C   -1.241320
     2  S    1.809404
     3  O   -0.578526
     4  O   -0.612397
     5  N   -0.959493
     6  H    0.509038
     7  H    0.511283
     8  S    0.324614
     9  C   -0.087928
    10  C   -1.085777
    11  C    0.788473
    12  C    0.307820
    13  S    1.467583
    14  O   -0.531463
    15  O   -0.568058
    16  H    0.334767
    17  C   -0.576881
    18  C   -0.663715
    19  O   -0.492158
    20  H    0.311708
    21  H    0.335820
    22  H    0.348832
    23  H    0.348373
 Sum of Mulliken charges =  -0.00000
 Mulliken charges with hydrogens summed into heavy atoms:
               1
     1  C   -1.241320
     2  S    1.809404
     3  O   -0.578526
     4  O   -0.612397
     5  N    0.060828
     8  S    0.324614
     9  C   -0.087928
    10  C   -1.085777
    11  C    1.123240
    12  C    0.307820
    13  S    1.467583
    14  O   -0.531463
    15  O   -0.568058
    17  C    0.070646
    18  C    0.033491
    19  O   -0.492158
 Electronic spatial extent (au):  <R**2>=           4942.5557
 Charge=             -0.0000 electrons
 Dipole moment (field-independent basis, Debye):
    X=             -4.9928    Y=              2.2746    Z=              3.6872  Tot=              6.6103
 Quadrupole moment (field-independent basis, Debye-Ang):
   XX=           -118.8119   YY=           -140.0258   ZZ=           -111.6444
   XY=            -11.9969   XZ=             25.7921   YZ=             -2.5348
 Traceless Quadrupole moment (field-independent basis, Debye-Ang):
   XX=              4.6821   YY=            -16.5318   ZZ=             11.8496
   XY=            -11.9969   XZ=             25.7921   YZ=             -2.5348
 Octapole moment (field-independent basis, Debye-Ang**2):
  XXX=           -202.7101  YYY=            -24.2656  ZZZ=             12.8674  XYY=             44.1322
  XXY=             34.8943  XXZ=             35.8855  XZZ=             27.0439  YZZ=             13.0050
  YYZ=             15.9573  XYZ=            -11.2359
 Hexadecapole moment (field-independent basis, Debye-Ang**3):
 XXXX=          -4584.9940 YYYY=          -1727.8482 ZZZZ=           -346.8453 XXXY=            -89.5239
 XXXZ=            260.2157 YYYX=              9.9353 YYYZ=            -35.7239 ZZZX=             85.6991
 ZZZY=              1.2990 XXYY=          -1147.2767 XXZZ=           -775.5006 YYZZ=           -324.3213
 XXYZ=             -0.5933 YYXZ=             34.8775 ZZXY=            -37.7796
 N-N= 1.593667715764D+03 E-N=-7.659013137298D+03  KE= 1.886099407775D+03
 D1PCM: PCM CHGder 1st derivatives, ID1Alg=3 FixD1E=F DoIter=F DoCFld=F I1PDM=0.
 Calling FoFJK, ICntrl=      2127 FMM=F ISym2X=0 I1Cent= 0 IOpClX= 0 NMat=1 NMatS=1 NMatT=0.
 ***** Axes restored to original set *****
 -------------------------------------------------------------------
 Center     Atomic                   Forces (Hartrees/Bohr)
 Number     Number              X              Y              Z
 -------------------------------------------------------------------
      1        6          -0.000001054    0.000004390   -0.000000225
      2       16           0.000004687    0.000006573    0.000002344
      3        8           0.000003652   -0.000011486   -0.000001926
      4        8           0.000004013    0.000009842    0.000006891
      5        7          -0.000004692    0.000007952   -0.000001319
      6        1          -0.000013029   -0.000006044   -0.000001242
      7        1          -0.000009174    0.000008233   -0.000000565
      8       16           0.000008966    0.000004338    0.000001744
      9        6           0.000001403    0.000007385   -0.000001056
     10        6           0.000006076   -0.000010521    0.000010619
     11        6          -0.000000643    0.000000762   -0.000005151
     12        6           0.000006228    0.000015944    0.000003212
     13       16          -0.000001617   -0.000010543   -0.000006564
     14        8          -0.000014561   -0.000008020   -0.000006712
     15        8          -0.000002085   -0.000021077   -0.000005258
     16        1          -0.000003343   -0.000015660   -0.000005435
     17        6          -0.000002914    0.000002276    0.000000012
     18        6           0.000001941   -0.000001008    0.000001706
     19        8           0.000003525    0.000019187    0.000008773
     20        1           0.000005566    0.000008457    0.000003184
     21        1          -0.000004445    0.000008404    0.000001617
     22        1           0.000010062   -0.000008213   -0.000001729
     23        1           0.000001435   -0.000011171   -0.000002919
 -------------------------------------------------------------------
 Cartesian Forces:  Max     0.000021077 RMS     0.000007451

 GradGradGradGradGradGradGradGradGradGradGradGradGradGradGradGradGradGrad
 Berny optimization.
 FormGI is forming the generalized inverse of G from B-inverse, IUseBI=4.
 Internal  Forces:  Max     0.000006143 RMS     0.000002042
 Search for a local minimum.
 Step number   1 out of a maximum of  138
 All quantities printed in internal units (Hartrees-Bohrs-Radians)
 Mixed Optimization -- En-DIIS/RFO-DIIS
 Second derivative matrix not updated -- first step.
 ITU=  0
     Eigenvalues ---    0.00729   0.00741   0.00774   0.00810   0.01351
     Eigenvalues ---    0.01436   0.01458   0.01688   0.02012   0.02123
     Eigenvalues ---    0.02214   0.03332   0.04171   0.04450   0.05057
     Eigenvalues ---    0.05759   0.06691   0.08173   0.09018   0.09526
     Eigenvalues ---    0.09673   0.09704   0.10687   0.11227   0.12109
     Eigenvalues ---    0.13543   0.14170   0.15998   0.16000   0.16000
     Eigenvalues ---    0.19538   0.19786   0.21491   0.23695   0.24958
     Eigenvalues ---    0.24975   0.24986   0.24998   0.25000   0.26804
     Eigenvalues ---    0.27876   0.28373   0.28745   0.30798   0.32515
     Eigenvalues ---    0.32941   0.33670   0.33889   0.34294   0.34363
     Eigenvalues ---    0.34528   0.35371   0.41871   0.43948   0.43987
     Eigenvalues ---    0.44596   0.45053   0.49883   0.87699   0.88361
     Eigenvalues ---    0.92270   0.93163   0.96258
 RFO step:  Lambda= 0.00000000D+00 EMin= 7.28685095D-03
 Linear search not attempted -- first point.
 Iteration  1 RMS(Cart)=  0.00019431 RMS(Int)=  0.00000002
 Iteration  2 RMS(Cart)=  0.00000002 RMS(Int)=  0.00000000
 Variable       Old X    -DE/DX   Delta X   Delta X   Delta X     New X
                                 (Linear)    (Quad)   (Total)
    R1        3.35031   0.00000   0.00000   0.00001   0.00001   3.35031
    R2        3.25226  -0.00000   0.00000  -0.00001  -0.00001   3.25225
    R3        2.58701   0.00000   0.00000   0.00000   0.00000   2.58701
    R4        2.75209  -0.00000   0.00000  -0.00000  -0.00000   2.75208
    R5        2.75604   0.00001   0.00000   0.00001   0.00001   2.75605
    R6        3.09447   0.00000   0.00000   0.00000   0.00000   3.09448
    R7        1.93217   0.00000   0.00000   0.00001   0.00001   1.93218
    R8        1.93171   0.00000   0.00000   0.00000   0.00000   1.93171
    R9        3.24710  -0.00000   0.00000  -0.00001  -0.00001   3.24710
   R10        2.60025   0.00000   0.00000   0.00001   0.00001   2.60026
   R11        2.80147   0.00000   0.00000   0.00000   0.00000   2.80147
   R12        2.67433  -0.00000   0.00000  -0.00001  -0.00001   2.67432
   R13        3.35296   0.00000   0.00000   0.00000   0.00000   3.35296
   R14        2.05077   0.00000   0.00000   0.00000   0.00000   2.05077
   R15        2.85512  -0.00000   0.00000  -0.00000  -0.00000   2.85512
   R16        2.30176   0.00000   0.00000   0.00000   0.00000   2.30176
   R17        2.77712   0.00000   0.00000   0.00000   0.00000   2.77712
   R18        2.77398  -0.00000   0.00000  -0.00000  -0.00000   2.77397
   R19        3.37415   0.00000   0.00000   0.00000   0.00000   3.37416
   R20        2.88613   0.00000   0.00000   0.00000   0.00000   2.88613
   R21        2.06447  -0.00000   0.00000  -0.00000  -0.00000   2.06447
   R22        2.07518  -0.00000   0.00000  -0.00000  -0.00000   2.07518
   R23        2.06722  -0.00000   0.00000  -0.00001  -0.00001   2.06722
   R24        2.06836   0.00000   0.00000   0.00000   0.00000   2.06836
    A1        2.10134  -0.00000   0.00000  -0.00000  -0.00000   2.10133
    A2        2.18354   0.00000   0.00000   0.00000   0.00000   2.18354
    A3        1.99779  -0.00000   0.00000  -0.00000  -0.00000   1.99778
    A4        1.86381   0.00000   0.00000   0.00002   0.00002   1.86382
    A5        1.85153   0.00000   0.00000   0.00002   0.00002   1.85154
    A6        1.89538  -0.00001   0.00000  -0.00003  -0.00003   1.89535
    A7        2.11320   0.00000   0.00000   0.00001   0.00001   2.11321
    A8        1.86549  -0.00000   0.00000  -0.00003  -0.00003   1.86546
    A9        1.86675   0.00000   0.00000   0.00001   0.00001   1.86676
   A10        1.96554   0.00001   0.00000   0.00004   0.00004   1.96558
   A11        1.96762   0.00000   0.00000   0.00001   0.00001   1.96763
   A12        1.94678  -0.00000   0.00000  -0.00002  -0.00002   1.94677
   A13        1.57615   0.00000   0.00000   0.00001   0.00001   1.57616
   A14        1.94493  -0.00000   0.00000  -0.00001  -0.00001   1.94492
   A15        2.11427  -0.00000   0.00000  -0.00001  -0.00001   2.11425
   A16        2.22395   0.00001   0.00000   0.00002   0.00002   2.22397
   A17        1.99524   0.00000   0.00000   0.00000   0.00000   1.99524
   A18        2.11292  -0.00001   0.00000  -0.00002  -0.00002   2.11289
   A19        2.17498   0.00001   0.00000   0.00002   0.00002   2.17500
   A20        1.91064   0.00000   0.00000   0.00000   0.00000   1.91064
   A21        2.18096   0.00000   0.00000   0.00000   0.00000   2.18096
   A22        2.19151  -0.00000   0.00000  -0.00000  -0.00000   2.19150
   A23        2.04208  -0.00000   0.00000  -0.00001  -0.00001   2.04207
   A24        2.09849  -0.00000   0.00000  -0.00001  -0.00001   2.09848
   A25        2.14192   0.00000   0.00000   0.00001   0.00001   2.14193
   A26        1.89609   0.00000   0.00000   0.00001   0.00001   1.89610
   A27        1.89029  -0.00000   0.00000  -0.00001  -0.00001   1.89028
   A28        1.75583   0.00000   0.00000   0.00000   0.00000   1.75584
   A29        2.05554   0.00000   0.00000   0.00000   0.00000   2.05554
   A30        1.91366  -0.00000   0.00000  -0.00002  -0.00002   1.91364
   A31        1.92803   0.00000   0.00000   0.00001   0.00001   1.92804
   A32        1.99690  -0.00000   0.00000  -0.00001  -0.00001   1.99689
   A33        1.88702   0.00000   0.00000   0.00001   0.00001   1.88703
   A34        1.86790   0.00000   0.00000   0.00001   0.00001   1.86792
   A35        1.90187   0.00000   0.00000  -0.00000  -0.00000   1.90187
   A36        1.92872  -0.00000   0.00000  -0.00001  -0.00001   1.92871
   A37        1.87744   0.00000   0.00000   0.00000   0.00000   1.87744
   A38        1.94235   0.00000   0.00000   0.00000   0.00000   1.94235
   A39        1.85258  -0.00000   0.00000   0.00001   0.00001   1.85259
   A40        1.84332  -0.00000   0.00000  -0.00003  -0.00003   1.84329
   A41        1.96418  -0.00000   0.00000   0.00001   0.00001   1.96418
   A42        1.94485  -0.00000   0.00000  -0.00001  -0.00001   1.94484
   A43        1.91051   0.00000   0.00000   0.00001   0.00001   1.91053
    D1       -2.60408  -0.00000   0.00000   0.00015   0.00015  -2.60393
    D2       -0.32815   0.00000   0.00000   0.00018   0.00018  -0.32797
    D3        1.67310   0.00000   0.00000   0.00019   0.00019   1.67328
    D4        0.57422  -0.00000   0.00000   0.00026   0.00026   0.57448
    D5        2.85014   0.00000   0.00000   0.00029   0.00029   2.85044
    D6       -1.43179   0.00000   0.00000   0.00030   0.00030  -1.43150
    D7       -3.10294  -0.00000   0.00000  -0.00002  -0.00002  -3.10296
    D8        0.00566  -0.00000   0.00000  -0.00012  -0.00012   0.00554
    D9        3.10461  -0.00000   0.00000  -0.00006  -0.00006   3.10455
   D10       -0.05019   0.00000   0.00000   0.00003   0.00003  -0.05015
   D11       -0.00221   0.00000   0.00000   0.00005   0.00005  -0.00216
   D12        3.12618   0.00000   0.00000   0.00014   0.00014   3.12632
   D13        1.10777   0.00000   0.00000   0.00006   0.00006   1.10782
   D14       -1.11390   0.00000   0.00000   0.00004   0.00004  -1.11386
   D15       -0.89715   0.00000   0.00000   0.00007   0.00007  -0.89708
   D16       -3.11881   0.00000   0.00000   0.00005   0.00005  -3.11876
   D17        3.09905   0.00000   0.00000   0.00007   0.00007   3.09912
   D18        0.87738   0.00000   0.00000   0.00005   0.00005   0.87743
   D19       -0.00755   0.00000   0.00000   0.00016   0.00016  -0.00740
   D20       -3.14034   0.00000   0.00000   0.00012   0.00012  -3.14023
   D21        0.00797  -0.00000   0.00000  -0.00017  -0.00017   0.00780
   D22        3.13952  -0.00000   0.00000  -0.00014  -0.00014   3.13938
   D23        3.14007  -0.00000   0.00000  -0.00012  -0.00012   3.13995
   D24       -0.01156  -0.00000   0.00000  -0.00009  -0.00009  -0.01166
   D25       -3.10146   0.00000   0.00000   0.00014   0.00014  -3.10132
   D26        0.00095   0.00000   0.00000   0.00006   0.00006   0.00102
   D27        0.05045   0.00000   0.00000   0.00009   0.00009   0.05054
   D28       -3.13032   0.00000   0.00000   0.00001   0.00001  -3.13031
   D29       -0.00374   0.00000   0.00000   0.00008   0.00008  -0.00366
   D30       -3.13203  -0.00000   0.00000  -0.00002  -0.00002  -3.13205
   D31       -3.13488   0.00000   0.00000   0.00005   0.00005  -3.13483
   D32        0.02002  -0.00000   0.00000  -0.00004  -0.00004   0.01998
   D33       -1.59757   0.00000   0.00000   0.00006   0.00006  -1.59751
   D34        2.43383   0.00000   0.00000   0.00006   0.00006   2.43389
   D35        0.41117   0.00000   0.00000   0.00005   0.00005   0.41122
   D36        1.53290   0.00000   0.00000   0.00009   0.00009   1.53299
   D37       -0.71888   0.00000   0.00000   0.00009   0.00009  -0.71880
   D38       -2.74154   0.00000   0.00000   0.00007   0.00007  -2.74147
   D39       -0.60797  -0.00000   0.00000  -0.00004  -0.00004  -0.60801
   D40       -2.73045  -0.00000   0.00000  -0.00004  -0.00004  -2.73049
   D41        1.53485  -0.00000   0.00000  -0.00005  -0.00005   1.53480
   D42        2.57386   0.00000   0.00000   0.00004   0.00004   2.57390
   D43        0.45137   0.00000   0.00000   0.00004   0.00004   0.45141
   D44       -1.56651  -0.00000   0.00000   0.00003   0.00003  -1.56648
   D45       -0.90118  -0.00000   0.00000  -0.00001  -0.00001  -0.90119
   D46        1.24133  -0.00000   0.00000   0.00001   0.00001   1.24134
   D47       -3.01423  -0.00000   0.00000   0.00001   0.00001  -3.01422
   D48        1.09432  -0.00000   0.00000  -0.00001  -0.00001   1.09431
   D49       -3.04636   0.00000   0.00000   0.00001   0.00001  -3.04635
   D50       -1.01874   0.00000   0.00000   0.00002   0.00002  -1.01872
   D51       -2.89545   0.00000   0.00000  -0.00001  -0.00001  -2.89546
   D52       -0.75295   0.00000   0.00000   0.00001   0.00001  -0.75293
   D53        1.27468   0.00000   0.00000   0.00002   0.00002   1.27469
   D54        1.07147   0.00000   0.00000   0.00001   0.00001   1.07148
   D55       -1.00548  -0.00000   0.00000  -0.00002  -0.00002  -1.00550
   D56        3.12396  -0.00000   0.00000  -0.00003  -0.00003   3.12393
   D57       -3.09740   0.00000   0.00000   0.00001   0.00001  -3.09739
   D58        1.10883  -0.00000   0.00000  -0.00001  -0.00001   1.10882
   D59       -1.04491  -0.00000   0.00000  -0.00003  -0.00003  -1.04493
   D60       -1.03805   0.00000   0.00000   0.00001   0.00001  -1.03804
   D61       -3.11500  -0.00000   0.00000  -0.00002  -0.00002  -3.11502
   D62        1.01445  -0.00000   0.00000  -0.00003  -0.00003   1.01442
         Item               Value     Threshold  Converged?
 Maximum Force            0.000006     0.000450     YES
 RMS     Force            0.000002     0.000300     YES
 Maximum Displacement     0.000864     0.001800     YES
 RMS     Displacement     0.000194     0.001200     YES
 Predicted change in Energy=-4.447389D-09
 Optimization completed.
    -- Stationary point found.
                           ----------------------------
                           !   Optimized Parameters   !
                           ! (Angstroms and Degrees)  !
 --------------------------                            --------------------------
 ! Name  Definition              Value          Derivative Info.                !
 --------------------------------------------------------------------------------
 ! R1    R(1,2)                  1.7729         -DE/DX =    0.0                 !
 ! R2    R(1,8)                  1.721          -DE/DX =    0.0                 !
 ! R3    R(1,11)                 1.369          -DE/DX =    0.0                 !
 ! R4    R(2,3)                  1.4563         -DE/DX =    0.0                 !
 ! R5    R(2,4)                  1.4584         -DE/DX =    0.0                 !
 ! R6    R(2,5)                  1.6375         -DE/DX =    0.0                 !
 ! R7    R(5,6)                  1.0225         -DE/DX =    0.0                 !
 ! R8    R(5,7)                  1.0222         -DE/DX =    0.0                 !
 ! R9    R(8,9)                  1.7183         -DE/DX =    0.0                 !
 ! R10   R(9,10)                 1.376          -DE/DX =    0.0                 !
 ! R11   R(9,12)                 1.4825         -DE/DX =    0.0                 !
 ! R12   R(10,11)                1.4152         -DE/DX =    0.0                 !
 ! R13   R(10,13)                1.7743         -DE/DX =    0.0                 !
 ! R14   R(11,16)                1.0852         -DE/DX =    0.0                 !
 ! R15   R(12,17)                1.5109         -DE/DX =    0.0                 !
 ! R16   R(12,19)                1.218          -DE/DX =    0.0                 !
 ! R17   R(13,14)                1.4696         -DE/DX =    0.0                 !
 ! R18   R(13,15)                1.4679         -DE/DX =    0.0                 !
 ! R19   R(13,18)                1.7855         -DE/DX =    0.0                 !
 ! R20   R(17,18)                1.5273         -DE/DX =    0.0                 !
 ! R21   R(17,20)                1.0925         -DE/DX =    0.0                 !
 ! R22   R(17,21)                1.0981         -DE/DX =    0.0                 !
 ! R23   R(18,22)                1.0939         -DE/DX =    0.0                 !
 ! R24   R(18,23)                1.0945         -DE/DX =    0.0                 !
 ! A1    A(2,1,8)              120.3977         -DE/DX =    0.0                 !
 ! A2    A(2,1,11)             125.1076         -DE/DX =    0.0                 !
 ! A3    A(8,1,11)             114.4648         -DE/DX =    0.0                 !
 ! A4    A(1,2,3)              106.7882         -DE/DX =    0.0                 !
 ! A5    A(1,2,4)              106.0848         -DE/DX =    0.0                 !
 ! A6    A(1,2,5)              108.597          -DE/DX =    0.0                 !
 ! A7    A(3,2,4)              121.0773         -DE/DX =    0.0                 !
 ! A8    A(3,2,5)              106.8847         -DE/DX =    0.0                 !
 ! A9    A(4,2,5)              106.9569         -DE/DX =    0.0                 !
 ! A10   A(2,5,6)              112.6172         -DE/DX =    0.0                 !
 ! A11   A(2,5,7)              112.7363         -DE/DX =    0.0                 !
 ! A12   A(6,5,7)              111.5425         -DE/DX =    0.0                 !
 ! A13   A(1,8,9)               90.3067         -DE/DX =    0.0                 !
 ! A14   A(8,9,10)             111.4362         -DE/DX =    0.0                 !
 ! A15   A(8,9,12)             121.1385         -DE/DX =    0.0                 !
 ! A16   A(10,9,12)            127.4231         -DE/DX =    0.0                 !
 ! A17   A(9,10,11)            114.3188         -DE/DX =    0.0                 !
 ! A18   A(9,10,13)            121.0612         -DE/DX =    0.0                 !
 ! A19   A(11,10,13)           124.6173         -DE/DX =    0.0                 !
 ! A20   A(1,11,10)            109.4715         -DE/DX =    0.0                 !
 ! A21   A(1,11,16)            124.9596         -DE/DX =    0.0                 !
 ! A22   A(10,11,16)           125.5641         -DE/DX =    0.0                 !
 ! A23   A(9,12,17)            117.0025         -DE/DX =    0.0                 !
 ! A24   A(9,12,19)            120.2345         -DE/DX =    0.0                 !
 ! A25   A(17,12,19)           122.7228         -DE/DX =    0.0                 !
 ! A26   A(10,13,14)           108.6379         -DE/DX =    0.0                 !
 ! A27   A(10,13,15)           108.3055         -DE/DX =    0.0                 !
 ! A28   A(10,13,18)           100.6018         -DE/DX =    0.0                 !
 ! A29   A(14,13,15)           117.7736         -DE/DX =    0.0                 !
 ! A30   A(14,13,18)           109.6444         -DE/DX =    0.0                 !
 ! A31   A(15,13,18)           110.4681         -DE/DX =    0.0                 !
 ! A32   A(12,17,18)           114.4141         -DE/DX =    0.0                 !
 ! A33   A(12,17,20)           108.1181         -DE/DX =    0.0                 !
 ! A34   A(12,17,21)           107.023          -DE/DX =    0.0                 !
 ! A35   A(18,17,20)           108.9691         -DE/DX =    0.0                 !
 ! A36   A(18,17,21)           110.5076         -DE/DX =    0.0                 !
 ! A37   A(20,17,21)           107.5691         -DE/DX =    0.0                 !
 ! A38   A(13,18,17)           111.2882         -DE/DX =    0.0                 !
 ! A39   A(13,18,22)           106.145          -DE/DX =    0.0                 !
 ! A40   A(13,18,23)           105.6146         -DE/DX =    0.0                 !
 ! A41   A(17,18,22)           112.539          -DE/DX =    0.0                 !
 ! A42   A(17,18,23)           111.4316         -DE/DX =    0.0                 !
 ! A43   A(22,18,23)           109.4644         -DE/DX =    0.0                 !
 ! D1    D(8,1,2,3)           -149.2027         -DE/DX =    0.0                 !
 ! D2    D(8,1,2,4)            -18.8017         -DE/DX =    0.0                 !
 ! D3    D(8,1,2,5)             95.8613         -DE/DX =    0.0                 !
 ! D4    D(11,1,2,3)            32.9002         -DE/DX =    0.0                 !
 ! D5    D(11,1,2,4)           163.3013         -DE/DX =    0.0                 !
 ! D6    D(11,1,2,5)           -82.0357         -DE/DX =    0.0                 !
 ! D7    D(2,1,8,9)           -177.7855         -DE/DX =    0.0                 !
 ! D8    D(11,1,8,9)             0.3246         -DE/DX =    0.0                 !
 ! D9    D(2,1,11,10)          177.8809         -DE/DX =    0.0                 !
 ! D10   D(2,1,11,16)           -2.8755         -DE/DX =    0.0                 !
 ! D11   D(8,1,11,10)           -0.1265         -DE/DX =    0.0                 !
 ! D12   D(8,1,11,16)          179.1172         -DE/DX =    0.0                 !
 ! D13   D(1,2,5,6)             63.4703         -DE/DX =    0.0                 !
 ! D14   D(1,2,5,7)            -63.8219         -DE/DX =    0.0                 !
 ! D15   D(3,2,5,6)            -51.4027         -DE/DX =    0.0                 !
 ! D16   D(3,2,5,7)           -178.6949         -DE/DX =    0.0                 !
 ! D17   D(4,2,5,6)            177.5624         -DE/DX =    0.0                 !
 ! D18   D(4,2,5,7)             50.2702         -DE/DX =    0.0                 !
 ! D19   D(1,8,9,10)            -0.4329         -DE/DX =    0.0                 !
 ! D20   D(1,8,9,12)          -179.9285         -DE/DX =    0.0                 !
 ! D21   D(8,9,10,11)            0.4566         -DE/DX =    0.0                 !
 ! D22   D(8,9,10,13)          179.8811         -DE/DX =    0.0                 !
 ! D23   D(12,9,10,11)         179.913          -DE/DX =    0.0                 !
 ! D24   D(12,9,10,13)          -0.6625         -DE/DX =    0.0                 !
 ! D25   D(8,9,12,17)         -177.7008         -DE/DX =    0.0                 !
 ! D26   D(8,9,12,19)            0.0546         -DE/DX =    0.0                 !
 ! D27   D(10,9,12,17)           2.8903         -DE/DX =    0.0                 !
 ! D28   D(10,9,12,19)        -179.3543         -DE/DX =    0.0                 !
 ! D29   D(9,10,11,1)           -0.2142         -DE/DX =    0.0                 !
 ! D30   D(9,10,11,16)        -179.4521         -DE/DX =    0.0                 !
 ! D31   D(13,10,11,1)        -179.6152         -DE/DX =    0.0                 !
 ! D32   D(13,10,11,16)          1.1469         -DE/DX =    0.0                 !
 ! D33   D(9,10,13,14)         -91.5341         -DE/DX =    0.0                 !
 ! D34   D(9,10,13,15)         139.4483         -DE/DX =    0.0                 !
 ! D35   D(9,10,13,18)          23.5583         -DE/DX =    0.0                 !
 ! D36   D(11,10,13,14)         87.8287         -DE/DX =    0.0                 !
 ! D37   D(11,10,13,15)        -41.1889         -DE/DX =    0.0                 !
 ! D38   D(11,10,13,18)       -157.0789         -DE/DX =    0.0                 !
 ! D39   D(9,12,17,18)         -34.8341         -DE/DX =    0.0                 !
 ! D40   D(9,12,17,20)        -156.4434         -DE/DX =    0.0                 !
 ! D41   D(9,12,17,21)          87.9407         -DE/DX =    0.0                 !
 ! D42   D(19,12,17,18)        147.471          -DE/DX =    0.0                 !
 ! D43   D(19,12,17,20)         25.8617         -DE/DX =    0.0                 !
 ! D44   D(19,12,17,21)        -89.7542         -DE/DX =    0.0                 !
 ! D45   D(10,13,18,17)        -51.6336         -DE/DX =    0.0                 !
 ! D46   D(10,13,18,22)         71.123          -DE/DX =    0.0                 !
 ! D47   D(10,13,18,23)       -172.7029         -DE/DX =    0.0                 !
 ! D48   D(14,13,18,17)         62.6997         -DE/DX =    0.0                 !
 ! D49   D(14,13,18,22)       -174.5438         -DE/DX =    0.0                 !
 ! D50   D(14,13,18,23)        -58.3696         -DE/DX =    0.0                 !
 ! D51   D(15,13,18,17)       -165.8972         -DE/DX =    0.0                 !
 ! D52   D(15,13,18,22)        -43.1407         -DE/DX =    0.0                 !
 ! D53   D(15,13,18,23)         73.0335         -DE/DX =    0.0                 !
 ! D54   D(12,17,18,13)         61.3908         -DE/DX =    0.0                 !
 ! D55   D(12,17,18,22)        -57.6099         -DE/DX =    0.0                 !
 ! D56   D(12,17,18,23)        178.99           -DE/DX =    0.0                 !
 ! D57   D(20,17,18,13)       -177.468          -DE/DX =    0.0                 !
 ! D58   D(20,17,18,22)         63.5313         -DE/DX =    0.0                 !
 ! D59   D(20,17,18,23)        -59.8688         -DE/DX =    0.0                 !
 ! D60   D(21,17,18,13)        -59.4757         -DE/DX =    0.0                 !
 ! D61   D(21,17,18,22)       -178.4764         -DE/DX =    0.0                 !
 ! D62   D(21,17,18,23)         58.1235         -DE/DX =    0.0                 !
 --------------------------------------------------------------------------------
 GradGradGradGradGradGradGradGradGradGradGradGradGradGradGradGradGradGrad

                          Input orientation:                          
 ---------------------------------------------------------------------
 Center     Atomic      Atomic             Coordinates (Angstroms)
 Number     Number       Type             X           Y           Z
 ---------------------------------------------------------------------
      1          6           0       -1.465901    1.160557   -0.596562
      2         16           0       -1.667552    0.686725    1.099911
      3          8           0       -0.363442    0.825204    1.733196
      4          8           0       -2.825167    1.425537    1.590942
      5          7           0       -2.056838   -0.902886    1.155405
      6          1           0       -1.313905   -1.502655    0.789683
      7          1           0       -2.955240   -1.105344    0.711775
      8         16           0       -2.767757    1.883345   -1.459499
      9          6           0       -1.806985    1.936096   -2.883110
     10          6           0       -0.549905    1.422619   -2.660725
     11          6           0       -0.332917    0.964310   -1.339497
     12          6           0       -2.341466    2.493765   -4.148443
     13         16           0        0.653230    1.350943   -3.962838
     14          8           0        0.540600    0.049057   -4.635219
     15          8           0        1.959275    1.721844   -3.404732
     16          1           0        0.590423    0.535277   -0.963893
     17          6           0       -1.435119    2.445405   -5.356297
     18          6           0        0.046897    2.638110   -5.041570
     19          8           0       -3.478942    2.926813   -4.195696
     20          1           0       -1.754614    3.224597   -6.052199
     21          1           0       -1.601818    1.476090   -5.844713
     22          1           0        0.247289    3.583720   -4.529376
     23          1           0        0.659244    2.576681   -5.946695
 ---------------------------------------------------------------------
                    Distance matrix (angstroms):
                    1          2          3          4          5
     1  C    0.000000
     2  S    1.772907   0.000000
     3  O    2.599163   1.456341   0.000000
     4  O    2.589014   1.458433   2.537859   0.000000
     5  N    2.770630   1.637524   2.487514   2.490296   0.000000
     6  H    3.006240   2.239351   2.685614   3.391200   1.022460
     7  H    3.010678   2.240603   3.389356   2.682389   1.022215
     8  S    1.721021   3.031985   4.134452   3.085138   3.886671
     9  C    2.438463   4.176700   4.962679   4.616764   4.942858
    10  C    2.273432   3.991623   4.438267   4.822188   4.716107
    11  C    1.368984   2.794462   3.075992   3.874469   3.561300
    12  C    3.893574   5.591491   6.425757   5.857953   6.304685
    13  S    3.982308   5.608800   5.809890   6.553570   6.214549
    14  O    4.644591   6.178533   6.478920   7.210282   6.417492
    15  O    4.464604   5.875130   5.709403   6.923543   6.619156
    16  H    2.180453   3.062789   2.875449   4.357293   3.683440
    17  C    4.930199   6.695491   7.350813   7.157967   7.348459
    18  C    4.922379   6.668210   7.025131   7.328663   7.440891
    19  O    4.486174   6.028481   7.019605   6.013853   6.732255
    20  H    5.840170   7.589536   8.264673   7.924664   8.311258
    21  H    5.259384   6.989651   7.705967   7.535788   7.407309
    22  H    4.926841   6.614232   6.870387   7.180253   7.599695
    23  H    5.928370   7.657713   7.943191   8.383449   8.362076
                    6          7          8          9         10
     6  H    0.000000
     7  H    1.690534   0.000000
     8  S    4.317117   3.698897   0.000000
     9  C    5.055447   4.846859   1.718294   0.000000
    10  C    4.587618   4.852833   2.563997   1.375996   0.000000
    11  C    3.403184   3.920174   2.605278   2.345205   1.415194
    12  C    6.435242   6.078818   2.790118   1.482475   2.563269
    13  S    5.882100   6.395812   4.272389   2.749704   1.774308
    14  O    5.939407   6.491832   4.939133   3.484531   2.640928
    15  O    6.221271   7.006503   5.114181   3.808242   2.634211
    16  H    3.294641   4.251027   3.652436   3.375389   2.228668
    17  C    7.305816   7.193058   4.156545   2.552319   3.015925
    18  C    7.280194   7.491812   4.617703   2.930640   2.738980
    19  O    7.011532   6.373055   3.013533   2.345174   3.632904
    20  H    8.327814   8.120421   4.890635   3.421418   4.024990
    21  H    7.278120   7.175172   4.555806   3.004129   3.353679
    22  H    7.523359   7.727430   4.626653   3.105624   2.966097
    23  H    8.118688   8.423599   5.688583   3.984744   3.686665
                   11         12         13         14         15
    11  C    0.000000
    12  C    3.776729   0.000000
    13  S    2.829115   3.210716   0.000000
    14  O    3.530227   3.810492   1.469588   0.000000
    15  O    3.176979   4.432307   1.467925   2.514946   0.000000
    16  H    1.085221   4.751106   3.108525   3.703718   3.039637
    17  C    4.420766   1.510866   2.738755   3.188401   3.981715
    18  C    4.080589   2.553975   1.785526   2.666844   2.678800
    19  O    4.680466   1.218037   4.428593   4.963001   5.625991
    20  H    5.416611   2.121980   3.697800   4.166521   4.802116
    21  H    4.708397   2.111889   2.939789   2.844161   4.323805
    22  H    4.168126   2.834566   2.339027   3.548391   2.768086
    23  H    4.981004   3.499264   2.331986   2.850075   2.980336
                   16         17         18         19         20
    16  H    0.000000
    17  C    5.200444   0.000000
    18  C    4.620041   1.527272   0.000000
    19  O    5.720466   2.399158   3.637361   0.000000
    20  H    6.214700   1.092473   2.147273   2.551193   0.000000
    21  H    5.432629   1.098139   2.171080   2.889195   1.767392
    22  H    4.703553   2.193184   1.093928   3.798377   2.540782
    23  H    5.385200   2.179945   1.094529   4.507014   2.501527
                   21         22         23
    21  H    0.000000
    22  H    3.097001   0.000000
    23  H    2.516764   1.786793   0.000000
 Stoichiometry    C7H7NO5S3
 Framework group  C1[X(C7H7NO5S3)]
 Deg. of freedom    63
 Full point group                 C1      NOp   1
 Largest Abelian subgroup         C1      NOp   1
 Largest concise Abelian subgroup C1      NOp   1
                         Standard orientation:                         
 ---------------------------------------------------------------------
 Center     Atomic      Atomic             Coordinates (Angstroms)
 Number     Number       Type             X           Y           Z
 ---------------------------------------------------------------------
      1          6           0        1.447348    0.007433   -0.100063
      2         16           0        3.200239   -0.258017   -0.110482
      3          8           0        3.434374   -1.492430   -0.846916
      4          8           0        3.796993    1.000818   -0.542044
      5          7           0        3.697892   -0.520006    1.427436
      6          1           0        3.294600   -1.367929    1.832167
      7          1           0        3.552976    0.290619    2.033085
      8         16           0        0.808722    1.605294   -0.069899
      9          6           0       -0.788862    0.975540   -0.009309
     10          6           0       -0.787895   -0.400382   -0.023452
     11          6           0        0.501391   -0.981791   -0.073231
     12          6           0       -1.966211    1.875168    0.038141
     13         16           0       -2.305681   -1.317549    0.034000
     14          8           0       -2.626952   -1.606484    1.438632
     15          8           0       -2.193482   -2.453004   -0.889556
     16          1           0        0.713377   -2.045775   -0.099793
     17          6           0       -3.324632    1.222241    0.143465
     18          6           0       -3.447773   -0.103111   -0.605428
     19          8           0       -1.815145    3.083793    0.033765
     20          1           0       -4.068526    1.920886   -0.246425
     21          1           0       -3.531224    1.080611    1.212656
     22          1           0       -3.222203   -0.004973   -1.671338
     23          1           0       -4.443208   -0.541167   -0.482107
 ---------------------------------------------------------------------
 Rotational constants (GHZ):           0.7331258           0.2624482           0.2106424
 Unable to Open any file for archive entry.
 1\1\GINC-GADI-CPU-CLX-0970\FOpt\RM062X\Gen\C7H7N1O5S3\YJ5695\27-May-20
 22\0\\#m062X/gen 6D OPT Freq=noraman SCRF=(SMD,Solvent=h2o)\\HA.21.smd
[...]
 006431,-0.00113856,0.00016820,0.00084973,-0.00055692,0.00009238,-0.000
 11719,0.00000544,-0.00014054,-0.00009934,0.00001766,0.00162147,0.00037
 143,-0.00196401,-0.00179830,0.00109896,-0.00049978,-0.00384329,-0.0045
 0111,-0.00800980,0.00338246,-0.00182276,-0.00030671,-0.00318575,0.0012
 5063,-0.00029431,-0.03431767,-0.43704351,-0.17201662,0.03349117,0.4702
 1919,0.00126754,0.00049196,-0.00097636,0.00019761,-0.00094857,0.003224
 10,-0.00057783,0.00015662,-0.00093554,0.00044245,-0.00005376,-0.001151
 22,0.00016709,0.00083896,-0.00057493,0.00008284,-0.00012315,0.00001520
 ,-0.00014713,-0.00011295,0.00003744,0.00396510,0.00133611,-0.00304312,
 -0.00277830,0.00020814,-0.00157629,0.00289225,-0.02535265,-0.00142646,
 0.00112849,-0.00073748,0.00105853,-0.00272963,0.00145448,-0.00486148,-
 0.02082215,-0.18198187,-0.16643285,0.02141776,0.21492183,0.15812246,-0
 .00120131,0.00011040,0.00175793,-0.00012138,0.00149219,-0.00421616,0.0
 0085352,-0.00023573,0.00129708,-0.00063404,-0.00005267,0.00156155,-0.0
 0022564,-0.00106573,0.00076009,-0.00012248,0.00016486,-0.00003787,0.00
 019197,0.00012554,-0.00005447,-0.00357622,0.00167160,0.00403772,0.0016
 2639,-0.00278252,0.00395388,-0.02561277,-0.00619830,-0.01678572,-0.000
 57543,0.00118865,-0.00130980,0.00488567,-0.00347020,0.00251306,-0.4347
 7106,-0.10473316,-0.16205523,-0.00089916,0.00259207,-0.00263612,0.4770
 1169,-0.00034143,-0.00013708,0.00002866,-0.00003571,0.00013508,-0.0005
 6675,0.00010612,-0.00001239,0.00016772,-0.00007283,0.00003008,0.000205
 55,-0.00002918,-0.00012605,0.00010892,-0.00001493,0.00001835,-0.000014
 92,0.00002899,0.00001710,-0.00000265,-0.00089933,-0.00020236,0.0001482
 1,-0.00093350,0.00009116,0.00201693,-0.00205229,0.00789608,-0.00429419
 ,0.00047057,-0.00013939,-0.00069926,-0.00027660,-0.00010993,0.00168613
 ,-0.09758606,-0.09965211,-0.03935342,-0.03350448,-0.00527648,-0.020143
 28,0.11779480,0.08940201,-0.00028310,0.00013344,0.00109426,-0.00016118
 ,-0.00014305,0.00057139,-0.00005527,0.00002979,-0.00017687,0.00005562,
 0.00001939,-0.00013560,0.00004902,0.00014067,-0.00009367,0.00000833,-0
 .00002838,0.00000646,-0.00002818,-0.00001984,0.00001165,0.00166061,-0.
 00131167,-0.00095574,0.00038130,0.00166815,-0.00146679,0.01581567,-0.0
 0174066,0.01182734,-0.00132846,0.00038913,0.00060792,0.00068170,0.0003
 0057,-0.00320044,-0.15255063,-0.03692811,-0.14356179,-0.02114562,-0.01
 085575,0.00534783,0.17958259,0.05477858,0.12436558,-0.01275624,0.00828
 335,-0.00730196,-0.00127069,-0.00079949,-0.00023920,0.00051743,-0.0000
 0902,-0.00082629,0.00063633,-0.00016406,-0.00024119,0.00008702,0.00005
 507,0.00011225,-0.00000543,-0.00014746,0.00006522,-0.00003528,-0.00000
 103,-0.00000364,-0.00026511,0.00164676,0.00160428,0.00046282,0.0003123
 8,0.00200723,0.00518711,-0.00133619,0.00032394,-0.27537854,0.10922171,
 -0.08716790,0.00035608,0.00035902,-0.00026184,0.00022850,-0.00057789,-
 0.00054369,0.00002952,0.00003867,-0.00008371,-0.00029254,0.00003394,0.
 00013251,0.28237634,0.00269568,0.00386763,0.00078330,-0.00074490,-0.00
 242792,-0.00077577,-0.00058359,0.00013924,0.00001022,0.00020072,0.0002
 2924,-0.00018267,-0.00008771,-0.00074957,0.00060755,0.00004875,0.00001
 819,-0.00001446,0.00009319,0.00006519,-0.00006729,0.00115456,0.0051906
 1,0.00112703,0.00084632,0.00227243,0.00183801,0.00498449,-0.00003361,0
 .00105098,0.10782753,-0.08641318,0.04701762,0.00041615,0.00095219,-0.0
 0004379,0.00000901,-0.00107763,-0.00022006,0.00022276,-0.00032864,-0.0
 0033599,-0.00032164,0.00010050,-0.00033375,-0.11663249,0.07874065,0.01
 503069,-0.00671401,0.00988080,0.00018524,-0.00122128,0.00081909,-0.000
 44838,0.00025086,-0.00011998,-0.00022807,0.00014073,0.00006957,-0.0000
 7355,-0.00021401,0.00004387,-0.00005854,0.00004578,0.00003736,0.000018
 27,0.00000538,0.00001496,0.00355145,0.00041106,-0.00020534,0.00055921,
 0.00215586,-0.00521595,-0.02166009,0.00906611,-0.00262420,-0.08711493,
 0.04678841,-0.09228689,-0.00041313,0.00004334,0.00132175,-0.00149371,-
 0.00034927,0.00001434,0.00016936,-0.00007589,-0.00007455,0.00027525,-0
 .00012714,0.00038961,0.09238252,-0.05047092,0.08840281,0.00115290,-0.0
 0008405,-0.00059886,-0.00022689,-0.00029667,0.00065094,-0.00025096,0.0
 0004378,-0.00040246,0.00001640,0.00007151,-0.00026435,0.00007995,0.000
 18476,-0.00009134,0.00001957,-0.00002952,0.00001081,-0.00003141,-0.000
 01192,0.00000014,-0.00103947,0.00125750,-0.00340716,0.01225419,0.00242
 380,-0.00533013,0.00021176,-0.00052753,0.00173385,-0.00084857,-0.00003
 404,0.00014416,-0.11389261,-0.00386984,0.05108938,-0.01571781,0.011199
 72,-0.01076149,0.00076668,-0.00191962,0.00016014,0.00142344,-0.0008897
 8,0.00105085,-0.00002343,-0.00006671,0.00000149,0.49144859,-0.00095931
 ,0.00032399,0.00092623,-0.00014399,-0.00043151,-0.00081685,0.00017339,
 0.00010477,0.00016511,-0.00000556,-0.00002903,0.00023224,-0.00012580,-
 0.00035562,0.00028364,-0.00003247,0.00005621,-0.00001639,0.00004415,0.
 00002710,0.00000028,0.00146631,0.00077999,0.00298187,-0.00403429,0.016
 05245,0.01411289,-0.00192450,-0.00123412,-0.00114613,0.00019815,-0.000
 24736,-0.00099997,-0.00932249,-0.08683703,0.01085065,0.02169778,0.0058
 2302,-0.00120821,-0.00111741,-0.00249976,0.00086158,0.00627125,-0.0028
 9379,0.00761260,-0.00002108,-0.00007396,-0.00006285,-0.01743447,0.5840
 3494,0.00035315,0.00034244,-0.00126947,-0.00031742,-0.00047713,0.00129
 539,-0.00030776,0.00008820,-0.00051595,0.00017634,0.00001091,-0.000350
 78,0.00011250,0.00031734,-0.00022747,0.00003489,-0.00005640,0.00001929
 ,-0.00005686,-0.00002716,0.00000619,-0.00181017,0.00098905,-0.00029760
 ,0.01388165,0.00428527,-0.02256011,0.00240305,-0.00192185,0.00167047,-
 0.00019243,0.00016654,-0.00015035,0.04635206,0.00451072,-0.17485826,-0
 .02001561,-0.00018636,-0.00745928,0.00079714,0.00066430,0.00020579,-0.
 00504888,0.00314252,-0.00401365,-0.00002159,-0.00003754,0.00003362,0.0
 2577920,-0.03712159,0.53091432,0.00023925,-0.00012348,0.00160391,-0.00
 025126,0.00059362,-0.00119843,0.00021132,-0.00006534,0.00030100,-0.000
 34492,0.00003110,0.00060644,-0.00003168,-0.00028262,0.00016607,-0.0000
 3475,0.00003835,-0.00000510,0.00004949,0.00003062,-0.00000699,-0.00055
 717,0.00016624,0.00047321,0.00176414,0.00038207,-0.00253129,0.01050004
 ,-0.01288592,0.01515885,-0.00445536,0.00037233,0.00115537,-0.02323914,
 -0.00084799,-0.00038461,-0.07521898,0.02096773,-0.00961132,0.00674346,
 -0.00661544,-0.00303050,-0.01035138,0.01654114,-0.02086079,-0.00004118
 ,-0.00005232,-0.00006613,-0.19305397,-0.02000555,-0.02552560,0.4945580
 4,-0.00012391,-0.00014473,-0.00042888,-0.00000681,-0.00029751,0.000451
 21,-0.00009844,0.00003790,-0.00015351,0.00013836,0.00001299,-0.0002351
 1,0.00003097,0.00010106,-0.00006315,0.00001385,-0.00001860,0.00000203,
 -0.00002179,-0.00000637,0.00000430,0.00015983,-0.00022458,-0.00041853,
 -0.00086109,-0.00108036,0.00029538,0.00148806,0.00587092,-0.00092609,0
 .00094592,0.00043735,-0.00054721,0.00383384,-0.00172598,0.00004170,0.0
 2573558,-0.11122483,0.04352195,0.00741989,-0.01812956,0.01045990,-0.01
 364039,0.00668080,-0.01086356,0.00001102,0.00005323,0.00008051,-0.0244
 7867,-0.07931029,-0.00456929,0.03790780,0.50307211,-0.00041766,0.00023
 438,-0.00216195,0.00001524,-0.00081826,0.00176361,-0.00034351,0.000120
 11,-0.00050011,0.00045144,-0.00001633,-0.00068294,0.00010899,0.0004231
 8,-0.00029763,0.00005100,-0.00007385,0.00001293,-0.00007546,-0.0000412
 0,0.00000904,0.00001980,-0.00023618,0.00017428,-0.00238936,-0.00061202
 ,-0.00122535,-0.00493443,0.01644538,-0.01189959,0.00392753,0.00037473,
 -0.00007138,0.02258460,0.00590536,0.01479248,-0.01147578,0.04446207,-0
 .10388693,0.00167926,-0.02611080,0.00956873,-0.00204775,0.00440413,0.0
 0655498,0.00000725,0.00008542,0.00004517,-0.02158051,-0.00262296,-0.08
 387545,-0.06345374,0.09795656,0.54014301,-0.00574506,0.00299151,-0.004
 35110,-0.00093199,-0.00208156,0.00797787,-0.00117470,0.00052055,-0.002
 14875,0.00129540,-0.00017299,-0.00199290,0.00062217,0.00199634,-0.0018
 2964,0.00023811,-0.00039030,0.00011091,-0.00039509,-0.00023583,0.00009
 575,-0.00197888,-0.00084787,0.00433551,-0.04833670,0.03610898,-0.03888
 092,0.00932000,-0.00218855,0.00084792,0.00117609,0.00090370,-0.0072007
 6,-0.64444500,0.21147537,0.00062600,0.00880446,-0.00429034,-0.00200161
 ,-0.00173333,0.00302531,0.00193473,-0.00401587,0.00013994,-0.00087488,
 0.00017723,-0.00001663,-0.00072627,-0.03777471,0.02326543,0.01448058,-
 0.00098431,0.00103292,0.00700243,0.73192437,0.00320509,-0.00094919,0.0
 0181868,0.00045665,0.00093523,-0.00419125,0.00060986,-0.00021966,0.001
 07465,-0.00063682,0.00010777,0.00101465,-0.00033304,-0.00100628,0.0009
 4725,-0.00011760,0.00020229,-0.00005932,0.00019494,0.00011943,-0.00004
 516,-0.00036716,-0.00051676,-0.00314446,0.03807596,-0.00033101,0.01918
 670,-0.00268695,0.00315774,0.00140495,-0.00021857,-0.00210290,0.003395
 93,0.21793956,-0.14895625,0.00861834,-0.00424877,0.00228737,0.00214121
 ,0.00063938,-0.00122640,-0.00110504,0.00185536,0.00000129,0.00017401,-
 0.00027230,-0.00052845,0.00027208,0.01561319,0.01404629,-0.00137317,-0
 .00031008,0.00079077,-0.00386958,-0.26858976,0.13290644,-0.00323377,0.
 00138407,-0.00054414,-0.00066345,-0.00126481,0.00455489,-0.00063891,0.
 00029705,-0.00124577,0.00068202,-0.00007922,-0.00111181,0.00032680,0.0
 0102109,-0.00087079,0.00011695,-0.00019527,0.00005266,-0.00019217,-0.0
 0011661,0.00004195,0.00119878,-0.00190289,0.00440000,-0.04746228,0.022
 09899,0.00135529,0.00214026,0.00074007,-0.00344993,-0.00218049,0.00149
 488,-0.00387721,-0.01885650,0.01564154,-0.09541248,0.00326428,0.001997
 75,-0.00611342,-0.00054846,-0.00000737,0.00152103,-0.00078669,-0.00067
 453,0.00129317,0.00005863,-0.00000817,-0.00053163,0.03524307,-0.010021
 82,0.01234979,0.00240720,-0.00182785,-0.00632116,0.02614928,-0.0278842
 9,0.08871348,-0.00006496,-0.00007414,0.00035930,0.00007501,-0.00000985
 ,-0.00037840,0.00007782,-0.00000323,0.00011972,-0.00003080,-0.00000045
 ,0.00007412,-0.00004521,-0.00011446,0.00009883,-0.00001273,0.00002155,
 -0.00000677,0.00001795,0.00001008,-0.00000140,0.00070140,-0.00009478,0
 .00023661,-0.00168973,0.00115173,0.00260178,0.00009281,0.00035481,-0.0
 0018039,0.00020088,-0.00011731,0.00017472,0.00593268,-0.01554093,0.011
 43693,-0.00378617,-0.00496866,0.00269866,0.00038775,0.00171887,-0.0001
 1322,-0.00267754,0.00141147,-0.00289613,-0.00000710,-0.00000861,0.0000
 2420,-0.07095775,0.05971374,-0.05193894,-0.01167919,0.02261648,-0.0197
 9849,0.00065010,0.00033481,-0.00034881,0.07889888,0.00013072,-0.000049
 09,-0.00000058,-0.00000908,-0.00000962,-0.00005890,-0.00000990,0.,-0.0
 0001525,-0.00001191,0.00000461,-0.00000440,-0.00000175,-0.00001088,0.0
 0002321,-0.00000286,0.00000303,-0.00000111,0.00000338,0.00000243,-0.00
 000211,0.00009283,0.00014703,-0.00040288,0.00069086,0.00011830,-0.0002
 1175,-0.00017030,0.00018810,0.00004326,-0.00003912,-0.00004158,0.00008
 027,0.00050874,0.00150083,-0.00482202,-0.00191767,-0.00068438,-0.00065
 125,0.00050820,0.00067298,0.00029088,-0.00080709,0.00048859,-0.0008453
 2,-0.00000239,0.00000043,0.00000913,0.05858097,-0.19261534,0.13391988,
 -0.00149939,0.00426938,-0.00431317,-0.00109152,0.00058490,-0.00024061,
 -0.06325679,0.20285390,0.00025491,-0.00000251,-0.00040009,-0.00007166,
 -0.00010116,0.00049498,-0.00012357,0.00001881,-0.00019345,0.00004588,0
 .00001210,-0.00015613,0.00004794,0.00014288,-0.00009959,0.00001503,-0.
 00002363,0.00000623,-0.00002330,-0.00001322,0.00000212,-0.00049956,0.0
 0026351,-0.00082302,0.00371231,-0.00109824,-0.00264701,-0.00010953,-0.
 00012535,0.00064582,-0.00015867,0.00007606,-0.00008576,-0.00629358,0.0
 2085401,-0.02249475,0.00050515,-0.00156335,0.00035225,0.00017779,0.000
 13735,0.00036912,-0.00001435,0.00010968,0.00004943,0.00001038,0.000004
 86,-0.00000695,-0.04978689,0.13097315,-0.15793677,-0.00363591,0.003387
 58,-0.00388532,-0.00320904,-0.00164117,0.00371749,0.05395751,-0.140570
 81,0.17195425,0.00001048,-0.00008519,0.00014172,0.00007191,0.00014654,
 -0.00028915,0.00005809,-0.00003070,0.00011373,-0.00005059,0.00000127,0
 .00008071,-0.00002000,-0.00006277,0.00004677,-0.00000777,0.00001159,-0
 .00000283,0.00001454,0.00000648,-0.00000234,0.00003750,-0.00019403,-0.
 00016044,-0.00025674,-0.00191070,0.00030230,-0.00036847,0.00026573,-0.
 00007494,0.00010962,0.00009552,0.00014438,0.00390856,0.02005215,0.0054
 8413,-0.00065690,-0.00269598,-0.00146076,0.00053469,0.00031246,0.00065
 865,0.00014422,0.00039639,0.00031563,0.00000571,0.00000562,0.00001597,
 -0.04895574,-0.02996104,-0.01181297,-0.00682403,-0.02983981,-0.0162922
 3,-0.00377810,-0.00259854,0.00092167,0.00113816,0.00756035,0.00471824,
 0.05910152,0.00013736,-0.00009169,0.00017997,0.00006415,0.00012061,-0.
 00028411,0.00004474,-0.00002988,0.00008601,-0.00005180,0.00000773,0.00
 006130,-0.00001665,-0.00006094,0.00005782,-0.00000919,0.00001297,-0.00
 000286,0.00001456,0.00000833,-0.00000423,0.00007429,-0.00004901,-0.000
 30549,0.00054127,-0.00104934,0.00033090,-0.00016613,0.00037910,-0.0002
 1413,-0.00006008,-0.00003201,0.00018030,0.00364297,-0.00020964,-0.0024
 6379,-0.00003084,-0.00076896,0.00102214,0.00060695,0.00023844,0.000135
 18,-0.00018688,0.00012061,-0.00039957,-0.00000407,0.00000124,0.0000124
 6,-0.03653447,-0.25619550,-0.10552236,-0.00083079,-0.00145238,-0.00032
 182,-0.00132056,0.00083145,-0.00034615,-0.00330382,-0.01795589,-0.0105
 4431,0.03759373,0.27493033,-0.00005261,0.00007106,-0.00006832,-0.00010
 628,-0.00019737,0.00013764,-0.00005259,0.00004092,-0.00010631,0.000043
 24,-0.00000131,-0.00005049,0.00000513,0.00002037,-0.00000419,0.0000063
 7,-0.00000400,-0.00000038,-0.00000924,-0.00000348,0.00000409,-0.000017
 03,0.00045711,0.00010437,0.00106044,0.00286687,-0.00035939,0.00013374,
 -0.00033849,0.00003067,0.00001166,0.00004702,-0.00024170,-0.00318290,-
 0.02649458,-0.01354729,-0.00109241,-0.00155723,-0.00144868,0.00046625,
 -0.00015872,0.00045649,0.00027370,0.00020648,0.00033335,-0.00000663,-0
 .00001976,-0.00001462,-0.01677570,-0.10980502,-0.10052596,-0.00277708,
 -0.00423950,-0.00325767,0.00115718,0.00277027,0.00024577,0.00338247,0.
 01785601,0.01060622,0.01801471,0.11797857,0.10658912,-0.00001234,0.000
 01005,-0.00006433,0.00000667,-0.00003611,0.00010955,-0.00001642,0.0000
 0661,-0.00002856,0.00001593,-0.00000372,-0.00003409,0.00000471,0.00002
 301,-0.00001590,0.00000092,-0.00000400,-0.00000078,-0.00000424,-0.0000
 0277,-0.00000003,0.00011067,0.00007089,0.00000390,-0.00028368,-0.00008
 226,0.00004096,-0.00018404,-0.00074892,-0.00000790,0.00010463,-0.00002
 324,0.00003518,0.00157760,-0.00125384,-0.00121912,-0.00012122,0.006987
 80,0.00723048,0.00003191,0.00465758,-0.00179946,-0.00028818,-0.0002296
 7,-0.00062558,0.00000386,-0.00000482,-0.00000074,-0.00682470,-0.027878
 21,-0.01341021,-0.05489945,-0.04274921,-0.02357799,-0.00047340,0.00043
 980,0.00003946,0.00138948,0.00043426,0.00034135,-0.00582833,-0.0001666
 8,-0.00057919,0.06245380,0.00010426,-0.00007038,-0.00016066,-0.0000313
 9,-0.00010873,0.00021184,-0.00003427,0.00001553,-0.00005912,0.00003214
 ,0.00001125,-0.00005710,0.00001430,0.00004361,-0.00003366,0.00000413,-
 0.00000869,0.00000273,-0.00000840,-0.00000401,-0.00000010,-0.00005665,
 -0.00000657,-0.00007536,-0.00022453,-0.00006331,0.00021808,0.00050258,
 0.00104847,0.00059858,-0.00004138,0.00019577,0.00028823,-0.00061826,0.
 00023223,0.00002333,-0.00266141,-0.02068333,-0.01012367,0.00110834,-0.
 00490942,0.00207988,-0.00094631,0.00294387,0.00034956,0.00001171,0.000
 01190,-0.00000857,-0.00058172,0.00145419,0.00008724,-0.04331960,-0.260
 37695,-0.11582243,0.00024019,-0.00022272,0.00002770,-0.00019936,0.0003
 3133,-0.00001260,0.00071763,0.00103091,0.00000581,0.04563459,0.2771358
 9,0.00016737,0.00004449,-0.00003874,0.00003433,0.00003023,0.00007173,-
 0.00000812,-0.00000394,-0.00000325,0.00000927,-0.00001258,-0.00001458,
 -0.00000187,0.00003085,-0.00003104,0.00000406,-0.00000218,-0.00000011,
 -0.00000672,-0.00000465,0.00000708,0.00000226,0.00002616,-0.00005533,-
 0.00002269,0.00039466,0.00002121,0.00004212,-0.00089630,-0.00067376,-0
 .00000228,-0.00030319,0.00012209,0.00088401,0.00055074,-0.00065765,0.0
 0261763,0.01711040,0.00812247,-0.00172839,0.00730337,-0.00115374,0.000
 47897,-0.00095399,-0.00034735,-0.00000563,-0.00002489,0.00000175,-0.00
 115178,-0.00484991,-0.00230726,-0.02187980,-0.11813544,-0.11110707,-0.
 00059825,0.00004060,0.00032275,0.00017905,-0.00008918,0.00011279,-0.00
 137827,0.00031575,0.00083558,0.02759025,0.12197222,0.11535537,0.000066
 83,-0.00010207,-0.00021477,0.00007055,-0.00010040,0.00008216,-0.000022
 93,0.00000631,-0.00002333,0.00004940,0.00000211,-0.00008911,-0.0000055
 8,0.00001808,0.00000329,0.00000209,-0.00000012,-0.00000090,-0.00000300
 ,-0.00000223,0.00000030,0.00026047,-0.00003006,-0.00030549,0.00011119,
 0.00025637,0.00066696,-0.00112142,0.00267662,-0.00181716,0.00083817,-0
 .00015515,-0.00003240,-0.00284725,-0.00103499,-0.00637924,0.00762915,-
 0.00252997,-0.00901054,-0.00036048,-0.00075347,0.00040340,-0.00077192,
 -0.00005760,0.00107596,0.00000760,0.00001464,0.00006990,-0.01777548,0.
 00013597,0.02608787,-0.13209899,0.01048562,0.13053936,-0.00244080,0.00
 101498,0.00236313,0.00138826,0.00030947,0.00013956,0.00161168,-0.00003
 806,0.00009677,0.00323582,0.00035337,-0.00522548,0.14217664,0.00013714
 ,-0.00010260,0.00052253,-0.00006157,0.00022087,-0.00043994,0.00008568,
 -0.00002690,0.00012882,-0.00012042,0.00001227,0.00022056,-0.00001942,-
 0.00010808,0.00006038,-0.00001230,0.00001468,-0.00000209,0.00001813,0.
 00001125,-0.00000191,-0.00032832,0.00005023,0.00028953,0.00040703,0.00
 011333,-0.00096208,0.00302878,-0.00373502,0.00346247,-0.00145416,0.000
 17479,0.00032859,-0.00005736,0.00042299,0.00070600,-0.01542388,-0.0016
 7845,0.02305647,0.00089438,0.00129429,-0.00234078,0.00117389,0.0006240
 7,-0.00212624,-0.00000617,-0.00000970,-0.00003775,-0.00261622,0.000020
 34,0.00276845,0.00980752,-0.04733436,-0.01555272,-0.00047432,0.0000886
 6,-0.00013354,0.00035884,0.00020094,-0.00028365,0.00021331,0.00021354,
 0.00049900,0.01491885,0.00199915,-0.02254322,-0.01046942,0.04753369,0.
 00003232,-0.00002330,-0.00027818,0.00003207,-0.00014479,0.00018883,-0.
 00004359,0.00001785,-0.00005742,0.00006154,0.00000269,-0.00010679,0.00
 000364,0.00004202,-0.00001854,0.00000569,-0.00000465,0.00000074,-0.000
 00778,-0.00000473,0.00000180,0.00015671,-0.00003759,-0.00025976,-0.000
 39748,0.00002391,0.00070273,-0.00149564,0.00251276,-0.00173588,0.00076
 641,0.00002489,0.00015268,-0.00207981,-0.00038327,-0.00142832,0.010390
 96,-0.00016718,-0.01848640,-0.00077962,-0.00095227,0.00227984,-0.00149
 879,-0.00017337,0.00149892,-0.00000096,0.00001009,0.00000543,-0.005713
 36,-0.00032854,0.00985348,0.13309524,-0.01379300,-0.24389172,-0.000904
 07,0.00045411,0.00091008,0.00031867,0.00000671,0.00041813,0.00051533,0
 .00004843,0.00028172,0.00597277,0.00048808,-0.00858295,-0.13843023,0.0
 1238114,0.25855157\\0.00000106,-0.00000439,0.00000023,-0.00000464,-0.0
 0000655,-0.00000239,-0.00000367,0.00001148,0.00000193,-0.00000402,-0.0
 0000985,-0.00000688,0.00000468,-0.00000795,0.00000133,0.00001303,0.000
 00604,0.00000124,0.00000917,-0.00000824,0.00000056,-0.00000896,-0.0000
 0435,-0.00000171,-0.00000142,-0.00000733,0.00000102,-0.00000607,0.0000
 1052,-0.00001065,0.00000062,-0.00000078,0.00000519,-0.00000625,-0.0000
 1594,-0.00000320,0.00000169,0.00001057,0.00000662,0.00001454,0.0000079
 9,0.00000669,0.00000207,0.00002107,0.00000525,0.00000335,0.00001566,0.
 00000543,0.00000290,-0.00000229,-0.00000002,-0.00000196,0.00000101,-0.
 00000172,-0.00000351,-0.00001919,-0.00000877,-0.00000556,-0.00000846,-
 0.00000318,0.00000445,-0.00000841,-0.00000162,-0.00001006,0.00000821,0
 .00000173,-0.00000143,0.00001117,0.00000292\\\@
 The archive entry for this job was punched.


 THE NUMBERS ARE MEANINGLESS, BUT THE TRENDS ARE IMPORTANT.
     -- LARRY BURGGRAF
 Job cpu time:       0 days  1 hours 55 minutes 55.3 seconds.
 Elapsed time:       0 days  0 hours  8 minutes 14.6 seconds.
 File lengths (MBytes):  RWF=    370 Int=      0 D2E=      0 Chk=     16 Scr=      1
 Normal termination of Gaussian 16 at Fri May 27 00:36:29 2022.
