 Entering Gaussian System, Link 0=g16
 AtFile(1): //home/561/yj5695//Basis/6-31pGd.gbs
 Initial command:
 /apps/gaussian/g16c01/g16/l1.exe "/jobfs/40639111.gadi-pbs/Gau-77590.inp" -scrdir="/jobfs/40639111.gadi-pbs/"
 Entering Link 1 = /apps/gaussian/g16c01/g16/l1.exe PID=     77591.
  
 Copyright (c) 1988-2019, Gaussian, Inc.  All Rights Reserved.
  
 This is part of the Gaussian(R) 16 program.  It is based on
 the Gaussian(R) 09 system (copyright 2009, Gaussian, Inc.),
 the Gaussian(R) 03 system (copyright 2003, Gaussian, Inc.),
 the Gaussian(R) 98 system (copyright 1998, Gaussian, Inc.),
 the Gaussian(R) 94 system (copyright 1995, Gaussian, Inc.),
 the Gaussian 92(TM) system (copyright 1992, Gaussian, Inc.),
 the Gaussian 90(TM) system (copyright 1990, Gaussian, Inc.),
 the Gaussian 88(TM) system (copyright 1988, Gaussian, Inc.),
 the Gaussian 86(TM) system (copyright 1986, Carnegie Mellon
 University), and the Gaussian 82(TM) system (copyright 1983,
 Carnegie Mellon University). Gaussian is a federally registered
 trademark of Gaussian, Inc.
  
 This software contains proprietary and confidential information,
 including trade secrets, belonging to Gaussian, Inc.
  
 This software is provided under written license and may be
 used, copied, transmitted, or stored only in accord with that
 written license.
  
 The following legend is applicable only to US Government
 contracts under FAR:
  
                    RESTRICTED RIGHTS LEGEND
  
 Use, reproduction and disclosure by the US Government is
 subject to restrictions as set forth in subparagraphs (a)
 and (c) of the Commercial Computer Software - Restricted
 Rights clause in FAR 52.227-19.
  
 Gaussian, Inc.
 340 Quinnipiac St., Bldg. 40, Wallingford CT 06492
  
  
 ---------------------------------------------------------------
 Warning -- This program may not be used in any manner that
 competes with the business of Gaussian, Inc. or will provide
 assistance to any competitor of Gaussian, Inc.  The licensee
 of this program is prohibited from giving any competitor of
 Gaussian, Inc. access to this program.  By using this program,
 the user acknowledges that Gaussian, Inc. is engaged in the
 business of creating and licensing software in the field of
 computational chemistry and represents and warrants to the
 licensee that it is not a competitor of Gaussian, Inc. and that
 it will not use this program in any manner prohibited above.
 ---------------------------------------------------------------
  

 Cite this work as:
 Gaussian 16, Revision C.01,
 M. J. Frisch, G. W. Trucks, H. B. Schlegel, G. E. Scuseria, 
 M. A. Robb, J. R. Cheeseman, G. Scalmani, V. Barone, 
 G. A. Petersson, H. Nakatsuji, X. Li, M. Caricato, A. V. Marenich, 
 J. Bloino, B. G. Janesko, R. Gomperts, B. Mennucci, H. P. Hratchian, 
 J. V. Ortiz, A. F. Izmaylov, J. L. Sonnenberg, D. Williams-Young, 
 F. Ding, F. Lipparini, F. Egidi, J. Goings, B. Peng, A. Petrone, 
 T. Henderson, D. Ranasinghe, V. G. Zakrzewski, J. Gao, N. Rega, 
 G. Zheng, W. Liang, M. Hada, M. Ehara, K. Toyota, R. Fukuda, 
 J. Hasegawa, M. Ishida, T. Nakajima, Y. Honda, O. Kitao, H. Nakai, 
 T. Vreven, K. Throssell, J. A. Montgomery, Jr., J. E. Peralta, 
 F. Ogliaro, M. J. Bearpark, J. J. Heyd, E. N. Brothers, K. N. Kudin, 
 V. N. Staroverov, T. A. Keith, R. Kobayashi, J. Normand, 
 K. Raghavachari, A. P. Rendell, J. C. Burant, S. S. Iyengar, 
 J. Tomasi, M. Cossi, J. M. Millam, M. Klene, C. Adamo, R. Cammi, 
 J. W. Ochterski, R. L. Martin, K. Morokuma, O. Farkas, 
 J. B. Foresman, and D. J. Fox, Gaussian, Inc., Wallingford CT, 2019.
 
 ******************************************
 Gaussian 16:  ES64L-G16RevC.01  3-Jul-2019
                19-May-2022 
 ******************************************
 %nproc=16
 Will use up to   16 processors via shared memory.
 %mem=20gb
 ----------------------------------------------------------------------
 #m062X/gen 6D OPT Freq=Noraman INT(grid=ultrafine) SCRF=(SMD,Solvent=h
 2o)
 ----------------------------------------------------------------------
 1/18=20,19=15,26=6,38=1/1,3;
 2/9=110,12=2,17=6,18=5,40=1/2;
 3/5=7,8=2,11=2,25=1,30=1,70=32201,71=1,72=1,74=-55,75=-5/1,2,3;
 4//1;
 5/5=2,38=5,53=1/2;
 6/7=2,8=2,9=2,10=2,28=1/1;
 7//1,2,3,16;
 1/18=20,19=15,26=6/3(2);
 2/9=110/2;
 99//99;
 2/9=110/2;
 3/5=7,6=1,8=2,11=2,25=1,30=1,70=32205,71=1,72=1,74=-55,75=-5,82=7/1,2,3;
 4/5=5,16=3,69=1/1;
 5/5=2,38=5,53=1/2;
 7//1,2,3,16;
 1/18=20,19=15,26=6/3(-5);
 2/9=110/2;
 6/7=2,8=2,9=2,10=2,19=2,28=1/1;
 99/9=1/99;
 -----
 a2 b1
 -----
 Symbolic Z-matrix:
 Charge =  0 Multiplicity = 1
 C                    -1.32778   0.74867  -0.89286 
 C                    -2.53085   0.83625  -1.58953 
 H                    -3.48078   0.8428   -1.0642 
 C                    -2.50093   0.92542  -2.97766 
 H                    -3.42338   1.00094  -3.54338 
 C                    -1.26862   0.92139  -3.62662 
 Cl                   -1.23079   1.0361   -5.36623 
 C                    -0.06544   0.83106  -2.93088 
 H                     0.88109   0.83418  -3.46071 
 C                    -0.09572   0.74195  -1.54278 
 H                     0.83108   0.67586  -0.98148 
 S                    -1.3681    0.58308   0.87704 
 O                    -1.55707  -0.83213   1.19334 
 O                    -0.21641   1.29986   1.4233 
 N                    -2.70606   1.36311   1.44931 
 H                    -3.56847   0.94804   1.08999 
 H                    -2.67712   2.36395   1.24279 
 

 GradGradGradGradGradGradGradGradGradGradGradGradGradGradGradGradGradGrad
 Berny optimization.
 Initialization pass.
                           ----------------------------
                           !    Initial Parameters    !
                           ! (Angstroms and Degrees)  !
 --------------------------                            --------------------------
 ! Name  Definition              Value          Derivative Info.                !
 --------------------------------------------------------------------------------
 ! R1    R(1,2)                  1.393          estimate D2E/DX2                !
 ! R2    R(1,10)                 1.393          estimate D2E/DX2                !
 ! R3    R(1,12)                 1.7781         estimate D2E/DX2                !
 ! R4    R(2,3)                  1.0855         estimate D2E/DX2                !
 ! R5    R(2,4)                  1.3913         estimate D2E/DX2                !
 ! R6    R(4,5)                  1.0847         estimate D2E/DX2                !
 ! R7    R(4,6)                  1.3927         estimate D2E/DX2                !
 ! R8    R(6,7)                  1.7438         estimate D2E/DX2                !
 ! R9    R(6,8)                  1.3928         estimate D2E/DX2                !
 ! R10   R(8,9)                  1.0847         estimate D2E/DX2                !
 ! R11   R(8,10)                 1.3913         estimate D2E/DX2                !
 ! R12   R(10,11)                1.0855         estimate D2E/DX2                !
 ! R13   R(12,13)                1.4624         estimate D2E/DX2                !
 ! R14   R(12,14)                1.4624         estimate D2E/DX2                !
 ! R15   R(12,15)                1.6511         estimate D2E/DX2                !
 ! R16   R(15,16)                1.0223         estimate D2E/DX2                !
 ! R17   R(15,17)                1.0223         estimate D2E/DX2                !
 ! A1    A(2,1,10)             122.0631         estimate D2E/DX2                !
 ! A2    A(2,1,12)             118.9532         estimate D2E/DX2                !
 ! A3    A(10,1,12)            118.9485         estimate D2E/DX2                !
 ! A4    A(1,2,3)              120.9394         estimate D2E/DX2                !
 ! A5    A(1,2,4)              118.976          estimate D2E/DX2                !
 ! A6    A(3,2,4)              120.0832         estimate D2E/DX2                !
 ! A7    A(2,4,5)              120.4318         estimate D2E/DX2                !
 ! A8    A(2,4,6)              118.9292         estimate D2E/DX2                !
 ! A9    A(5,4,6)              120.6385         estimate D2E/DX2                !
 ! A10   A(4,6,7)              118.9367         estimate D2E/DX2                !
 ! A11   A(4,6,8)              122.1259         estimate D2E/DX2                !
 ! A12   A(7,6,8)              118.9373         estimate D2E/DX2                !
 ! A13   A(6,8,9)              120.6391         estimate D2E/DX2                !
 ! A14   A(6,8,10)             118.9297         estimate D2E/DX2                !
 ! A15   A(9,8,10)             120.4307         estimate D2E/DX2                !
 ! A16   A(1,10,8)             118.9756         estimate D2E/DX2                !
 ! A17   A(1,10,11)            120.9428         estimate D2E/DX2                !
 ! A18   A(8,10,11)            120.0801         estimate D2E/DX2                !
 ! A19   A(1,12,13)            107.9594         estimate D2E/DX2                !
 ! A20   A(1,12,14)            107.958          estimate D2E/DX2                !
 ! A21   A(1,12,15)            108.6259         estimate D2E/DX2                !
 ! A22   A(13,12,14)           119.6899         estimate D2E/DX2                !
 ! A23   A(13,12,15)           106.1118         estimate D2E/DX2                !
 ! A24   A(14,12,15)           106.0907         estimate D2E/DX2                !
 ! A25   A(12,15,16)           111.7134         estimate D2E/DX2                !
 ! A26   A(12,15,17)           111.6873         estimate D2E/DX2                !
 ! A27   A(16,15,17)           110.5087         estimate D2E/DX2                !
 ! D1    D(10,1,2,3)          -179.8259         estimate D2E/DX2                !
 ! D2    D(10,1,2,4)            -0.2726         estimate D2E/DX2                !
 ! D3    D(12,1,2,3)             2.3556         estimate D2E/DX2                !
 ! D4    D(12,1,2,4)          -178.091          estimate D2E/DX2                !
 ! D5    D(2,1,10,8)             0.2708         estimate D2E/DX2                !
 ! D6    D(2,1,10,11)          179.823          estimate D2E/DX2                !
 ! D7    D(12,1,10,8)          178.0894         estimate D2E/DX2                !
 ! D8    D(12,1,10,11)          -2.3585         estimate D2E/DX2                !
 ! D9    D(2,1,12,13)           83.6648         estimate D2E/DX2                !
 ! D10   D(2,1,12,14)         -145.6127         estimate D2E/DX2                !
 ! D11   D(2,1,12,15)          -30.9867         estimate D2E/DX2                !
 ! D12   D(10,1,12,13)         -94.2225         estimate D2E/DX2                !
 ! D13   D(10,1,12,14)          36.5            estimate D2E/DX2                !
 ! D14   D(10,1,12,15)         151.126          estimate D2E/DX2                !
 ! D15   D(1,2,4,5)           -179.6146         estimate D2E/DX2                !
 ! D16   D(1,2,4,6)              0.1346         estimate D2E/DX2                !
 ! D17   D(3,2,4,5)             -0.0574         estimate D2E/DX2                !
 ! D18   D(3,2,4,6)            179.6918         estimate D2E/DX2                !
 ! D19   D(2,4,6,7)           -179.8883         estimate D2E/DX2                !
 ! D20   D(2,4,6,8)             -0.0035         estimate D2E/DX2                !
 ! D21   D(5,4,6,7)             -0.1397         estimate D2E/DX2                !
 ! D22   D(5,4,6,8)            179.7452         estimate D2E/DX2                !
 ! D23   D(4,6,8,9)           -179.744          estimate D2E/DX2                !
 ! D24   D(4,6,8,10)             0.0017         estimate D2E/DX2                !
 ! D25   D(7,6,8,9)              0.1409         estimate D2E/DX2                !
 ! D26   D(7,6,8,10)           179.8866         estimate D2E/DX2                !
 ! D27   D(6,8,10,1)            -0.1311         estimate D2E/DX2                !
 ! D28   D(6,8,10,11)         -179.6873         estimate D2E/DX2                !
 ! D29   D(9,8,10,1)           179.6151         estimate D2E/DX2                !
 ! D30   D(9,8,10,11)            0.059          estimate D2E/DX2                !
 ! D31   D(1,12,15,16)          62.1647         estimate D2E/DX2                !
 ! D32   D(1,12,15,17)         -62.1822         estimate D2E/DX2                !
 ! D33   D(13,12,15,16)        -53.6872         estimate D2E/DX2                !
 ! D34   D(13,12,15,17)       -178.034          estimate D2E/DX2                !
 ! D35   D(14,12,15,16)        178.004          estimate D2E/DX2                !
 ! D36   D(14,12,15,17)         53.6571         estimate D2E/DX2                !
 --------------------------------------------------------------------------------
 Trust Radius=3.00D-01 FncErr=5.00D-06 GrdErr=5.00D-06 EigMax=2.50D+02 EigMin=1.00D-04
 Number of steps in this run=     90 maximum allowed number of steps=    102.
 GradGradGradGradGradGradGradGradGradGradGradGradGradGradGradGradGradGrad

                          Input orientation:                          
 ---------------------------------------------------------------------
 Center     Atomic      Atomic             Coordinates (Angstroms)
 Number     Number       Type             X           Y           Z
 ---------------------------------------------------------------------
      1          6           0       -1.327784    0.748666   -0.892864
      2          6           0       -2.530846    0.836254   -1.589525
      3          1           0       -3.480775    0.842797   -1.064199
      4          6           0       -2.500932    0.925421   -2.977658
      5          1           0       -3.423383    1.000938   -3.543379
      6          6           0       -1.268624    0.921390   -3.626618
      7         17           0       -1.230791    1.036104   -5.366227
      8          6           0       -0.065440    0.831059   -2.930881
      9          1           0        0.881094    0.834183   -3.460708
     10          6           0       -0.095720    0.741945   -1.542784
     11          1           0        0.831082    0.675855   -0.981477
     12         16           0       -1.368102    0.583083    0.877037
     13          8           0       -1.557073   -0.832130    1.193335
     14          8           0       -0.216414    1.299858    1.423295
     15          7           0       -2.706063    1.363111    1.449309
     16          1           0       -3.568474    0.948042    1.089989
     17          1           0       -2.677120    2.363952    1.242785
 ---------------------------------------------------------------------
                    Distance matrix (angstroms):
                    1          2          3          4          5
     1  C    0.000000
     2  C    1.392970   0.000000
     3  H    2.161848   1.085530   0.000000
     4  C    2.398726   1.391316   2.151335   0.000000
     5  H    3.388275   2.154365   2.484881   1.084739   0.000000
     6  C    2.739844   2.397958   3.386116   1.392748   2.157833
     7  Cl   4.483637   3.999195   4.858728   2.707540   2.851573
     8  C    2.398711   2.806687   3.892191   2.437768   3.417571
     9  H    3.388256   3.891358   4.976870   3.417567   4.308499
    10  C    1.392991   2.437400   3.420206   2.806701   3.891375
    11  H    2.161910   3.420235   4.315880   3.892215   4.976896
    12  S    1.778087   2.738612   2.880839   4.032266   4.892735
    13  O    2.627492   3.387632   3.406240   4.623531   5.411073
    14  O    2.627460   3.827350   4.129477   4.972687   5.919616
    15  N    2.786211   3.089141   2.681162   4.453278   5.056941
    16  H    2.998691   2.875581   2.158540   4.205462   4.635941
    17  H    2.998475   3.221372   2.877838   4.462348   5.032105
                    6          7          8          9         10
     6  C    0.000000
     7  Cl   1.743798   0.000000
     8  C    1.392789   2.707581   0.000000
     9  H    2.157874   2.851637   1.084736   0.000000
    10  C    2.397972   3.999204   1.391284   2.154323   0.000000
    11  H    3.386122   4.858717   2.151282   2.484785   1.085539
    12  S    4.517439   6.261184   4.032203   4.892644   2.738563
    13  O    5.137118   6.828222   4.690450   5.511930   3.478450
    14  O    5.172234   6.869944   4.381942   5.027411   3.020506
    15  N    5.293995   6.981038   5.142182   6.103747   4.019000
    16  H    5.247514   6.866967   5.334072   6.365569   4.362796
    17  H    5.270288   6.894497   5.156561   6.092941   4.129640
                   11         12         13         14         15
    11  H    0.000000
    12  S    2.880814   0.000000
    13  O    3.564703   1.462389   0.000000
    14  O    2.696211   1.462378   2.528957   0.000000
    15  N    4.346543   1.651084   2.490940   2.490588   0.000000
    16  H    4.870436   2.240576   2.688015   3.386912   1.022324
    17  H    4.483804   2.240267   3.387018   2.686997   1.022337
                   16         17
    16  H    0.000000
    17  H    1.680077   0.000000
 Stoichiometry    C6H6ClNO2S
 Framework group  C1[X(C6H6ClNO2S)]
 Deg. of freedom    45
 Full point group                 C1      NOp   1
 Largest Abelian subgroup         C1      NOp   1
 Largest concise Abelian subgroup C1      NOp   1
                         Standard orientation:                         
 ---------------------------------------------------------------------
 Center     Atomic      Atomic             Coordinates (Angstroms)
 Number     Number       Type             X           Y           Z
 ---------------------------------------------------------------------
      1          6           0        0.475314   -0.063642    0.004175
      2          6           0       -0.167731    1.171659    0.034010
      3          1           0        0.400550    2.096348    0.053547
      4          6           0       -1.558568    1.207810    0.029048
      5          1           0       -2.083581    2.156887    0.045546
      6          6           0       -2.263607    0.007120   -0.002744
      7         17           0       -4.006796    0.052271   -0.011943
      8          6           0       -1.621327   -1.228440   -0.029797
      9          1           0       -2.194506   -2.148927   -0.058477
     10          6           0       -0.230512   -1.264221   -0.024863
     11          1           0        0.289339   -2.216838   -0.050747
     12         16           0        2.251821   -0.110902    0.062332
     13          8           0        2.659471   -0.027241    1.464261
     14          8           0        2.699953   -1.236727   -0.756353
     15          7           0        2.839684    1.248356   -0.667677
     16          1           0        2.546537    2.097067   -0.178903
     17          1           0        2.573449    1.292829   -1.653737
 ---------------------------------------------------------------------
 Rotational constants (GHZ):           2.5859519           0.3988039           0.3722797
 General basis read from cards:  (6D, 7F)
 There are   229 symmetry adapted cartesian basis functions of A   symmetry.
 There are   229 symmetry adapted basis functions of A   symmetry.
   229 basis functions,   424 primitive gaussians,   229 cartesian basis functions
    49 alpha electrons       49 beta electrons
       nuclear repulsion energy       795.9725526825 Hartrees.
 NAtoms=   17 NActive=   17 NUniq=   17 SFac= 1.00D+00 NAtFMM=   60 NAOKFM=F Big=F
 Integral buffers will be    131072 words long.
 Raffenetti 2 integral format.
 Two-electron integral symmetry is turned on.
 ------------------------------------------------------------------------------
 Polarizable Continuum Model (PCM)
 =================================
 Model                : PCM.
 Atomic radii         : SMD-Coulomb.
 Polarization charges : Total charges.
 Charge compensation  : None.
 Solution method      : On-the-fly selection.
 Cavity type          : VdW (van der Waals Surface) (Alpha=1.000).
 Cavity algorithm     : GePol (No added spheres)
                        Default sphere list used, NSphG=   17.
                        Lebedev-Laikov grids with approx.  5.0 points / Ang**2.
                        Smoothing algorithm: York/Karplus (Gamma=1.0000).
                        Polarization charges: spherical gaussians, with
                                              point-specific exponents (IZeta= 3).
                        Self-potential: point-specific (ISelfS= 7).
                        Self-field    : sphere-specific E.n sum rule (ISelfD= 2).
 1st derivatives      : Analytical E(r).r(x)/FMM algorithm (CHGder, D1EAlg=3).
                        Cavity 1st derivative terms included.
 Solvent              : Water, Eps=  78.355300 Eps(inf)=   1.777849
 ------------------------------------------------------------------------------
 Spheres list:
 ISph  on   Nord     Re0    Alpha      Xe            Ye            Ze
    1   C      1    1.8500  1.000      0.475314     -0.063642      0.004175
    2   C      2    1.8500  1.000     -0.167731      1.171659      0.034010
    3   H      3    1.2000  1.000      0.400550      2.096348      0.053547
    4   C      4    1.8500  1.000     -1.558568      1.207810      0.029048
    5   H      5    1.2000  1.000     -2.083581      2.156887      0.045546
    6   C      6    1.8500  1.000     -2.263607      0.007120     -0.002744
    7  Cl      7    2.3800  1.000     -4.006796      0.052271     -0.011943
    8   C      8    1.8500  1.000     -1.621327     -1.228440     -0.029797
    9   H      9    1.2000  1.000     -2.194506     -2.148927     -0.058477
   10   C     10    1.8500  1.000     -0.230512     -1.264221     -0.024863
   11   H     11    1.2000  1.000      0.289339     -2.216838     -0.050747
   12   S     12    2.4900  1.000      2.251821     -0.110902      0.062332
   13   O     13    1.5200  1.000      2.659471     -0.027241      1.464261
   14   O     14    1.5200  1.000      2.699953     -1.236727     -0.756353
   15   N     15    1.8900  1.000      2.839684      1.248356     -0.667677
   16   H     16    1.2000  1.000      2.546537      2.097067     -0.178903
   17   H     17    1.2000  1.000      2.573449      1.292829     -1.653737
 ------------------------------------------------------------------------------
 ------------------------------------------------------------------------------
 Atomic radii for non-electrostatic terms: SMD-CDS.
 ------------------------------------------------------------------------------
 Nuclear repulsion after PCM non-electrostatic terms =      795.9781257126 Hartrees.
 One-electron integrals computed using PRISM.
 NBasis=   229 RedAO= T EigKep=  1.74D-06  NBF=   229
 NBsUse=   229 1.00D-06 EigRej= -1.00D+00 NBFU=   229
 ExpMin= 4.05D-02 ExpMax= 2.52D+04 ExpMxC= 3.78D+03 IAcc=3 IRadAn=         5 AccDes= 0.00D+00
 Harris functional with IExCor= 1009 and IRadAn=       5 diagonalized for initial guess.
 HarFok:  IExCor= 1009 AccDes= 0.00D+00 IRadAn=         5 IDoV= 1 UseB2=F ITyADJ=14
 ICtDFT=  3500011 ScaDFX=  1.000000  1.000000  1.000000  1.000000
 FoFCou: FMM=F IPFlag=           0 FMFlag=      100000 FMFlg1=           0
         NFxFlg=           0 DoJE=T BraDBF=F KetDBF=T FulRan=T
         wScrn=  0.000000 ICntrl=       500 IOpCl=  0 I1Cent=   200000004 NGrid=           0
         NMat0=    1 NMatS0=      1 NMatT0=    0 NMatD0=    1 NMtDS0=    0 NMtDT0=    0
 Petite list used in FoFCou.
 Requested convergence on RMS density matrix=1.00D-08 within 128 cycles.
 Requested convergence on MAX density matrix=1.00D-06.
 Requested convergence on             energy=1.00D-06.
 No special actions if energy rises.
 Inv3:  Mode=1 IEnd=     7451328.
 Iteration    1 A*A^-1 deviation from unit magnitude is 5.77D-15 for   1567.
 Iteration    1 A*A^-1 deviation from orthogonality  is 1.70D-15 for    131    108.
 Iteration    1 A^-1*A deviation from unit magnitude is 5.55D-15 for   1567.
 Iteration    1 A^-1*A deviation from orthogonality  is 1.52D-14 for    804    767.
 Error on total polarization charges =  0.03315
 SCF Done:  E(RM062X) =  -1295.55849969     A.U. after   15 cycles
            NFock= 15  Conv=0.32D-08     -V/T= 2.0050
 SMD-CDS (non-electrostatic) energy       (kcal/mol) =       3.50
 (included in total energy above)

 **********************************************************************

            Population analysis using the SCF Density.

 **********************************************************************

 Orbital symmetries:
       Occupied  (A) (A) (A) (A) (A) (A) (A) (A) (A) (A) (A) (A)
                 (A) (A) (A) (A) (A) (A) (A) (A) (A) (A) (A) (A)
                 (A) (A) (A) (A) (A) (A) (A) (A) (A) (A) (A) (A)
                 (A) (A) (A) (A) (A) (A) (A) (A) (A) (A) (A) (A)
                 (A)
       Virtual   (A) (A) (A) (A) (A) (A) (A) (A) (A) (A) (A) (A)
                 (A) (A) (A) (A) (A) (A) (A) (A) (A) (A) (A) (A)
                 (A) (A) (A) (A) (A) (A) (A) (A) (A) (A) (A) (A)
                 (A) (A) (A) (A) (A) (A) (A) (A) (A) (A) (A) (A)
                 (A) (A) (A) (A) (A) (A) (A) (A) (A) (A) (A) (A)
                 (A) (A) (A) (A) (A) (A) (A) (A) (A) (A) (A) (A)
                 (A) (A) (A) (A) (A) (A) (A) (A) (A) (A) (A) (A)
                 (A) (A) (A) (A) (A) (A) (A) (A) (A) (A) (A) (A)
                 (A) (A) (A) (A) (A) (A) (A) (A) (A) (A) (A) (A)
                 (A) (A) (A) (A) (A) (A) (A) (A) (A) (A) (A) (A)
                 (A) (A) (A) (A) (A) (A) (A) (A) (A) (A) (A) (A)
                 (A) (A) (A) (A) (A) (A) (A) (A) (A) (A) (A) (A)
                 (A) (A) (A) (A) (A) (A) (A) (A) (A) (A) (A) (A)
                 (A) (A) (A) (A) (A) (A) (A) (A) (A) (A) (A) (A)
                 (A) (A) (A) (A) (A) (A) (A) (A) (A) (A) (A) (A)
 The electronic state is 1-A.
 Alpha  occ. eigenvalues -- -102.68386 -90.18432 -19.66374 -19.66349 -14.80572
 Alpha  occ. eigenvalues --  -10.63662 -10.60630 -10.58926 -10.58827 -10.58181
 Alpha  occ. eigenvalues --  -10.58151  -9.83063  -8.49428  -7.55462  -7.54811
 Alpha  occ. eigenvalues --   -7.54784  -6.41627  -6.41612  -6.41487  -1.26325
 Alpha  occ. eigenvalues --   -1.14824  -1.03577  -1.01641  -0.96242  -0.87667
 Alpha  occ. eigenvalues --   -0.86711  -0.76484  -0.72686  -0.69219  -0.64897
 Alpha  occ. eigenvalues --   -0.61868  -0.60058  -0.56988  -0.56025  -0.54544
 Alpha  occ. eigenvalues --   -0.53640  -0.51735  -0.48942  -0.46917  -0.44229
 Alpha  occ. eigenvalues --   -0.43869  -0.43632  -0.41536  -0.40264  -0.39952
 Alpha  occ. eigenvalues --   -0.38964  -0.38640  -0.33534  -0.31894
 Alpha virt. eigenvalues --   -0.01957  -0.00467   0.00933   0.02227   0.03665
 Alpha virt. eigenvalues --    0.04053   0.04189   0.05488   0.05593   0.06340
 Alpha virt. eigenvalues --    0.07274   0.08279   0.08547   0.09010   0.09285
 Alpha virt. eigenvalues --    0.09853   0.10787   0.11602   0.12475   0.12647
 Alpha virt. eigenvalues --    0.13136   0.13587   0.14355   0.14870   0.15442
 Alpha virt. eigenvalues --    0.15629   0.16149   0.16952   0.17447   0.17910
 Alpha virt. eigenvalues --    0.18511   0.20031   0.20787   0.21635   0.21865
 Alpha virt. eigenvalues --    0.22161   0.22490   0.23027   0.23530   0.24323
 Alpha virt. eigenvalues --    0.24837   0.25495   0.25740   0.27049   0.27512
 Alpha virt. eigenvalues --    0.29030   0.29217   0.29778   0.30417   0.31241
 Alpha virt. eigenvalues --    0.32218   0.32681   0.33587   0.33778   0.34534
 Alpha virt. eigenvalues --    0.35278   0.36394   0.37302   0.39321   0.39995
 Alpha virt. eigenvalues --    0.42276   0.44781   0.52005   0.55272   0.58234
 Alpha virt. eigenvalues --    0.61386   0.63892   0.64341   0.65203   0.66602
 Alpha virt. eigenvalues --    0.68041   0.68708   0.69373   0.70525   0.72153
 Alpha virt. eigenvalues --    0.73571   0.74733   0.74961   0.75585   0.79416
 Alpha virt. eigenvalues --    0.79681   0.81448   0.83225   0.86603   0.88212
 Alpha virt. eigenvalues --    0.91960   0.93203   0.94094   0.95088   0.96907
 Alpha virt. eigenvalues --    0.98279   0.99830   0.99888   1.01808   1.03261
 Alpha virt. eigenvalues --    1.04889   1.06966   1.07646   1.08329   1.10333
 Alpha virt. eigenvalues --    1.11317   1.13016   1.13629   1.15334   1.17837
 Alpha virt. eigenvalues --    1.18691   1.20944   1.22017   1.24815   1.27645
 Alpha virt. eigenvalues --    1.29896   1.31842   1.33721   1.34858   1.35660
 Alpha virt. eigenvalues --    1.38060   1.40202   1.41195   1.43011   1.44956
 Alpha virt. eigenvalues --    1.48136   1.48937   1.49368   1.51174   1.53081
 Alpha virt. eigenvalues --    1.57597   1.59480   1.64464   1.71732   1.77831
 Alpha virt. eigenvalues --    1.79216   1.82548   1.83654   1.84820   1.86499
 Alpha virt. eigenvalues --    1.88120   1.91225   1.94102   1.99239   2.01413
 Alpha virt. eigenvalues --    2.03571   2.05969   2.10890   2.12394   2.14732
 Alpha virt. eigenvalues --    2.15477   2.16440   2.17268   2.19253   2.20135
 Alpha virt. eigenvalues --    2.20829   2.29921   2.30212   2.34389   2.36542
 Alpha virt. eigenvalues --    2.44287   2.50822   2.54409   2.63828   2.66560
 Alpha virt. eigenvalues --    2.67142   2.73651   2.75591   2.75922   2.84708
 Alpha virt. eigenvalues --    2.89071   2.94755   3.03816   3.34463   3.91176
 Alpha virt. eigenvalues --    4.05119   4.13717   4.22348   4.25607   4.25995
 Alpha virt. eigenvalues --    4.31013   4.38547   4.39888   4.46455   4.68792
          Condensed to atoms (all electrons):
               1          2          3          4          5          6
     1  C   23.004528  -2.988493   0.091902  -1.107806   0.017811  -3.788179
     2  C   -2.988493  32.931475   0.213388  -5.162285   0.003716   0.818428
     3  H    0.091902   0.213388   0.418094  -0.031044  -0.003543  -0.010635
     4  C   -1.107806  -5.162285  -0.031044  13.511666   0.258256  -0.388679
     5  H    0.017811   0.003716  -0.003543   0.258256   0.406665   0.002182
     6  C   -3.788179   0.818428  -0.010635  -0.388679   0.002182   8.170401
     7  Cl   0.010350   0.032418   0.001193  -0.023599   0.003665  -0.219787
     8  C   -0.190861   2.704469  -0.024467  -2.157274   0.037625  -0.589533
     9  H    0.007380  -0.024808   0.000010   0.051024  -0.000103   0.012783
    10  C   -7.158540 -21.381298   0.069299   1.134893  -0.010316   1.804882
    11  H    0.036197   0.050892  -0.000104  -0.025444   0.000009   0.002968
    12  S   -0.693805  -0.775425  -0.008512   0.208669  -0.001001  -0.049778
    13  O    0.033038   0.471610  -0.001708  -0.043579  -0.000004   0.010888
    14  O   -0.366641  -0.019944   0.000621   0.084725   0.000016  -0.015408
    15  N    0.652961  -1.584294   0.006312  -0.011771   0.000109  -0.050193
    16  H   -0.209728   0.208717   0.001534   0.077207  -0.000002   0.003664
    17  H   -0.000528   0.000706  -0.000645  -0.030375  -0.000000   0.002108
               7          8          9         10         11         12
     1  C    0.010350  -0.190861   0.007380  -7.158540   0.036197  -0.693805
     2  C    0.032418   2.704469  -0.024808 -21.381298   0.050892  -0.775425
     3  H    0.001193  -0.024467   0.000010   0.069299  -0.000104  -0.008512
     4  C   -0.023599  -2.157274   0.051024   1.134893  -0.025444   0.208669
     5  H    0.003665   0.037625  -0.000103  -0.010316   0.000009  -0.001001
     6  C   -0.219787  -0.589533   0.012783   1.804882   0.002968  -0.049778
     7  Cl  17.020151  -0.144946   0.002951   0.126038   0.000765  -0.009390
     8  C   -0.144946  13.149474   0.274832  -6.717771  -0.054382   0.073778
     9  H    0.002951   0.274832   0.406767  -0.011355  -0.003310  -0.001076
    10  C    0.126038  -6.717771  -0.011355  36.603245   0.296725   1.009453
    11  H    0.000765  -0.054382  -0.003310   0.296725   0.404440  -0.002259
    12  S   -0.009390   0.073778  -0.001076   1.009453  -0.002259  14.279277
    13  O   -0.000619  -0.038782   0.000009  -0.490669  -0.000526   0.301682
    14  O   -0.000039   0.125024   0.000100  -0.001448   0.003141   0.286012
    15  N    0.000594  -0.118630   0.000036   0.970351   0.000891   0.016983
    16  H   -0.000011   0.005755  -0.000000  -0.099271  -0.000003   0.027088
    17  H   -0.000025   0.002060   0.000000   0.009987  -0.000000   0.033469
              13         14         15         16         17
     1  C    0.033038  -0.366641   0.652961  -0.209728  -0.000528
     2  C    0.471610  -0.019944  -1.584294   0.208717   0.000706
     3  H   -0.001708   0.000621   0.006312   0.001534  -0.000645
     4  C   -0.043579   0.084725  -0.011771   0.077207  -0.030375
     5  H   -0.000004   0.000016   0.000109  -0.000002  -0.000000
     6  C    0.010888  -0.015408  -0.050193   0.003664   0.002108
     7  Cl  -0.000619  -0.000039   0.000594  -0.000011  -0.000025
     8  C   -0.038782   0.125024  -0.118630   0.005755   0.002060
     9  H    0.000009   0.000100   0.000036  -0.000000   0.000000
    10  C   -0.490669  -0.001448   0.970351  -0.099271   0.009987
    11  H   -0.000526   0.003141   0.000891  -0.000003  -0.000000
    12  S    0.301682   0.286012   0.016983   0.027088   0.033469
    13  O    8.669741  -0.178427  -0.148346  -0.002591   0.007871
    14  O   -0.178427   8.826121  -0.116127   0.009510  -0.004794
    15  N   -0.148346  -0.116127   7.964121   0.227310   0.227836
    16  H   -0.002591   0.009510   0.227310   0.266696  -0.015630
    17  H    0.007871  -0.004794   0.227836  -0.015630   0.250524
 Mulliken charges:
               1
     1  C   -1.349583
     2  C    0.500729
     3  H    0.278304
     4  C   -0.344585
     5  H    0.284916
     6  C    0.283887
     7  Cl   0.200291
     8  C   -0.336370
     9  H    0.284761
    10  C   -0.154205
    11  H    0.290000
    12  S    1.304834
    13  O   -0.589587
    14  O   -0.632441
    15  N   -1.038143
    16  H    0.499756
    17  H    0.517436
 Sum of Mulliken charges =  -0.00000
 Mulliken charges with hydrogens summed into heavy atoms:
               1
     1  C   -1.349583
     2  C    0.779033
     4  C   -0.059669
     6  C    0.283887
     7  Cl   0.200291
     8  C   -0.051609
    10  C    0.135795
    12  S    1.304834
    13  O   -0.589587
    14  O   -0.632441
    15  N   -0.020951
 Electronic spatial extent (au):  <R**2>=           2765.3242
 Charge=             -0.0000 electrons
 Dipole moment (field-independent basis, Debye):
    X=             -4.4088    Y=              4.9835    Z=             -2.8323  Tot=              7.2315
 Quadrupole moment (field-independent basis, Debye-Ang):
   XX=           -101.8760   YY=            -64.5817   ZZ=            -83.8412
   XY=             12.5506   XZ=             -6.7582   YZ=             -4.0243
 Traceless Quadrupole moment (field-independent basis, Debye-Ang):
   XX=            -18.4430   YY=             18.8513   ZZ=             -0.4082
   XY=             12.5506   XZ=             -6.7582   YZ=             -4.0243
 Octapole moment (field-independent basis, Debye-Ang**2):
  XXX=            -47.2939  YYY=             19.0160  ZZZ=            -15.3999  XYY=             -0.9531
  XXY=             26.8190  XXZ=            -15.0694  XZZ=             -2.0377  YZZ=              7.1498
  YYZ=              0.3489  XYZ=            -10.8080
 Hexadecapole moment (field-independent basis, Debye-Ang**3):
 XXXX=          -3202.4753 YYYY=           -378.3136 ZZZZ=           -209.2054 XXXY=             55.3601
 XXXZ=            -28.9544 YYYX=             48.7694 YYYZ=             -7.0640 ZZZX=            -38.7192
 ZZZY=            -12.2086 XXYY=           -537.8303 XXZZ=           -555.4823 YYZZ=           -114.2063
 XXYZ=            -23.6030 YYXZ=              2.3455 ZZXY=             17.0958
 N-N= 7.959781257126D+02 E-N=-4.648262333153D+03  KE= 1.289171723776D+03
 D1PCM: PCM CHGder 1st derivatives, ID1Alg=3 FixD1E=F DoIter=F DoCFld=F I1PDM=0.
 Calling FoFJK, ICntrl=      2127 FMM=F ISym2X=0 I1Cent= 0 IOpClX= 0 NMat=1 NMatS=1 NMatT=0.
 ***** Axes restored to original set *****
 -------------------------------------------------------------------
 Center     Atomic                   Forces (Hartrees/Bohr)
 Number     Number              X              Y              Z
 -------------------------------------------------------------------
      1        6          -0.001520034    0.001322459   -0.000948108
      2        6           0.001837537   -0.000594686   -0.000878048
      3        1          -0.000858435   -0.000167456   -0.002347177
      4        6          -0.000343524   -0.000086288   -0.000156314
      5        1          -0.000045090   -0.000029301    0.000006005
      6        6          -0.000084288   -0.000052199    0.000089750
      7       17           0.000028984    0.000078173    0.000056531
      8        6          -0.000302087   -0.000172758    0.000108033
      9        1           0.000028914   -0.000106122   -0.000011264
     10        6          -0.000039168    0.000456053    0.001021566
     11        1           0.000121044    0.000232821   -0.000036427
     12       16          -0.002264435    0.004710450    0.001448708
     13        8           0.000937960   -0.002244742    0.001566301
     14        8           0.002148575   -0.002358365    0.000080027
     15        7           0.001064622   -0.001660753   -0.003362192
     16        1          -0.000457315    0.000454914    0.003191985
     17        1          -0.000253259    0.000217801    0.000170622
 -------------------------------------------------------------------
 Cartesian Forces:  Max     0.004710450 RMS     0.001337950

 GradGradGradGradGradGradGradGradGradGradGradGradGradGradGradGradGradGrad
 Berny optimization.
 FormGI is forming the generalized inverse of G from B-inverse, IUseBI=4.
 Internal  Forces:  Max     0.007353550 RMS     0.001565148
 Search for a local minimum.
 Step number   1 out of a maximum of   90
 All quantities printed in internal units (Hartrees-Bohrs-Radians)
 Mixed Optimization -- RFO/linear search
 Second derivative matrix not updated -- first step.
 ITU=  0
     Eigenvalues ---    0.00660   0.01598   0.01943   0.02182   0.02184
     Eigenvalues ---    0.02189   0.02190   0.02193   0.02194   0.02197
     Eigenvalues ---    0.02197   0.04598   0.09491   0.10399   0.14271
     Eigenvalues ---    0.15999   0.16000   0.16000   0.16000   0.16000
     Eigenvalues ---    0.16000   0.19802   0.22000   0.22999   0.23995
     Eigenvalues ---    0.24983   0.25000   0.25000   0.27922   0.31096
     Eigenvalues ---    0.35333   0.35334   0.35428   0.35428   0.42485
     Eigenvalues ---    0.42626   0.42704   0.43967   0.43969   0.46820
     Eigenvalues ---    0.46822   0.46914   0.47093   0.90614   0.90618
 RFO step:  Lambda=-1.56072212D-03 EMin= 6.60170551D-03
 Linear search not attempted -- first point.
 Iteration  1 RMS(Cart)=  0.06901071 RMS(Int)=  0.00171100
 Iteration  2 RMS(Cart)=  0.00224152 RMS(Int)=  0.00010787
 Iteration  3 RMS(Cart)=  0.00000148 RMS(Int)=  0.00010787
 Iteration  4 RMS(Cart)=  0.00000000 RMS(Int)=  0.00010787
 Variable       Old X    -DE/DX   Delta X   Delta X   Delta X     New X
                                 (Linear)    (Quad)   (Total)
    R1        2.63233   0.00169   0.00000   0.00376   0.00377   2.63610
    R2        2.63237  -0.00014   0.00000  -0.00022  -0.00021   2.63216
    R3        3.36010   0.00315   0.00000   0.01123   0.01123   3.37132
    R4        2.05135  -0.00038   0.00000  -0.00108  -0.00108   2.05027
    R5        2.62921   0.00003   0.00000   0.00015   0.00014   2.62935
    R6        2.04986   0.00004   0.00000   0.00010   0.00010   2.04996
    R7        2.63191  -0.00066   0.00000  -0.00149  -0.00149   2.63042
    R8        3.29530  -0.00005   0.00000  -0.00016  -0.00016   3.29514
    R9        2.63199  -0.00058   0.00000  -0.00139  -0.00139   2.63060
   R10        2.04985   0.00003   0.00000   0.00008   0.00008   2.04994
   R11        2.62915  -0.00016   0.00000  -0.00041  -0.00041   2.62874
   R12        2.05137   0.00007   0.00000   0.00019   0.00019   2.05156
   R13        2.76352   0.00241   0.00000   0.00265   0.00265   2.76617
   R14        2.76349   0.00055   0.00000   0.00061   0.00061   2.76411
   R15        3.12010  -0.00078   0.00000  -0.00183  -0.00183   3.11827
   R16        1.93191  -0.00093   0.00000  -0.00210  -0.00210   1.92981
   R17        1.93194   0.00016   0.00000   0.00036   0.00036   1.93230
    A1        2.13040  -0.00159   0.00000  -0.00612  -0.00613   2.12427
    A2        2.07613   0.00735   0.00000   0.02898   0.02895   2.10508
    A3        2.07604  -0.00577   0.00000  -0.02322  -0.02324   2.05280
    A4        2.11079   0.00228   0.00000   0.01433   0.01432   2.12511
    A5        2.07652   0.00047   0.00000   0.00248   0.00248   2.07900
    A6        2.09585  -0.00275   0.00000  -0.01677  -0.01678   2.07906
    A7        2.10193  -0.00014   0.00000  -0.00060  -0.00060   2.10133
    A8        2.07571   0.00021   0.00000   0.00078   0.00078   2.07649
    A9        2.10554  -0.00007   0.00000  -0.00018  -0.00018   2.10536
   A10        2.07584   0.00015   0.00000   0.00089   0.00089   2.07673
   A11        2.13150  -0.00022   0.00000  -0.00149  -0.00149   2.13001
   A12        2.07585   0.00008   0.00000   0.00060   0.00060   2.07645
   A13        2.10555  -0.00013   0.00000  -0.00025  -0.00025   2.10530
   A14        2.07572   0.00028   0.00000   0.00059   0.00059   2.07630
   A15        2.10191  -0.00015   0.00000  -0.00035  -0.00035   2.10156
   A16        2.07652   0.00086   0.00000   0.00374   0.00374   2.08026
   A17        2.11085  -0.00032   0.00000  -0.00121  -0.00122   2.10963
   A18        2.09579  -0.00054   0.00000  -0.00254  -0.00254   2.09325
   A19        1.88425   0.00040   0.00000   0.00394   0.00374   1.88799
   A20        1.88422  -0.00240   0.00000  -0.01271  -0.01287   1.87135
   A21        1.89588   0.00409   0.00000   0.02355   0.02344   1.91932
   A22        2.08898  -0.00167   0.00000  -0.02088  -0.02094   2.06805
   A23        1.85200  -0.00068   0.00000   0.00278   0.00265   1.85465
   A24        1.85163   0.00101   0.00000   0.00841   0.00846   1.86010
   A25        1.94977   0.00375   0.00000   0.03027   0.02992   1.97969
   A26        1.94931   0.00013   0.00000   0.00787   0.00752   1.95683
   A27        1.92874  -0.00084   0.00000   0.00714   0.00657   1.93531
    D1       -3.13855  -0.00023   0.00000  -0.01043  -0.01051   3.13412
    D2       -0.00476  -0.00007   0.00000  -0.00432  -0.00431  -0.00907
    D3        0.04111   0.00008   0.00000   0.00126   0.00132   0.04244
    D4       -3.10827   0.00024   0.00000   0.00738   0.00752  -3.10075
    D5        0.00473  -0.00000   0.00000   0.00206   0.00202   0.00674
    D6        3.13850  -0.00006   0.00000   0.00051   0.00045   3.13895
    D7        3.10825  -0.00004   0.00000  -0.00854  -0.00839   3.09986
    D8       -0.04116  -0.00009   0.00000  -0.01009  -0.00995  -0.05112
    D9        1.46023   0.00084   0.00000  -0.07769  -0.07771   1.38252
   D10       -2.54142  -0.00269   0.00000  -0.11034  -0.11029  -2.65171
   D11       -0.54082  -0.00066   0.00000  -0.09505  -0.09516  -0.63598
   D12       -1.64449   0.00106   0.00000  -0.06670  -0.06667  -1.71116
   D13        0.63705  -0.00247   0.00000  -0.09935  -0.09925   0.53780
   D14        2.63765  -0.00044   0.00000  -0.08405  -0.08412   2.55353
   D15       -3.13487   0.00001   0.00000   0.00086   0.00087  -3.13400
   D16        0.00235   0.00006   0.00000   0.00223   0.00226   0.00461
   D17       -0.00100   0.00019   0.00000   0.00706   0.00705   0.00604
   D18        3.13621   0.00024   0.00000   0.00844   0.00844  -3.13853
   D19       -3.13964   0.00005   0.00000   0.00246   0.00245  -3.13719
   D20       -0.00006   0.00003   0.00000   0.00207   0.00204   0.00198
   D21       -0.00244   0.00010   0.00000   0.00384   0.00385   0.00141
   D22        3.13715   0.00008   0.00000   0.00345   0.00344   3.14058
   D23       -3.13712  -0.00004   0.00000  -0.00270  -0.00267  -3.13980
   D24        0.00003  -0.00011   0.00000  -0.00433  -0.00434  -0.00431
   D25        0.00246  -0.00006   0.00000  -0.00309  -0.00308  -0.00062
   D26        3.13961  -0.00012   0.00000  -0.00472  -0.00474   3.13487
   D27       -0.00229   0.00009   0.00000   0.00221   0.00225  -0.00004
   D28       -3.13613   0.00014   0.00000   0.00375   0.00380  -3.13233
   D29        3.13488   0.00002   0.00000   0.00058   0.00059   3.13547
   D30        0.00103   0.00008   0.00000   0.00212   0.00214   0.00317
   D31        1.08498   0.00234   0.00000   0.05512   0.05524   1.14022
   D32       -1.08528   0.00053   0.00000   0.01699   0.01683  -1.06845
   D33       -0.93702   0.00024   0.00000   0.03771   0.03779  -0.89923
   D34       -3.10728  -0.00157   0.00000  -0.00042  -0.00062  -3.10790
   D35        3.10676   0.00206   0.00000   0.05608   0.05630  -3.12013
   D36        0.93649   0.00025   0.00000   0.01795   0.01789   0.95438
         Item               Value     Threshold  Converged?
 Maximum Force            0.007354     0.000450     NO 
 RMS     Force            0.001565     0.000300     NO 
 Maximum Displacement     0.254613     0.001800     NO 
 RMS     Displacement     0.069460     0.001200     NO 
 Predicted change in Energy=-8.309851D-04
 GradGradGradGradGradGradGradGradGradGradGradGradGradGradGradGradGradGrad

                          Input orientation:                          
 ---------------------------------------------------------------------
 Center     Atomic      Atomic             Coordinates (Angstroms)
 Number     Number       Type             X           Y           Z
 ---------------------------------------------------------------------
      1          6           0       -1.363249    0.745911   -0.905884
      2          6           0       -2.554493    0.796079   -1.630000
      3          1           0       -3.522175    0.767590   -1.140193
      4          6           0       -2.500196    0.886967   -3.017358
      5          1           0       -3.413689    0.934389   -3.600502
      6          6           0       -1.257099    0.919584   -3.642813
      7         17           0       -1.188587    1.040175   -5.381003
      8          6           0       -0.066710    0.861756   -2.923480
      9          1           0        0.889721    0.890544   -3.434517
     10          6           0       -0.121504    0.773717   -1.536283
     11          1           0        0.797237    0.736410   -0.959102
     12         16           0       -1.385846    0.566706    0.868976
     13          8           0       -1.625894   -0.842820    1.182514
     14          8           0       -0.171341    1.198918    1.383546
     15          7           0       -2.657863    1.404465    1.503812
     16          1           0       -3.567739    1.034177    1.224724
     17          1           0       -2.595938    2.405960    1.306992
 ---------------------------------------------------------------------
                    Distance matrix (angstroms):
                    1          2          3          4          5
     1  C    0.000000
     2  C    1.394963   0.000000
     3  H    2.171712   1.084957   0.000000
     4  C    2.402263   1.391392   2.140664   0.000000
     5  H    3.391282   2.154118   2.468342   1.084792   0.000000
     6  C    2.744488   2.397895   3.378873   1.391958   2.157056
     7  Cl   4.488183   3.999413   4.848134   2.707509   2.851746
     8  C    2.401069   2.804723   3.889630   2.435427   3.415539
     9  H    3.389805   3.889449   4.974321   3.415490   4.306833
    10  C    1.392877   2.434896   3.423666   2.804387   3.889125
    11  H    2.161162   3.418736   4.323319   3.890006   4.974744
    12  S    1.784027   2.768254   2.939561   4.055606   4.921744
    13  O    2.637130   3.385044   3.403567   4.625527   5.406655
    14  O    2.620563   3.863050   4.217036   4.988872   5.951767
    15  N    2.813602   3.193994   2.853666   4.553422   5.181338
    16  H    3.079345   3.038554   2.380331   4.376824   4.828716
    17  H    3.028548   3.349530   3.087213   4.584377   5.188229
                    6          7          8          9         10
     6  C    0.000000
     7  Cl   1.743714   0.000000
     8  C    1.392053   2.707371   0.000000
     9  H    2.157097   2.851413   1.084780   0.000000
    10  C    2.397566   3.998941   1.391068   2.153954   0.000000
    11  H    3.384694   4.856848   2.149627   2.481933   1.085640
    12  S    4.527399   6.270990   4.026152   4.878845   2.725194
    13  O    5.150326   6.842270   4.711245   5.536231   3.502605
    14  O    5.149873   6.842449   4.321470   4.943146   2.951048
    15  N    5.355839   7.049266   5.158443   6.102177   4.009132
    16  H    5.389352   7.021113   5.430888   6.449660   4.423521
    17  H    5.338761   6.969596   5.165119   6.076859   4.107462
                   11         12         13         14         15
    11  H    0.000000
    12  S    2.852458   0.000000
    13  O    3.598896   1.463793   0.000000
    14  O    2.576832   1.462702   2.514921   0.000000
    15  N    4.295342   1.650117   2.493688   2.497900   0.000000
    16  H    4.889865   2.259590   2.701048   3.404098   1.021213
    17  H    4.408652   2.244780   3.392794   2.709516   1.022529
                   16         17
    16  H    0.000000
    17  H    1.683138   0.000000
 Stoichiometry    C6H6ClNO2S
 Framework group  C1[X(C6H6ClNO2S)]
 Deg. of freedom    45
 Full point group                 C1      NOp   1
 Largest Abelian subgroup         C1      NOp   1
 Largest concise Abelian subgroup C1      NOp   1
                         Standard orientation:                         
 ---------------------------------------------------------------------
 Center     Atomic      Atomic             Coordinates (Angstroms)
 Number     Number       Type             X           Y           Z
 ---------------------------------------------------------------------
      1          6           0        0.472368   -0.028785    0.000437
      2          6           0       -0.189203    1.198700    0.039539
      3          1           0        0.352106    2.138418    0.071865
      4          6           0       -1.580448    1.218459    0.035080
      5          1           0       -2.116088    2.161509    0.057909
      6          6           0       -2.271831    0.010937   -0.002714
      7         17           0       -4.015329    0.035474   -0.015022
      8          6           0       -1.614510   -1.215754   -0.033844
      9          1           0       -2.176400   -2.143156   -0.064710
     10          6           0       -0.223575   -1.234896   -0.032197
     11          1           0        0.305221   -2.182482   -0.064925
     12         16           0        2.253586   -0.103315    0.067208
     13          8           0        2.665616    0.064721    1.461728
     14          8           0        2.663056   -1.316460   -0.639977
     15          7           0        2.902265    1.166934   -0.762592
     16          1           0        2.695200    2.074473   -0.342622
     17          1           0        2.641145    1.154634   -1.751142
 ---------------------------------------------------------------------
 Rotational constants (GHZ):           2.5929034           0.3966564           0.3703503
 Basis read from rwf:  (6D, 7F)
 There are   229 symmetry adapted cartesian basis functions of A   symmetry.
 There are   229 symmetry adapted basis functions of A   symmetry.
   229 basis functions,   424 primitive gaussians,   229 cartesian basis functions
    49 alpha electrons       49 beta electrons
       nuclear repulsion energy       794.7865221585 Hartrees.
 NAtoms=   17 NActive=   17 NUniq=   17 SFac= 1.00D+00 NAtFMM=   60 NAOKFM=F Big=F
 Integral buffers will be    131072 words long.
 Raffenetti 2 integral format.
 Two-electron integral symmetry is turned on.
 ------------------------------------------------------------------------------
 Polarizable Continuum Model (PCM)
 =================================
 Model                : PCM.
 Atomic radii         : SMD-Coulomb.
 Polarization charges : Total charges.
 Charge compensation  : None.
 Solution method      : On-the-fly selection.
 Cavity type          : VdW (van der Waals Surface) (Alpha=1.000).
 Cavity algorithm     : GePol (No added spheres)
                        Default sphere list used, NSphG=   17.
                        Lebedev-Laikov grids with approx.  5.0 points / Ang**2.
                        Smoothing algorithm: York/Karplus (Gamma=1.0000).
                        Polarization charges: spherical gaussians, with
                                              point-specific exponents (IZeta= 3).
                        Self-potential: point-specific (ISelfS= 7).
                        Self-field    : sphere-specific E.n sum rule (ISelfD= 2).
 1st derivatives      : Analytical E(r).r(x)/FMM algorithm (CHGder, D1EAlg=3).
                        Cavity 1st derivative terms included.
 Solvent              : Water, Eps=  78.355300 Eps(inf)=   1.777849
 ------------------------------------------------------------------------------
 Spheres list:
 ISph  on   Nord     Re0    Alpha      Xe            Ye            Ze
    1   C      1    1.8500  1.000      0.472368     -0.028785      0.000437
    2   C      2    1.8500  1.000     -0.189203      1.198700      0.039539
    3   H      3    1.2000  1.000      0.352106      2.138418      0.071865
    4   C      4    1.8500  1.000     -1.580448      1.218459      0.035080
    5   H      5    1.2000  1.000     -2.116088      2.161509      0.057909
    6   C      6    1.8500  1.000     -2.271831      0.010937     -0.002714
    7  Cl      7    2.3800  1.000     -4.015329      0.035474     -0.015022
    8   C      8    1.8500  1.000     -1.614510     -1.215754     -0.033844
    9   H      9    1.2000  1.000     -2.176400     -2.143156     -0.064710
   10   C     10    1.8500  1.000     -0.223575     -1.234896     -0.032197
   11   H     11    1.2000  1.000      0.305221     -2.182482     -0.064925
   12   S     12    2.4900  1.000      2.253586     -0.103315      0.067208
   13   O     13    1.5200  1.000      2.665616      0.064721      1.461728
   14   O     14    1.5200  1.000      2.663056     -1.316460     -0.639977
   15   N     15    1.8900  1.000      2.902265      1.166934     -0.762592
   16   H     16    1.2000  1.000      2.695200      2.074473     -0.342622
   17   H     17    1.2000  1.000      2.641145      1.154634     -1.751142
 ------------------------------------------------------------------------------
 ------------------------------------------------------------------------------
 Atomic radii for non-electrostatic terms: SMD-CDS.
 ------------------------------------------------------------------------------
 Nuclear repulsion after PCM non-electrostatic terms =      794.7921892232 Hartrees.
 One-electron integrals computed using PRISM.
 NBasis=   229 RedAO= T EigKep=  1.75D-06  NBF=   229
 NBsUse=   229 1.00D-06 EigRej= -1.00D+00 NBFU=   229
 Initial guess from the checkpoint file:  "/jobfs/40639111.gadi-pbs/Gau-77591.chk"
 B after Tr=    -0.000000    0.000000    0.000000
         Rot=    0.999806    0.019648    0.000318    0.000906 Ang=   2.25 deg.
 ExpMin= 4.05D-02 ExpMax= 2.52D+04 ExpMxC= 3.78D+03 IAcc=3 IRadAn=         5 AccDes= 0.00D+00
 Harris functional with IExCor= 1009 and IRadAn=       5 diagonalized for initial guess.
 HarFok:  IExCor= 1009 AccDes= 0.00D+00 IRadAn=         5 IDoV= 1 UseB2=F ITyADJ=14
 ICtDFT=  3500011 ScaDFX=  1.000000  1.000000  1.000000  1.000000
 FoFCou: FMM=F IPFlag=           0 FMFlag=      100000 FMFlg1=           0
         NFxFlg=           0 DoJE=T BraDBF=F KetDBF=T FulRan=T
         wScrn=  0.000000 ICntrl=       500 IOpCl=  0 I1Cent=   200000004 NGrid=           0
         NMat0=    1 NMatS0=      1 NMatT0=    0 NMatD0=    1 NMtDS0=    0 NMtDT0=    0
 Petite list used in FoFCou.
 Requested convergence on RMS density matrix=1.00D-08 within 128 cycles.
 Requested convergence on MAX density matrix=1.00D-06.
 Requested convergence on             energy=1.00D-06.
 No special actions if energy rises.
 Inv3:  Mode=1 IEnd=     7470252.
 Iteration    1 A*A^-1 deviation from unit magnitude is 3.33D-15 for   1567.
 Iteration    1 A*A^-1 deviation from orthogonality  is 1.88D-15 for    531    251.
 Iteration    1 A^-1*A deviation from unit magnitude is 3.33D-15 for   1567.
 Iteration    1 A^-1*A deviation from orthogonality  is 2.19D-14 for    617    556.
 Error on total polarization charges =  0.03318
 SCF Done:  E(RM062X) =  -1295.55914210     A.U. after   14 cycles
            NFock= 14  Conv=0.97D-08     -V/T= 2.0050
 SMD-CDS (non-electrostatic) energy       (kcal/mol) =       3.56
 (included in total energy above)
 D1PCM: PCM CHGder 1st derivatives, ID1Alg=3 FixD1E=F DoIter=F DoCFld=F I1PDM=0.
 Calling FoFJK, ICntrl=      2127 FMM=F ISym2X=0 I1Cent= 0 IOpClX= 0 NMat=1 NMatS=1 NMatT=0.
 ***** Axes restored to original set *****
 -------------------------------------------------------------------
 Center     Atomic                   Forces (Hartrees/Bohr)
 Number     Number              X              Y              Z
 -------------------------------------------------------------------
      1        6          -0.001777589    0.000958524   -0.000571774
      2        6           0.001331843   -0.000785089    0.000685660
      3        1          -0.000719777    0.000181846    0.000919988
      4        6          -0.000190688   -0.000039529    0.000386717
      5        1          -0.000053647   -0.000023981    0.000176496
      6        6           0.000646342    0.000012434   -0.000301372
      7       17          -0.000021347   -0.000031284   -0.000027327
      8        6          -0.000122557    0.000036321   -0.000507406
      9        1           0.000031951   -0.000075008    0.000049515
     10        6           0.000600389    0.000705332    0.000694821
     11        1          -0.000241313    0.000137933   -0.000129363
     12       16          -0.000736680    0.000790794    0.001352921
     13        8          -0.001556161   -0.001130320    0.000090456
     14        8          -0.000123738    0.000270103    0.000097677
     15        7           0.002800884    0.000547455   -0.002965407
     16        1           0.000107775   -0.001272525    0.000017281
     17        1           0.000024314   -0.000283007    0.000031116
 -------------------------------------------------------------------
 Cartesian Forces:  Max     0.002965407 RMS     0.000846780

 GradGradGradGradGradGradGradGradGradGradGradGradGradGradGradGradGradGrad
 Berny optimization.
 Using GEDIIS/GDIIS optimizer.
 FormGI is forming the generalized inverse of G from B-inverse, IUseBI=4.
 Internal  Forces:  Max     0.004187574 RMS     0.000876105
 Search for a local minimum.
 Step number   2 out of a maximum of   90
 All quantities printed in internal units (Hartrees-Bohrs-Radians)
 Mixed Optimization -- En-DIIS/RFO-DIIS
 Update second derivatives using D2CorX and points    1    2
 DE= -6.42D-04 DEPred=-8.31D-04 R= 7.73D-01
 TightC=F SS=  1.41D+00  RLast= 2.49D-01 DXNew= 5.0454D-01 7.4593D-01
 Trust test= 7.73D-01 RLast= 2.49D-01 DXMaxT set to 5.05D-01
 ITU=  1  0
 Use linear search instead of GDIIS.
     Eigenvalues ---    0.00532   0.01598   0.01857   0.02181   0.02185
     Eigenvalues ---    0.02189   0.02192   0.02193   0.02194   0.02196
     Eigenvalues ---    0.02200   0.04273   0.09182   0.11406   0.14618
     Eigenvalues ---    0.15942   0.15999   0.16000   0.16000   0.16000
     Eigenvalues ---    0.16684   0.19881   0.21999   0.23024   0.24016
     Eigenvalues ---    0.24288   0.25000   0.27544   0.31092   0.31264
     Eigenvalues ---    0.35333   0.35427   0.35428   0.35629   0.42440
     Eigenvalues ---    0.42680   0.43827   0.43966   0.44967   0.46821
     Eigenvalues ---    0.46908   0.47090   0.47976   0.90292   0.90625
 RFO step:  Lambda=-3.14007488D-04 EMin= 5.31840495D-03
 Quartic linear search produced a step of -0.07498.
 Iteration  1 RMS(Cart)=  0.03785068 RMS(Int)=  0.00052075
 Iteration  2 RMS(Cart)=  0.00072878 RMS(Int)=  0.00000809
 Iteration  3 RMS(Cart)=  0.00000022 RMS(Int)=  0.00000809
 Variable       Old X    -DE/DX   Delta X   Delta X   Delta X     New X
                                 (Linear)    (Quad)   (Total)
    R1        2.63610  -0.00183  -0.00028  -0.00274  -0.00302   2.63308
    R2        2.63216   0.00015   0.00002   0.00019   0.00020   2.63236
    R3        3.37132  -0.00126  -0.00084  -0.00121  -0.00205   3.36927
    R4        2.05027   0.00105   0.00008   0.00245   0.00253   2.05280
    R5        2.62935  -0.00019  -0.00001  -0.00040  -0.00041   2.62894
    R6        2.04996  -0.00005  -0.00001  -0.00010  -0.00011   2.04985
    R7        2.63042   0.00075   0.00011   0.00114   0.00125   2.63167
    R8        3.29514   0.00002   0.00001   0.00003   0.00004   3.29519
    R9        2.63060   0.00001   0.00010  -0.00020  -0.00010   2.63050
   R10        2.04994   0.00000  -0.00001   0.00003   0.00002   2.04996
   R11        2.62874   0.00042   0.00003   0.00078   0.00081   2.62955
   R12        2.05156  -0.00028  -0.00001  -0.00068  -0.00069   2.05087
   R13        2.76617   0.00137  -0.00020   0.00208   0.00188   2.76805
   R14        2.76411   0.00005  -0.00005   0.00021   0.00016   2.76426
   R15        3.11827  -0.00391   0.00014  -0.00891  -0.00878   3.10949
   R16        1.92981   0.00036   0.00016   0.00020   0.00035   1.93017
   R17        1.93230  -0.00029  -0.00003  -0.00050  -0.00053   1.93177
    A1        2.12427   0.00093   0.00046   0.00152   0.00198   2.12626
    A2        2.10508  -0.00209  -0.00217   0.00003  -0.00213   2.10294
    A3        2.05280   0.00116   0.00174  -0.00159   0.00015   2.05296
    A4        2.12511  -0.00040  -0.00107   0.00148   0.00041   2.12552
    A5        2.07900  -0.00020  -0.00019  -0.00060  -0.00079   2.07822
    A6        2.07906   0.00060   0.00126  -0.00088   0.00037   2.07944
    A7        2.10133  -0.00022   0.00004  -0.00137  -0.00133   2.10001
    A8        2.07649   0.00007  -0.00006   0.00051   0.00045   2.07694
    A9        2.10536   0.00015   0.00001   0.00086   0.00087   2.10623
   A10        2.07673   0.00003  -0.00007   0.00011   0.00005   2.07677
   A11        2.13001  -0.00014   0.00011  -0.00047  -0.00036   2.12964
   A12        2.07645   0.00011  -0.00005   0.00036   0.00032   2.07676
   A13        2.10530   0.00017   0.00002   0.00047   0.00049   2.10579
   A14        2.07630  -0.00022  -0.00004  -0.00023  -0.00027   2.07603
   A15        2.10156   0.00005   0.00003  -0.00025  -0.00022   2.10134
   A16        2.08026  -0.00043  -0.00028  -0.00071  -0.00100   2.07926
   A17        2.10963   0.00021   0.00009   0.00047   0.00056   2.11020
   A18        2.09325   0.00023   0.00019   0.00025   0.00044   2.09370
   A19        1.88799   0.00113  -0.00028   0.00465   0.00435   1.89233
   A20        1.87135   0.00112   0.00096   0.00146   0.00242   1.87378
   A21        1.91932  -0.00419  -0.00176  -0.01295  -0.01472   1.90461
   A22        2.06805   0.00031   0.00157   0.00303   0.00459   2.07264
   A23        1.85465   0.00035  -0.00020  -0.00122  -0.00142   1.85323
   A24        1.86010   0.00073  -0.00063   0.00328   0.00264   1.86273
   A25        1.97969  -0.00139  -0.00224   0.00018  -0.00204   1.97765
   A26        1.95683   0.00034  -0.00056   0.00428   0.00374   1.96057
   A27        1.93531   0.00072  -0.00049   0.00640   0.00594   1.94125
    D1        3.13412   0.00016   0.00079   0.00439   0.00519   3.13931
    D2       -0.00907   0.00008   0.00032   0.00289   0.00322  -0.00585
    D3        0.04244   0.00011  -0.00010   0.00530   0.00520   0.04764
    D4       -3.10075   0.00003  -0.00056   0.00380   0.00323  -3.09752
    D5        0.00674  -0.00011  -0.00015  -0.00481  -0.00496   0.00178
    D6        3.13895  -0.00006  -0.00003  -0.00354  -0.00357   3.13538
    D7        3.09986  -0.00014   0.00063  -0.00566  -0.00504   3.09482
    D8       -0.05112  -0.00010   0.00075  -0.00438  -0.00365  -0.05476
    D9        1.38252  -0.00141   0.00583  -0.07489  -0.06907   1.31345
   D10       -2.65171   0.00048   0.00827  -0.06705  -0.05877  -2.71048
   D11       -0.63598  -0.00021   0.00714  -0.06906  -0.06191  -0.69789
   D12       -1.71116  -0.00146   0.00500  -0.07410  -0.06911  -1.78027
   D13        0.53780   0.00042   0.00744  -0.06626  -0.05882   0.47898
   D14        2.55353  -0.00026   0.00631  -0.06827  -0.06195   2.49158
   D15       -3.13400  -0.00000  -0.00007   0.00005  -0.00002  -3.13401
   D16        0.00461  -0.00001  -0.00017   0.00042   0.00025   0.00486
   D17        0.00604  -0.00008  -0.00053  -0.00141  -0.00193   0.00411
   D18       -3.13853  -0.00009  -0.00063  -0.00104  -0.00167  -3.14020
   D19       -3.13719  -0.00003  -0.00018  -0.00082  -0.00101  -3.13820
   D20        0.00198  -0.00005  -0.00015  -0.00181  -0.00196   0.00003
   D21        0.00141  -0.00004  -0.00029  -0.00045  -0.00074   0.00067
   D22        3.14058  -0.00005  -0.00026  -0.00144  -0.00169   3.13889
   D23       -3.13980   0.00000   0.00020  -0.00028  -0.00009  -3.13989
   D24       -0.00431   0.00002   0.00033  -0.00011   0.00022  -0.00409
   D25       -0.00062  -0.00002   0.00023  -0.00127  -0.00104  -0.00166
   D26        3.13487   0.00001   0.00036  -0.00109  -0.00073   3.13414
   D27       -0.00004   0.00006  -0.00017   0.00336   0.00319   0.00315
   D28       -3.13233   0.00001  -0.00028   0.00210   0.00180  -3.13053
   D29        3.13547   0.00008  -0.00004   0.00354   0.00349   3.13896
   D30        0.00317   0.00004  -0.00016   0.00228   0.00211   0.00528
   D31        1.14022   0.00022  -0.00414   0.02440   0.02027   1.16049
   D32       -1.06845   0.00010  -0.00126   0.01190   0.01066  -1.05780
   D33       -0.89923   0.00083  -0.00283   0.02621   0.02336  -0.87587
   D34       -3.10790   0.00071   0.00005   0.01370   0.01375  -3.09415
   D35       -3.12013  -0.00018  -0.00422   0.02135   0.01712  -3.10301
   D36        0.95438  -0.00030  -0.00134   0.00885   0.00751   0.96189
         Item               Value     Threshold  Converged?
 Maximum Force            0.004188     0.000450     NO 
 RMS     Force            0.000876     0.000300     NO 
 Maximum Displacement     0.137968     0.001800     NO 
 RMS     Displacement     0.037870     0.001200     NO 
 Predicted change in Energy=-1.886573D-04
 GradGradGradGradGradGradGradGradGradGradGradGradGradGradGradGradGradGrad

                          Input orientation:                          
 ---------------------------------------------------------------------
 Center     Atomic      Atomic             Coordinates (Angstroms)
 Number     Number       Type             X           Y           Z
 ---------------------------------------------------------------------
      1          6           0       -1.368548    0.736761   -0.904018
      2          6           0       -2.558108    0.765812   -1.628979
      3          1           0       -3.527181    0.717793   -1.140479
      4          6           0       -2.502483    0.863169   -3.015626
      5          1           0       -3.416136    0.894478   -3.599498
      6          6           0       -1.258550    0.922844   -3.638894
      7         17           0       -1.189186    1.050031   -5.376603
      8          6           0       -0.068891    0.888038   -2.916973
      9          1           0        0.888154    0.937553   -3.425285
     10          6           0       -0.125380    0.795587   -1.529699
     11          1           0        0.791871    0.777643   -0.949913
     12         16           0       -1.393794    0.545275    0.868431
     13          8           0       -1.698904   -0.853399    1.178631
     14          8           0       -0.156544    1.127526    1.387989
     15          7           0       -2.632242    1.433338    1.489053
     16          1           0       -3.553845    1.087718    1.216190
     17          1           0       -2.535596    2.430361    1.285102
 ---------------------------------------------------------------------
                    Distance matrix (angstroms):
                    1          2          3          4          5
     1  C    0.000000
     2  C    1.393364   0.000000
     3  H    2.171628   1.086297   0.000000
     4  C    2.400140   1.391173   2.141802   0.000000
     5  H    3.388673   2.153071   2.467858   1.084735   0.000000
     6  C    2.743406   2.398597   3.380948   1.392621   2.158132
     7  Cl   4.487129   3.999927   4.849881   2.708113   2.853350
     8  C    2.400829   2.805364   3.891617   2.435717   3.416128
     9  H    3.389662   3.890107   4.976326   3.416105   4.308030
    10  C    1.392984   2.434935   3.424879   2.804134   3.888821
    11  H    2.161293   3.418132   4.323668   3.889377   4.974060
    12  S    1.782941   2.764293   2.935442   4.051684   4.916727
    13  O    2.641055   3.353021   3.345073   4.602623   5.369775
    14  O    2.622012   3.873040   4.233465   4.996512   5.962741
    15  N    2.794447   3.189547   2.868338   4.542473   5.176700
    16  H    3.064959   3.031517   2.385674   4.366239   4.821530
    17  H    3.003753   3.356054   3.130427   4.577494   5.195538
                    6          7          8          9         10
     6  C    0.000000
     7  Cl   1.743737   0.000000
     8  C    1.392002   2.707597   0.000000
     9  H    2.157356   2.852304   1.084790   0.000000
    10  C    2.397702   3.999387   1.391498   2.154217   0.000000
    11  H    3.384661   4.857403   2.149982   2.482400   1.085275
    12  S    4.525133   6.268739   4.025187   4.878234   2.724437
    13  O    5.153397   6.844994   4.739569   5.576417   3.539800
    14  O    5.150327   6.843395   4.312509   4.929005   2.936675
    15  N    5.333243   7.026135   5.126518   6.065453   3.975419
    16  H    5.372839   7.004138   5.409973   6.426289   4.402229
    17  H    5.305581   6.935160   5.110854   6.011513   4.050276
                   11         12         13         14         15
    11  H    0.000000
    12  S    2.852630   0.000000
    13  O    3.659912   1.464789   0.000000
    14  O    2.547096   1.462786   2.519279   0.000000
    15  N    4.254767   1.645473   2.489307   2.496561   0.000000
    16  H    4.865531   2.254108   2.685173   3.401875   1.021401
    17  H    4.335759   2.242961   3.390349   2.714379   1.022248
                   16         17
    16  H    0.000000
    17  H    1.686496   0.000000
 Stoichiometry    C6H6ClNO2S
 Framework group  C1[X(C6H6ClNO2S)]
 Deg. of freedom    45
 Full point group                 C1      NOp   1
 Largest Abelian subgroup         C1      NOp   1
 Largest concise Abelian subgroup C1      NOp   1
                         Standard orientation:                         
 ---------------------------------------------------------------------
 Center     Atomic      Atomic             Coordinates (Angstroms)
 Number     Number       Type             X           Y           Z
 ---------------------------------------------------------------------
      1          6           0        0.473542   -0.028771    0.001588
      2          6           0       -0.186617    1.197707    0.039054
      3          1           0        0.355482    2.138606    0.068739
      4          6           0       -1.577646    1.217121    0.034068
      5          1           0       -2.112243    2.160725    0.055684
      6          6           0       -2.269599    0.009119   -0.002331
      7         17           0       -4.013123    0.033886   -0.013744
      8          6           0       -1.612092   -1.217405   -0.033855
      9          1           0       -2.173382   -2.145222   -0.063523
     10          6           0       -0.220717   -1.235899   -0.033792
     11          1           0        0.308731   -2.182630   -0.068521
     12         16           0        2.253557   -0.100614    0.074156
     13          8           0        2.671590    0.161705    1.453302
     14          8           0        2.666054   -1.352530   -0.560110
     15          7           0        2.879882    1.119637   -0.834847
     16          1           0        2.680522    2.047779   -0.457927
     17          1           0        2.605511    1.052400   -1.817289
 ---------------------------------------------------------------------
 Rotational constants (GHZ):           2.5917466           0.3973619           0.3709614
 Basis read from rwf:  (6D, 7F)
 There are   229 symmetry adapted cartesian basis functions of A   symmetry.
 There are   229 symmetry adapted basis functions of A   symmetry.
   229 basis functions,   424 primitive gaussians,   229 cartesian basis functions
    49 alpha electrons       49 beta electrons
       nuclear repulsion energy       795.2268413580 Hartrees.
 NAtoms=   17 NActive=   17 NUniq=   17 SFac= 1.00D+00 NAtFMM=   60 NAOKFM=F Big=F
 Integral buffers will be    131072 words long.
 Raffenetti 2 integral format.
 Two-electron integral symmetry is turned on.
 ------------------------------------------------------------------------------
 Polarizable Continuum Model (PCM)
 =================================
 Model                : PCM.
 Atomic radii         : SMD-Coulomb.
 Polarization charges : Total charges.
 Charge compensation  : None.
 Solution method      : On-the-fly selection.
 Cavity type          : VdW (van der Waals Surface) (Alpha=1.000).
 Cavity algorithm     : GePol (No added spheres)
                        Default sphere list used, NSphG=   17.
                        Lebedev-Laikov grids with approx.  5.0 points / Ang**2.
                        Smoothing algorithm: York/Karplus (Gamma=1.0000).
                        Polarization charges: spherical gaussians, with
                                              point-specific exponents (IZeta= 3).
                        Self-potential: point-specific (ISelfS= 7).
                        Self-field    : sphere-specific E.n sum rule (ISelfD= 2).
 1st derivatives      : Analytical E(r).r(x)/FMM algorithm (CHGder, D1EAlg=3).
                        Cavity 1st derivative terms included.
 Solvent              : Water, Eps=  78.355300 Eps(inf)=   1.777849
 ------------------------------------------------------------------------------
 Spheres list:
 ISph  on   Nord     Re0    Alpha      Xe            Ye            Ze
    1   C      1    1.8500  1.000      0.473542     -0.028771      0.001588
    2   C      2    1.8500  1.000     -0.186617      1.197707      0.039054
    3   H      3    1.2000  1.000      0.355482      2.138606      0.068739
    4   C      4    1.8500  1.000     -1.577646      1.217121      0.034068
    5   H      5    1.2000  1.000     -2.112243      2.160725      0.055684
    6   C      6    1.8500  1.000     -2.269599      0.009119     -0.002331
    7  Cl      7    2.3800  1.000     -4.013123      0.033886     -0.013744
    8   C      8    1.8500  1.000     -1.612092     -1.217405     -0.033855
    9   H      9    1.2000  1.000     -2.173382     -2.145222     -0.063523
   10   C     10    1.8500  1.000     -0.220717     -1.235899     -0.033792
   11   H     11    1.2000  1.000      0.308731     -2.182630     -0.068521
   12   S     12    2.4900  1.000      2.253557     -0.100614      0.074156
   13   O     13    1.5200  1.000      2.671590      0.161705      1.453302
   14   O     14    1.5200  1.000      2.666054     -1.352530     -0.560110
   15   N     15    1.8900  1.000      2.879882      1.119637     -0.834847
   16   H     16    1.2000  1.000      2.680522      2.047779     -0.457927
   17   H     17    1.2000  1.000      2.605511      1.052400     -1.817289
 ------------------------------------------------------------------------------
 ------------------------------------------------------------------------------
 Atomic radii for non-electrostatic terms: SMD-CDS.
 ------------------------------------------------------------------------------
 Nuclear repulsion after PCM non-electrostatic terms =      795.2325012463 Hartrees.
 One-electron integrals computed using PRISM.
 NBasis=   229 RedAO= T EigKep=  1.74D-06  NBF=   229
 NBsUse=   229 1.00D-06 EigRej= -1.00D+00 NBFU=   229
 Initial guess from the checkpoint file:  "/jobfs/40639111.gadi-pbs/Gau-77591.chk"
 B after Tr=     0.000000   -0.000000    0.000000
         Rot=    0.999874    0.015886   -0.000389   -0.000391 Ang=   1.82 deg.
 ExpMin= 4.05D-02 ExpMax= 2.52D+04 ExpMxC= 3.78D+03 IAcc=3 IRadAn=         5 AccDes= 0.00D+00
 Harris functional with IExCor= 1009 and IRadAn=       5 diagonalized for initial guess.
 HarFok:  IExCor= 1009 AccDes= 0.00D+00 IRadAn=         5 IDoV= 1 UseB2=F ITyADJ=14
 ICtDFT=  3500011 ScaDFX=  1.000000  1.000000  1.000000  1.000000
 FoFCou: FMM=F IPFlag=           0 FMFlag=      100000 FMFlg1=           0
         NFxFlg=           0 DoJE=T BraDBF=F KetDBF=T FulRan=T
         wScrn=  0.000000 ICntrl=       500 IOpCl=  0 I1Cent=   200000004 NGrid=           0
         NMat0=    1 NMatS0=      1 NMatT0=    0 NMatD0=    1 NMtDS0=    0 NMtDT0=    0
 Petite list used in FoFCou.
 Requested convergence on RMS density matrix=1.00D-08 within 128 cycles.
 Requested convergence on MAX density matrix=1.00D-06.
 Requested convergence on             energy=1.00D-06.
 No special actions if energy rises.
 Inv3:  Mode=1 IEnd=     7451328.
 Iteration    1 A*A^-1 deviation from unit magnitude is 3.77D-15 for   1574.
 Iteration    1 A*A^-1 deviation from orthogonality  is 1.83D-15 for    539    229.
 Iteration    1 A^-1*A deviation from unit magnitude is 3.77D-15 for   1574.
 Iteration    1 A^-1*A deviation from orthogonality  is 1.86D-14 for    584    558.
 Error on total polarization charges =  0.03318
 SCF Done:  E(RM062X) =  -1295.55944267     A.U. after   14 cycles
            NFock= 14  Conv=0.40D-08     -V/T= 2.0050
 SMD-CDS (non-electrostatic) energy       (kcal/mol) =       3.55
 (included in total energy above)
 D1PCM: PCM CHGder 1st derivatives, ID1Alg=3 FixD1E=F DoIter=F DoCFld=F I1PDM=0.
 Calling FoFJK, ICntrl=      2127 FMM=F ISym2X=0 I1Cent= 0 IOpClX= 0 NMat=1 NMatS=1 NMatT=0.
 ***** Axes restored to original set *****
 -------------------------------------------------------------------
 Center     Atomic                   Forces (Hartrees/Bohr)
 Number     Number              X              Y              Z
 -------------------------------------------------------------------
      1        6           0.001342582    0.000101637    0.000206406
      2        6          -0.000354225   -0.000699360    0.000181503
      3        1           0.000068621   -0.000029987    0.000560617
      4        6          -0.000127750    0.000021385    0.000226941
      5        1           0.000000661   -0.000009713    0.000006693
      6        6           0.000418008    0.000013375   -0.000031226
      7       17          -0.000042390   -0.000066098    0.000018047
      8        6          -0.000129997    0.000206066   -0.000397109
      9        1          -0.000003567    0.000014230   -0.000008878
     10        6          -0.000027865    0.000457513   -0.000168530
     11        1          -0.000185123   -0.000017380    0.000015208
     12       16          -0.000511532    0.000176112    0.000267911
     13        8          -0.000837527    0.000227491   -0.000385599
     14        8          -0.000347914   -0.000473471   -0.000016730
     15        7           0.000831752    0.000967130   -0.000554907
     16        1           0.000159484   -0.000612526    0.000072122
     17        1          -0.000253220   -0.000276400    0.000007532
 -------------------------------------------------------------------
 Cartesian Forces:  Max     0.001342582 RMS     0.000387492

 GradGradGradGradGradGradGradGradGradGradGradGradGradGradGradGradGradGrad
 Berny optimization.
 Using GEDIIS/GDIIS optimizer.
 FormGI is forming the generalized inverse of G from B-inverse, IUseBI=4.
 Internal  Forces:  Max     0.002505839 RMS     0.000465502
 Search for a local minimum.
 Step number   3 out of a maximum of   90
 All quantities printed in internal units (Hartrees-Bohrs-Radians)
 Mixed Optimization -- En-DIIS/RFO-DIIS
 Swapping is turned off.
[...]
   zx         0.196158D+02      0.290677D+01      0.323421D+01
   zy         0.477363D+02      0.707379D+01      0.787066D+01
   zz         0.142681D+03      0.211431D+02      0.235249D+02

 ----------------------------------------------------------------------
 Unable to Open any file for archive entry.
 1\1\GINC-GADI-CPU-CLX-1258\Freq\RM062X\Gen\C6H6Cl1N1O2S1\YJ5695\19-May
 -2022\0\\#N Geom=AllCheck Guess=TCheck SCRF=Check GenChk RM062X/ChkBas
  Freq\\a2 b1\\0,1\C,-1.4735701368,0.5717169889,-0.9135076183\C,-2.5736
 721445,0.2740072665,-1.7145008455\H,-3.4914125955,-0.111443358,-1.2814
 467163\C,-2.4793304535,0.4692386434,-3.0888041247\H,-3.3194701269,0.23
 93736105,-3.735324935\C,-1.2883981502,0.9588715841,-3.619575349\Cl,-1.
 1689424077,1.2008290691,-5.3423472929\C,-0.189001501,1.2593131909,-2.8
 19039691\H,0.7284822507,1.6357710333,-3.2585454127\C,-0.2836485149,1.0
 639318537,-1.4447890772\H,0.5634988219,1.2873082137,-0.8038334725\S,-1
 .6117587933,0.3710916587,0.8477593085\O,-2.6411889425,-0.6345868875,1.
 1075705699\O,-0.2652791963,0.1855203381,1.3873783848\N,-2.1747834476,1
 .7809974788,1.4966800663\H,-3.1076819384,2.011851894,1.1480988125\H,-1
 .5292077235,2.5567354218,1.3336573931\\Version=ES64L-G16RevC.01\State=
 1-A\HF=-1295.5610341\RMSD=1.744e-09\RMSF=3.701e-06\ZeroPoint=0.1191173
 \Thermal=0.1291479\ETot=-1295.4318861\HTot=-1295.430942\GTot=-1295.479
 4288\Dipole=-0.5903425,2.2660289,-1.6301473\DipoleDeriv=-0.2157805,0.0
 535895,0.0090695,0.0481811,-0.3708354,0.1022325,0.0248417,0.056585,-0.
 5729754,-0.0513083,-0.0078949,0.257096,0.0545425,-0.0715394,0.0347515,
 -0.2100694,-0.1158895,0.0376284,0.0940901,-0.0326112,0.0213543,-0.0358
 675,0.1717755,0.0135119,0.0444631,0.0207164,0.1145483,-0.1455096,-0.02
 27087,0.1441995,-0.0376685,-0.149731,0.0906664,0.2823184,0.1310365,-0.
 4063646,0.0942917,-0.0325567,-0.04353,-0.0332596,0.186851,0.0055183,-0
 .0640676,-0.007839,0.049502,0.2745173,0.1086001,-0.0820739,0.1100594,0
 .0624095,-0.2318112,-0.0863297,-0.219412,1.6778294,-0.1393207,-0.02699
 57,0.0700848,-0.0279105,-0.1098596,0.1475818,0.0727621,0.1398055,-1.16
 75844,-0.0905348,0.0240141,-0.1006412,0.0370866,-0.1143577,0.01276,-0.
 233285,-0.0435669,-0.4966743,0.0785828,-0.0468215,0.0334648,-0.047434,
 0.1789076,0.031056,0.0578733,0.0331863,0.073151,-0.0360423,0.0441077,-
 0.2359036,-0.014591,-0.0792593,-0.1440315,0.2204313,0.0381133,0.030028
 6,0.1066834,-0.0266547,-0.0288156,-0.0236624,0.1765406,-0.0028901,-0.0
 512248,-0.0121065,0.0972344,3.0795908,0.0644652,-0.0592687,0.0421935,2
 .9765004,-0.010992,0.0060849,-0.2004726,3.6302938,-1.2750089,-0.521172
 3,0.3465298,-0.408128,-1.3011712,0.3037322,0.1682459,0.1950899,-1.1784
 182,-1.5687582,0.1990522,-0.5300636,0.0789728,-0.8494782,0.0704835,-0.
 3311811,0.119447,-1.3364067,-0.827149,0.2041887,0.2449048,0.2435753,-1
 .2653017,-0.4930507,0.1295107,-0.1586257,-1.3625725,0.3693998,-0.07751
 22,-0.1296396,0.0022345,0.2405562,-0.0044393,-0.0706498,-0.0198103,0.3
 855215,0.2522562,0.0969105,0.0832327,0.011676,0.3179925,0.0749207,0.04
 02761,0.0437428,0.4252587\Polar=154.6099608,19.3793443,107.9218079,-2.
 0413777,-8.9136753,204.4903056\Quadrupole=8.4398224,4.0201478,-12.4599
 703,0.1396083,-1.4812016,11.3761916\PG=C01 [X(C6H6Cl1N1O2S1)]\NImag=0\
 \0.64982166,0.17887779,0.20599875,0.02997826,-0.02784642,0.54210253,-0
 .25950376,-0.05552891,-0.12692351,0.67711312,-0.06401722,-0.08028926,-
 0.03243275,0.19498359,0.21851346,-0.06899120,-0.01189154,-0.18028286,-
 0.01336979,-0.06839715,0.69026325,-0.01461841,-0.00776085,0.00893828,-
 0.26913382,-0.09469443,0.09870734,0.27942995,-0.00485274,0.00153494,0.
 00252849,-0.09565636,-0.07903242,0.04317919,0.10475302,0.06992754,-0.0
 1508401,-0.00637225,0.01180987,0.09851865,0.04308956,-0.10358461,-0.10
 417999,-0.04722334,0.10671635,0.04199969,0.01261844,-0.01622962,-0.123
 88914,-0.01765813,-0.02541992,0.00422989,-0.00324642,0.02605191,0.6696
 1846,0.02041878,0.01589138,-0.00005782,-0.02683620,-0.07665390,0.02413
 745,-0.00024756,0.00387587,0.01087927,0.18578289,0.20562589,-0.0731656
 2,-0.02004601,-0.04102018,0.04946346,0.05041048,-0.35207021,-0.0014616
 3,0.00104802,-0.00769059,0.06801652,-0.04332605,0.71562891,0.00194004,
 -0.00202386,0.00104384,0.00725738,0.00070488,0.00385566,-0.00009285,0.
 00161628,-0.00006085,-0.23554727,-0.05586404,-0.13829935,0.24390286,-0
 .00197991,0.00624959,0.00193719,0.00361587,0.00518522,0.00353128,0.001
 64013,-0.00386136,-0.00078490,-0.05567429,-0.05400598,-0.03580184,0.06
 229709,0.04409941,0.00117767,0.00163138,-0.00445297,-0.02336874,-0.006
 47447,-0.01345588,0.00023025,-0.00061696,0.00147660,-0.14012854,-0.036
 32559,-0.16175938,0.14672077,0.03676027,0.16830558,-0.07670332,-0.0233
 4732,-0.00867528,0.03228332,-0.00264829,0.09119400,0.00205037,-0.00187
 159,-0.00081607,-0.28432962,-0.08177355,0.02351111,-0.01529892,-0.0079
 4962,0.01208313,0.61415862,-0.02335467,-0.01649950,-0.00461900,0.00624
 317,0.00430648,0.03557576,-0.00201676,0.00684382,0.00111844,-0.0898898
 9,-0.09893978,0.01639836,-0.00486514,0.00112251,0.00363738,0.17056581,
 0.19363876,-0.00865647,-0.00467040,0.00139667,0.02770679,0.01240330,-0
 .01444042,-0.00078784,0.00099049,-0.00367032,0.09529795,0.04260922,-0.
 13661447,-0.01589573,-0.00647871,0.00928899,0.03031807,-0.03372802,0.5
 1787924,0.00162225,0.00055803,0.00055380,-0.00360480,-0.00279619,-0.00
 197865,0.00010421,0.00000650,0.00095147,0.00154153,-0.00445113,0.02865
 553,0.00028511,0.00084388,0.00091936,-0.03941396,-0.00600729,0.0082556
 8,0.03681196,0.00060817,-0.00016396,0.00082067,-0.00369859,0.00383969,
 -0.00068393,0.00014489,-0.00019299,0.00048788,-0.00166022,0.00232016,0
 .01514460,0.00108700,-0.00212808,-0.00025339,-0.00600461,-0.02940116,0
 .01842706,0.01025969,0.01936568,0.00040641,0.00124694,-0.00522512,0.00
 460513,0.00163065,0.00438511,-0.00027992,0.00001074,-0.00134250,0.0035
 1672,0.00601685,-0.03642401,-0.00071932,-0.00082787,0.00163232,0.00824
 621,0.01845362,-0.16457083,-0.01312896,-0.03017153,0.23863433,0.027352
 24,0.00439763,0.02766913,-0.01540857,-0.00001367,-0.02872609,0.0002839
 1,0.00048743,-0.00031313,-0.04611980,-0.02139594,0.01493435,-0.0020652
 8,-0.00318863,0.00243253,-0.26281279,-0.05557997,-0.13235762,0.0051402
 3,0.00000965,0.00234502,0.68338763,-0.00328353,0.00662200,0.01288821,-
 0.00025838,-0.00430569,-0.00334510,0.00056096,-0.00093010,-0.00018311,
 -0.01520689,0.00301071,-0.00148200,-0.00321948,0.00456777,0.00168631,-
 0.06379872,-0.08346555,-0.03467991,0.00282658,0.00497852,0.00632393,0.
 19804096,0.21244712,0.08425582,0.03388404,-0.01710378,-0.03217009,-0.0
 0342607,-0.06508901,-0.00035057,-0.00021176,-0.00092336,-0.03665209,-0
 .02000501,0.06994662,0.00280023,0.00174035,-0.00086335,-0.06027097,-0.
 00933814,-0.17359236,-0.02287160,-0.00257906,-0.04268129,-0.01863467,-
 0.07234781,0.69504777,0.00220119,-0.00165607,-0.00073195,0.00008792,0.
 00047964,-0.00080217,-0.00009115,0.00021629,0.00012212,-0.00127359,-0.
 00214828,-0.00352907,-0.00058122,-0.00030091,0.00053555,-0.01508557,-0
 .00776296,0.01075075,0.00024305,0.00091900,0.00085274,-0.27046476,-0.0
 9404097,0.10077950,0.28062104,-0.00177198,0.00641714,0.00133886,0.0003
 8062,-0.00086031,-0.00025659,0.00023445,-0.00065754,-0.00005581,-0.002
 16314,0.00519684,-0.00035449,-0.00014770,0.00001520,0.00012482,-0.0046
 5728,0.00123313,0.00309218,0.00115803,-0.00207253,-0.00024667,-0.09420
 337,-0.07631201,0.04355350,0.10263383,0.06755968,-0.00065452,0.0010324
 3,-0.00488142,-0.00039906,-0.00020325,-0.00085114,0.00012833,-0.000055
 88,0.00013091,-0.00320798,-0.00016529,-0.00228415,-0.00077105,-0.00034
 394,0.00064816,-0.01728969,-0.00684519,0.00896475,-0.00077416,-0.00085
 561,0.00161832,0.10252965,0.04430633,-0.10453515,-0.10658426,-0.047363
 44,0.10812712,-0.28213059,-0.09036194,0.09148643,-0.05108419,-0.017032
 36,-0.03779229,-0.00107717,-0.00204036,-0.00338911,-0.02411582,-0.0109
 3445,0.03531061,-0.00015280,0.00029978,0.00061090,0.04656267,0.0157731
 9,-0.01532055,-0.00298800,-0.00207686,-0.00635583,-0.12370894,-0.01871
 623,-0.02298176,0.00412924,-0.00289545,0.02591373,0.66777717,-0.081966
 31,-0.09580225,0.04171057,-0.02375909,0.00379464,-0.02159633,-0.002145
 03,0.00516744,-0.00011871,-0.01140395,-0.01088193,0.01886398,0.0002208
 1,-0.00094872,0.00012451,0.02471026,0.01533225,0.00020249,-0.00296641,
 0.00426713,-0.00219586,-0.02776109,-0.07736077,0.02423584,0.00007300,0
 .00309350,0.01057877,0.18104335,0.21001025,0.03382263,0.02038789,-0.14
 213783,0.01600955,-0.00224518,0.06798617,-0.00380930,-0.00026158,-0.00
 250437,0.03252414,0.01687930,-0.04980682,0.00095471,0.00034971,-0.0005
 2191,-0.07894567,-0.02257186,-0.03974554,0.00018987,0.00022961,0.00334
 089,0.05151117,0.05163804,-0.35156705,-0.00147619,0.00105267,-0.008235
 83,0.06170140,-0.04377185,0.70810679,-0.01483085,-0.00474684,-0.014619
 54,-0.00196796,-0.00311537,0.00303791,-0.00050068,-0.00024717,-0.00081
 516,0.00011466,0.00036962,0.00065561,-0.00005577,0.00024344,-0.0000877
 1,0.00178012,-0.00215322,0.00100319,0.00017202,0.00006165,0.00054032,0
 .00737886,0.00041590,0.00373522,-0.00005532,0.00155105,-0.00000799,-0.
 23786604,-0.05449519,-0.13702947,0.24677963,-0.00770951,0.00161473,-0.
 00592529,-0.00321768,0.00453216,0.00199683,-0.00040421,0.00035063,-0.0
 0034722,0.00044409,-0.00099100,0.00013745,0.00026164,-0.00064290,-0.00
 012645,-0.00226595,0.00669287,0.00157329,0.00020760,-0.00016040,0.0003
 1470,0.00341248,0.00602682,0.00349739,0.00156024,-0.00391593,-0.000707
 41,-0.05356368,-0.05436955,-0.03445627,0.06049831,0.04328515,0.0095668
 7,0.00249501,0.01194095,0.00261133,0.00187297,-0.00097895,0.00058212,0
 .00015318,0.00064667,0.00061388,0.00012098,-0.00069329,-0.00008153,-0.
 00012642,0.00008097,0.00093709,0.00171834,-0.00324882,-0.00071296,-0.0
 0009888,-0.00144270,-0.02376859,-0.00635680,-0.01298958,0.00032594,-0.
 00066352,0.00149354,-0.13676019,-0.03460986,-0.15949545,0.14552405,0.0
 3503113,0.16599156,-0.07179320,-0.00648222,0.00601028,0.00971937,0.004
 56006,-0.01567493,-0.00246370,0.00007395,-0.00168958,-0.00209481,-0.00
 273460,-0.00573756,0.00033022,0.00026840,-0.00111476,-0.00453726,-0.00
 139775,-0.00008541,0.00000750,0.00034257,-0.00054694,-0.00336099,-0.00
 352572,0.00306288,0.00032323,-0.00027828,0.00090439,0.00455085,0.00107
 066,0.02000148,-0.00297547,-0.00005802,0.00138787,0.94974977,-0.007325
 46,-0.05648944,0.01290585,0.00569944,0.00043262,-0.00230090,-0.0005832
 0,-0.00280887,-0.00085471,-0.00281904,0.00525338,-0.00149953,-0.000045
 64,0.00051307,-0.00041128,-0.00140478,-0.00112740,0.00049871,0.0003227
 8,-0.00053188,-0.00100336,-0.00342810,0.00492118,0.00151619,-0.0000168
 8,0.00033509,0.00028883,-0.00017867,-0.00218185,0.00952358,0.00055216,
 -0.00240181,0.00036112,0.13036544,0.63873046,0.00848725,0.00573979,-0.
 16218711,-0.01258548,-0.00189510,-0.02448295,0.00104526,-0.00005907,-0
 .00078073,-0.00366796,-0.00071410,0.00656778,0.00019723,-0.00017484,0.
 00129295,-0.00006367,0.00044123,-0.00576549,-0.00048912,-0.00117195,0.
 00764515,0.00095422,0.00083879,0.00816362,-0.00025352,-0.00039457,0.00
 147769,0.01723369,0.00819119,-0.01669896,-0.00121068,-0.00083231,-0.00
 067653,0.07170241,-0.03867379,0.50763620,-0.00420705,-0.01158340,-0.00
 361030,-0.00283338,-0.00060331,-0.00070575,0.00146492,0.00014296,0.000
 12974,0.00078869,0.00092446,0.00090728,-0.00004408,-0.00005399,0.00035
 760,-0.00000164,0.00000751,-0.00112802,0.00003424,-0.00021121,0.001129
 99,-0.00101477,0.00040123,0.00095436,-0.00000203,0.00008127,0.00056889
 ,0.00287361,-0.00070765,0.00376569,0.00065811,-0.00009216,-0.00038421,
 -0.30483737,-0.22373717,0.05884063,0.32392431,-0.01259821,-0.00308144,
 -0.00473914,-0.00159591,-0.00008372,-0.00080662,0.00031535,-0.00019084
 ,0.00005680,0.00023228,0.00007986,0.00077308,-0.00002921,-0.00004600,0
 .00027447,0.00028733,0.00026232,-0.00077749,-0.00001665,-0.00012960,0.
 00091751,-0.00154397,-0.00072763,0.00012114,0.00008768,-0.00010780,0.0
 0058754,0.00221140,0.00068920,0.00556135,0.00029527,0.00013806,-0.0001
 4208,-0.22534771,-0.29256899,0.05666253,0.26531940,0.32624483,0.022685
 17,0.02116352,0.00122421,0.00040132,0.00122256,-0.00146740,0.00141132,
 0.00089053,-0.00077756,0.00089112,-0.00028871,-0.00017310,-0.00003090,
 0.00006799,-0.00029980,0.00077788,0.00035793,0.00138065,0.00009525,0.0
 0028769,-0.00170637,0.00237216,-0.00029071,-0.00206049,-0.00004137,-0.
 00007718,-0.00090741,-0.00562288,0.00050684,-0.00561828,-0.00000624,0.
 00037135,0.00039099,0.06263275,0.06334530,-0.09553906,-0.06737365,-0.0
 6489288,0.08142625,-0.00971639,0.00085608,0.00352322,0.00287157,0.0018
 2664,-0.00448404,0.00051512,0.00032202,0.00044028,-0.00097890,-0.00056
 279,-0.00063515,0.00014700,0.00008515,-0.00058232,0.00018444,-0.000060
 66,0.00111121,0.00013971,0.00024128,-0.00104824,0.00137123,0.00009813,
 -0.00085796,0.00000074,0.00003550,-0.00038525,-0.00277648,-0.00175407,
 0.00065254,0.00133364,0.00083541,0.00037440,-0.46608879,0.05199694,-0.
 15668612,-0.02427133,0.00240101,-0.01390029,0.52383769,0.00534324,0.00
 806015,0.00006141,-0.00139736,0.00032083,0.00228848,0.00002415,0.00020
 461,0.00011626,0.00114640,-0.00013693,-0.00011203,-0.00001544,-0.00015
 996,0.00017193,-0.00023404,0.00003679,-0.00007366,-0.00000515,0.000017
 97,0.00016284,0.00055372,-0.00016358,0.00017799,-0.00000378,-0.0000116
 4,0.00001926,-0.00044339,-0.00009039,-0.00020435,0.00074961,0.00021345
 ,0.00019779,0.05468366,-0.08152253,0.02180147,-0.02793662,0.00834122,-
 0.00666995,-0.07097968,0.07027569,-0.03295186,0.00364964,-0.00441223,0
 .00580268,0.00474585,-0.00524547,-0.00019853,0.00035914,0.00046739,-0.
 00136558,-0.00169421,-0.00268833,0.00030426,0.00003651,-0.00100440,-0.
 00110630,-0.00030760,0.00141970,0.00013879,0.00035163,-0.00195918,-0.0
 0014995,-0.00076857,-0.00051154,0.00004557,0.00010313,-0.00037883,-0.0
 0138794,0.00046837,-0.00152171,-0.00115992,0.00009059,-0.00105134,-0.1
 6363428,0.02427050,-0.14533744,0.00473899,0.00333637,0.01456476,0.1824
 3117,-0.02639360,0.13750418,0.00787727,0.00667003,0.00169677,-0.002066
 51,0.00004867,0.00124750,-0.00006195,0.00023423,0.00003486,0.00014490,
 -0.00056575,0.00121978,-0.00002121,-0.00014118,0.00023723,0.00092668,0
 .00042261,-0.00033542,-0.00010441,-0.00003150,0.00061612,0.00023134,-0
 .00041087,-0.00047521,-0.00004972,0.00002277,0.00005486,0.00016711,0.0
 0016454,-0.00003127,0.00008276,0.00022531,-0.00011964,-0.10763171,0.03
 461048,0.02156558,0.00507017,-0.03381591,-0.00645147,-0.02762163,0.038
 97341,0.00842687,0.69693100,0.00399412,-0.00148460,0.00086278,0.001568
 92,-0.00002013,-0.00126858,0.00030470,-0.00025954,0.00022134,-0.000436
 13,0.00069670,-0.00039087,0.00001373,0.00006493,-0.00026343,0.00029729
 ,-0.00010982,0.00082263,0.00010022,0.00001924,-0.00103234,0.00007775,0
 .00091723,-0.00091847,-0.00003071,0.00010963,-0.00033048,-0.00131332,-
 0.00124072,-0.00214160,-0.00005747,-0.00040482,0.00011963,0.03822894,-
 0.18029256,-0.06925656,0.00017062,-0.03655372,-0.01276208,0.00903052,-
 0.00448297,-0.00525912,0.05415688,0.57278198,0.00954273,-0.02186182,-0
 .00655573,0.00407511,-0.00026809,-0.00050124,0.00017875,-0.00075498,-0
 .00005552,-0.00008218,0.00211413,-0.00102391,-0.00002371,0.00011606,-0
 .00040024,0.00003273,-0.00024132,0.00146991,0.00023004,0.00008622,-0.0
 0224842,-0.00098241,0.00181920,-0.00133238,0.00001851,0.00015128,-0.00
 041647,-0.00298534,-0.00278177,-0.00151432,0.00035633,-0.00070095,-0.0
 0005495,0.01094476,-0.03849123,-0.07321344,0.00182119,0.00556453,0.007
 44786,-0.01170761,0.01078663,0.00805738,0.07244184,-0.01640622,0.15613
 788,0.00133913,-0.00115859,-0.00024478,0.00049284,0.00005110,-0.000083
 19,0.00000034,0.00002109,0.00011586,-0.00008185,0.00013283,0.00007526,
 -0.00000206,0.00000468,-0.00005905,0.00022535,-0.00004334,0.00018348,0
 .00001724,0.00004609,-0.00032739,-0.00013831,0.00022210,-0.00032846,-0
 .00000376,0.00002786,-0.00007267,-0.00048207,-0.00046412,-0.00015930,0
 .00000414,-0.00008377,0.00000456,-0.01080102,0.00976324,-0.00132829,0.
 00035439,-0.00345173,0.00056978,0.00288119,-0.00061160,-0.00002304,-0.
 36133472,0.06805460,-0.11921456,0.38204969,-0.00123361,-0.00008383,0.0
 0005440,0.00001625,0.00011463,-0.00019994,-0.00010959,-0.00001468,-0.0
 0001828,-0.00003327,-0.00007851,-0.00007209,0.00000924,0.00000398,0.00
 000066,-0.00011116,-0.00005838,-0.00008652,-0.00001478,0.00000082,0.00
 011795,0.00005281,-0.00010148,0.00018364,0.00000407,-0.00001390,0.0000
 2287,0.00002340,0.00029041,0.00006254,-0.00001335,-0.00000383,-0.00000
 521,0.02728683,-0.00551453,0.01323311,-0.00262791,0.00184059,-0.001160
 82,0.00571975,-0.00512158,-0.00204810,0.07819853,-0.07984945,0.0218773
 1,-0.08056180,0.07767885,-0.00160619,0.00009801,-0.00030819,0.00005135
 ,-0.00000574,-0.00023119,-0.00011887,-0.00003061,0.00003235,-0.0000925
 1,-0.00000829,-0.00017873,0.00000588,0.00002055,-0.00000618,-0.0001721
 9,-0.00010990,-0.00008717,-0.00000946,-0.00000347,0.00014482,0.0000730
 4,-0.00007925,0.00025436,0.00000477,-0.00001519,0.00002634,0.00024265,
 0.00016445,0.00011067,-0.00001704,0.00004408,0.00005343,0.01807947,-0.
 00986989,-0.00232066,0.00020255,0.00140560,-0.00088618,0.00299727,-0.0
 0374808,0.00317952,-0.15691497,0.03436973,-0.06351353,0.12922710,-0.02
 187769,0.06491958,-0.00064990,0.00067199,0.00013497,-0.00033341,-0.000
 07562,-0.00001440,-0.00003900,0.00004085,-0.00001699,-0.00000699,-0.00
 011428,0.00007889,-0.00000117,-0.00000989,0.00003613,0.00001149,0.0001
 1935,-0.00006007,-0.00000787,-0.00003700,0.00014794,-0.00005122,-0.000
 10509,0.00000537,0.00000071,-0.00000819,0.00004677,0.00032145,0.000140
 29,0.00031801,-0.00005185,-0.00005010,-0.00010099,0.01190341,0.0062284
 5,-0.00374142,0.00204320,0.00724959,0.00159005,-0.00182880,0.00015288,
 0.00008906,-0.21253937,-0.17416065,0.03535381,-0.01452053,-0.02660540,
 0.00804715,0.21574984,0.00085104,0.00150562,0.00051201,-0.00055938,0.0
 0020568,0.00003768,-0.00001605,0.00004348,-0.00001124,-0.00003274,-0.0
 0026276,0.00030892,-0.00000017,-0.00002869,0.00005983,0.00020620,0.000
 13265,-0.00012465,-0.00002570,-0.00002863,0.00028191,0.00008231,-0.000
 12454,-0.00008375,-0.00001319,-0.00000855,0.00003446,0.00020558,0.0002
 3137,-0.00003199,0.00009159,0.00003636,-0.00006738,-0.01705619,-0.0247
 4593,0.00626418,0.00050596,-0.00410633,-0.00207137,-0.00009123,0.00421
 885,-0.00094054,-0.17876226,-0.26989136,0.03899102,0.00805137,0.010910
 88,-0.00035432,0.18656282,0.28191189,0.00118706,0.00135979,0.00009319,
 -0.00042871,-0.00002756,0.00004681,-0.00003500,0.00005439,0.00004941,-
 0.00006587,-0.00017212,0.00028386,-0.00000013,-0.00002140,0.00003854,0
 .00023961,0.00005997,-0.00006451,-0.00002486,-0.00001753,0.00019947,0.
 00011118,0.00003246,-0.00016303,-0.00001694,0.00001103,0.00000358,0.00
 009648,0.00002737,-0.00017646,0.00010112,0.00003909,0.00003348,-0.0062
 4283,-0.01960540,-0.00578101,-0.00021497,-0.00390271,0.00300096,-0.001
 24312,0.00141761,-0.00108247,0.05678657,0.07363364,-0.02228289,-0.0083
 3532,-0.01008382,-0.00118927,-0.04191428,-0.04280478,0.02699035\\-0.00
 000101,-0.00000432,0.00000248,-0.00000399,0.00000376,0.00000550,0.0000
 0361,-0.00000013,-0.00000278,0.00000471,-0.00000510,-0.00000504,0.0000
 0071,-0.00000251,0.00000004,-0.00000267,-0.00000461,-0.00000154,0.0000
 0176,-0.00000377,0.00000096,0.00000189,-0.00000311,0.00000467,0.000000
 95,-0.00000210,0.,-0.00000302,-0.00000392,-0.00000596,0.00000302,0.000
 00114,0.00000380,-0.00000807,0.00000030,0.00000412,0.00000672,0.000004
 98,-0.00000272,-0.00000507,0.00000627,0.00000094,-0.00000007,0.0000020
 2,-0.00000322,-0.00000279,0.00000410,0.00000179,0.00000332,0.00000700,
 -0.00000303\\\@
 The archive entry for this job was punched.


 EVERY WORD THAT YOU WRITE IS A BLOW THAT SMITES THE DEVIL.
     -- ST. BERNARD OF CLAIRVAUX
 Job cpu time:       0 days  0 hours 46 minutes  5.6 seconds.
 Elapsed time:       0 days  0 hours  2 minutes 54.7 seconds.
 File lengths (MBytes):  RWF=    160 Int=      0 D2E=      0 Chk=     10 Scr=      1
 Normal termination of Gaussian 16 at Thu May 19 13:40:08 2022.
