 Entering Gaussian System, Link 0=g16
 AtFile(1): /home/561/yj5695/Basis/6-31pGd.gbs
 Initial command:
 /apps/gaussian/g16c01/g16/l1.exe "/jobfs/40775451.gadi-pbs/Gau-545354.inp" -scrdir="/jobfs/40775451.gadi-pbs/"
 Entering Link 1 = /apps/gaussian/g16c01/g16/l1.exe PID=    545362.
  
 Copyright (c) 1988-2019, Gaussian, Inc.  All Rights Reserved.
  
 This is part of the Gaussian(R) 16 program.  It is based on
 the Gaussian(R) 09 system (copyright 2009, Gaussian, Inc.),
 the Gaussian(R) 03 system (copyright 2003, Gaussian, Inc.),
 the Gaussian(R) 98 system (copyright 1998, Gaussian, Inc.),
 the Gaussian(R) 94 system (copyright 1995, Gaussian, Inc.),
 the Gaussian 92(TM) system (copyright 1992, Gaussian, Inc.),
 the Gaussian 90(TM) system (copyright 1990, Gaussian, Inc.),
 the Gaussian 88(TM) system (copyright 1988, Gaussian, Inc.),
 the Gaussian 86(TM) system (copyright 1986, Carnegie Mellon
 University), and the Gaussian 82(TM) system (copyright 1983,
 Carnegie Mellon University). Gaussian is a federally registered
 trademark of Gaussian, Inc.
  
 This software contains proprietary and confidential information,
 including trade secrets, belonging to Gaussian, Inc.
  
 This software is provided under written license and may be
 used, copied, transmitted, or stored only in accord with that
 written license.
  
 The following legend is applicable only to US Government
 contracts under FAR:
  
                    RESTRICTED RIGHTS LEGEND
  
 Use, reproduction and disclosure by the US Government is
 subject to restrictions as set forth in subparagraphs (a)
 and (c) of the Commercial Computer Software - Restricted
 Rights clause in FAR 52.227-19.
  
 Gaussian, Inc.
 340 Quinnipiac St., Bldg. 40, Wallingford CT 06492
  
  
 ---------------------------------------------------------------
 Warning -- This program may not be used in any manner that
 competes with the business of Gaussian, Inc. or will provide
 assistance to any competitor of Gaussian, Inc.  The licensee
 of this program is prohibited from giving any competitor of
 Gaussian, Inc. access to this program.  By using this program,
 the user acknowledges that Gaussian, Inc. is engaged in the
 business of creating and licensing software in the field of
 computational chemistry and represents and warrants to the
 licensee that it is not a competitor of Gaussian, Inc. and that
 it will not use this program in any manner prohibited above.
 ---------------------------------------------------------------
  

 Cite this work as:
 Gaussian 16, Revision C.01,
 M. J. Frisch, G. W. Trucks, H. B. Schlegel, G. E. Scuseria, 
 M. A. Robb, J. R. Cheeseman, G. Scalmani, V. Barone, 
 G. A. Petersson, H. Nakatsuji, X. Li, M. Caricato, A. V. Marenich, 
 J. Bloino, B. G. Janesko, R. Gomperts, B. Mennucci, H. P. Hratchian, 
 J. V. Ortiz, A. F. Izmaylov, J. L. Sonnenberg, D. Williams-Young, 
 F. Ding, F. Lipparini, F. Egidi, J. Goings, B. Peng, A. Petrone, 
 T. Henderson, D. Ranasinghe, V. G. Zakrzewski, J. Gao, N. Rega, 
 G. Zheng, W. Liang, M. Hada, M. Ehara, K. Toyota, R. Fukuda, 
 J. Hasegawa, M. Ishida, T. Nakajima, Y. Honda, O. Kitao, H. Nakai, 
 T. Vreven, K. Throssell, J. A. Montgomery, Jr., J. E. Peralta, 
 F. Ogliaro, M. J. Bearpark, J. J. Heyd, E. N. Brothers, K. N. Kudin, 
 V. N. Staroverov, T. A. Keith, R. Kobayashi, J. Normand, 
 K. Raghavachari, A. P. Rendell, J. C. Burant, S. S. Iyengar, 
 J. Tomasi, M. Cossi, J. M. Millam, M. Klene, C. Adamo, R. Cammi, 
 J. W. Ochterski, R. L. Martin, K. Morokuma, O. Farkas, 
 J. B. Foresman, and D. J. Fox, Gaussian, Inc., Wallingford CT, 2019.
 
 ******************************************
 Gaussian 16:  ES64L-G16RevC.01  3-Jul-2019
                20-May-2022 
 ******************************************
 %nproc=16
 Will use up to   16 processors via shared memory.
 %mem=20gb
 -----------------------------------------------------
 #m062X/gen 6D OPT Freq=noraman SCRF=(SMD,Solvent=h2o)
 -----------------------------------------------------
 1/18=20,19=15,26=3,38=1/1,3;
 2/9=110,12=2,17=6,18=5,40=1/2;
 3/5=7,8=2,11=2,25=1,30=1,70=32201,71=1,72=1,74=-55/1,2,3;
 4//1;
 5/5=2,38=5,53=1/2;
 6/7=2,8=2,9=2,10=2,28=1/1;
 7//1,2,3,16;
 1/18=20,19=15,26=3/3(2);
 2/9=110/2;
 99//99;
 2/9=110/2;
 3/5=7,6=1,8=2,11=2,25=1,30=1,70=32205,71=1,72=1,74=-55,82=7/1,2,3;
 4/5=5,16=3,69=1/1;
 5/5=2,38=5,53=1/2;
 7//1,2,3,16;
 1/18=20,19=15,26=3/3(-5);
 2/9=110/2;
 6/7=2,8=2,9=2,10=2,19=2,28=1/1;
 99/9=1/99;
 -----------------
 HA.25.smd.a3d3.smd
 -----------------
 Symbolic Z-matrix:
 Charge =  0 Multiplicity = 1
 C                     1.09158   0.48666  -0.37824 
 C                    -1.23723   0.80259  -0.31653 
 N                    -2.60477   0.84315  -0.26828 
 S                    -0.22662  -0.59164  -0.07651 
 S                     2.79281  -0.04378  -0.30487 
 O                     3.38403   0.44149  -1.54503 
 O                     3.31321   0.36261   0.99004 
 N                     2.82484  -1.67493  -0.35126 
 H                     2.4488   -2.05913  -1.22081 
 C                    -3.55899  -0.12175   0.01585 
 O                    -3.59964  -1.10667  -0.70931 
 C                    -4.48246   0.07543   1.17746 
 N                     0.76312   1.70992  -0.61702 
 N                    -0.57481   1.90628  -0.58758 
 H                    -2.99265   1.76588  -0.46979 
 H                     2.40287  -2.10763   0.47331 
 H                    -3.92335   0.12665   2.11789 
 H                    -5.15544  -0.78076   1.22053 
 H                    -5.08007   0.98487   1.05593 
 

 GradGradGradGradGradGradGradGradGradGradGradGradGradGradGradGradGradGrad
 Berny optimization.
 Initialization pass.
                           ----------------------------
                           !    Initial Parameters    !
                           ! (Angstroms and Degrees)  !
 --------------------------                            --------------------------
 ! Name  Definition              Value          Derivative Info.                !
 --------------------------------------------------------------------------------
 ! R1    R(1,4)                  1.7296         estimate D2E/DX2                !
 ! R2    R(1,5)                  1.7835         estimate D2E/DX2                !
 ! R3    R(1,13)                 1.2889         estimate D2E/DX2                !
 ! R4    R(2,3)                  1.369          estimate D2E/DX2                !
 ! R5    R(2,4)                  1.7386         estimate D2E/DX2                !
 ! R6    R(2,14)                 1.3154         estimate D2E/DX2                !
 ! R7    R(3,10)                 1.3865         estimate D2E/DX2                !
 ! R8    R(3,15)                 1.021          estimate D2E/DX2                !
 ! R9    R(5,6)                  1.4571         estimate D2E/DX2                !
 ! R10   R(5,7)                  1.4535         estimate D2E/DX2                !
 ! R11   R(5,8)                  1.6321         estimate D2E/DX2                !
 ! R12   R(8,9)                  1.0223         estimate D2E/DX2                !
 ! R13   R(8,16)                 1.0223         estimate D2E/DX2                !
 ! R14   R(10,11)                1.2238         estimate D2E/DX2                !
 ! R15   R(10,12)                1.497          estimate D2E/DX2                !
 ! R16   R(12,17)                1.0953         estimate D2E/DX2                !
 ! R17   R(12,18)                1.0899         estimate D2E/DX2                !
 ! R18   R(12,19)                1.095          estimate D2E/DX2                !
 ! R19   R(13,14)                1.3526         estimate D2E/DX2                !
 ! A1    A(4,1,5)              122.3026         estimate D2E/DX2                !
 ! A2    A(4,1,13)             115.4544         estimate D2E/DX2                !
 ! A3    A(5,1,13)             122.206          estimate D2E/DX2                !
 ! A4    A(3,2,4)              126.8376         estimate D2E/DX2                !
 ! A5    A(3,2,14)             119.0416         estimate D2E/DX2                !
 ! A6    A(4,2,14)             114.114          estimate D2E/DX2                !
 ! A7    A(2,3,10)             132.385          estimate D2E/DX2                !
 ! A8    A(2,3,15)             113.5348         estimate D2E/DX2                !
 ! A9    A(10,3,15)            114.0754         estimate D2E/DX2                !
 ! A10   A(1,4,2)               85.3529         estimate D2E/DX2                !
 ! A11   A(1,5,6)              104.6537         estimate D2E/DX2                !
 ! A12   A(1,5,7)              107.1578         estimate D2E/DX2                !
 ! A13   A(1,5,8)              108.3479         estimate D2E/DX2                !
 ! A14   A(6,5,7)              121.323          estimate D2E/DX2                !
 ! A15   A(6,5,8)              107.499          estimate D2E/DX2                !
 ! A16   A(7,5,8)              107.3206         estimate D2E/DX2                !
 ! A17   A(5,8,9)              113.1129         estimate D2E/DX2                !
 ! A18   A(5,8,16)             113.0763         estimate D2E/DX2                !
 ! A19   A(9,8,16)             112.0328         estimate D2E/DX2                !
 ! A20   A(3,10,11)            117.4871         estimate D2E/DX2                !
 ! A21   A(3,10,12)            119.4658         estimate D2E/DX2                !
 ! A22   A(11,10,12)           123.047          estimate D2E/DX2                !
 ! A23   A(10,12,17)           110.9478         estimate D2E/DX2                !
 ! A24   A(10,12,18)           107.9447         estimate D2E/DX2                !
 ! A25   A(10,12,19)           111.097          estimate D2E/DX2                !
 ! A26   A(17,12,18)           108.5432         estimate D2E/DX2                !
 ! A27   A(17,12,19)           109.5762         estimate D2E/DX2                !
 ! A28   A(18,12,19)           108.6537         estimate D2E/DX2                !
 ! A29   A(1,13,14)            112.6948         estimate D2E/DX2                !
 ! A30   A(2,14,13)            112.3834         estimate D2E/DX2                !
 ! D1    D(5,1,4,2)            177.9631         estimate D2E/DX2                !
 ! D2    D(13,1,4,2)             0.1284         estimate D2E/DX2                !
 ! D3    D(4,1,5,6)            130.4175         estimate D2E/DX2                !
 ! D4    D(4,1,5,7)            -99.5592         estimate D2E/DX2                !
 ! D5    D(4,1,5,8)             15.9507         estimate D2E/DX2                !
 ! D6    D(13,1,5,6)           -51.8933         estimate D2E/DX2                !
 ! D7    D(13,1,5,7)            78.13           estimate D2E/DX2                !
 ! D8    D(13,1,5,8)          -166.36           estimate D2E/DX2                !
 ! D9    D(4,1,13,14)           -0.232          estimate D2E/DX2                !
 ! D10   D(5,1,13,14)         -178.0689         estimate D2E/DX2                !
 ! D11   D(4,2,3,10)             2.7277         estimate D2E/DX2                !
 ! D12   D(4,2,3,15)          -178.1376         estimate D2E/DX2                !
 ! D13   D(14,2,3,10)         -178.2814         estimate D2E/DX2                !
 ! D14   D(14,2,3,15)            0.8533         estimate D2E/DX2                !
 ! D15   D(3,2,4,1)            179.0422         estimate D2E/DX2                !
 ! D16   D(14,2,4,1)             0.0088         estimate D2E/DX2                !
 ! D17   D(3,2,14,13)         -179.25           estimate D2E/DX2                !
 ! D18   D(4,2,14,13)           -0.1348         estimate D2E/DX2                !
 ! D19   D(2,3,10,11)          -60.4983         estimate D2E/DX2                !
 ! D20   D(2,3,10,12)          119.4186         estimate D2E/DX2                !
 ! D21   D(15,3,10,11)         120.3706         estimate D2E/DX2                !
 ! D22   D(15,3,10,12)         -59.7125         estimate D2E/DX2                !
 ! D23   D(1,5,8,9)             62.9019         estimate D2E/DX2                !
 ! D24   D(1,5,8,16)           -65.7942         estimate D2E/DX2                !
 ! D25   D(6,5,8,9)            -49.6809         estimate D2E/DX2                !
 ! D26   D(6,5,8,16)          -178.3771         estimate D2E/DX2                !
 ! D27   D(7,5,8,9)            178.3058         estimate D2E/DX2                !
 ! D28   D(7,5,8,16)            49.6096         estimate D2E/DX2                !
 ! D29   D(3,10,12,17)         -61.8366         estimate D2E/DX2                !
 ! D30   D(3,10,12,18)         179.3528         estimate D2E/DX2                !
 ! D31   D(3,10,12,19)          60.3205         estimate D2E/DX2                !
 ! D32   D(11,10,12,17)        118.0755         estimate D2E/DX2                !
 ! D33   D(11,10,12,18)         -0.7352         estimate D2E/DX2                !
 ! D34   D(11,10,12,19)       -119.7674         estimate D2E/DX2                !
 ! D35   D(1,13,14,2)            0.2326         estimate D2E/DX2                !
 --------------------------------------------------------------------------------
 Trust Radius=3.00D-01 FncErr=1.00D-07 GrdErr=1.00D-06 EigMax=2.50D+02 EigMin=1.00D-04
 Number of steps in this run=     94 maximum allowed number of steps=    114.
 GradGradGradGradGradGradGradGradGradGradGradGradGradGradGradGradGradGrad

                          Input orientation:                          
 ---------------------------------------------------------------------
 Center     Atomic      Atomic             Coordinates (Angstroms)
 Number     Number       Type             X           Y           Z
 ---------------------------------------------------------------------
      1          6           0        1.091577    0.486660   -0.378237
      2          6           0       -1.237232    0.802590   -0.316532
      3          7           0       -2.604771    0.843150   -0.268282
      4         16           0       -0.226615   -0.591639   -0.076511
      5         16           0        2.792809   -0.043777   -0.304865
      6          8           0        3.384032    0.441494   -1.545029
      7          8           0        3.313210    0.362613    0.990037
      8          7           0        2.824844   -1.674932   -0.351259
      9          1           0        2.448797   -2.059132   -1.220812
     10          6           0       -3.558986   -0.121752    0.015846
     11          8           0       -3.599642   -1.106669   -0.709309
     12          6           0       -4.482456    0.075432    1.177465
     13          7           0        0.763115    1.709924   -0.617018
     14          7           0       -0.574806    1.906279   -0.587579
     15          1           0       -2.992645    1.765878   -0.469793
     16          1           0        2.402872   -2.107627    0.473309
     17          1           0       -3.923352    0.126649    2.117887
     18          1           0       -5.155442   -0.780757    1.220529
     19          1           0       -5.080065    0.984872    1.055933
 ---------------------------------------------------------------------
                    Distance matrix (angstroms):
                    1          2          3          4          5
     1  C    0.000000
     2  C    2.350951   0.000000
     3  N    3.715126   1.368991   0.000000
     4  S    1.729566   1.738629   2.784066   0.000000
     5  S    1.783518   4.117973   5.470087   3.077210   0.000000
     6  O    2.572702   4.795381   6.136544   4.032453   1.457065
     7  O    2.612128   4.754706   6.069331   3.818178   1.453527
     8  N    2.770816   4.758128   5.985678   3.249679   1.632129
     9  H    3.005501   4.753313   5.905007   3.258955   2.240303
    10  C    4.706719   2.520997   1.386467   3.366604   6.360364
    11  O    4.965465   3.062764   2.232950   3.470303   6.492823
    12  C    5.801652   3.645856   2.491039   4.486605   7.425698
    13  N    1.288906   2.216965   3.495078   2.562988   2.700475
    14  N    2.199085   1.315448   2.313645   2.573329   3.901727
    15  H    4.280847   2.008205   1.021019   3.655609   6.064118
    16  H    3.029018   4.726898   5.859482   3.084595   2.239884
    17  H    5.613355   3.687619   2.818835   4.358576   7.141820
    18  H    6.571731   4.496878   3.370394   5.100139   8.126787
    19  H    6.355645   4.084636   2.810820   5.227217   8.055559
                    6          7          8          9         10
     6  O    0.000000
     7  O    2.537282   0.000000
     8  N    2.493399   2.487803   0.000000
     9  H    2.689407   3.391152   1.022323   0.000000
    10  C    7.138563   6.957782   6.580305   6.432435   0.000000
    11  O    7.201871   7.268706   6.459500   6.144301   1.223750
    12  C    8.332323   7.803205   7.667947   7.638741   1.497009
    13  N    3.056031   3.301645   3.972229   4.172754   4.736677
    14  N    4.328360   4.470844   4.943535   5.026693   3.658191
    15  H    6.600919   6.622995   6.759911   6.693581   2.029713
    16  H    3.396230   2.682873   1.022349   1.695437   6.300534
    17  H    8.180094   7.327725   7.408139   7.518566   2.147799
    18  H    9.058964   8.548596   8.182605   8.088191   2.105759
    19  H    8.871370   8.416568   8.458270   8.434055   2.149437
                   11         12         13         14         15
    11  O    0.000000
    12  C    2.395128   0.000000
    13  N    5.193781   5.779944   0.000000
    14  N    4.271101   4.662307   1.352573   0.000000
    15  H    2.945732   2.791165   3.759061   2.424775   0.000000
    16  H    6.199248   7.257363   4.295499   5.109158   6.708583
    17  H    3.101435   1.095269   5.652383   4.658260   3.201465
    18  H    2.500201   1.089874   6.679026   5.609959   3.744360
    19  H    3.111635   1.094983   6.121047   4.883388   2.700950
                   16         17         18         19
    16  H    0.000000
    17  H    6.907803   0.000000
    18  H    7.710190   1.773889   0.000000
    19  H    8.117718   1.789491   1.774886   0.000000
 Stoichiometry    C4H6N4O3S2
 Framework group  C1[X(C4H6N4O3S2)]
 Deg. of freedom    51
 Full point group                 C1      NOp   1
 Largest Abelian subgroup         C1      NOp   1
 Largest concise Abelian subgroup C1      NOp   1
                         Standard orientation:                         
 ---------------------------------------------------------------------
 Center     Atomic      Atomic             Coordinates (Angstroms)
 Number     Number       Type             X           Y           Z
 ---------------------------------------------------------------------
      1          6           0        1.031927    0.406042   -0.041999
      2          6           0       -1.299476    0.695029   -0.131537
      3          7           0       -2.666951    0.719448   -0.191136
      4         16           0       -0.287088   -0.711627    0.007106
      5         16           0        2.730782   -0.117665    0.101394
      6          8           0        3.411496    0.530339   -1.012051
      7          8           0        3.137750    0.118744    1.476614
      8          7           0        2.795221   -1.728340   -0.154374
      9          1           0        2.497401   -1.997612   -1.094554
     10          6           0       -3.623813   -0.280982   -0.114683
     11          8           0       -3.588445   -1.162398   -0.962869
     12          6           0       -4.641338   -0.244439    0.982744
     13          7           0        0.702279    1.647770   -0.145551
     14          7           0       -0.636909    1.829306   -0.200996
     15          1           0       -3.053514    1.657945   -0.301918
     16          1           0        2.315788   -2.268478    0.569223
     17          1           0       -4.160931   -0.313301    1.964620
     18          1           0       -5.300398   -1.103500    0.858327
     19          1           0       -5.243139    0.668932    0.931991
 ---------------------------------------------------------------------
 Rotational constants (GHZ):           1.7612101           0.3076907           0.2878838
 General basis read from cards:  (6D, 7F)
 There are   267 symmetry adapted cartesian basis functions of A   symmetry.
 There are   267 symmetry adapted basis functions of A   symmetry.
   267 basis functions,   488 primitive gaussians,   267 cartesian basis functions
    57 alpha electrons       57 beta electrons
       nuclear repulsion energy      1053.7659885487 Hartrees.
 NAtoms=   19 NActive=   19 NUniq=   19 SFac= 1.00D+00 NAtFMM=   60 NAOKFM=F Big=F
 Integral buffers will be    131072 words long.
 Raffenetti 2 integral format.
 Two-electron integral symmetry is turned on.
 ------------------------------------------------------------------------------
 Polarizable Continuum Model (PCM)
 =================================
 Model                : PCM.
 Atomic radii         : SMD-Coulomb.
 Polarization charges : Total charges.
 Charge compensation  : None.
 Solution method      : On-the-fly selection.
 Cavity type          : VdW (van der Waals Surface) (Alpha=1.000).
 Cavity algorithm     : GePol (No added spheres)
                        Default sphere list used, NSphG=   19.
                        Lebedev-Laikov grids with approx.  5.0 points / Ang**2.
                        Smoothing algorithm: York/Karplus (Gamma=1.0000).
                        Polarization charges: spherical gaussians, with
                                              point-specific exponents (IZeta= 3).
                        Self-potential: point-specific (ISelfS= 7).
                        Self-field    : sphere-specific E.n sum rule (ISelfD= 2).
 1st derivatives      : Analytical E(r).r(x)/FMM algorithm (CHGder, D1EAlg=3).
                        Cavity 1st derivative terms included.
 Solvent              : Water, Eps=  78.355300 Eps(inf)=   1.777849
 ------------------------------------------------------------------------------
 Spheres list:
 ISph  on   Nord     Re0    Alpha      Xe            Ye            Ze
    1   C      1    1.8500  1.000      1.031927      0.406042     -0.041999
    2   C      2    1.8500  1.000     -1.299476      0.695029     -0.131537
    3   N      3    1.8900  1.000     -2.666951      0.719448     -0.191136
    4   S      4    2.4900  1.000     -0.287088     -0.711627      0.007106
    5   S      5    2.4900  1.000      2.730782     -0.117665      0.101394
    6   O      6    1.5200  1.000      3.411496      0.530339     -1.012051
    7   O      7    1.5200  1.000      3.137750      0.118744      1.476614
    8   N      8    1.8900  1.000      2.795221     -1.728340     -0.154374
    9   H      9    1.2000  1.000      2.497401     -1.997612     -1.094554
   10   C     10    1.8500  1.000     -3.623813     -0.280982     -0.114683
   11   O     11    1.5200  1.000     -3.588445     -1.162398     -0.962869
   12   C     12    1.8500  1.000     -4.641338     -0.244439      0.982744
   13   N     13    1.8900  1.000      0.702279      1.647770     -0.145551
   14   N     14    1.8900  1.000     -0.636909      1.829306     -0.200996
   15   H     15    1.2000  1.000     -3.053514      1.657945     -0.301918
   16   H     16    1.2000  1.000      2.315788     -2.268478      0.569223
   17   H     17    1.2000  1.000     -4.160931     -0.313301      1.964620
   18   H     18    1.2000  1.000     -5.300398     -1.103500      0.858327
   19   H     19    1.2000  1.000     -5.243139      0.668932      0.931991
 ------------------------------------------------------------------------------
 ------------------------------------------------------------------------------
 Atomic radii for non-electrostatic terms: SMD-CDS.
 ------------------------------------------------------------------------------
 Nuclear repulsion after PCM non-electrostatic terms =     1053.7712422124 Hartrees.
 One-electron integrals computed using PRISM.
 NBasis=   267 RedAO= T EigKep=  1.16D-05  NBF=   267
 NBsUse=   267 1.00D-06 EigRej= -1.00D+00 NBFU=   267
 ExpMin= 4.05D-02 ExpMax= 2.19D+04 ExpMxC= 3.30D+03 IAcc=3 IRadAn=         5 AccDes= 0.00D+00
 Harris functional with IExCor= 1009 and IRadAn=       5 diagonalized for initial guess.
 HarFok:  IExCor= 1009 AccDes= 0.00D+00 IRadAn=         5 IDoV= 1 UseB2=F ITyADJ=14
 ICtDFT=  3500011 ScaDFX=  1.000000  1.000000  1.000000  1.000000
 FoFCou: FMM=F IPFlag=           0 FMFlag=      100000 FMFlg1=           0
         NFxFlg=           0 DoJE=T BraDBF=F KetDBF=T FulRan=T
         wScrn=  0.000000 ICntrl=       500 IOpCl=  0 I1Cent=   200000004 NGrid=           0
         NMat0=    1 NMatS0=      1 NMatT0=    0 NMatD0=    1 NMtDS0=    0 NMtDT0=    0
 Petite list used in FoFCou.
 Requested convergence on RMS density matrix=1.00D-08 within 128 cycles.
 Requested convergence on MAX density matrix=1.00D-06.
 Requested convergence on             energy=1.00D-06.
 No special actions if energy rises.
 Inv3:  Mode=1 IEnd=     8477283.
 Iteration    1 A*A^-1 deviation from unit magnitude is 5.77D-15 for   1680.
 Iteration    1 A*A^-1 deviation from orthogonality  is 1.92D-15 for   1680   1572.
 Iteration    1 A^-1*A deviation from unit magnitude is 5.22D-15 for   1680.
 Iteration    1 A^-1*A deviation from orthogonality  is 1.68D-15 for   1677   1468.
 Error on total polarization charges =  0.03859
 SCF Done:  E(RM062X) =  -1396.72408499     A.U. after   15 cycles
            NFock= 15  Conv=0.85D-08     -V/T= 2.0054
 SMD-CDS (non-electrostatic) energy       (kcal/mol) =       3.30
 (included in total energy above)

 **********************************************************************

            Population analysis using the SCF Density.

 **********************************************************************

 Orbital symmetries:
       Occupied  (A) (A) (A) (A) (A) (A) (A) (A) (A) (A) (A) (A)
                 (A) (A) (A) (A) (A) (A) (A) (A) (A) (A) (A) (A)
                 (A) (A) (A) (A) (A) (A) (A) (A) (A) (A) (A) (A)
                 (A) (A) (A) (A) (A) (A) (A) (A) (A) (A) (A) (A)
                 (A) (A) (A) (A) (A) (A) (A) (A) (A)
       Virtual   (A) (A) (A) (A) (A) (A) (A) (A) (A) (A) (A) (A)
                 (A) (A) (A) (A) (A) (A) (A) (A) (A) (A) (A) (A)
                 (A) (A) (A) (A) (A) (A) (A) (A) (A) (A) (A) (A)
                 (A) (A) (A) (A) (A) (A) (A) (A) (A) (A) (A) (A)
                 (A) (A) (A) (A) (A) (A) (A) (A) (A) (A) (A) (A)
                 (A) (A) (A) (A) (A) (A) (A) (A) (A) (A) (A) (A)
                 (A) (A) (A) (A) (A) (A) (A) (A) (A) (A) (A) (A)
                 (A) (A) (A) (A) (A) (A) (A) (A) (A) (A) (A) (A)
                 (A) (A) (A) (A) (A) (A) (A) (A) (A) (A) (A) (A)
                 (A) (A) (A) (A) (A) (A) (A) (A) (A) (A) (A) (A)
                 (A) (A) (A) (A) (A) (A) (A) (A) (A) (A) (A) (A)
                 (A) (A) (A) (A) (A) (A) (A) (A) (A) (A) (A) (A)
                 (A) (A) (A) (A) (A) (A) (A) (A) (A) (A) (A) (A)
                 (A) (A) (A) (A) (A) (A) (A) (A) (A) (A) (A) (A)
                 (A) (A) (A) (A) (A) (A) (A) (A) (A) (A) (A) (A)
                 (A) (A) (A) (A) (A) (A) (A) (A) (A) (A) (A) (A)
                 (A) (A) (A) (A) (A) (A) (A) (A) (A) (A) (A) (A)
                 (A) (A) (A) (A) (A) (A)
 The electronic state is 1-A.
 Alpha  occ. eigenvalues --  -90.20493 -90.00888 -19.67801 -19.67561 -19.66929
 Alpha  occ. eigenvalues --  -14.84057 -14.82340 -14.82130 -14.81734 -10.70246
 Alpha  occ. eigenvalues --  -10.69933 -10.66204 -10.55492  -8.51369  -8.35382
 Alpha  occ. eigenvalues --   -6.43563  -6.43543  -6.43497  -6.27368  -6.27170
 Alpha  occ. eigenvalues --   -6.26871  -1.28100  -1.21140  -1.18921  -1.16450
 Alpha  occ. eigenvalues --   -1.08288  -1.05348  -0.95983  -0.93833  -0.85417
 Alpha  occ. eigenvalues --   -0.80765  -0.75430  -0.70854  -0.67695  -0.66336
 Alpha  occ. eigenvalues --   -0.63499  -0.61720  -0.59030  -0.57298  -0.57036
 Alpha  occ. eigenvalues --   -0.55866  -0.54098  -0.53429  -0.51193  -0.47296
 Alpha  occ. eigenvalues --   -0.45880  -0.45624  -0.44651  -0.43530  -0.42521
 Alpha  occ. eigenvalues --   -0.41783  -0.41572  -0.39335  -0.38257  -0.37460
 Alpha  occ. eigenvalues --   -0.37081  -0.31178
 Alpha virt. eigenvalues --   -0.03691  -0.00152   0.00212   0.00831   0.02532
 Alpha virt. eigenvalues --    0.03016   0.03360   0.04243   0.04740   0.05029
 Alpha virt. eigenvalues --    0.05466   0.06064   0.06685   0.06918   0.07495
 Alpha virt. eigenvalues --    0.07564   0.08501   0.08956   0.09665   0.10693
 Alpha virt. eigenvalues --    0.10764   0.11353   0.11726   0.13331   0.13598
 Alpha virt. eigenvalues --    0.14217   0.15063   0.15603   0.16044   0.16686
 Alpha virt. eigenvalues --    0.17120   0.17648   0.18812   0.19223   0.20227
 Alpha virt. eigenvalues --    0.20596   0.21113   0.21388   0.22467   0.22691
 Alpha virt. eigenvalues --    0.23023   0.23655   0.24291   0.24841   0.25266
 Alpha virt. eigenvalues --    0.25498   0.26850   0.27401   0.28288   0.28503
 Alpha virt. eigenvalues --    0.29082   0.29572   0.30266   0.30910   0.31196
 Alpha virt. eigenvalues --    0.31245   0.31881   0.32451   0.32734   0.34188
 Alpha virt. eigenvalues --    0.35117   0.35362   0.36614   0.36953   0.37602
 Alpha virt. eigenvalues --    0.38328   0.39539   0.41206   0.41527   0.43759
 Alpha virt. eigenvalues --    0.45967   0.47138   0.49579   0.50685   0.52381
 Alpha virt. eigenvalues --    0.54796   0.55354   0.58939   0.59587   0.62615
 Alpha virt. eigenvalues --    0.63128   0.64201   0.66006   0.68684   0.69900
 Alpha virt. eigenvalues --    0.71907   0.72273   0.74118   0.75775   0.76312
 Alpha virt. eigenvalues --    0.82724   0.83787   0.86144   0.87994   0.89526
 Alpha virt. eigenvalues --    0.91301   0.92826   0.94564   0.96433   0.98772
 Alpha virt. eigenvalues --    0.99873   1.00454   1.01095   1.01543   1.02378
 Alpha virt. eigenvalues --    1.04841   1.05588   1.06674   1.07136   1.08175
 Alpha virt. eigenvalues --    1.08992   1.09448   1.11199   1.12147   1.13562
 Alpha virt. eigenvalues --    1.13724   1.14423   1.15207   1.17535   1.19422
 Alpha virt. eigenvalues --    1.20606   1.21569   1.23780   1.26592   1.27837
 Alpha virt. eigenvalues --    1.30090   1.30950   1.33745   1.34607   1.36357
 Alpha virt. eigenvalues --    1.36723   1.38677   1.39808   1.42046   1.42391
 Alpha virt. eigenvalues --    1.44445   1.45472   1.46800   1.48507   1.50602
 Alpha virt. eigenvalues --    1.51402   1.57705   1.59685   1.63544   1.69167
 Alpha virt. eigenvalues --    1.71480   1.72747   1.74805   1.75954   1.78374
 Alpha virt. eigenvalues --    1.78924   1.81257   1.81967   1.83302   1.83550
 Alpha virt. eigenvalues --    1.84825   1.88939   1.90366   1.92576   1.95852
 Alpha virt. eigenvalues --    1.97743   1.99793   2.02357   2.04497   2.08885
 Alpha virt. eigenvalues --    2.09619   2.12302   2.13707   2.14480   2.14953
 Alpha virt. eigenvalues --    2.17285   2.22552   2.29618   2.31001   2.33694
 Alpha virt. eigenvalues --    2.34758   2.36569   2.37413   2.39392   2.43055
 Alpha virt. eigenvalues --    2.45507   2.49096   2.50033   2.52639   2.56634
 Alpha virt. eigenvalues --    2.60994   2.65788   2.74642   2.78648   2.84595
 Alpha virt. eigenvalues --    2.88210   2.90213   2.91139   3.05358   3.09527
 Alpha virt. eigenvalues --    3.12144   3.19210   3.86628   3.96769   4.02805
 Alpha virt. eigenvalues --    4.05830   4.10227   4.21622   4.25047   4.27278
 Alpha virt. eigenvalues --    4.32160   4.33312   4.40231   4.44259   4.56755
          Condensed to atoms (all electrons):
               1          2          3          4          5          6
     1  C    9.985874  -1.799257   0.047325  -0.707764  -0.781033  -0.199371
     2  C   -1.799257   9.046637   0.235567  -0.231958  -1.153371  -0.055778
     3  N    0.047325   0.235567   7.498245  -0.157813   0.020134   0.000590
     4  S   -0.707764  -0.231958  -0.157813  17.112524  -0.675875   0.009979
     5  S   -0.781033  -1.153371   0.020134  -0.675875  16.544847   0.441119
     6  O   -0.199371  -0.055778   0.000590   0.009979   0.441119   8.721775
     7  O   -0.125124  -0.039734   0.000601  -0.016071   0.419352  -0.187290
     8  N    0.394321   0.121276  -0.003843   0.005833  -0.566127  -0.161016
     9  H   -0.051806  -0.016490   0.000142  -0.010644   0.090831  -0.003533
    10  C   -0.228429   0.181001   0.072627  -0.064523  -0.033254  -0.000348
    11  O   -0.043325   0.012726  -0.175642   0.003557  -0.003763  -0.000009
    12  C   -0.005350  -0.177212  -0.190139   0.036585  -0.000974  -0.000167
    13  N   -0.873803   1.613375  -0.048223  -0.023725  -0.578515  -0.033249
    14  N    1.099013  -1.230245  -0.034745  -0.138290   0.588795   0.044070
    15  H    0.007609  -0.007852   0.243565  -0.002590   0.000503   0.000001
    16  H   -0.038496   0.000556   0.000036   0.004596   0.057456   0.009149
    17  H    0.002270  -0.003989   0.002987   0.005149   0.000166   0.000000
    18  H    0.000804   0.002514   0.014281   0.002299   0.000025   0.000000
    19  H   -0.001021  -0.002245   0.000491  -0.003449  -0.000036  -0.000000
               7          8          9         10         11         12
     1  C   -0.125124   0.394321  -0.051806  -0.228429  -0.043325  -0.005350
     2  C   -0.039734   0.121276  -0.016490   0.181001   0.012726  -0.177212
     3  N    0.000601  -0.003843   0.000142   0.072627  -0.175642  -0.190139
     4  S   -0.016071   0.005833  -0.010644  -0.064523   0.003557   0.036585
     5  S    0.419352  -0.566127   0.090831  -0.033254  -0.003763  -0.000974
     6  O   -0.187290  -0.161016  -0.003533  -0.000348  -0.000009  -0.000167
     7  O    8.677220  -0.171756   0.009039  -0.000210  -0.000017   0.000003
     8  N   -0.171756   8.071118   0.220017  -0.003653  -0.000097   0.001036
     9  H    0.009039   0.220017   0.244187  -0.000026  -0.000000  -0.000005
    10  C   -0.000210  -0.003653  -0.000026   5.565616   0.560785  -0.422514
    11  O   -0.000017  -0.000097  -0.000000   0.560785   8.224865  -0.081330
    12  C    0.000003   0.001036  -0.000005  -0.422514  -0.081330   6.493743
    13  N   -0.041794   0.062107  -0.001274   0.036888   0.004236   0.010554
    14  N    0.032693  -0.096260   0.003551  -0.041049  -0.009259  -0.011978
    15  H    0.000000  -0.000001   0.000000  -0.013436   0.004606  -0.003426
    16  H   -0.005752   0.213150  -0.014796   0.000115   0.000002  -0.000047
    17  H    0.000000  -0.000000   0.000000  -0.022611   0.000489   0.356487
    18  H   -0.000000   0.000000  -0.000000  -0.101899  -0.001654   0.427808
    19  H   -0.000000  -0.000000   0.000000  -0.021518   0.002568   0.367161
              13         14         15         16         17         18
     1  C   -0.873803   1.099013   0.007609  -0.038496   0.002270   0.000804
     2  C    1.613375  -1.230245  -0.007852   0.000556  -0.003989   0.002514
     3  N   -0.048223  -0.034745   0.243565   0.000036   0.002987   0.014281
     4  S   -0.023725  -0.138290  -0.002590   0.004596   0.005149   0.002299
     5  S   -0.578515   0.588795   0.000503   0.057456   0.000166   0.000025
     6  O   -0.033249   0.044070   0.000001   0.009149   0.000000   0.000000
     7  O   -0.041794   0.032693   0.000000  -0.005752   0.000000  -0.000000
     8  N    0.062107  -0.096260  -0.000001   0.213150  -0.000000   0.000000
     9  H   -0.001274   0.003551   0.000000  -0.014796   0.000000  -0.000000
    10  C    0.036888  -0.041049  -0.013436   0.000115  -0.022611  -0.101899
    11  O    0.004236  -0.009259   0.004606   0.000002   0.000489  -0.001654
    12  C    0.010554  -0.011978  -0.003426  -0.000047   0.356487   0.427808
    13  N    8.314433  -1.398261  -0.000943   0.000310   0.000072  -0.000044
    14  N   -1.398261   8.350939   0.012194   0.001212   0.000014   0.000034
    15  H   -0.000943   0.012194   0.222481  -0.000000   0.000029  -0.000017
    16  H    0.000310   0.001212  -0.000000   0.255817   0.000000  -0.000000
    17  H    0.000072   0.000014   0.000029   0.000000   0.411798  -0.020578
    18  H   -0.000044   0.000034  -0.000017  -0.000000  -0.020578   0.429288
    19  H   -0.000011   0.000330   0.000109   0.000000  -0.017016  -0.019449
              19
     1  C   -0.001021
     2  C   -0.002245
     3  N    0.000491
     4  S   -0.003449
     5  S   -0.000036
     6  O   -0.000000
     7  O   -0.000000
     8  N   -0.000000
     9  H    0.000000
    10  C   -0.021518
    11  O    0.002568
    12  C    0.367161
    13  N   -0.000011
    14  N    0.000330
    15  H    0.000109
    16  H    0.000000
    17  H   -0.017016
    18  H   -0.019449
    19  H    0.407209
 Mulliken charges:
               1
     1  C   -0.682437
     2  C   -0.495520
     3  N   -0.526187
     4  S    0.852182
     5  S    1.629717
     6  O   -0.585922
     7  O   -0.551161
     8  N   -1.086107
     9  H    0.530806
    10  C    0.536436
    11  O   -0.498738
    12  C   -0.800236
    13  N   -0.042133
    14  N   -0.172756
    15  H    0.537168
    16  H    0.516690
    17  H    0.284732
    18  H    0.266589
    19  H    0.286877
 Sum of Mulliken charges =  -0.00000
 Mulliken charges with hydrogens summed into heavy atoms:
               1
     1  C   -0.682437
     2  C   -0.495520
     3  N    0.010980
     4  S    0.852182
     5  S    1.629717
     6  O   -0.585922
     7  O   -0.551161
     8  N   -0.038610
    10  C    0.536436
    11  O   -0.498738
    12  C    0.037962
    13  N   -0.042133
    14  N   -0.172756
 Electronic spatial extent (au):  <R**2>=           3701.6316
 Charge=             -0.0000 electrons
 Dipole moment (field-independent basis, Debye):
    X=             -9.7353    Y=             -5.3270    Z=              2.0495  Tot=             11.2851
 Quadrupole moment (field-independent basis, Debye-Ang):
   XX=            -93.3543   YY=            -90.1448   ZZ=            -94.6790
   XY=            -24.4891   XZ=            -14.1825   YZ=             -1.4475
 Traceless Quadrupole moment (field-independent basis, Debye-Ang):
   XX=             -0.6283   YY=              2.5812   ZZ=             -1.9529
   XY=            -24.4891   XZ=            -14.1825   YZ=             -1.4475
 Octapole moment (field-independent basis, Debye-Ang**2):
  XXX=           -204.4064  YYY=            -41.5810  ZZZ=             -2.3265  XYY=             12.9726
  XXY=             18.2439  XXZ=             38.4837  XZZ=            -11.2832  YZZ=             -8.5837
  YYZ=              4.3232  XYZ=             19.9749
 Hexadecapole moment (field-independent basis, Debye-Ang**3):
 XXXX=          -3767.6565 YYYY=           -591.4376 ZZZZ=           -307.7004 XXXY=           -216.4146
 XXXZ=           -185.8058 YYYX=            -76.6869 YYYZ=              1.2531 ZZZX=            -35.0551
 ZZZY=              2.9513 XXYY=           -730.9679 XXZZ=           -761.3788 YYZZ=           -142.1875
 XXYZ=            -33.1798 YYXZ=            -10.1900 ZZXY=            -29.9038
 N-N= 1.053771242212D+03 E-N=-5.399225057863D+03  KE= 1.389187393561D+03
 D1PCM: PCM CHGder 1st derivatives, ID1Alg=3 FixD1E=F DoIter=F DoCFld=F I1PDM=0.
 Calling FoFJK, ICntrl=      2127 FMM=F ISym2X=0 I1Cent= 0 IOpClX= 0 NMat=1 NMatS=1 NMatT=0.
 ***** Axes restored to original set *****
 -------------------------------------------------------------------
 Center     Atomic                   Forces (Hartrees/Bohr)
 Number     Number              X              Y              Z
 -------------------------------------------------------------------
      1        6          -0.001258946   -0.002945616    0.002434731
      2        6          -0.015445185    0.000056137   -0.006901867
      3        7           0.019145838    0.031191482    0.002548544
      4       16          -0.010549090   -0.002266525    0.000330237
      5       16           0.001896186    0.005785870   -0.008054368
      6        8           0.003923637   -0.000472334    0.003217544
      7        8           0.002265971    0.000598885    0.001704045
      8        7          -0.007034675    0.001832464    0.000993347
      9        1           0.001222400   -0.001098917   -0.000940925
     10        6          -0.006538808   -0.036141876   -0.009861371
     11        8           0.001864130   -0.001616765    0.011899414
     12        6          -0.004080932   -0.000370249   -0.003249264
     13        7           0.002475947   -0.002638517   -0.000080148
     14        7           0.001853128    0.001621640   -0.000239637
     15        1           0.002756064    0.003501042    0.007886156
     16        1           0.003382537   -0.002437776    0.000951491
     17        1           0.002230007    0.003337579   -0.002697219
     18        1          -0.001016865   -0.000036614   -0.000709837
     19        1           0.002908656    0.002100089    0.000769126
 -------------------------------------------------------------------
 Cartesian Forces:  Max     0.036141876 RMS     0.008097892

 GradGradGradGradGradGradGradGradGradGradGradGradGradGradGradGradGradGrad
 Berny optimization.
 FormGI is forming the generalized inverse of G from B-inverse, IUseBI=4.
 Internal  Forces:  Max     0.025225083 RMS     0.006025475
 Search for a local minimum.
 Step number   1 out of a maximum of   94
 All quantities printed in internal units (Hartrees-Bohrs-Radians)
 Mixed Optimization -- RFO/linear search
 Second derivative matrix not updated -- first step.
 ITU=  0
     Eigenvalues ---    0.00588   0.00806   0.01203   0.01219   0.01871
     Eigenvalues ---    0.01904   0.01979   0.01986   0.02102   0.02194
     Eigenvalues ---    0.02570   0.04378   0.07237   0.07658   0.09690
     Eigenvalues ---    0.10735   0.14075   0.15999   0.16000   0.16000
     Eigenvalues ---    0.16000   0.16000   0.16000   0.19730   0.22000
     Eigenvalues ---    0.24988   0.24995   0.24998   0.24999   0.25000
     Eigenvalues ---    0.25000   0.25000   0.27459   0.31061   0.31970
     Eigenvalues ---    0.32693   0.34211   0.34243   0.34827   0.43965
     Eigenvalues ---    0.43970   0.44176   0.45475   0.47939   0.51171
     Eigenvalues ---    0.52710   0.59510   0.67812   0.92853   0.93741
     Eigenvalues ---    0.94382
 RFO step:  Lambda=-1.65214142D-02 EMin= 5.88324073D-03
 Linear search not attempted -- first point.
 Iteration  1 RMS(Cart)=  0.11626496 RMS(Int)=  0.01002765
 Iteration  2 RMS(Cart)=  0.01743712 RMS(Int)=  0.00029206
 Iteration  3 RMS(Cart)=  0.00027757 RMS(Int)=  0.00025149
 Iteration  4 RMS(Cart)=  0.00000007 RMS(Int)=  0.00025149
 Variable       Old X    -DE/DX   Delta X   Delta X   Delta X     New X
                                 (Linear)    (Quad)   (Total)
    R1        3.26841   0.00449   0.00000   0.01302   0.01301   3.28142
    R2        3.37036   0.00406   0.00000   0.01395   0.01395   3.38431
    R3        2.43568  -0.00069   0.00000  -0.00096  -0.00096   2.43472
    R4        2.58702  -0.01695   0.00000  -0.03208  -0.03208   2.55494
    R5        3.28553  -0.00182   0.00000  -0.00554  -0.00555   3.27999
    R6        2.48584   0.00137   0.00000   0.00217   0.00217   2.48801
    R7        2.62004   0.02523   0.00000   0.05087   0.05087   2.67091
    R8        1.92945   0.00056   0.00000   0.00121   0.00121   1.93066
    R9        2.75345  -0.00131   0.00000  -0.00139  -0.00139   2.75207
   R10        2.74677   0.00251   0.00000   0.00262   0.00262   2.74938
   R11        3.08428   0.00159   0.00000   0.00338   0.00338   3.08765
   R12        1.93191   0.00075   0.00000   0.00164   0.00164   1.93354
   R13        1.93196   0.00040   0.00000   0.00089   0.00089   1.93285
   R14        2.31255  -0.00580   0.00000  -0.00608  -0.00608   2.30647
   R15        2.82894  -0.00397   0.00000  -0.01156  -0.01156   2.81738
   R16        2.06976  -0.00104   0.00000  -0.00289  -0.00289   2.06687
   R17        2.05956   0.00064   0.00000   0.00176   0.00176   2.06132
   R18        2.06922   0.00006   0.00000   0.00018   0.00018   2.06940
   R19        2.55599   0.00190   0.00000   0.00347   0.00348   2.55947
    A1        2.13458   0.00750   0.00000   0.02825   0.02826   2.16284
    A2        2.01506  -0.00179   0.00000  -0.00680  -0.00682   2.00824
    A3        2.13290  -0.00571   0.00000  -0.02135  -0.02134   2.11156
    A4        2.21373  -0.01477   0.00000  -0.05540  -0.05541   2.15832
    A5        2.07767   0.01263   0.00000   0.04745   0.04745   2.12511
    A6        1.99167   0.00214   0.00000   0.00808   0.00805   1.99972
    A7        2.31055  -0.02103   0.00000  -0.08896  -0.08900   2.22156
    A8        1.98156   0.00789   0.00000   0.02954   0.02951   2.01107
    A9        1.99099   0.01313   0.00000   0.05925   0.05921   2.05021
   A10        1.48969  -0.00011   0.00000  -0.00090  -0.00093   1.48875
   A11        1.82655   0.00489   0.00000   0.02846   0.02844   1.85499
   A12        1.87026   0.00127   0.00000   0.00483   0.00476   1.87502
   A13        1.89103  -0.00339   0.00000  -0.00938  -0.00936   1.88167
   A14        2.11749  -0.00281   0.00000  -0.01691  -0.01708   2.10041
   A15        1.87621  -0.00024   0.00000  -0.00026  -0.00025   1.87596
   A16        1.87310   0.00002   0.00000  -0.00632  -0.00634   1.86676
   A17        1.97419   0.00115   0.00000   0.01574   0.01500   1.98919
   A18        1.97355   0.00422   0.00000   0.03314   0.03240   2.00596
   A19        1.95534  -0.00099   0.00000   0.00902   0.00792   1.96327
   A20        2.05054   0.01433   0.00000   0.05376   0.05353   2.10407
   A21        2.08507  -0.01574   0.00000  -0.05908  -0.05930   2.02577
   A22        2.14757   0.00141   0.00000   0.00527   0.00507   2.15264
   A23        1.93640  -0.00459   0.00000  -0.03031  -0.03068   1.90572
   A24        1.88399   0.00209   0.00000   0.02063   0.02069   1.90468
   A25        1.93901  -0.00158   0.00000  -0.01372  -0.01416   1.92485
   A26        1.89444   0.00320   0.00000   0.02726   0.02740   1.92184
   A27        1.91247  -0.00038   0.00000  -0.01807  -0.01893   1.89353
   A28        1.89636   0.00154   0.00000   0.01689   0.01687   1.91323
   A29        1.96690   0.00221   0.00000   0.00854   0.00852   1.97542
   A30        1.96146  -0.00246   0.00000  -0.00890  -0.00891   1.95255
    D1        3.10604  -0.00046   0.00000  -0.00927  -0.00920   3.09684
    D2        0.00224  -0.00041   0.00000  -0.01173  -0.01170  -0.00945
    D3        2.27621   0.00030   0.00000   0.01356   0.01350   2.28972
    D4       -1.73764   0.00072   0.00000   0.01378   0.01383  -1.72381
    D5        0.27839  -0.00030   0.00000   0.00420   0.00420   0.28260
    D6       -0.90571   0.00035   0.00000   0.01659   0.01654  -0.88917
    D7        1.36363   0.00078   0.00000   0.01681   0.01686   1.38049
    D8       -2.90353  -0.00024   0.00000   0.00724   0.00724  -2.89629
    D9       -0.00405   0.00032   0.00000   0.00935   0.00938   0.00533
   D10       -3.10789   0.00006   0.00000   0.00572   0.00579  -3.10210
   D11        0.04761   0.00051   0.00000   0.01388   0.01384   0.06145
   D12       -3.10909  -0.00002   0.00000  -0.00071  -0.00062  -3.10970
   D13       -3.11160   0.00086   0.00000   0.02305   0.02295  -3.08864
   D14        0.01489   0.00033   0.00000   0.00846   0.00849   0.02339
   D15        3.12488   0.00084   0.00000   0.02064   0.02042  -3.13789
   D16        0.00015   0.00040   0.00000   0.01147   0.01150   0.01165
   D17       -3.12850  -0.00044   0.00000  -0.01643  -0.01672   3.13796
   D18       -0.00235  -0.00031   0.00000  -0.00909  -0.00906  -0.01142
   D19       -1.05590   0.00774   0.00000   0.22379   0.22403  -0.83187
   D20        2.08425   0.00668   0.00000   0.18697   0.18661   2.27086
   D21        2.10086   0.00831   0.00000   0.23864   0.23900   2.33987
   D22       -1.04218   0.00725   0.00000   0.20183   0.20159  -0.84059
   D23        1.09785   0.00248   0.00000   0.02309   0.02331   1.12116
   D24       -1.14833  -0.00090   0.00000  -0.03298  -0.03324  -1.18156
   D25       -0.86710  -0.00143   0.00000  -0.00523  -0.00496  -0.87206
   D26       -3.11327  -0.00481   0.00000  -0.06130  -0.06151   3.10840
   D27        3.11202   0.00227   0.00000   0.02076   0.02099   3.13301
   D28        0.86585  -0.00111   0.00000  -0.03531  -0.03556   0.83029
   D29       -1.07925   0.00272   0.00000   0.03602   0.03541  -1.04384
   D30        3.13030   0.00020   0.00000   0.00771   0.00758   3.13788
   D31        1.05279  -0.00205   0.00000  -0.01770  -0.01756   1.03524
   D32        2.06081   0.00162   0.00000  -0.00290  -0.00312   2.05769
   D33       -0.01283  -0.00091   0.00000  -0.03121  -0.03095  -0.04378
   D34       -2.09034  -0.00316   0.00000  -0.05662  -0.05608  -2.14642
   D35        0.00406   0.00000   0.00000  -0.00007  -0.00017   0.00389
         Item               Value     Threshold  Converged?
 Maximum Force            0.025225     0.000450     NO 
 RMS     Force            0.006025     0.000300     NO 
 Maximum Displacement     0.524203     0.001800     NO 
 RMS     Displacement     0.125469     0.001200     NO 
 Predicted change in Energy=-1.019285D-02
 GradGradGradGradGradGradGradGradGradGradGradGradGradGradGradGradGradGrad

                          Input orientation:                          
 ---------------------------------------------------------------------
 Center     Atomic      Atomic             Coordinates (Angstroms)
 Number     Number       Type             X           Y           Z
 ---------------------------------------------------------------------
      1          6           0        1.060315    0.487045   -0.372677
      2          6           0       -1.258210    0.880407   -0.312521
      3          7           0       -2.607980    0.899634   -0.237036
      4         16           0       -0.304040   -0.556257   -0.117097
      5         16           0        2.764001   -0.060810   -0.304614
      6          8           0        3.407036    0.454910   -1.505214
      7          8           0        3.280255    0.283437    1.011344
      8          7           0        2.769079   -1.691513   -0.406891
      9          1           0        2.415228   -2.053375   -1.296137
     10          6           0       -3.463731   -0.181887    0.072251
     11          8           0       -3.322246   -1.262074   -0.478096
     12          6           0       -4.486292    0.072630    1.126930
     13          7           0        0.769440    1.724674   -0.581584
     14          7           0       -0.561991    1.971543   -0.553624
     15          1           0       -3.040314    1.810672   -0.401016
     16          1           0        2.367645   -2.175388    0.399876
     17          1           0       -3.981860    0.343373    2.058870
     18          1           0       -5.082781   -0.829114    1.271540
     19          1           0       -5.138311    0.901348    0.831477
 ---------------------------------------------------------------------
                    Distance matrix (angstroms):
                    1          2          3          4          5
     1  C    0.000000
     2  C    2.352427   0.000000
     3  N    3.693916   1.352015   0.000000
     4  S    1.736452   1.735695   2.728029   0.000000
     5  S    1.790900   4.130876   5.457581   3.113439   0.000000
     6  O    2.605911   4.834055   6.163316   4.089182   1.456332
     7  O    2.623948   4.765151   6.050575   3.850407   1.454912
     8  N    2.768965   4.779409   5.971236   3.288898   1.633915
     9  H    3.023624   4.802992   5.922379   3.320529   2.252793
    10  C    4.594825   2.478071   1.413384   3.187421   6.240299
    11  O    4.719891   2.979577   2.289381   3.120587   6.206088
    12  C    5.760678   3.625608   2.464223   4.408439   7.391473
    13  N    1.288400   2.212815   3.493761   2.563348   2.691271
    14  N    2.206434   1.316598   2.331370   2.578152   3.905725
    15  H    4.309054   2.012242   1.021662   3.629071   6.099329
    16  H    3.065045   4.795020   5.883728   3.166503   2.263811
    17  H    5.599696   3.651050   2.732794   4.366982   7.159334
    18  H    6.494102   4.478734   3.374762   4.983887   8.040307
    19  H    6.328080   4.045287   2.746689   5.137565   8.041330
                    6          7          8          9         10
     6  O    0.000000
     7  O    2.525576   0.000000
     8  N    2.494080   2.484576   0.000000
     9  H    2.705345   3.396090   1.023188   0.000000
    10  C    7.078230   6.824937   6.430900   6.319581   0.000000
    11  O    7.020416   6.942626   6.106859   5.849269   1.220534
    12  C    8.329403   7.770268   7.622679   7.617226   1.490892
    13  N    3.069577   3.304357   3.962248   4.182447   4.688519
    14  N    4.354179   4.479027   4.953337   5.061139   3.667298
    15  H    6.680244   6.654081   6.783391   6.745001   2.091305
    16  H    3.410010   2.693060   1.022818   1.701061   6.171412
    17  H    8.204323   7.337522   7.469667   7.610730   2.119201
    18  H    9.024194   8.440726   8.075431   8.019471   2.116252
    19  H    8.870309   8.443129   8.413281   8.385289   2.134020
                   11         12         13         14         15
    11  O    0.000000
    12  C    2.390093   0.000000
    13  N    5.066879   5.768101   0.000000
    14  N    4.252175   4.672288   1.354413   0.000000
    15  H    3.086615   2.728784   3.815000   2.488223   0.000000
    16  H    5.829222   7.249734   4.327586   5.166136   6.765805
    17  H    3.073881   1.093740   5.608462   4.601258   3.015049
    18  H    2.519556   1.090805   6.648639   5.622495   3.733309
    19  H    3.113433   1.095077   6.129937   4.899646   2.597595
                   16         17         18         19
    16  H    0.000000
    17  H    7.029412   0.000000
    18  H    7.621096   1.790710   0.000000
    19  H    8.123543   1.776291   1.786404   0.000000
 Stoichiometry    C4H6N4O3S2
 Framework group  C1[X(C4H6N4O3S2)]
 Deg. of freedom    51
 Full point group                 C1      NOp   1
 Largest Abelian subgroup         C1      NOp   1
 Largest concise Abelian subgroup C1      NOp   1
                         Standard orientation:                         
 ---------------------------------------------------------------------
 Center     Atomic      Atomic             Coordinates (Angstroms)
 Number     Number       Type             X           Y           Z
 ---------------------------------------------------------------------
      1          6           0        0.999823    0.411521   -0.048081
      2          6           0       -1.321674    0.775178   -0.159061
      3          7           0       -2.672791    0.773798   -0.208321
      4         16           0       -0.361595   -0.666347   -0.045532
      5         16           0        2.700442   -0.126005    0.114045
      6          8           0        3.440773    0.534198   -0.952231
      7          8           0        3.086900    0.063801    1.503790
      8          7           0        2.746734   -1.732895   -0.178258
      9          1           0        2.483137   -1.989517   -1.133022
     10          6           0       -3.532033   -0.344066   -0.109632
     11          8           0       -3.319559   -1.349950   -0.767473
     12          6           0       -4.651864   -0.225411    0.867434
     13          7           0        0.705237    1.662682   -0.136343
     14          7           0       -0.627706    1.893126   -0.204119
     15          1           0       -3.105957    1.694150   -0.303771
     16          1           0        2.282466   -2.312618    0.524972
     17          1           0       -4.240490   -0.063050    1.867773
     18          1           0       -5.241383   -1.143000    0.848674
     19          1           0       -5.290069    0.626960    0.611795
 ---------------------------------------------------------------------
 Rotational constants (GHZ):           1.7368947           0.3181151           0.2932230
 Basis read from rwf:  (6D, 7F)
 There are   267 symmetry adapted cartesian basis functions of A   symmetry.
 There are   267 symmetry adapted basis functions of A   symmetry.
   267 basis functions,   488 primitive gaussians,   267 cartesian basis functions
    57 alpha electrons       57 beta electrons
       nuclear repulsion energy      1057.8980484681 Hartrees.
 NAtoms=   19 NActive=   19 NUniq=   19 SFac= 1.00D+00 NAtFMM=   60 NAOKFM=F Big=F
 Integral buffers will be    131072 words long.
 Raffenetti 2 integral format.
 Two-electron integral symmetry is turned on.
 ------------------------------------------------------------------------------
 Polarizable Continuum Model (PCM)
 =================================
 Model                : PCM.
 Atomic radii         : SMD-Coulomb.
 Polarization charges : Total charges.
 Charge compensation  : None.
 Solution method      : On-the-fly selection.
 Cavity type          : VdW (van der Waals Surface) (Alpha=1.000).
 Cavity algorithm     : GePol (No added spheres)
                        Default sphere list used, NSphG=   19.
                        Lebedev-Laikov grids with approx.  5.0 points / Ang**2.
                        Smoothing algorithm: York/Karplus (Gamma=1.0000).
                        Polarization charges: spherical gaussians, with
                                              point-specific exponents (IZeta= 3).
                        Self-potential: point-specific (ISelfS= 7).
                        Self-field    : sphere-specific E.n sum rule (ISelfD= 2).
 1st derivatives      : Analytical E(r).r(x)/FMM algorithm (CHGder, D1EAlg=3).
                        Cavity 1st derivative terms included.
 Solvent              : Water, Eps=  78.355300 Eps(inf)=   1.777849
 ------------------------------------------------------------------------------
 Spheres list:
 ISph  on   Nord     Re0    Alpha      Xe            Ye            Ze
    1   C      1    1.8500  1.000      0.999823      0.411521     -0.048081
    2   C      2    1.8500  1.000     -1.321674      0.775178     -0.159061
    3   N      3    1.8900  1.000     -2.672791      0.773798     -0.208321
    4   S      4    2.4900  1.000     -0.361595     -0.666347     -0.045532
    5   S      5    2.4900  1.000      2.700442     -0.126005      0.114045
    6   O      6    1.5200  1.000      3.440773      0.534198     -0.952231
    7   O      7    1.5200  1.000      3.086900      0.063801      1.503790
    8   N      8    1.8900  1.000      2.746734     -1.732895     -0.178258
    9   H      9    1.2000  1.000      2.483137     -1.989517     -1.133022
   10   C     10    1.8500  1.000     -3.532033     -0.344066     -0.109632
   11   O     11    1.5200  1.000     -3.319559     -1.349950     -0.767473
   12   C     12    1.8500  1.000     -4.651864     -0.225411      0.867434
   13   N     13    1.8900  1.000      0.705237      1.662682     -0.136343
   14   N     14    1.8900  1.000     -0.627706      1.893126     -0.204119
   15   H     15    1.2000  1.000     -3.105957      1.694150     -0.303771
   16   H     16    1.2000  1.000      2.282466     -2.312618      0.524972
   17   H     17    1.2000  1.000     -4.240490     -0.063050      1.867773
   18   H     18    1.2000  1.000     -5.241383     -1.143000      0.848674
   19   H     19    1.2000  1.000     -5.290069      0.626960      0.611795
 ------------------------------------------------------------------------------
 ------------------------------------------------------------------------------
 Atomic radii for non-electrostatic terms: SMD-CDS.
 ------------------------------------------------------------------------------
 Nuclear repulsion after PCM non-electrostatic terms =     1057.9032259929 Hartrees.
 One-electron integrals computed using PRISM.
 NBasis=   267 RedAO= T EigKep=  1.32D-05  NBF=   267
 NBsUse=   267 1.00D-06 EigRej= -1.00D+00 NBFU=   267
 Initial guess from the checkpoint file:  "/jobfs/40775451.gadi-pbs/Gau-545362.chk"
 B after Tr=    -0.000000    0.000000   -0.000000
         Rot=    0.999978    0.005548    0.003377   -0.001541 Ang=   0.76 deg.
 ExpMin= 4.05D-02 ExpMax= 2.19D+04 ExpMxC= 3.30D+03 IAcc=3 IRadAn=         5 AccDes= 0.00D+00
 Harris functional with IExCor= 1009 and IRadAn=       5 diagonalized for initial guess.
 HarFok:  IExCor= 1009 AccDes= 0.00D+00 IRadAn=         5 IDoV= 1 UseB2=F ITyADJ=14
 ICtDFT=  3500011 ScaDFX=  1.000000  1.000000  1.000000  1.000000
 FoFCou: FMM=F IPFlag=           0 FMFlag=      100000 FMFlg1=           0
         NFxFlg=           0 DoJE=T BraDBF=F KetDBF=T FulRan=T
         wScrn=  0.000000 ICntrl=       500 IOpCl=  0 I1Cent=   200000004 NGrid=           0
         NMat0=    1 NMatS0=      1 NMatT0=    0 NMatD0=    1 NMtDS0=    0 NMtDT0=    0
 Petite list used in FoFCou.
 Requested convergence on RMS density matrix=1.00D-08 within 128 cycles.
 Requested convergence on MAX density matrix=1.00D-06.
 Requested convergence on             energy=1.00D-06.
 No special actions if energy rises.
 Inv3:  Mode=1 IEnd=     8457123.
 Iteration    1 A*A^-1 deviation from unit magnitude is 3.77D-15 for   1667.
 Iteration    1 A*A^-1 deviation from orthogonality  is 2.12D-15 for   1673   1556.
 Iteration    1 A^-1*A deviation from unit magnitude is 3.33D-15 for   1667.
 Iteration    1 A^-1*A deviation from orthogonality  is 3.54D-15 for    503    448.
 Error on total polarization charges =  0.03802
 SCF Done:  E(RM062X) =  -1396.73697861     A.U. after   14 cycles
            NFock= 14  Conv=0.44D-08     -V/T= 2.0055
 SMD-CDS (non-electrostatic) energy       (kcal/mol) =       3.25
 (included in total energy above)
 D1PCM: PCM CHGder 1st derivatives, ID1Alg=3 FixD1E=F DoIter=F DoCFld=F I1PDM=0.
 Calling FoFJK, ICntrl=      2127 FMM=F ISym2X=0 I1Cent= 0 IOpClX= 0 NMat=1 NMatS=1 NMatT=0.
 ***** Axes restored to original set *****
 -------------------------------------------------------------------
 Center     Atomic                   Forces (Hartrees/Bohr)
 Number     Number              X              Y              Z
 -------------------------------------------------------------------
      1        6          -0.000698419   -0.001738706    0.001154581
      2        6           0.001132270   -0.002034067   -0.008262217
      3        7          -0.006970426    0.006457838   -0.000104073
      4       16          -0.001117199   -0.003007373   -0.000364788
      5       16           0.001785648   -0.000865097   -0.003391769
      6        8          -0.000305505    0.000251359    0.001743604
      7        8          -0.000058113    0.001198354    0.001752953
      8        7          -0.005180885    0.000986962   -0.001233743
      9        1           0.001058864    0.000105309    0.000408894
     10        6           0.000430792   -0.012014127   -0.003771219
     11        8           0.009207044    0.006005114    0.006608263
     12        6          -0.005025942    0.002019787   -0.003485963
     13        7           0.002826142   -0.000081523   -0.000221983
     14        7          -0.000822102   -0.001357634    0.000584329
     15        1           0.000395695    0.000236938    0.008218309
     16        1           0.002292621    0.000605453    0.000205818
     17        1           0.000433901    0.000970668   -0.000256389
     18        1          -0.000021947    0.000844365   -0.000486662
     19        1           0.000637562    0.001416380    0.000902057
 -------------------------------------------------------------------
 Cartesian Forces:  Max     0.012014127 RMS     0.003472890

 GradGradGradGradGradGradGradGradGradGradGradGradGradGradGradGradGradGrad
 Berny optimization.
 Using GEDIIS/GDIIS optimizer.
 FormGI is forming the generalized inverse of G from B-inverse, IUseBI=4.
 Internal  Forces:  Max     0.010563819 RMS     0.002839095
 Search for a local minimum.
 Step number   2 out of a maximum of   94
 All quantities printed in internal units (Hartrees-Bohrs-Radians)
 Mixed Optimization -- RFO/linear search
 Update second derivatives using D2CorX and points    1    2
 DE= -1.29D-02 DEPred=-1.02D-02 R= 1.26D+00
 TightC=F SS=  1.41D+00  RLast= 4.84D-01 DXNew= 5.0454D-01 1.4514D+00
 Trust test= 1.26D+00 RLast= 4.84D-01 DXMaxT set to 5.05D-01
 ITU=  1  0
 Use linear search instead of GDIIS.
     Eigenvalues ---    0.00587   0.00784   0.00905   0.01205   0.01232
     Eigenvalues ---    0.01898   0.01991   0.02010   0.02104   0.02195
     Eigenvalues ---    0.02571   0.04050   0.07492   0.07593   0.09758
     Eigenvalues ---    0.10658   0.14182   0.15945   0.15999   0.16000
     Eigenvalues ---    0.16000   0.16000   0.16269   0.18857   0.19704
     Eigenvalues ---    0.24175   0.24990   0.24995   0.24999   0.25000
     Eigenvalues ---    0.25000   0.27301   0.29521   0.31417   0.31987
     Eigenvalues ---    0.33149   0.34226   0.34254   0.34863   0.43966
     Eigenvalues ---    0.43982   0.44186   0.45497   0.50054   0.52702
     Eigenvalues ---    0.58681   0.60779   0.67835   0.92848   0.93723
     Eigenvalues ---    0.94358
 RFO step:  Lambda=-1.07303069D-02 EMin= 5.87431359D-03
 Quartic linear search produced a step of  0.89269.
 Iteration  1 RMS(Cart)=  0.13270617 RMS(Int)=  0.05821876
 Iteration  2 RMS(Cart)=  0.12128356 RMS(Int)=  0.01530185
 Iteration  3 RMS(Cart)=  0.03870061 RMS(Int)=  0.00084128
 Iteration  4 RMS(Cart)=  0.00123382 RMS(Int)=  0.00043757
 Iteration  5 RMS(Cart)=  0.00000080 RMS(Int)=  0.00043757
 Variable       Old X    -DE/DX   Delta X   Delta X   Delta X     New X
                                 (Linear)    (Quad)   (Total)
    R1        3.28142   0.00087   0.01162   0.00058   0.01218   3.29360
    R2        3.38431  -0.00109   0.01245  -0.01001   0.00245   3.38676
    R3        2.43472  -0.00043  -0.00085  -0.00068  -0.00153   2.43319
    R4        2.55494   0.00143  -0.02864   0.01268  -0.01596   2.53898
    R5        3.27999   0.00190  -0.00495   0.01063   0.00568   3.28567
    R6        2.48801  -0.00121   0.00194  -0.00357  -0.00162   2.48639
    R7        2.67091  -0.00295   0.04541  -0.02282   0.02259   2.69350
    R8        1.93066  -0.00128   0.00108  -0.00475  -0.00367   1.92700
    R9        2.75207  -0.00149  -0.00124  -0.00215  -0.00339   2.74868
   R10        2.74938   0.00186   0.00234   0.00241   0.00475   2.75413
   R11        3.08765  -0.00168   0.00301  -0.00655  -0.00353   3.08412
   R12        1.93354  -0.00078   0.00146  -0.00315  -0.00169   1.93186
   R13        1.93285  -0.00101   0.00079  -0.00376  -0.00297   1.92987
   R14        2.30647  -0.00722  -0.00543  -0.01044  -0.01586   2.29061
   R15        2.81738   0.00124  -0.01032   0.00898  -0.00134   2.81604
   R16        2.06687   0.00021  -0.00258   0.00172  -0.00086   2.06601
   R17        2.06132  -0.00075   0.00157  -0.00375  -0.00218   2.05914
   R18        2.06940   0.00045   0.00016   0.00196   0.00212   2.07152
   R19        2.55947   0.00092   0.00310   0.00167   0.00478   2.56425
    A1        2.16284   0.00236   0.02522   0.00593   0.03118   2.19402
    A2        2.00824   0.00086  -0.00609   0.00745   0.00127   2.00952
    A3        2.11156  -0.00322  -0.01905  -0.01319  -0.03222   2.07934
    A4        2.15832  -0.00352  -0.04946  -0.00492  -0.05442   2.10391
    A5        2.12511   0.00287   0.04235   0.00357   0.04588   2.17099
    A6        1.99972   0.00066   0.00719   0.00144   0.00851   2.00823
    A7        2.22156  -0.01056  -0.07945  -0.04510  -0.12458   2.09698
    A8        2.01107   0.00617   0.02634   0.03575   0.06207   2.07313
    A9        2.05021   0.00439   0.05286   0.00980   0.06263   2.11284
   A10        1.48875  -0.00108  -0.00083  -0.00599  -0.00693   1.48183
   A11        1.85499   0.00036   0.02538  -0.00873   0.01670   1.87168
   A12        1.87502  -0.00051   0.00425  -0.00855  -0.00435   1.87066
   A13        1.88167  -0.00197  -0.00836  -0.00959  -0.01791   1.86376
   A14        2.10041  -0.00057  -0.01524   0.00248  -0.01291   2.08749
   A15        1.87596   0.00101  -0.00022   0.00919   0.00904   1.88500
   A16        1.86676   0.00139  -0.00566   0.01329   0.00755   1.87431
   A17        1.98919   0.00075   0.01339   0.00638   0.01828   2.00747
   A18        2.00596  -0.00005   0.02893  -0.00664   0.02081   2.02677
   A19        1.96327   0.00053   0.00707   0.00919   0.01423   1.97750
   A20        2.10407  -0.00535   0.04779  -0.04761  -0.00006   2.10401
   A21        2.02577  -0.00275  -0.05294   0.00091  -0.05225   1.97352
   A22        2.15264   0.00810   0.00453   0.04747   0.05178   2.20442
   A23        1.90572  -0.00093  -0.02739  -0.00058  -0.02853   1.87720
   A24        1.90468   0.00059   0.01847   0.00210   0.02060   1.92528
   A25        1.92485   0.00027  -0.01264   0.00542  -0.00793   1.91692
   A26        1.92184   0.00074   0.02446   0.00087   0.02554   1.94738
   A27        1.89353  -0.00089  -0.01690  -0.00796  -0.02629   1.86724
   A28        1.91323   0.00021   0.01506   0.00013   0.01505   1.92828
   A29        1.97542  -0.00039   0.00761  -0.00487   0.00267   1.97809
   A30        1.95255  -0.00006  -0.00795   0.00178  -0.00623   1.94632
    D1        3.09684  -0.00027  -0.00821  -0.00410  -0.01203   3.08481
    D2       -0.00945  -0.00032  -0.01044  -0.00997  -0.02036  -0.02982
    D3        2.28972   0.00056   0.01205   0.00738   0.01936   2.30908
    D4       -1.72381  -0.00023   0.01234  -0.00080   0.01156  -1.71225
    D5        0.28260   0.00015   0.00375   0.00561   0.00942   0.29201
    D6       -0.88917   0.00069   0.01476   0.01401   0.02871  -0.86047
    D7        1.38049  -0.00010   0.01505   0.00583   0.02090   1.40139
    D8       -2.89629   0.00029   0.00646   0.01224   0.01876  -2.87753
    D9        0.00533   0.00018   0.00837   0.00487   0.01336   0.01869
   D10       -3.10210   0.00002   0.00517  -0.00122   0.00426  -3.09784
   D11        0.06145   0.00061   0.01236   0.01940   0.03179   0.09324
   D12       -3.10970   0.00076  -0.00055   0.03852   0.03811  -3.07159
   D13       -3.08864   0.00101   0.02049   0.03256   0.05292  -3.03573
   D14        0.02339   0.00116   0.00758   0.05168   0.05924   0.08263
   D15       -3.13789   0.00078   0.01823   0.02539   0.04285  -3.09504
   D16        0.01165   0.00040   0.01026   0.01307   0.02340   0.03505
   D17        3.13796  -0.00074  -0.01493  -0.02546  -0.04130   3.09666
   D18       -0.01142  -0.00040  -0.00809  -0.01345  -0.02151  -0.03293
   D19       -0.83187   0.00808   0.19999   0.26213   0.46219  -0.36967
   D20        2.27086   0.00810   0.16659   0.28462   0.45102   2.72188
   D21        2.33987   0.00791   0.21336   0.24228   0.45583   2.79569
   D22       -0.84059   0.00793   0.17996   0.26478   0.44465  -0.39594
   D23        1.12116   0.00064   0.02081  -0.00163   0.01959   1.14075
   D24       -1.18156  -0.00087  -0.02967  -0.01519  -0.04529  -1.22686
   D25       -0.87206   0.00069  -0.00443   0.00864   0.00468  -0.86738
   D26        3.10840  -0.00082  -0.05491  -0.00491  -0.06020   3.04821
   D27        3.13301  -0.00022   0.01874  -0.00959   0.00954  -3.14063
   D28        0.83029  -0.00173  -0.03174  -0.02314  -0.05534   0.77495
   D29       -1.04384   0.00047   0.03161  -0.03179  -0.00095  -1.04479
   D30        3.13788  -0.00023   0.00677  -0.03378  -0.02695   3.11092
   D31        1.03524  -0.00104  -0.01567  -0.03863  -0.05385   0.98139
   D32        2.05769   0.00014  -0.00278  -0.01098  -0.01436   2.04333
   D33       -0.04378  -0.00056  -0.02763  -0.01297  -0.04037  -0.08414
   D34       -2.14642  -0.00136  -0.05007  -0.01782  -0.06726  -2.21368
   D35        0.00389   0.00014  -0.00016   0.00549   0.00511   0.00899
         Item               Value     Threshold  Converged?
 Maximum Force            0.010564     0.000450     NO 
 RMS     Force            0.002839     0.000300     NO 
 Maximum Displacement     1.140608     0.001800     NO 
 RMS     Displacement     0.256424     0.001200     NO 
 Predicted change in Energy=-1.391437D-02
 GradGradGradGradGradGradGradGradGradGradGradGradGradGradGradGradGradGrad

                          Input orientation:                          
 ---------------------------------------------------------------------
 Center     Atomic      Atomic             Coordinates (Angstroms)
 Number     Number       Type             X           Y           Z
 ---------------------------------------------------------------------
      1          6           0        1.042933    0.470036   -0.370868
      2          6           0       -1.251449    0.961177   -0.241050
      3          7           0       -2.584819    0.976360   -0.076497
      4         16           0       -0.363658   -0.529242   -0.124603
      5         16           0        2.743393   -0.095844   -0.357650
      6          8           0        3.392909    0.463222   -1.532921
      7          8           0        3.281656    0.189077    0.966426
      8          7           0        2.701513   -1.718396   -0.528375
      9          1           0        2.340169   -2.049563   -1.425508
     10          6           0       -3.272241   -0.211619    0.307881
     11          8           0       -2.770833   -1.300014    0.125488
     12          6           0       -4.572129    0.058755    0.984514
     13          7           0        0.800285    1.722348   -0.546156
     14          7           0       -0.520157    2.028211   -0.481510
     15          1           0       -3.086209    1.853985   -0.211459
     16          1           0        2.344780   -2.245543    0.270247
     17          1           0       -4.361149    0.649099    1.880201
     18          1           0       -5.072501   -0.877481    1.230335
     19          1           0       -5.207249    0.674689    0.337287
 ---------------------------------------------------------------------
                    Distance matrix (angstroms):
                    1          2          3          4          5
     1  C    0.000000
     2  C    2.349949   0.000000
     3  N    3.674725   1.343571   0.000000
     4  S    1.742900   1.738701   2.683786   0.000000
     5  S    1.792194   4.133963   5.442289   3.145777   0.000000
     6  O    2.621603   4.846334   6.173955   4.132813   1.454540
     7  O    2.622818   4.754280   6.010244   3.872291   1.457424
     8  N    2.750442   4.784201   5.950732   3.312461   1.632046
     9  H    3.023816   4.833965   5.935617   3.363690   2.262725
    10  C    4.421094   2.400078   1.425338   2.957664   6.053444
    11  O    4.233704   2.748793   2.292875   2.539906   5.664815
    12  C    5.790953   3.652847   2.432518   4.391709   7.439232
    13  N    1.287591   2.209544   3.498000   2.569461   2.667776
    14  N    2.209842   1.315740   2.352288   2.586975   3.895858
    15  H    4.357813   2.040668   1.019722   3.619337   6.148778
    16  H    3.078994   4.845343   5.899308   3.230671   2.274720
    17  H    5.856916   3.777212   2.662915   4.624679   7.485815
    18  H    6.463604   4.488438   3.366466   4.912263   8.013791
    19  H    6.293500   4.008105   2.671958   5.012301   8.018065
                    6          7          8          9         10
     6  O    0.000000
     7  O    2.516797   0.000000
     8  N    2.499319   2.491876   0.000000
     9  H    2.726515   3.408702   1.022296   0.000000
    10  C    6.947531   6.599076   6.217350   6.154821   0.000000
    11  O    6.622011   6.289450   5.527129   5.393492   1.212138
    12  C    8.363188   7.854887   7.638912   7.617944   1.490183
    13  N    3.046442   3.285731   3.931120   4.167951   4.588581
    14  N    4.343586   4.464607   4.941499   5.069599   3.635099
    15  H    6.757178   6.686482   6.808823   6.793908   2.138000
    16  H    3.418683   2.699959   1.021245   1.707048   5.974042
    17  H    8.474041   7.710971   7.828631   7.944693   2.097319
    18  H    9.005345   8.426098   8.014705   7.960839   2.129608
    19  H    8.803699   8.526027   8.308113   8.215383   2.128536
                   11         12         13         14         15
    11  O    0.000000
    12  C    2.414301   0.000000
    13  N    4.726379   5.828664   0.000000
    14  N    4.063382   4.737770   1.356944   0.000000
    15  H    3.187587   2.619382   3.903099   2.586099   0.000000
    16  H    5.204275   7.325545   4.335452   5.199805   6.821570
    17  H    3.067110   1.093286   5.803402   4.715173   2.729884
    18  H    2.587836   1.089650   6.663681   5.665447   3.672197
    19  H    3.143316   1.096200   6.161861   4.946846   2.488107
                   16         17         18         19
    16  H    0.000000
    17  H    7.479330   0.000000
    18  H    7.603251   1.805213   0.000000
    19  H    8.097246   1.759865   1.795806   0.000000
 Stoichiometry    C4H6N4O3S2
 Framework group  C1[X(C4H6N4O3S2)]
 Deg. of freedom    51
 Full point group                 C1      NOp   1
 Largest Abelian subgroup         C1      NOp   1
 Largest concise Abelian subgroup C1      NOp   1
                         Standard orientation:                         
 ---------------------------------------------------------------------
 Center     Atomic      Atomic             Coordinates (Angstroms)
 Number     Number       Type             X           Y           Z
 ---------------------------------------------------------------------
      1          6           0        0.957290    0.411454   -0.041093
      2          6           0       -1.349827    0.846979   -0.140037
      3          7           0       -2.693066    0.819323   -0.151289
      4         16           0       -0.435562   -0.631934   -0.135984
      5         16           0        2.659879   -0.127702    0.108781
      6          8           0        3.435209    0.614967   -0.872542
      7          8           0        3.015227   -0.044395    1.519764
      8          7           0        2.693541   -1.704633   -0.310421
      9          1           0        2.460649   -1.897474   -1.286977
     10          6           0       -3.384414   -0.422607   -0.045276
     11          8           0       -2.828291   -1.463069   -0.323563
     12          6           0       -4.768165   -0.277056    0.488291
     13          7           0        0.697890    1.672575   -0.054400
     14          7           0       -0.629361    1.947707   -0.117680
     15          1           0       -3.201765    1.700732   -0.215917
     16          1           0        2.255424   -2.353664    0.345135
     17          1           0       -4.692673    0.170100    1.483091
     18          1           0       -5.264710   -1.246431    0.521320
     19          1           0       -5.335490    0.423463   -0.135464
 ---------------------------------------------------------------------
 Rotational constants (GHZ):           1.7762650           0.3338380           0.3014982
 Basis read from rwf:  (6D, 7F)
 There are   267 symmetry adapted cartesian basis functions of A   symmetry.
 There are   267 symmetry adapted basis functions of A   symmetry.
   267 basis functions,   488 primitive gaussians,   267 cartesian basis functions
    57 alpha electrons       57 beta electrons
       nuclear repulsion energy      1068.8667765931 Hartrees.
 NAtoms=   19 NActive=   19 NUniq=   19 SFac= 1.00D+00 NAtFMM=   60 NAOKFM=F Big=F
 Integral buffers will be    131072 words long.
 Raffenetti 2 integral format.
 Two-electron integral symmetry is turned on.
 ------------------------------------------------------------------------------
 Polarizable Continuum Model (PCM)
 =================================
 Model                : PCM.
 Atomic radii         : SMD-Coulomb.
 Polarization charges : Total charges.
 Charge compensation  : None.
 Solution method      : On-the-fly selection.
 Cavity type          : VdW (van der Waals Surface) (Alpha=1.000).
 Cavity algorithm     : GePol (No added spheres)
                        Default sphere list used, NSphG=   19.
                        Lebedev-Laikov grids with approx.  5.0 points / Ang**2.
                        Smoothing algorithm: York/Karplus (Gamma=1.0000).
                        Polarization charges: spherical gaussians, with
                                              point-specific exponents (IZeta= 3).
                        Self-potential: point-specific (ISelfS= 7).
[...]
 6116820,-0.02580974,-0.05266314,0.02150445,0.03104088,-0.07476801,0.03
 743054,0.01434273,-0.00023483,-0.00147911,-0.01719830,0.15124764,0.053
 21297,0.02430342,-0.08357410,-0.03299327,0.03645726,-0.08660149,-0.015
 19253,-0.00191517,0.00658475,-0.02173626,-0.14253442,0.24772015,-0.171
 18420,0.02208488,0.01045587,-0.01322749,-0.00898707,0.01486446,0.01784
 836,0.00208604,-0.00610084,-0.01731412,-0.00128905,0.00533162,0.559363
 91,0.02810201,-0.05384280,0.00294536,0.00037989,0.00197145,-0.00169256
 ,-0.00447300,0.00071668,0.00191756,-0.00684505,0.00373995,-0.00395226,
 0.16689178,0.80184003,-0.00731069,0.00695314,-0.05320133,0.00233606,-0
 .00009847,-0.00017653,0.00218983,0.00065137,0.00001003,0.01378851,-0.0
 0521075,0.00383472,-0.06033575,-0.19107708,0.78917488,-0.01392034,-0.0
 2582547,0.00651498,0.00196869,0.00085966,-0.00174953,-0.00510870,0.000
 63690,0.00137130,-0.00102777,0.00280053,-0.00661280,-0.23370531,-0.231
 10566,0.05400639,0.23741526,0.00145999,-0.00249875,0.00454271,0.000788
 94,-0.00010172,0.00013856,-0.00142272,0.00017408,-0.00014329,0.0002070
 2,0.00164494,-0.00249251,-0.21787983,-0.39117646,0.07777177,0.25863448
 ,0.43530319,-0.00050112,0.00098352,0.00857064,-0.00117397,-0.00065568,
 0.00087218,0.00078554,0.00003699,-0.00025110,-0.00091114,0.00035290,-0
 .00009890,0.05030238,0.07327939,-0.09296034,-0.05845884,-0.07991176,0.
 07698124,0.00461721,0.01455190,-0.02812179,0.00378501,-0.00022173,-0.0
 0075127,-0.00330765,0.00000090,0.00070847,0.00256532,0.00095655,-0.001
 54254,-0.08105829,0.01123689,-0.02278421,0.01198923,-0.01649871,0.0191
 7907,0.06159809,-0.00265565,0.00012531,0.01722338,-0.00130504,-0.00133
 785,0.00268946,0.00239840,0.00035226,-0.00103722,0.00020896,-0.0014882
 4,0.00079551,0.00808281,-0.17663229,0.19641241,-0.00280440,-0.00722193
 ,0.03104437,-0.01297783,0.17358871,0.00881653,0.00897718,-0.01405221,0
 .00152061,0.00245733,-0.00299068,-0.00287918,-0.00054835,0.00144488,-0
 .00074855,0.00039608,-0.00189503,-0.01205537,0.19727499,-0.45328393,-0
 .00427434,0.00313853,-0.00206259,0.01941633,-0.22504520,0.51193080,-0.
 00294338,0.01871559,0.01252970,0.00270185,0.00237013,-0.00458154,-0.00
 450256,-0.00090264,0.00126780,0.00099798,0.00227870,-0.00109803,-0.060
 97837,0.00166778,0.02186247,0.00435600,-0.02494742,-0.01233069,0.00690
 646,0.00137182,-0.00008791,0.20377266,0.00407496,-0.00211161,-0.011136
 55,-0.00147097,-0.00129738,0.00190608,0.00335903,0.00041977,-0.0006414
 7,0.00019076,-0.00290533,0.00197976,0.02064339,-0.16118198,-0.06450879
 ,-0.00056146,-0.03698472,-0.02550975,-0.00090406,0.01120274,0.01806791
 ,0.18669147,0.60425481,-0.00233763,-0.00505480,0.00146673,-0.00136295,
 -0.00062087,0.00147844,0.00192717,0.00012898,-0.00043878,-0.00101616,-
 0.00084108,0.00075219,0.04404908,-0.07299347,-0.16455065,0.00349377,0.
 00261300,0.00816785,0.01083466,-0.02108716,-0.04121725,-0.04755362,-0.
 06627982,0.63720209,0.00012142,-0.00000343,-0.00114204,-0.00010525,-0.
 00002928,0.00022438,0.00044110,0.00009980,-0.00010821,0.00010250,-0.00
 035980,0.00017539,-0.00671324,0.00599152,0.01600604,-0.00156444,-0.001
 81476,-0.00071881,0.00376369,-0.00017468,0.00124529,-0.01092638,-0.002
 28292,-0.04027971,0.01652566,-0.00044571,-0.00100041,0.00043346,-0.000
 14275,-0.00002166,0.00009071,0.00003102,-0.00002082,-0.00000749,-0.000
 18747,0.00007649,0.00003777,-0.00050859,0.01081212,-0.02396155,0.00046
 025,-0.00105226,0.00201335,0.00118211,-0.00179695,-0.00879284,-0.00911
 609,-0.11319963,0.13334801,0.00263762,0.11175453,-0.00024124,0.0006668
 1,0.00129417,0.00032083,0.00030762,-0.00044933,-0.00076136,-0.00012319
 ,0.00017804,0.00002535,0.00040350,-0.00029435,-0.00228259,0.00390138,-
 0.02591368,0.00126828,0.00211050,0.00361208,0.00087333,-0.00165250,-0.
 00000965,-0.00270696,0.12758093,-0.37680726,0.00655277,-0.13128068,0.3
 9427435,0.00247776,-0.00169373,0.00174387,-0.04104180,-0.01873815,0.03
 446166,-0.18688636,-0.03857522,0.08319941,-0.00589823,-0.00056768,0.00
 217828,-0.00448948,0.00118973,-0.00070392,0.00151905,0.00054130,-0.000
 18030,0.00095901,-0.00055886,0.00064936,0.00110799,-0.00090130,-0.0005
 4478,-0.00011252,-0.00001520,0.00018928,0.72158323,0.00725771,0.002453
 57,-0.00501312,-0.04106193,0.00513760,-0.00492899,0.00177678,-0.101080
 28,0.06792849,0.00701704,-0.00101811,0.00303957,-0.00641276,0.00098781
 ,-0.00096777,0.00153556,0.00042239,-0.00021221,0.00120316,-0.00080490,
 0.00106570,0.00176835,-0.00123927,-0.00073179,-0.00016388,-0.00001399,
 0.00027981,-0.15245852,0.45339002,-0.01089565,-0.00402325,0.00621944,0
 .06453567,-0.00952618,-0.00585928,0.02866550,0.07655815,-0.16320479,-0
 .00813269,0.00504652,-0.00245288,0.01011740,-0.00284477,0.00074793,-0.
 00293705,-0.00073193,0.00048375,-0.00200341,0.00143664,-0.00166660,-0.
 00240396,0.00175995,0.00100439,0.00026181,0.00002046,-0.00041729,0.088
 52776,-0.27543938,0.58045207,0.00316540,0.00315090,-0.00371112,-0.0107
 5190,0.00271328,-0.00230436,0.04023748,0.00330304,-0.00874542,-0.00355
 067,-0.00226899,0.00243472,0.00251663,-0.00118810,0.00091040,-0.001336
 58,-0.00053367,-0.00004030,-0.00062098,0.00030950,-0.00037671,-0.00042
 066,0.00056287,0.00033608,0.00005814,0.00001041,-0.00010566,-0.2581179
 6,0.15289491,-0.16798038,0.25655920,-0.00406747,0.00172037,0.00320290,
 0.02046209,-0.00384293,-0.00415119,-0.01111777,-0.03066652,0.07056856,
 -0.00179015,-0.00308330,-0.00219999,0.00359991,-0.00093809,0.00058264,
 -0.00101897,-0.00028134,0.00012341,-0.00067018,0.00051784,-0.00061389,
 -0.00091904,0.00070878,0.00037671,0.00009573,0.00000218,-0.00015882,0.
 17455823,-0.25597401,0.20521594,-0.18844202,0.28246057,0.00561401,0.00
 211337,-0.00009177,-0.02675717,-0.00015285,0.00258964,0.01129803,0.068
 03759,-0.07612118,0.00190144,-0.00229712,-0.00236366,-0.00549364,0.001
 70492,-0.00085295,0.00181103,0.00051309,-0.00018157,0.00104978,-0.0007
 7888,0.00096862,0.00130425,-0.00102544,-0.00057234,-0.00013704,-0.0000
 0850,0.00022742,-0.19780038,0.20936951,-0.31712191,0.20648786,-0.29392
 319,0.38762679,-0.00016659,-0.00012608,0.00009065,0.00394817,-0.000110
 78,0.00027609,-0.02505492,0.00105217,0.00929959,0.00000231,0.00040264,
 -0.00035990,0.00069316,-0.00018003,0.00006604,-0.00023142,-0.00007018,
 0.00002508,-0.00016069,0.00008881,-0.00010488,-0.00015688,0.00011990,0
 .00008324,0.00001798,0.00000580,-0.00002797,-0.22358269,0.01540173,0.0
 1095002,-0.02220020,0.01697445,-0.01186219,0.51789447,-0.00003635,-0.0
 0023208,-0.00055768,-0.00118808,0.00295857,0.00590715,-0.01555748,0.01
 249145,0.00474879,-0.00033290,0.00014860,0.00098411,-0.00028189,0.0000
 4536,-0.00009119,0.00004508,0.00003498,-0.00000869,0.00005647,-0.00002
 591,0.00002497,0.00008009,-0.00007295,-0.00002025,-0.00001291,0.000002
 94,0.00001665,0.01377895,-0.08971772,-0.00208050,0.03130236,0.00246126
 ,0.01344635,0.02501897,0.57598395,0.00067595,-0.00028680,-0.00049619,-
 0.00160032,0.00412517,-0.00130790,0.03110340,0.00139656,0.00025346,0.0
 0051649,0.00079881,0.00006715,-0.00060778,0.00011029,-0.00009264,0.000
 12695,0.00004099,-0.00002536,0.00012266,-0.00008934,0.00010326,0.00017
 964,-0.00012952,-0.00006944,-0.00001974,0.00000079,0.00003022,0.001625
 00,-0.00162836,-0.08967582,-0.03233445,0.01757957,0.00916760,0.0108544
 3,-0.03661340,0.59980903,-0.10269585,0.06013022,-0.06913233,-0.0820242
 4,-0.04145243,0.07537790,0.00129312,-0.00186917,0.00428306,-0.00677235
 ,0.01749739,-0.01869675,-0.02716719,0.01900773,-0.02382521,0.00309655,
 0.00126812,-0.00029183,-0.00481382,0.00337202,-0.00580901,0.00429801,-
 0.00277307,0.00027126,-0.00059146,0.00045210,0.00056404,-0.00162695,0.
 00335072,-0.00407235,-0.00034539,-0.00126010,0.00168713,-0.00029798,0.
 00001307,0.00033975,0.47009849,0.04957650,-0.20179496,0.19118345,-0.00
 966377,0.00810490,-0.00087270,0.00604903,0.00600610,0.00226653,-0.0194
 3256,-0.01112678,0.05207338,0.01791860,-0.01450392,0.00098298,-0.00302
 826,0.00056434,0.00122891,-0.00147701,0.00247820,0.00091176,-0.0004932
 2,0.00074903,-0.00090215,0.00050471,-0.00017708,-0.00026250,0.00027181
 ,-0.00138854,0.00666918,-0.00384987,0.00086811,-0.00256561,-0.00009846
 ,-0.00085529,-0.00062742,-0.07770125,0.28556555,-0.05989571,0.19150299
 ,-0.30784010,0.03194789,0.00509139,-0.00837819,-0.00691255,0.00421593,
 0.00460131,0.03313125,0.04375823,-0.04518703,-0.02102960,0.00008801,-0
 .00617796,0.00102547,-0.00018055,0.00003366,0.00230145,0.00027433,0.00
 137936,0.00473843,-0.00198455,-0.00069885,-0.00002378,-0.00010724,0.00
 035230,0.00061395,0.00578875,-0.00495945,0.00520451,-0.00296676,0.0016
 0440,-0.00007799,-0.00037103,-0.00013396,0.02756579,-0.25092839,0.4377
 9160,-0.08767967,0.06314744,-0.06957431,-0.15123762,-0.04904340,0.0861
 3433,-0.04841442,-0.03022052,0.05135483,0.00305628,-0.02127965,0.03311
 232,0.03487163,-0.00599634,0.00124087,-0.00737478,-0.00257930,0.001845
 83,-0.00548915,0.00418362,-0.00480742,-0.00804783,0.00513759,0.0037779
 2,0.00041053,0.00017579,-0.00101888,0.00100331,0.00946960,-0.01291175,
 0.00228851,-0.00336971,0.00414725,-0.00069292,-0.00108221,0.00169172,-
 0.25145810,0.04197452,-0.01874129,0.51628902,0.02464877,-0.01174681,0.
 02910033,-0.04763420,-0.15277743,0.13507356,-0.02010447,0.00228662,0.0
 0115638,0.02270681,-0.01046709,0.03374472,0.00245598,0.00278181,0.0082
 4931,-0.00002837,0.00085770,-0.00111906,0.00232922,-0.00110631,-0.0007
 9308,-0.00277672,0.00154117,0.00075138,0.00004403,-0.00009022,-0.00028
 189,0.00535990,0.00369582,-0.00638035,-0.00004999,-0.00182263,0.003255
 28,-0.00018220,0.00082722,0.00048102,0.01927363,-0.07347810,0.00595717
 ,-0.00687569,0.24086698,-0.01284690,0.02196787,-0.01135659,0.08379272,
 0.13488781,-0.26547650,0.03801859,0.00353964,-0.01241827,-0.02851796,0
 .04296813,-0.03637847,-0.00943458,0.00959176,-0.00198053,0.00343582,0.
 00001573,-0.00047612,-0.00104976,-0.00217604,0.00132409,0.00229281,-0.
 00170233,-0.00028568,-0.00046948,0.00015721,0.00051689,-0.00769348,-0.
 00719094,0.01153507,-0.00030668,0.00403193,-0.00488669,0.00065078,0.00
 024127,-0.00007004,0.01185027,0.00148990,-0.07171489,-0.07831583,-0.20
 959920,0.39316682,0.00021463,0.00067637,-0.00080469,-0.02053020,0.0189
 7406,-0.02153008,-0.15943364,0.10876059,-0.11689513,-0.00244675,-0.001
 05554,0.00213907,-0.00021531,0.00001177,0.00014760,-0.00005666,-0.0000
 6859,-0.00002852,-0.00000318,-0.00008180,0.00012414,0.00003857,0.00002
 671,0.00000153,0.00000243,0.00000118,0.00000010,0.01788631,-0.00818384
 ,0.00552944,-0.00053949,-0.00484040,0.00845707,-0.00066190,-0.00076943
 ,0.00163907,-0.00001035,-0.00059911,0.00047735,0.00265895,0.00076397,-
 0.00159946,0.16533346,-0.00096128,0.00024681,0.00016833,0.00327895,0.0
 0150978,-0.00371193,0.10909091,-0.14899265,0.16736237,-0.00110934,0.00
 074302,0.00004620,0.00105979,0.00021560,0.00057809,-0.00020190,-0.0001
 4231,-0.00002240,-0.00018926,0.00008319,-0.00017729,-0.00045090,0.0003
 4014,0.00018942,0.00004098,0.00000324,-0.00006336,0.00571869,-0.010443
 00,0.00483518,-0.00117094,0.00482528,0.00285704,0.00049992,-0.00064249
 ,-0.00050641,-0.00014360,-0.00107647,-0.00077942,-0.00192054,-0.000767
 91,0.00105150,-0.11332972,0.15400069,0.00134945,-0.00009247,0.00011212
 ,-0.00012285,-0.00703330,0.00894616,-0.11734414,0.16734458,-0.21359361
 ,0.00196337,0.00004639,0.00004564,-0.00121476,0.00080425,0.00002661,0.
 00068743,0.00020070,-0.00009389,0.00028124,-0.00022767,0.00020718,0.00
 019166,-0.00021265,-0.00013064,-0.00002568,-0.00000495,0.00005103,-0.0
 1353802,0.00798407,-0.01377477,0.00330866,0.00367302,0.00093321,-0.000
 34897,-0.00150604,0.00002211,-0.00010140,-0.00074724,-0.00065455,0.001
 94800,0.00049064,-0.00133106,0.12260708,-0.17101824,0.21914458,-0.0006
 8891,-0.00099246,0.00073572,-0.00025719,-0.00014656,0.00030395,0.00015
 578,0.00003396,-0.00012012,-0.00033172,0.00030845,0.00005832,-0.000198
 32,0.01557009,0.00227458,0.00429720,0.00301934,0.00247265,-0.00051590,
 0.00041290,-0.00047530,-0.13598257,-0.21209903,0.02821104,-0.00145562,
 0.00545888,-0.00260772,-0.00003325,-0.00008067,0.00011086,-0.00002821,
 0.00002502,-0.00005013,0.00000745,0.00000235,-0.00000254,-0.00023363,-
 0.00011941,-0.00033228,0.00039403,0.00018543,-0.00005754,-0.00001002,0
 .00001420,0.00000174,0.13487556,0.00053875,0.00244066,0.00019514,0.000
 67647,0.00045711,-0.00092422,-0.00095152,-0.00013444,0.00031105,0.0005
 6327,0.00001403,-0.00031119,-0.00961112,-0.02480296,-0.00628177,-0.000
 36108,0.00046650,-0.00163178,0.00144456,0.00204845,0.00367838,-0.17529
 747,-0.30024784,0.03111139,-0.00457760,-0.00527942,-0.00143794,0.00024
 070,0.00036172,-0.00054375,-0.00010841,-0.00019346,0.00029273,-0.00003
 682,0.00001348,0.00003348,0.00084788,-0.00011010,0.00080091,-0.0017322
 7,-0.00044076,0.00046659,0.00001093,-0.00007217,0.00005815,0.18840380,
 0.32548701,0.00015379,0.00041143,-0.00046573,0.00006687,0.00006190,0.0
 0007827,-0.00000498,-0.00002293,-0.00001639,0.00020309,-0.00017407,-0.
 00006852,-0.01654580,-0.01904625,0.00538246,0.00029055,-0.00762673,-0.
 00256962,0.00147508,0.00221720,-0.00018094,0.02638888,0.02183932,-0.06
 529627,0.01845957,0.02806128,0.00335385,-0.00000225,0.00000274,0.00000
 719,0.00001422,0.00000757,-0.00000457,0.00000132,0.00000163,-0.0000004
 7,0.00001302,0.00014639,-0.00002720,0.00000775,-0.00005936,-0.00009388
 ,0.00000141,-0.00000147,-0.00000532,-0.03052234,-0.02581930,0.05990623
 ,-0.00021702,0.00000462,0.00027144,0.00039983,-0.00142440,-0.00063354,
 -0.00248178,-0.00175998,-0.00064618,0.00014724,-0.00007033,-0.00025330
 ,0.00038448,-0.00009497,0.00006234,-0.00011606,-0.00004512,0.00001062,
 -0.00008467,0.00005141,-0.00006065,-0.00009569,0.00008004,0.00004024,0
 .00001210,-0.00000054,-0.00001795,-0.00382337,0.03126035,0.02157897,-0
 .00217440,-0.00294860,-0.00295766,-0.05173782,0.03637320,0.02523565,-0
 .00029998,0.00031502,0.00009444,-0.00010461,-0.00019643,-0.00004501,-0
 .00014919,0.00031850,0.00020777,0.00000158,-0.00001997,-0.00000013,0.0
 5541518,-0.00013334,-0.00007267,0.00005619,0.00094550,-0.00018616,-0.0
 0033306,-0.00129803,-0.00031121,0.00093204,-0.00008204,0.00011380,-0.0
 0005109,0.00014048,-0.00004194,0.00001230,-0.00004357,-0.00001089,0.00
 000788,-0.00002588,0.00001963,-0.00002123,-0.00003339,0.00002458,0.000
 01527,0.00000330,0.00000064,-0.00000607,0.00273150,-0.00532215,-0.0017
 5279,0.00077401,0.00140239,0.00008809,0.03354420,-0.22656144,-0.129255
 72,-0.00003960,0.00007395,-0.00005843,-0.00008967,-0.00009023,0.000196
 75,0.00001116,0.00000422,0.00004682,0.00000163,-0.00000774,-0.00000005
 ,-0.03912209,0.24272655,0.00006017,0.00003203,-0.00003015,0.00011634,0
 .00038866,0.00012520,0.00097288,-0.00007360,0.00030915,0.00004955,-0.0
 0002620,-0.00006188,-0.00002669,0.00000039,-0.00000718,0.00000528,0.00
 000240,-0.00000069,0.00000432,-0.00000273,0.00000642,0.00000908,-0.000
 00530,-0.00000276,-0.00000138,0.00000019,0.00000143,0.00194563,0.00077
 896,-0.00145646,-0.00173887,0.00013235,-0.00134074,0.02322173,-0.12918
 129,-0.13213100,0.00002889,-0.00005521,0.00002524,0.00002281,-0.000003
 92,0.00001155,-0.00002931,-0.00028789,-0.00014971,-0.00000042,0.000001
 49,0.00000052,-0.02678264,0.14026103,0.14047414,-0.00029528,-0.0000630
 5,0.00006763,0.00105202,-0.00022380,0.00133714,-0.00742509,0.00169477,
 0.00038000,0.00001378,0.00002897,0.00004306,0.00040573,-0.00011252,0.0
 0005403,-0.00013652,-0.00003998,0.00001142,-0.00009010,0.00005893,-0.0
 0007066,-0.00009599,0.00007805,0.00004910,0.00001025,0.00000075,-0.000
 01757,-0.01477962,-0.02864038,0.01431559,0.00359858,0.00113774,0.00067
 034,-0.10843873,-0.10128568,0.05160260,-0.00027603,-0.00007022,-0.0000
 7260,-0.00061623,0.00005897,0.00024011,-0.00015077,0.00013486,-0.00044
 747,0.00000297,-0.00002213,-0.00000014,0.00278967,0.00465336,-0.003506
 20,0.11752426,-0.00004347,-0.00003921,0.00004887,0.00043349,0.00014997
 ,-0.00044309,0.00140785,-0.00029460,-0.00021095,-0.00002898,0.00003090
 ,-0.00002677,-0.00000456,-0.00000095,0.00000217,0.00000213,0.00000208,
 -0.00000024,0.00000464,-0.00000079,0.00000017,0.00000128,-0.00000256,-
 0.00000316,-0.00000016,0.00000032,0.00000071,0.00623318,0.00572999,-0.
 00382615,-0.00015788,0.00074708,-0.00076220,-0.10726758,-0.22357224,0.
 09816315,0.00002680,0.00006178,-0.00006535,0.00012172,-0.00004220,0.00
 002864,0.00016488,-0.00002725,0.00001663,0.00000068,0.00000059,0.00000
 054,-0.01179237,-0.01770748,0.01168704,0.11133116,0.23712983,-0.000018
 09,-0.00000884,0.00007538,0.00041672,0.00024067,0.00018171,0.00054693,
 0.00013060,0.00089465,0.00003845,-0.00000880,-0.00012089,0.00005997,-0
 .00000721,0.00001791,-0.00001369,-0.00000504,0.00000155,-0.00000963,0.
 00000687,-0.00001026,-0.00001683,0.00001201,0.00000583,0.00000192,0.00
 000039,-0.00000268,0.00241272,-0.00009805,-0.00353585,-0.00174420,-0.0
 0013376,-0.00000710,0.05443679,0.09824816,-0.09821598,-0.00005572,-0.0
 0000473,-0.00005745,0.00006965,-0.00004291,0.00002001,-0.00024927,-0.0
 0035852,0.00028331,0.00000064,-0.00000309,0.00000023,-0.00996581,-0.01
 430663,0.00865064,-0.06075546,-0.10466086,0.10068974,0.00004962,-0.000
 13206,0.00004669,0.00055020,0.00029286,0.00006096,-0.00086971,0.000638
 34,0.00069004,0.00033791,0.00024224,-0.00020038,0.00016740,-0.00005353
 ,0.00001463,-0.00006340,-0.00001890,0.00000293,-0.00003961,0.00001909,
 -0.00002229,-0.00002922,0.00002803,0.00001975,0.00000312,0.00000043,-0
 .00000607,-0.00614443,0.00406607,-0.03325578,-0.00833750,0.00359124,0.
 00063003,-0.08918081,0.01387637,-0.09114849,-0.00017285,-0.00007705,-0
 .00001474,0.00014306,0.00002135,0.00005557,-0.00192689,-0.00067934,0.0
 0059690,0.00000077,-0.00000797,0.00000010,0.00213449,-0.00193754,0.005
 64881,0.00690709,-0.00043281,0.01484491,0.09647074,-0.00002661,0.00000
 118,0.00004213,0.00023991,-0.00020530,-0.00031270,-0.00113744,-0.00004
 558,0.00032970,-0.00010185,-0.00000455,0.00002169,0.00001124,0.0000105
 8,0.00000118,0.00000455,0.00000017,0.00000084,-0.00000175,-0.00000115,
 -0.00000112,-0.00000833,0.00000226,0.00000040,0.00000171,0.,-0.0000009
 3,0.00288465,-0.00517693,0.00560701,0.00274861,0.00108842,-0.00016417,
 0.01496354,-0.05328768,0.04640714,-0.00000048,0.00003931,-0.00003599,-
 0.00002098,-0.00002761,0.00003379,-0.00047320,0.00019228,0.00017730,0.
 00000139,-0.00000068,0.00000015,-0.01092834,0.00594615,-0.02364840,0.0
 1128021,-0.00216526,0.02099975,-0.01943682,0.05363440,0.00000177,0.000
 03763,-0.00003636,-0.00042640,0.00007331,0.00050389,0.00189168,-0.0000
 3724,0.00081612,0.00008546,-0.00013399,0.00009259,-0.00005339,-0.00000
 470,0.00000317,0.00000899,0.00000382,-0.00000280,0.00001621,-0.0000034
 3,0.00000452,0.00001482,-0.00000978,-0.00000762,-0.00000132,-0.0000003
 7,0.00000248,0.00291620,-0.00002697,0.00367527,0.00069169,-0.00134700,
 0.00042682,-0.09717383,0.04681099,-0.28723403,0.00000349,0.00001346,0.
 00004177,0.00001622,0.00001997,-0.00010572,0.00001261,-0.00016120,-0.0
 0003841,-0.00000111,0.00000372,0.00000017,-0.00613859,0.00416871,-0.01
 442370,-0.00390091,0.00005087,-0.00887073,0.10203641,-0.04945779,0.305
 15257\\0.00002270,0.00000342,0.00000954,-0.00000277,-0.00002620,-0.000
 00102,0.00003712,0.00001938,-0.00000502,0.00000158,0.00001022,-0.00000
 740,0.00001080,-0.00000799,0.00000195,-0.00000743,-0.00001062,0.000002
 66,0.00000326,0.00000835,0.00001888,-0.00002661,0.00002237,-0.00000163
 ,0.00002062,-0.00000762,0.00001815,-0.00001602,-0.00006236,0.00001201,
 -0.00001956,0.00005361,-0.00002989,0.00000573,0.00006384,0.00000726,-0
 .00001015,-0.00001181,0.00000109,-0.00001338,0.00001916,-0.00001347,-0
 .00000043,-0.00001622,-0.00000743,0.00001006,-0.00000665,0.00002156,0.
 00000956,-0.00001128,-0.00000722,-0.00000568,-0.00000782,-0.00001425,-
 0.00001939,-0.00003176,-0.00000577\\\@
 The archive entry for this job was punched.


 EVERY WORD THAT YOU WRITE IS A BLOW THAT SMITES THE DEVIL.
     -- ST. BERNARD OF CLAIRVAUX
 Job cpu time:       0 days  0 hours 55 minutes 44.7 seconds.
 Elapsed time:       0 days  0 hours  3 minutes 39.5 seconds.
 File lengths (MBytes):  RWF=    219 Int=      0 D2E=      0 Chk=     13 Scr=      1
 Normal termination of Gaussian 16 at Fri May 20 22:23:01 2022.
