 Entering Gaussian System, Link 0=g16
 AtFile(1): /home/561/yj5695/Basis/6-31pGd.gbs
 Initial command:
 /apps/gaussian/g16c01/g16/l1.exe "/jobfs/48773902.gadi-pbs/Gau-2409411.inp" -scrdir="/jobfs/48773902.gadi-pbs/"
 Entering Link 1 = /apps/gaussian/g16c01/g16/l1.exe PID=   2409412.
  
 Copyright (c) 1988-2019, Gaussian, Inc.  All Rights Reserved.
  
 This is part of the Gaussian(R) 16 program.  It is based on
 the Gaussian(R) 09 system (copyright 2009, Gaussian, Inc.),
 the Gaussian(R) 03 system (copyright 2003, Gaussian, Inc.),
 the Gaussian(R) 98 system (copyright 1998, Gaussian, Inc.),
 the Gaussian(R) 94 system (copyright 1995, Gaussian, Inc.),
 the Gaussian 92(TM) system (copyright 1992, Gaussian, Inc.),
 the Gaussian 90(TM) system (copyright 1990, Gaussian, Inc.),
 the Gaussian 88(TM) system (copyright 1988, Gaussian, Inc.),
 the Gaussian 86(TM) system (copyright 1986, Carnegie Mellon
 University), and the Gaussian 82(TM) system (copyright 1983,
 Carnegie Mellon University). Gaussian is a federally registered
 trademark of Gaussian, Inc.
  
 This software contains proprietary and confidential information,
 including trade secrets, belonging to Gaussian, Inc.
  
 This software is provided under written license and may be
 used, copied, transmitted, or stored only in accord with that
 written license.
  
 The following legend is applicable only to US Government
 contracts under FAR:
  
                    RESTRICTED RIGHTS LEGEND
  
 Use, reproduction and disclosure by the US Government is
 subject to restrictions as set forth in subparagraphs (a)
 and (c) of the Commercial Computer Software - Restricted
 Rights clause in FAR 52.227-19.
  
 Gaussian, Inc.
 340 Quinnipiac St., Bldg. 40, Wallingford CT 06492
  
  
 ---------------------------------------------------------------
 Warning -- This program may not be used in any manner that
 competes with the business of Gaussian, Inc. or will provide
 assistance to any competitor of Gaussian, Inc.  The licensee
 of this program is prohibited from giving any competitor of
 Gaussian, Inc. access to this program.  By using this program,
 the user acknowledges that Gaussian, Inc. is engaged in the
 business of creating and licensing software in the field of
 computational chemistry and represents and warrants to the
 licensee that it is not a competitor of Gaussian, Inc. and that
 it will not use this program in any manner prohibited above.
 ---------------------------------------------------------------
  

 Cite this work as:
 Gaussian 16, Revision C.01,
 M. J. Frisch, G. W. Trucks, H. B. Schlegel, G. E. Scuseria, 
 M. A. Robb, J. R. Cheeseman, G. Scalmani, V. Barone, 
 G. A. Petersson, H. Nakatsuji, X. Li, M. Caricato, A. V. Marenich, 
 J. Bloino, B. G. Janesko, R. Gomperts, B. Mennucci, H. P. Hratchian, 
 J. V. Ortiz, A. F. Izmaylov, J. L. Sonnenberg, D. Williams-Young, 
 F. Ding, F. Lipparini, F. Egidi, J. Goings, B. Peng, A. Petrone, 
 T. Henderson, D. Ranasinghe, V. G. Zakrzewski, J. Gao, N. Rega, 
 G. Zheng, W. Liang, M. Hada, M. Ehara, K. Toyota, R. Fukuda, 
 J. Hasegawa, M. Ishida, T. Nakajima, Y. Honda, O. Kitao, H. Nakai, 
 T. Vreven, K. Throssell, J. A. Montgomery, Jr., J. E. Peralta, 
 F. Ogliaro, M. J. Bearpark, J. J. Heyd, E. N. Brothers, K. N. Kudin, 
 V. N. Staroverov, T. A. Keith, R. Kobayashi, J. Normand, 
 K. Raghavachari, A. P. Rendell, J. C. Burant, S. S. Iyengar, 
 J. Tomasi, M. Cossi, J. M. Millam, M. Klene, C. Adamo, R. Cammi, 
 J. W. Ochterski, R. L. Martin, K. Morokuma, O. Farkas, 
 J. B. Foresman, and D. J. Fox, Gaussian, Inc., Wallingford CT, 2019.
 
 ******************************************
 Gaussian 16:  ES64L-G16RevC.01  3-Jul-2019
                29-Jun-2022 
 ******************************************
 %nproc=16
 Will use up to   16 processors via shared memory.
 %mem=50gb
 -----------------------------------------------------
 #m062X/gen 6D OPT Freq=noraman SCRF=(SMD,Solvent=h2o)
 -----------------------------------------------------
 1/18=20,19=15,26=3,38=1/1,3;
 2/9=110,12=2,17=6,18=5,40=1/2;
 3/5=7,8=2,11=2,25=1,30=1,70=32201,71=1,72=1,74=-55/1,2,3;
 4//1;
 5/5=2,38=5,53=1/2;
 6/7=2,8=2,9=2,10=2,28=1/1;
 7//1,2,3,16;
 1/18=20,19=15,26=3/3(2);
 2/9=110/2;
 99//99;
 2/9=110/2;
 3/5=7,6=1,8=2,11=2,25=1,30=1,70=32205,71=1,72=1,74=-55,82=7/1,2,3;
 4/5=5,16=3,69=1/1;
 5/5=2,38=5,53=1/2;
 7//1,2,3,16;
 1/18=20,19=15,26=3/3(-5);
 2/9=110/2;
 6/7=2,8=2,9=2,10=2,19=2,28=1/1;
 99/9=1/99;
 ------------------
 HA.29.smd.a1c2.smd
 ------------------
 Symbolic Z-matrix:
 Charge =  0 Multiplicity = 1
 C                    -1.27311   0.46294  -1.15022 
 C                    -2.45537   0.5148   -1.91208 
 Cl                   -4.01207   0.6777   -1.15006 
 C                    -2.42483   0.43473  -3.28878 
 H                    -3.34405   0.47753  -3.86481 
 C                    -1.1894    0.30902  -3.95052 
 C                    -0.00509   0.23836  -3.19113 
 C                     1.28868  -0.01301  -3.87376 
 C                    -0.05661   0.31113  -1.80574 
 H                     0.86468   0.24717  -1.23586 
 S                    -1.25136   0.5994    0.62162 
 O                     0.1437    0.45444   1.03266 
 O                    -1.98519   1.80149   1.01423 
 N                    -2.0568   -0.67242   1.29259 
 H                    -1.64907  -1.57102   1.02695 
 H                    -3.05977  -0.65176   1.10355 
 N                    -1.11033   0.1909   -5.31006 
 C                     0.11746   0.65102  -5.95052 
 N                     1.26289   0.07476  -5.22635 
 C                     0.20773   2.16999  -6.02633 
 H                    -1.95236   0.44374  -5.82098 
 H                     0.13714   0.22769  -6.95658 
 H                     1.12476   2.46775  -6.54325 
 H                     0.20686   2.60723  -5.02203 
 O                     2.30543  -0.33761  -3.24438 
 C                     2.46565  -0.15922  -5.97576 
 C                     3.6946   -0.14645  -5.30233 
 C                     3.76389   0.14207  -3.82747 
 C                     4.84693  -0.39947  -6.05372 
 H                     5.81151  -0.39468  -5.55218 
 C                     4.77784  -0.64647  -7.42464 
 H                     5.68891  -0.83812  -7.98408 
 C                     3.54523  -0.64057  -8.07715 
 H                     3.48589  -0.82572  -9.14529 
 C                     2.38401  -0.39571  -7.34684 
 H                     1.41078  -0.38193  -7.83061 
 H                    -0.64834   2.55747  -6.58713 
 H                     4.80407   0.21036  -3.49949 
 H                     3.2734   -0.64538  -3.24349 
 H                     3.26038   1.08547  -3.58924 
 

 GradGradGradGradGradGradGradGradGradGradGradGradGradGradGradGradGradGrad
 Berny optimization.
 Initialization pass.
                           ----------------------------
                           !    Initial Parameters    !
                           ! (Angstroms and Degrees)  !
 --------------------------                            --------------------------
 ! Name  Definition              Value          Derivative Info.                !
 --------------------------------------------------------------------------------
 ! R1    R(1,2)                  1.4074         estimate D2E/DX2                !
 ! R2    R(1,9)                  1.3902         estimate D2E/DX2                !
 ! R3    R(1,11)                 1.7772         estimate D2E/DX2                !
 ! R4    R(2,3)                  1.7408         estimate D2E/DX2                !
 ! R5    R(2,4)                  1.3794         estimate D2E/DX2                !
 ! R6    R(4,5)                  1.0856         estimate D2E/DX2                !
 ! R7    R(4,6)                  1.4071         estimate D2E/DX2                !
 ! R8    R(6,7)                  1.4086         estimate D2E/DX2                !
 ! R9    R(6,17)                 1.367          estimate D2E/DX2                !
 ! R10   R(7,8)                  1.4843         estimate D2E/DX2                !
 ! R11   R(7,9)                  1.3883         estimate D2E/DX2                !
 ! R12   R(8,19)                 1.3557         estimate D2E/DX2                !
 ! R13   R(8,25)                 1.2391         estimate D2E/DX2                !
 ! R14   R(9,10)                 1.0852         estimate D2E/DX2                !
 ! R15   R(11,12)                1.4616         estimate D2E/DX2                !
 ! R16   R(11,13)                1.4621         estimate D2E/DX2                !
 ! R17   R(11,14)                1.6482         estimate D2E/DX2                !
 ! R18   R(14,15)                1.0219         estimate D2E/DX2                !
 ! R19   R(14,16)                1.0208         estimate D2E/DX2                !
 ! R20   R(17,18)                1.4592         estimate D2E/DX2                !
 ! R21   R(17,21)                1.0168         estimate D2E/DX2                !
 ! R22   R(18,19)                1.4726         estimate D2E/DX2                !
 ! R23   R(18,20)                1.5235         estimate D2E/DX2                !
 ! R24   R(18,22)                1.0917         estimate D2E/DX2                !
 ! R25   R(19,26)                1.4363         estimate D2E/DX2                !
 ! R26   R(20,23)                1.094          estimate D2E/DX2                !
 ! R27   R(20,24)                1.0954         estimate D2E/DX2                !
 ! R28   R(20,37)                1.0943         estimate D2E/DX2                !
 ! R29   R(25,28)                1.6423         estimate D2E/DX2                !
 ! R30   R(25,39)                1.0157         estimate D2E/DX2                !
 ! R31   R(26,27)                1.4014         estimate D2E/DX2                !
 ! R32   R(26,35)                1.3937         estimate D2E/DX2                !
 ! R33   R(27,28)                1.5044         estimate D2E/DX2                !
 ! R34   R(27,29)                1.3987         estimate D2E/DX2                !
 ! R35   R(28,38)                1.0928         estimate D2E/DX2                !
 ! R36   R(28,39)                1.0962         estimate D2E/DX2                !
 ! R37   R(28,40)                1.0956         estimate D2E/DX2                !
 ! R38   R(29,30)                1.0872         estimate D2E/DX2                !
 ! R39   R(29,31)                1.3947         estimate D2E/DX2                !
 ! R40   R(31,32)                1.0862         estimate D2E/DX2                !
 ! R41   R(31,33)                1.3947         estimate D2E/DX2                !
 ! R42   R(33,34)                1.0857         estimate D2E/DX2                !
 ! R43   R(33,35)                1.3935         estimate D2E/DX2                !
 ! R44   R(35,36)                1.0869         estimate D2E/DX2                !
 ! A1    A(2,1,9)              118.9369         estimate D2E/DX2                !
 ! A2    A(2,1,11)             123.1696         estimate D2E/DX2                !
 ! A3    A(9,1,11)             117.8904         estimate D2E/DX2                !
 ! A4    A(1,2,3)              121.1756         estimate D2E/DX2                !
 ! A5    A(1,2,4)              121.3            estimate D2E/DX2                !
 ! A6    A(3,2,4)              117.5241         estimate D2E/DX2                !
 ! A7    A(2,4,5)              120.5658         estimate D2E/DX2                !
 ! A8    A(2,4,6)              119.6037         estimate D2E/DX2                !
 ! A9    A(5,4,6)              119.8278         estimate D2E/DX2                !
 ! A10   A(4,6,7)              119.283          estimate D2E/DX2                !
 ! A11   A(4,6,17)             121.7514         estimate D2E/DX2                !
 ! A12   A(7,6,17)             118.8949         estimate D2E/DX2                !
 ! A13   A(6,7,8)              119.5645         estimate D2E/DX2                !
 ! A14   A(6,7,9)              120.2748         estimate D2E/DX2                !
 ! A15   A(8,7,9)              120.0132         estimate D2E/DX2                !
 ! A16   A(7,8,19)             115.5517         estimate D2E/DX2                !
 ! A17   A(7,8,25)             121.737          estimate D2E/DX2                !
 ! A18   A(19,8,25)            122.6403         estimate D2E/DX2                !
 ! A19   A(1,9,7)              120.5813         estimate D2E/DX2                !
 ! A20   A(1,9,10)             120.1136         estimate D2E/DX2                !
 ! A21   A(7,9,10)             119.305          estimate D2E/DX2                !
 ! A22   A(1,11,12)            106.5259         estimate D2E/DX2                !
 ! A23   A(1,11,13)            108.9477         estimate D2E/DX2                !
 ! A24   A(1,11,14)            109.9155         estimate D2E/DX2                !
 ! A25   A(12,11,13)           119.0192         estimate D2E/DX2                !
 ! A26   A(12,11,14)           105.9874         estimate D2E/DX2                !
 ! A27   A(13,11,14)           106.2508         estimate D2E/DX2                !
 ! A28   A(11,14,15)           112.1939         estimate D2E/DX2                !
 ! A29   A(11,14,16)           112.9003         estimate D2E/DX2                !
 ! A30   A(15,14,16)           111.2025         estimate D2E/DX2                !
 ! A31   A(6,17,18)            117.2548         estimate D2E/DX2                !
 ! A32   A(6,17,21)            115.4891         estimate D2E/DX2                !
 ! A33   A(18,17,21)           113.4415         estimate D2E/DX2                !
 ! A34   A(17,18,19)           108.3752         estimate D2E/DX2                !
 ! A35   A(17,18,20)           112.7093         estimate D2E/DX2                !
 ! A36   A(17,18,22)           107.2998         estimate D2E/DX2                !
 ! A37   A(19,18,20)           111.6254         estimate D2E/DX2                !
 ! A38   A(19,18,22)           106.7045         estimate D2E/DX2                !
 ! A39   A(20,18,22)           109.8584         estimate D2E/DX2                !
 ! A40   A(8,19,18)            122.0581         estimate D2E/DX2                !
 ! A41   A(8,19,26)            119.6099         estimate D2E/DX2                !
 ! A42   A(18,19,26)           117.2917         estimate D2E/DX2                !
 ! A43   A(18,20,23)           110.1535         estimate D2E/DX2                !
 ! A44   A(18,20,24)           110.6285         estimate D2E/DX2                !
 ! A45   A(18,20,37)           109.401          estimate D2E/DX2                !
 ! A46   A(23,20,24)           108.9805         estimate D2E/DX2                !
 ! A47   A(23,20,37)           108.4961         estimate D2E/DX2                !
 ! A48   A(24,20,37)           109.1421         estimate D2E/DX2                !
 ! A49   A(8,25,28)            118.1551         estimate D2E/DX2                !
 ! A50   A(8,25,39)            149.5228         estimate D2E/DX2                !
 ! A51   A(19,26,27)           118.8245         estimate D2E/DX2                !
 ! A52   A(19,26,35)           119.4638         estimate D2E/DX2                !
 ! A53   A(27,26,35)           121.7115         estimate D2E/DX2                !
 ! A54   A(26,27,28)           120.8793         estimate D2E/DX2                !
 ! A55   A(26,27,29)           117.5589         estimate D2E/DX2                !
 ! A56   A(28,27,29)           121.5596         estimate D2E/DX2                !
 ! A57   A(25,28,27)           104.5458         estimate D2E/DX2                !
 ! A58   A(25,28,38)           139.1989         estimate D2E/DX2                !
 ! A59   A(25,28,40)            76.4771         estimate D2E/DX2                !
 ! A60   A(27,28,38)           110.4911         estimate D2E/DX2                !
 ! A61   A(27,28,39)           111.3394         estimate D2E/DX2                !
 ! A62   A(27,28,40)           110.9253         estimate D2E/DX2                !
 ! A63   A(38,28,39)           108.1132         estimate D2E/DX2                !
 ! A64   A(38,28,40)           108.5652         estimate D2E/DX2                !
 ! A65   A(39,28,40)           107.2823         estimate D2E/DX2                !
 ! A66   A(27,29,30)           118.8371         estimate D2E/DX2                !
 ! A67   A(27,29,31)           121.2822         estimate D2E/DX2                !
 ! A68   A(30,29,31)           119.8794         estimate D2E/DX2                !
 ! A69   A(29,31,32)           119.7341         estimate D2E/DX2                !
 ! A70   A(29,31,33)           120.1925         estimate D2E/DX2                !
 ! A71   A(32,31,33)           120.0725         estimate D2E/DX2                !
 ! A72   A(31,33,34)           120.522          estimate D2E/DX2                !
 ! A73   A(31,33,35)           119.4745         estimate D2E/DX2                !
 ! A74   A(34,33,35)           120.0035         estimate D2E/DX2                !
 ! A75   A(26,35,33)           119.7746         estimate D2E/DX2                !
 ! A76   A(26,35,36)           119.2195         estimate D2E/DX2                !
 ! A77   A(33,35,36)           121.0055         estimate D2E/DX2                !
 ! D1    D(9,1,2,3)            179.0019         estimate D2E/DX2                !
 ! D2    D(9,1,2,4)             -0.8104         estimate D2E/DX2                !
 ! D3    D(11,1,2,3)            -1.6564         estimate D2E/DX2                !
 ! D4    D(11,1,2,4)           178.5313         estimate D2E/DX2                !
 ! D5    D(2,1,9,7)              1.2635         estimate D2E/DX2                !
 ! D6    D(2,1,9,10)          -178.6702         estimate D2E/DX2                !
 ! D7    D(11,1,9,7)          -178.113          estimate D2E/DX2                !
 ! D8    D(11,1,9,10)            1.9533         estimate D2E/DX2                !
 ! D9    D(2,1,11,12)          178.148          estimate D2E/DX2                !
 ! D10   D(2,1,11,13)          -52.2943         estimate D2E/DX2                !
 ! D11   D(2,1,11,14)           63.7505         estimate D2E/DX2                !
 ! D12   D(9,1,11,12)           -2.5039         estimate D2E/DX2                !
 ! D13   D(9,1,11,13)          127.0538         estimate D2E/DX2                !
 ! D14   D(9,1,11,14)         -116.9014         estimate D2E/DX2                !
 ! D15   D(1,2,4,5)           -179.905          estimate D2E/DX2                !
 ! D16   D(1,2,4,6)             -0.4977         estimate D2E/DX2                !
 ! D17   D(3,2,4,5)              0.2761         estimate D2E/DX2                !
 ! D18   D(3,2,4,6)            179.6834         estimate D2E/DX2                !
 ! D19   D(2,4,6,7)              1.3468         estimate D2E/DX2                !
 ! D20   D(2,4,6,17)           178.2548         estimate D2E/DX2                !
 ! D21   D(5,4,6,7)           -179.2415         estimate D2E/DX2                !
 ! D22   D(5,4,6,17)            -2.3335         estimate D2E/DX2                !
 ! D23   D(4,6,7,8)            174.6839         estimate D2E/DX2                !
 ! D24   D(4,6,7,9)             -0.9022         estimate D2E/DX2                !
 ! D25   D(17,6,7,8)            -2.313          estimate D2E/DX2                !
 ! D26   D(17,6,7,9)          -177.8991         estimate D2E/DX2                !
 ! D27   D(4,6,17,18)          153.4097         estimate D2E/DX2                !
 ! D28   D(4,6,17,21)           15.5644         estimate D2E/DX2                !
 ! D29   D(7,6,17,18)          -29.6707         estimate D2E/DX2                !
 ! D30   D(7,6,17,21)         -167.516          estimate D2E/DX2                !
 ! D31   D(6,7,8,19)            11.1481         estimate D2E/DX2                !
 ! D32   D(6,7,8,25)          -165.8631         estimate D2E/DX2                !
 ! D33   D(9,7,8,19)          -173.2541         estimate D2E/DX2                !
 ! D34   D(9,7,8,25)             9.7347         estimate D2E/DX2                !
 ! D35   D(6,7,9,1)             -0.4144         estimate D2E/DX2                !
 ! D36   D(6,7,9,10)           179.5198         estimate D2E/DX2                !
 ! D37   D(8,7,9,1)           -175.9807         estimate D2E/DX2                !
 ! D38   D(8,7,9,10)             3.9535         estimate D2E/DX2                !
 ! D39   D(7,8,19,18)           12.3076         estimate D2E/DX2                !
 ! D40   D(7,8,19,26)         -179.6763         estimate D2E/DX2                !
 ! D41   D(25,8,19,18)        -170.711          estimate D2E/DX2                !
 ! D42   D(25,8,19,26)          -2.6949         estimate D2E/DX2                !
 ! D43   D(7,8,25,28)         -148.5519         estimate D2E/DX2                !
 ! D44   D(7,8,25,39)          173.1259         estimate D2E/DX2                !
 ! D45   D(19,8,25,28)          34.6505         estimate D2E/DX2                !
 ! D46   D(19,8,25,39)          -3.6718         estimate D2E/DX2                !
 ! D47   D(1,11,14,15)          58.838          estimate D2E/DX2                !
 ! D48   D(1,11,14,16)         -67.7716         estimate D2E/DX2                !
 ! D49   D(12,11,14,15)        -55.9029         estimate D2E/DX2                !
 ! D50   D(12,11,14,16)        177.4875         estimate D2E/DX2                !
 ! D51   D(13,11,14,15)        176.5702         estimate D2E/DX2                !
 ! D52   D(13,11,14,16)         49.9605         estimate D2E/DX2                !
 ! D53   D(6,17,18,19)          48.8944         estimate D2E/DX2                !
 ! D54   D(6,17,18,20)         -75.1606         estimate D2E/DX2                !
 ! D55   D(6,17,18,22)         163.7725         estimate D2E/DX2                !
 ! D56   D(21,17,18,19)       -172.429          estimate D2E/DX2                !
 ! D57   D(21,17,18,20)         63.5159         estimate D2E/DX2                !
 ! D58   D(21,17,18,22)        -57.5509         estimate D2E/DX2                !
 ! D59   D(17,18,19,8)         -40.7146         estimate D2E/DX2                !
 ! D60   D(17,18,19,26)        151.0057         estimate D2E/DX2                !
 ! D61   D(20,18,19,8)          83.9859         estimate D2E/DX2                !
 ! D62   D(20,18,19,26)        -84.2938         estimate D2E/DX2                !
 ! D63   D(22,18,19,8)        -155.9817         estimate D2E/DX2                !
 ! D64   D(22,18,19,26)         35.7385         estimate D2E/DX2                !
 ! D65   D(17,18,20,23)       -178.0431         estimate D2E/DX2                !
 ! D66   D(17,18,20,24)         61.4029         estimate D2E/DX2                !
 ! D67   D(17,18,20,37)        -58.865          estimate D2E/DX2                !
 ! D68   D(19,18,20,23)         59.7135         estimate D2E/DX2                !
 ! D69   D(19,18,20,24)        -60.8405         estimate D2E/DX2                !
 ! D70   D(19,18,20,37)        178.8916         estimate D2E/DX2                !
 ! D71   D(22,18,20,23)        -58.4462         estimate D2E/DX2                !
 ! D72   D(22,18,20,24)       -179.0003         estimate D2E/DX2                !
 ! D73   D(22,18,20,37)         60.7319         estimate D2E/DX2                !
 ! D74   D(8,19,26,27)         -15.5679         estimate D2E/DX2                !
 ! D75   D(8,19,26,35)         164.2682         estimate D2E/DX2                !
 ! D76   D(18,19,26,27)        153.0111         estimate D2E/DX2                !
 ! D77   D(18,19,26,35)        -27.1528         estimate D2E/DX2                !
 ! D78   D(8,25,28,27)         -44.945          estimate D2E/DX2                !
 ! D79   D(8,25,28,38)         166.3998         estimate D2E/DX2                !
 ! D80   D(8,25,28,40)          63.5423         estimate D2E/DX2                !
 ! D81   D(19,26,27,28)         -1.583          estimate D2E/DX2                !
 ! D82   D(19,26,27,29)        178.9564         estimate D2E/DX2                !
 ! D83   D(35,26,27,28)        178.5848         estimate D2E/DX2                !
 ! D84   D(35,26,27,29)         -0.8758         estimate D2E/DX2                !
 ! D85   D(19,26,35,33)       -179.1747         estimate D2E/DX2                !
 ! D86   D(19,26,35,36)          1.0635         estimate D2E/DX2                !
 ! D87   D(27,26,35,33)          0.6565         estimate D2E/DX2                !
 ! D88   D(27,26,35,36)       -179.1053         estimate D2E/DX2                !
 ! D89   D(26,27,28,25)         27.0735         estimate D2E/DX2                !
 ! D90   D(26,27,28,38)       -174.203          estimate D2E/DX2                !
 ! D91   D(26,27,28,39)         65.6432         estimate D2E/DX2                !
 ! D92   D(26,27,28,40)        -53.7532         estimate D2E/DX2                !
 ! D93   D(29,27,28,25)       -153.4877         estimate D2E/DX2                !
 ! D94   D(29,27,28,38)          5.2358         estimate D2E/DX2                !
 ! D95   D(29,27,28,39)       -114.918          estimate D2E/DX2                !
 ! D96   D(29,27,28,40)        125.6856         estimate D2E/DX2                !
 ! D97   D(26,27,29,30)       -179.9965         estimate D2E/DX2                !
 ! D98   D(26,27,29,31)          0.4317         estimate D2E/DX2                !
 ! D99   D(28,27,29,30)          0.5468         estimate D2E/DX2                !
 ! D100  D(28,27,29,31)       -179.025          estimate D2E/DX2                !
 ! D101  D(27,29,31,32)        179.8821         estimate D2E/DX2                !
 ! D102  D(27,29,31,33)          0.2265         estimate D2E/DX2                !
 ! D103  D(30,29,31,32)          0.3148         estimate D2E/DX2                !
 ! D104  D(30,29,31,33)       -179.3408         estimate D2E/DX2                !
 ! D105  D(29,31,33,34)        179.5965         estimate D2E/DX2                !
 ! D106  D(29,31,33,35)         -0.4622         estimate D2E/DX2                !
 ! D107  D(32,31,33,34)         -0.0578         estimate D2E/DX2                !
 ! D108  D(32,31,33,35)        179.8834         estimate D2E/DX2                !
 ! D109  D(31,33,35,26)          0.0294         estimate D2E/DX2                !
 ! D110  D(31,33,35,36)        179.7869         estimate D2E/DX2                !
 ! D111  D(34,33,35,26)        179.971          estimate D2E/DX2                !
 ! D112  D(34,33,35,36)         -0.2716         estimate D2E/DX2                !
 --------------------------------------------------------------------------------
 Trust Radius=3.00D-01 FncErr=1.00D-07 GrdErr=1.00D-06 EigMax=2.50D+02 EigMin=1.00D-04
 Number of steps in this run=    240 maximum allowed number of steps=    240.
 GradGradGradGradGradGradGradGradGradGradGradGradGradGradGradGradGradGrad

                          Input orientation:                          
 ---------------------------------------------------------------------
 Center     Atomic      Atomic             Coordinates (Angstroms)
 Number     Number       Type             X           Y           Z
 ---------------------------------------------------------------------
      1          6           0       -1.273107    0.462936   -1.150224
      2          6           0       -2.455373    0.514797   -1.912077
      3         17           0       -4.012072    0.677702   -1.150055
      4          6           0       -2.424825    0.434726   -3.288781
      5          1           0       -3.344045    0.477525   -3.864812
      6          6           0       -1.189398    0.309016   -3.950515
      7          6           0       -0.005087    0.238362   -3.191127
      8          6           0        1.288677   -0.013009   -3.873763
      9          6           0       -0.056613    0.311127   -1.805739
     10          1           0        0.864683    0.247165   -1.235858
     11         16           0       -1.251358    0.599404    0.621622
     12          8           0        0.143701    0.454441    1.032664
     13          8           0       -1.985194    1.801490    1.014231
     14          7           0       -2.056799   -0.672418    1.292592
     15          1           0       -1.649068   -1.571018    1.026954
     16          1           0       -3.059765   -0.651759    1.103551
     17          7           0       -1.110326    0.190902   -5.310060
     18          6           0        0.117464    0.651017   -5.950521
     19          7           0        1.262888    0.074761   -5.226354
     20          6           0        0.207728    2.169991   -6.026330
     21          1           0       -1.952358    0.443743   -5.820975
     22          1           0        0.137137    0.227687   -6.956576
     23          1           0        1.124762    2.467751   -6.543245
     24          1           0        0.206860    2.607225   -5.022030
     25          8           0        2.305430   -0.337613   -3.244382
     26          6           0        2.465650   -0.159221   -5.975763
     27          6           0        3.694600   -0.146446   -5.302332
     28          6           0        3.763889    0.142067   -3.827472
     29          6           0        4.846928   -0.399470   -6.053717
     30          1           0        5.811515   -0.394682   -5.552181
     31          6           0        4.777839   -0.646469   -7.424638
     32          1           0        5.688908   -0.838123   -7.984080
     33          6           0        3.545226   -0.640573   -8.077146
     34          1           0        3.485894   -0.825723   -9.145293
     35          6           0        2.384011   -0.395714   -7.346835
     36          1           0        1.410783   -0.381932   -7.830612
     37          1           0       -0.648338    2.557467   -6.587126
     38          1           0        4.804071    0.210356   -3.499486
     39          1           0        3.273399   -0.645379   -3.243492
     40          1           0        3.260376    1.085470   -3.589241
 ---------------------------------------------------------------------
                    Distance matrix (angstroms):
                    1          2          3          4          5
     1  C    0.000000
     2  C    1.407431   0.000000
     3  Cl   2.747372   1.740841   0.000000
     4  C    2.429131   1.379369   2.674423   0.000000
     5  H    3.414379   2.145764   2.802898   1.085638   0.000000
     6  C    2.805767   2.408375   3.993244   1.407116   2.162925
     7  C    2.413212   2.777820   4.518288   2.429656   3.414629
     8  C    3.769208   4.259660   5.999467   3.785864   4.658628
     9  C    1.390181   2.409738   4.026159   2.796984   3.882612
    10  H    2.150357   3.398775   4.896475   3.882079   4.967681
    11  S    1.777227   2.806500   3.281236   4.086000   4.951998
    12  O    2.602387   3.928146   4.699421   5.027186   6.012502
    13  O    2.642662   3.231087   3.171004   4.536213   5.234923
    14  N    2.805450   3.440675   3.407703   4.727599   5.438583
    15  H    3.003068   3.693055   3.921721   4.821864   5.567661
    16  H    3.084509   3.289400   2.784438   4.569046   5.103012
    17  N    4.171898   3.668835   5.095365   2.423412   2.675891
    18  C    5.001191   4.790311   6.332318   3.687123   4.045037
    19  N    4.816304   5.000353   6.693650   4.181267   4.820772
    20  C    5.374320   5.172896   6.619040   4.175602   4.489064
    21  H    4.719922   3.941771   5.110250   2.575910   2.400939
    22  H    5.979787   5.678953   7.150814   4.478754   4.662623
    23  H    6.233276   6.170828   7.660146   5.227265   5.577207
    24  H    4.666815   4.597559   6.042734   3.827489   4.299268
    25  O    4.222831   5.016661   6.732600   4.793098   5.741598
    26  C    6.136058   6.417500   8.120885   5.611541   6.214026
    27  C    6.503035   7.053598   8.792805   6.468347   7.210987
    28  C    5.713313   6.518196   8.241422   6.219005   7.115944
    29  C    7.889412   8.444683  10.182734   7.824266   8.523641
    30  H    8.384784   9.078488  10.818114   8.581853   9.350521
    31  C    8.787093   9.168218  10.880549   8.375719   8.938720
    32  H    9.841951  10.248362  11.962886   9.460372  10.014666
    33  C    8.509778   8.680446  10.336111   7.728274   8.152052
    34  H    9.393075   9.455954  11.063617   8.415703   8.730979
    35  C    7.246363   7.333844   8.970071   6.346837   6.760004
    36  H    7.248769   7.126033   8.669488   6.000587   6.250970
    37  H    5.859804   5.412389   6.664080   4.305928   4.359356
    38  H    6.520347   7.437209   9.135788   7.235446   8.160676
    39  H    5.126485   5.994790   7.694876   5.799865   6.740736
    40  H    5.185443   5.984006   7.681432   5.730205   6.638065
                    6          7          8          9         10
     6  C    0.000000
     7  C    1.408636   0.000000
     8  C    2.500089   1.484252   0.000000
     9  C    2.425545   1.388254   2.488291   0.000000
    10  H    3.404767   2.140013   2.684400   1.085192   0.000000
    11  S    4.581768   4.027480   5.199549   2.720772   2.837593
    12  O    5.160463   4.231931   5.059892   2.849069   2.389345
    13  O    5.244947   4.904001   6.156551   3.727310   3.949763
    14  N    5.404236   5.014258   6.190174   3.816773   3.971618
    15  H    5.340508   4.875319   5.922395   3.755334   3.839929
    16  H    5.474025   5.344870   6.640076   4.290692   4.656414
    17  N    1.366955   2.390331   2.803524   3.661288   4.528018
    18  C    2.413478   2.792769   2.474994   4.162337   4.790562
    19  N    2.774229   2.403471   1.355681   3.673902   4.014019
    20  C    3.118364   3.437275   3.250767   4.619377   5.203602
    21  H    2.024569   3.278742   3.808486   4.442247   5.384948
    22  H    3.286748   3.768149   3.299654   5.155155   5.766829
    23  H    4.091176   4.181319   3.647900   5.337662   5.759080
    24  H    2.894727   3.001440   3.058508   3.960557   4.509735
    25  O    3.623614   2.381821   1.239062   2.840740   2.540056
    26  C    4.204789   3.743903   2.413513   4.896135   5.019457
    27  C    5.088054   4.277026   2.801264   5.148508   4.969866
    28  C    4.957627   3.823531   2.480497   4.325762   3.890103
    29  C    6.431380   5.669506   4.190788   6.526483   6.283962
    30  H    7.216184   6.309372   4.839300   6.997780   6.596496
    31  C    6.970681   6.448405   5.018390   7.474018   7.376474
    32  H    8.055847   7.520159   6.077627   8.514910   8.365973
    33  C    6.351966   6.103313   4.811889   7.294486   7.401122
    34  H    7.080375   6.983646   5.768648   8.228659   8.401250
    35  C    4.980049   4.835261   3.661755   6.095901   6.329747
    36  H    4.721600   4.890222   3.975886   6.239605   6.647162
    37  H    3.507135   4.162311   4.209716   5.315811   6.021860
    38  H    6.011225   4.819115   3.542311   5.148318   4.543583
    39  H    4.618150   3.395911   2.176294   3.751135   3.260236
    40  H    4.531433   3.396960   2.274908   3.844854   3.461288
                   11         12         13         14         15
    11  S    0.000000
    12  O    1.461561   0.000000
    13  O    1.462077   2.519340   0.000000
    14  N    1.648171   2.485875   2.490549   0.000000
    15  H    2.243479   2.704910   3.389241   1.021905   0.000000
    16  H    2.251222   3.389823   2.679760   1.020835   1.685518
    17  N    5.947404   6.470872   6.584531   6.725782   6.599421
    18  C    6.713375   6.986001   7.365632   7.677342   7.532810
    19  N    6.387136   6.369619   7.244069   7.353588   7.091681
    20  C    6.985051   7.264751   7.383373   8.171535   8.197052
    21  H    6.482491   7.167004   6.968830   7.201358   7.144605
    22  H    7.713312   7.992460   8.397316   8.583258   8.376313
    23  H    7.776374   7.900019   8.199462   9.021271   9.017411
    24  H    6.165108   6.426335   6.472307   7.466904   7.582374
    25  O    5.336172   4.857319   6.412566   6.302799   5.950097
    26  C    7.610332   7.408514   8.515540   8.575832   8.243914
    27  C    7.753194   7.287120   8.715130   8.766314   8.405002
    28  C    6.719844   6.068300   7.697255   7.794796   7.469954
    29  C    9.096537   8.547883  10.073629  10.084850   9.680206
    30  H    9.433357   8.729565  10.427349  10.432565  10.016441
    31  C   10.131422   9.706348  11.088085  11.077141  10.657830
    32  H   11.148627  10.664038  12.117302  12.086359  11.643958
    33  C   10.010661   9.785605  10.917983  10.916762  10.522882
    34  H   10.948295  10.788878  11.834314  11.819238  11.419190
    35  C    8.814901   8.715375   9.686335   9.717873   9.368426
    36  H    8.915732   8.992368   9.722718   9.764290   9.446327
    37  H    7.494244   7.944259   7.754954   8.631679   8.718949
    38  H    7.335060   6.505306   8.306592   8.415155   8.081148
    39  H    6.079640   5.412035   7.195010   6.999129   6.582112
    40  H    6.190587   5.610157   7.015743   7.429321   7.243537
                   16         17         18         19         20
    16  H    0.000000
    17  N    6.756093   0.000000
    18  C    7.845505   1.459234   0.000000
    19  N    7.699406   2.377528   1.472578   0.000000
    20  C    8.335106   2.483365   1.523541   2.478571   0.000000
    21  H    7.097572   1.016848   2.084204   3.290521   2.772738
    22  H    8.715461   2.066043   1.091669   2.069872   2.154736
    23  H    9.258245   3.420585   2.160207   2.734901   1.093990
    24  H    7.669065   2.767048   2.167219   2.751421   1.095351
    25  O    6.912925   4.026629   3.617703   2.277094   4.292746
    26  C    8.993859   3.654224   2.484170   1.436314   3.244379
    27  C    9.322667   4.816760   3.721827   2.442934   4.248333
    28  C    8.456205   5.094941   4.250033   2.866428   4.646906
    29  C   10.667986   6.032449   4.845823   3.708742   5.303306
    30  H   11.093442   6.950785   5.802963   4.584381   6.181003
    31  C   11.582663   6.312140   5.057231   4.208029   5.547398
    32  H   12.615825   7.378269   6.115054   5.294154   6.551707
    33  C   11.309785   5.479259   4.235598   3.721261   4.821204
    34  H   12.162020   6.071884   4.871719   4.594639   5.426657
    35  C   10.055311   4.086926   2.860520   2.444321   3.614247
    36  H    9.993892   3.610722   2.504875   2.648132   3.348893
    37  H    8.675288   2.728545   2.150877   3.415891   1.094294
    38  H    9.152656   6.185358   5.307169   3.942136   5.599239
    39  H    7.681523   4.918040   4.355293   2.914189   5.006879
    40  H    8.061293   4.781684   3.955033   2.773379   4.053918
                   21         22         23         24         25
    21  H    0.000000
    22  H    2.387940   0.000000
    23  H    3.753259   2.482767   0.000000
    24  H    3.159302   3.067496   1.782159   0.000000
    25  O    5.037669   4.336063   4.488490   4.029404   0.000000
    26  C    4.461650   2.556103   3.003498   3.696615   2.741886
    27  C    5.701355   3.941071   3.870137   4.452595   2.490280
    28  C    6.061398   4.790820   4.444009   4.489591   1.642312
    29  C    6.855324   4.836384   4.723888   5.624484   3.788852
    30  H    7.813637   5.878625   5.580447   6.380021   4.197836
    31  C    7.003988   4.745455   4.880593   6.103515   4.866491
    32  H    8.044324   5.745770   5.816892   7.120184   5.844927
    33  C    6.040652   3.691155   4.227668   5.570154   4.998448
    34  H    6.499017   4.136947   4.815866   6.287964   6.037590
    35  C    4.673011   2.364186   3.229690   4.377482   4.103617
    36  H    4.003885   1.660647   3.140034   4.274649   4.672886
    37  H    2.599093   2.486230   1.775911   1.784199   5.317910
    38  H    7.147945   5.807929   5.281819   5.403468   2.570711
    39  H    5.927743   4.938155   5.019620   4.811059   1.015719
    40  H    5.706579   4.672190   3.898421   3.700349   1.748146
                   26         27         28         29         30
    26  C    0.000000
    27  C    1.401424   0.000000
    28  C    2.528113   1.504411   0.000000
    29  C    2.394636   1.398735   2.534246   0.000000
    30  H    3.380780   2.146014   2.730475   1.087193   0.000000
    31  C    2.771799   2.434669   3.819619   1.394706   2.153597
    32  H    3.857932   3.412837   4.684427   2.151197   2.475036
    33  C    2.411015   2.822422   4.326669   2.418021   3.401761
    34  H    3.395739   3.908110   5.412312   3.404695   4.301716
    35  C    1.393712   2.441264   3.818270   2.781749   3.868923
    36  H    2.145416   3.415183   4.672988   3.868431   4.955588
    37  H    4.177449   5.274747   5.737386   6.263062   7.177464
    38  H    3.425894   2.146739   1.092802   2.626370   2.365285
    39  H    2.890348   2.159900   1.096214   3.230144   3.440193
    40  H    2.806480   2.154263   1.095577   3.285702   3.542922
                   31         32         33         34         35
    31  C    0.000000
    32  H    1.086165   0.000000
    33  C    1.394681   2.154776   0.000000
    34  H    2.159145   2.490349   1.085697   0.000000
    35  C    2.408183   3.394724   1.393460   2.152558   0.000000
    36  H    3.401744   4.305115   2.164144   2.496282   1.086924
    37  H    6.356888   7.324083   5.480292   5.923012   4.300416
    38  H    4.017668   4.689758   4.823250   5.889498   4.585423
    39  H    4.443571   5.324003   4.841294   5.908378   4.206039
    40  H    4.473542   5.377043   4.816810   5.879901   4.132969
                   36         37         38         39         40
    36  H    0.000000
    37  H    3.798197   0.000000
    38  H    5.533883   6.691130   0.000000
    39  H    4.957864   6.067795   1.772222   0.000000
    40  H    4.854224   5.141219   1.776760   1.765092   0.000000
 Stoichiometry    C16H16ClN3O3S
 Framework group  C1[X(C16H16ClN3O3S)]
 Deg. of freedom   114
 Full point group                 C1      NOp   1
 Largest Abelian subgroup         C1      NOp   1
 Largest concise Abelian subgroup C1      NOp   1
                         Standard orientation:                         
 ---------------------------------------------------------------------
 Center     Atomic      Atomic             Coordinates (Angstroms)
 Number     Number       Type             X           Y           Z
 ---------------------------------------------------------------------
      1          6           0       -2.534026   -0.199066   -0.012371
      2          6           0       -2.718228    1.186393   -0.178011
      3         17           0       -4.312750    1.881349   -0.249165
      4          6           0       -1.643614    2.043397   -0.293801
      5          1           0       -1.799461    3.110394   -0.419649
      6          6           0       -0.335081    1.529275   -0.235538
      7          6           0       -0.146122    0.141172   -0.088169
      8          6           0        1.226296   -0.421195   -0.144893
      9          6           0       -1.240226   -0.706811    0.017246
     10          1           0       -1.076598   -1.774432    0.122379
     11         16           0       -3.880605   -1.342921    0.179603
     12          8           0       -3.284728   -2.673892    0.277629
     13          8           0       -4.751431   -0.874619    1.256646
     14          7           0       -4.803347   -1.358119   -1.185968
     15          1           0       -4.264117   -1.620838   -2.013313
     16          1           0       -5.305863   -0.482224   -1.335601
     17          7           0        0.760829    2.333371   -0.380372
     18          6           0        1.999456    1.895691    0.254927
     19          7           0        2.232352    0.486562   -0.103681
     20          6           0        1.988676    2.096335    1.765160
     21          1           0        0.587521    3.330744   -0.284492
     22          1           0        2.813437    2.471326   -0.189843
     23          1           0        2.946986    1.787777    2.193235
     24          1           0        1.186961    1.509771    2.226667
     25          8           0        1.427691   -1.636367   -0.279319
     26          6           0        3.595667    0.038036   -0.160192
     27          6           0        3.871824   -1.315780    0.074139
     28          6           0        2.769284   -2.280981    0.414793
     29          6           0        5.205810   -1.728035   -0.009468
     30          1           0        5.443582   -2.773880    0.168468
     31          6           0        6.225875   -0.824296   -0.305996
     32          1           0        7.253501   -1.171449   -0.362768
     33          6           0        5.929875    0.521406   -0.521881
     34          1           0        6.720510    1.230720   -0.746625
     35          6           0        4.606905    0.952779   -0.448421
     36          1           0        4.348508    1.996270   -0.608922
     37          1           0        1.833114    3.155927    1.989980
     38          1           0        3.182513   -3.261860    0.662449
     39          1           0        2.074895   -2.405660   -0.424232
     40          1           0        2.185619   -1.922381    1.269796
 ---------------------------------------------------------------------
 Rotational constants (GHZ):           0.5019124           0.1078064           0.0928468
 General basis read from cards:  (6D, 7F)
 There are   496 symmetry adapted cartesian basis functions of A   symmetry.
 There are   496 symmetry adapted basis functions of A   symmetry.
   496 basis functions,   880 primitive gaussians,   496 cartesian basis functions
    95 alpha electrons       95 beta electrons
       nuclear repulsion energy      2422.0397641473 Hartrees.
 NAtoms=   40 NActive=   40 NUniq=   40 SFac= 1.00D+00 NAtFMM=   60 NAOKFM=F Big=F
 Integral buffers will be    131072 words long.
 Raffenetti 2 integral format.
 Two-electron integral symmetry is turned on.
 ------------------------------------------------------------------------------
 Polarizable Continuum Model (PCM)
 =================================
 Model                : PCM.
 Atomic radii         : SMD-Coulomb.
 Polarization charges : Total charges.
 Charge compensation  : None.
 Solution method      : On-the-fly selection.
 Cavity type          : VdW (van der Waals Surface) (Alpha=1.000).
 Cavity algorithm     : GePol (No added spheres)
                        Default sphere list used, NSphG=   40.
                        Lebedev-Laikov grids with approx.  5.0 points / Ang**2.
                        Smoothing algorithm: York/Karplus (Gamma=1.0000).
                        Polarization charges: spherical gaussians, with
                                              point-specific exponents (IZeta= 3).
                        Self-potential: point-specific (ISelfS= 7).
                        Self-field    : sphere-specific E.n sum rule (ISelfD= 2).
 1st derivatives      : Analytical E(r).r(x)/FMM algorithm (CHGder, D1EAlg=3).
                        Cavity 1st derivative terms included.
 Solvent              : Water, Eps=  78.355300 Eps(inf)=   1.777849
 ------------------------------------------------------------------------------
 ------------------------------------------------------------------------------
 Atomic radii for non-electrostatic terms: SMD-CDS.
 ------------------------------------------------------------------------------
 Nuclear repulsion after PCM non-electrostatic terms =     2422.0484060492 Hartrees.
 One-electron integrals computed using PRISM.
 NBasis=   496 RedAO= T EigKep=  1.04D-06  NBF=   496
 NBsUse=   491 1.00D-06 EigRej=  9.48D-07 NBFU=   491
 ExpMin= 4.05D-02 ExpMax= 2.52D+04 ExpMxC= 3.78D+03 IAcc=3 IRadAn=         5 AccDes= 0.00D+00
 Harris functional with IExCor= 1009 and IRadAn=       5 diagonalized for initial guess.
 HarFok:  IExCor= 1009 AccDes= 0.00D+00 IRadAn=         5 IDoV= 1 UseB2=F ITyADJ=14
 ICtDFT=  3500011 ScaDFX=  1.000000  1.000000  1.000000  1.000000
 FoFCou: FMM=F IPFlag=           0 FMFlag=      100000 FMFlg1=           0
         NFxFlg=           0 DoJE=T BraDBF=F KetDBF=T FulRan=T
         wScrn=  0.000000 ICntrl=       500 IOpCl=  0 I1Cent=   200000004 NGrid=           0
         NMat0=    1 NMatS0=      1 NMatT0=    0 NMatD0=    1 NMtDS0=    0 NMtDT0=    0
 Petite list used in FoFCou.
 Requested convergence on RMS density matrix=1.00D-08 within 128 cycles.
 Requested convergence on MAX density matrix=1.00D-06.
 Requested convergence on             energy=1.00D-06.
 No special actions if energy rises.
 Inv3:  Mode=1 IEnd=    26964012.
 Iteration    1 A*A^-1 deviation from unit magnitude is 8.22D-15 for   2998.
 Iteration    1 A*A^-1 deviation from orthogonality  is 4.22D-15 for   2979    723.
 Iteration    1 A^-1*A deviation from unit magnitude is 8.22D-15 for   2998.
 Iteration    1 A^-1*A deviation from orthogonality  is 5.38D-14 for   1975   1959.
 Error on total polarization charges =  0.06151
 SCF Done:  E(RM062X) =  -1866.89180171     A.U. after   19 cycles
            NFock= 19  Conv=0.57D-08     -V/T= 2.0053
 SMD-CDS (non-electrostatic) energy       (kcal/mol) =       5.42
 (included in total energy above)

 **********************************************************************

            Population analysis using the SCF Density.

 **********************************************************************

 Orbital symmetries:
       Occupied  (A) (A) (A) (A) (A) (A) (A) (A) (A) (A) (A) (A)
                 (A) (A) (A) (A) (A) (A) (A) (A) (A) (A) (A) (A)
                 (A) (A) (A) (A) (A) (A) (A) (A) (A) (A) (A) (A)
                 (A) (A) (A) (A) (A) (A) (A) (A) (A) (A) (A) (A)
                 (A) (A) (A) (A) (A) (A) (A) (A) (A) (A) (A) (A)
                 (A) (A) (A) (A) (A) (A) (A) (A) (A) (A) (A) (A)
                 (A) (A) (A) (A) (A) (A) (A) (A) (A) (A) (A) (A)
                 (A) (A) (A) (A) (A) (A) (A) (A) (A) (A) (A)
       Virtual   (A) (A) (A) (A) (A) (A) (A) (A) (A) (A) (A) (A)
                 (A) (A) (A) (A) (A) (A) (A) (A) (A) (A) (A) (A)
                 (A) (A) (A) (A) (A) (A) (A) (A) (A) (A) (A) (A)
                 (A) (A) (A) (A) (A) (A) (A) (A) (A) (A) (A) (A)
                 (A) (A) (A) (A) (A) (A) (A) (A) (A) (A) (A) (A)
                 (A) (A) (A) (A) (A) (A) (A) (A) (A) (A) (A) (A)
                 (A) (A) (A) (A) (A) (A) (A) (A) (A) (A) (A) (A)
                 (A) (A) (A) (A) (A) (A) (A) (A) (A) (A) (A) (A)
                 (A) (A) (A) (A) (A) (A) (A) (A) (A) (A) (A) (A)
                 (A) (A) (A) (A) (A) (A) (A) (A) (A) (A) (A) (A)
                 (A) (A) (A) (A) (A) (A) (A) (A) (A) (A) (A) (A)
                 (A) (A) (A) (A) (A) (A) (A) (A) (A) (A) (A) (A)
                 (A) (A) (A) (A) (A) (A) (A) (A) (A) (A) (A) (A)
                 (A) (A) (A) (A) (A) (A) (A) (A) (A) (A) (A) (A)
                 (A) (A) (A) (A) (A) (A) (A) (A) (A) (A) (A) (A)
                 (A) (A) (A) (A) (A) (A) (A) (A) (A) (A) (A) (A)
                 (A) (A) (A) (A) (A) (A) (A) (A) (A) (A) (A) (A)
                 (A) (A) (A) (A) (A) (A) (A) (A) (A) (A) (A) (A)
                 (A) (A) (A) (A) (A) (A) (A) (A) (A) (A) (A) (A)
                 (A) (A) (A) (A) (A) (A) (A) (A) (A) (A) (A) (A)
                 (A) (A) (A) (A) (A) (A) (A) (A) (A) (A) (A) (A)
                 (A) (A) (A) (A) (A) (A) (A) (A) (A) (A) (A) (A)
                 (A) (A) (A) (A) (A) (A) (A) (A) (A) (A) (A) (A)
                 (A) (A) (A) (A) (A) (A) (A) (A) (A) (A) (A) (A)
                 (A) (A) (A) (A) (A) (A) (A) (A) (A) (A) (A) (A)
                 (A) (A) (A) (A) (A) (A) (A) (A) (A) (A) (A) (A)
                 (A) (A) (A) (A) (A) (A) (A) (A) (A) (A) (A) (A)
                 (A) (A) (A) (A) (A) (A) (A) (A) (A) (A) (A) (A)
                 (A) (A) (A) (A) (A) (A) (A) (A) (A) (A) (A) (A)
                 (A) (A) (A) (A) (A) (A) (A) (A) (A) (A) (A) (A)
                 (A) (A) (A) (A) (A) (A) (A) (A) (A) (A) (A) (A)
                 (A) (A) (A) (A) (A) (A) (A) (A) (A) (A) (A) (A)
                 (A) (A) (A) (A) (A) (A) (A) (A) (A) (A) (A) (A)
 The electronic state is 1-A.
 Alpha  occ. eigenvalues -- -102.69233 -90.18590 -19.67389 -19.66197 -19.66115
 Alpha  occ. eigenvalues --  -14.82969 -14.80377 -14.79508 -10.67449 -10.64591
 Alpha  occ. eigenvalues --  -10.63960 -10.62693 -10.60414 -10.59635 -10.58759
 Alpha  occ. eigenvalues --  -10.58392 -10.57709 -10.56120 -10.55554 -10.54978
 Alpha  occ. eigenvalues --  -10.54955 -10.54714 -10.54014 -10.51627  -9.83881
 Alpha  occ. eigenvalues --   -8.49502  -7.56284  -7.55625  -7.55596  -6.41704
 Alpha  occ. eigenvalues --   -6.41694  -6.41581  -1.27325  -1.26278  -1.14709
 Alpha  occ. eigenvalues --   -1.12003  -1.05538  -1.03430  -1.01556  -0.97065
 Alpha  occ. eigenvalues --   -0.95858  -0.91013  -0.89232  -0.86485  -0.85019
 Alpha  occ. eigenvalues --   -0.84300  -0.82310  -0.77481  -0.75456  -0.74707
 Alpha  occ. eigenvalues --   -0.71982  -0.69311  -0.68403  -0.66639  -0.65526
 Alpha  occ. eigenvalues --   -0.63506  -0.62457  -0.61755  -0.60593  -0.59657
 Alpha  occ. eigenvalues --   -0.58196  -0.56450  -0.55445  -0.54897  -0.53792
 Alpha  occ. eigenvalues --   -0.53173  -0.52811  -0.52400  -0.51107  -0.50138
 Alpha  occ. eigenvalues --   -0.49840  -0.48897  -0.47965  -0.46565  -0.46028
 Alpha  occ. eigenvalues --   -0.45046  -0.44393  -0.44218  -0.43691  -0.43121
 Alpha  occ. eigenvalues --   -0.42929  -0.42195  -0.41212  -0.40863  -0.40762
 Alpha  occ. eigenvalues --   -0.39682  -0.38840  -0.38536  -0.37446  -0.37162
 Alpha  occ. eigenvalues --   -0.33055  -0.30907  -0.28957  -0.27205  -0.18487
 Alpha virt. eigenvalues --   -0.03701  -0.00934   0.00834   0.01643   0.01883
 Alpha virt. eigenvalues --    0.02305   0.02589   0.03184   0.03294   0.03853
 Alpha virt. eigenvalues --    0.04061   0.04495   0.04709   0.04924   0.05362
 Alpha virt. eigenvalues --    0.05782   0.06129   0.06265   0.06963   0.07499
 Alpha virt. eigenvalues --    0.07670   0.08211   0.08475   0.08858   0.09053
 Alpha virt. eigenvalues --    0.09382   0.09690   0.09910   0.10318   0.10845
 Alpha virt. eigenvalues --    0.11081   0.12137   0.12324   0.12544   0.12894
 Alpha virt. eigenvalues --    0.13305   0.13607   0.13794   0.14173   0.14520
 Alpha virt. eigenvalues --    0.14965   0.15146   0.15760   0.15963   0.16161
 Alpha virt. eigenvalues --    0.16388   0.16636   0.17064   0.17630   0.17833
 Alpha virt. eigenvalues --    0.17959   0.18131   0.18819   0.18985   0.19320
 Alpha virt. eigenvalues --    0.19618   0.20179   0.20325   0.20708   0.20903
 Alpha virt. eigenvalues --    0.21058   0.21606   0.21810   0.22100   0.22365
 Alpha virt. eigenvalues --    0.22661   0.22874   0.23096   0.23429   0.23565
 Alpha virt. eigenvalues --    0.23710   0.24256   0.24701   0.24878   0.25227
 Alpha virt. eigenvalues --    0.25478   0.25901   0.25988   0.26206   0.26472
 Alpha virt. eigenvalues --    0.26634   0.27131   0.27468   0.27649   0.28149
 Alpha virt. eigenvalues --    0.28367   0.28911   0.29228   0.29355   0.29650
 Alpha virt. eigenvalues --    0.30022   0.30493   0.30536   0.30903   0.31304
 Alpha virt. eigenvalues --    0.31535   0.31612   0.32457   0.32666   0.32907
 Alpha virt. eigenvalues --    0.33082   0.33538   0.33875   0.34398   0.34602
 Alpha virt. eigenvalues --    0.34948   0.35318   0.36044   0.36390   0.36616
 Alpha virt. eigenvalues --    0.36981   0.37330   0.37916   0.38520   0.39498
 Alpha virt. eigenvalues --    0.39519   0.39862   0.40888   0.41421   0.42044
 Alpha virt. eigenvalues --    0.42690   0.43133   0.44121   0.44799   0.45570
 Alpha virt. eigenvalues --    0.46142   0.46520   0.47081   0.48047   0.48211
 Alpha virt. eigenvalues --    0.49003   0.49139   0.51068   0.51771   0.54088
 Alpha virt. eigenvalues --    0.55301   0.57113   0.59955   0.60440   0.61747
 Alpha virt. eigenvalues --    0.63384   0.65617   0.66087   0.66928   0.67596
 Alpha virt. eigenvalues --    0.68942   0.70502   0.71224   0.71640   0.72568
 Alpha virt. eigenvalues --    0.73382   0.73960   0.74071   0.75269   0.75873
 Alpha virt. eigenvalues --    0.76051   0.76443   0.76800   0.78169   0.78462
 Alpha virt. eigenvalues --    0.79257   0.79560   0.79907   0.80562   0.81657
 Alpha virt. eigenvalues --    0.81991   0.82978   0.83985   0.84140   0.84837
 Alpha virt. eigenvalues --    0.86753   0.87041   0.87753   0.88699   0.88904
 Alpha virt. eigenvalues --    0.89710   0.90826   0.92373   0.93434   0.93793
 Alpha virt. eigenvalues --    0.93841   0.94592   0.94920   0.95686   0.96853
 Alpha virt. eigenvalues --    0.97622   0.97808   0.99272   0.99935   1.01096
 Alpha virt. eigenvalues --    1.01870   1.02566   1.02757   1.04197   1.04703
 Alpha virt. eigenvalues --    1.05150   1.06117   1.07734   1.08361   1.08569
 Alpha virt. eigenvalues --    1.09092   1.09679   1.10126   1.11248   1.11754
 Alpha virt. eigenvalues --    1.12636   1.13350   1.14525   1.15427   1.16114
 Alpha virt. eigenvalues --    1.16499   1.16881   1.18448   1.18815   1.19535
 Alpha virt. eigenvalues --    1.20018   1.20242   1.20666   1.22295   1.22940
 Alpha virt. eigenvalues --    1.24057   1.24957   1.25590   1.26395   1.27296
 Alpha virt. eigenvalues --    1.27732   1.28350   1.29568   1.30333   1.30687
 Alpha virt. eigenvalues --    1.32327   1.32561   1.33295   1.34374   1.35168
 Alpha virt. eigenvalues --    1.35843   1.36329   1.36925   1.38394   1.38515
 Alpha virt. eigenvalues --    1.39371   1.40150   1.40316   1.41859   1.42523
 Alpha virt. eigenvalues --    1.43442   1.43722   1.46394   1.46672   1.47379
 Alpha virt. eigenvalues --    1.48482   1.49563   1.50818   1.51804   1.53063
 Alpha virt. eigenvalues --    1.53453   1.54550   1.54923   1.55880   1.56884
 Alpha virt. eigenvalues --    1.58630   1.58790   1.59181   1.61789   1.62987
 Alpha virt. eigenvalues --    1.66669   1.68665   1.69406   1.74553   1.76306
 Alpha virt. eigenvalues --    1.76806   1.78362   1.79052   1.79589   1.81063
 Alpha virt. eigenvalues --    1.81660   1.83841   1.84952   1.85524   1.85849
 Alpha virt. eigenvalues --    1.86949   1.88070   1.89316   1.89908   1.90594
 Alpha virt. eigenvalues --    1.91345   1.92259   1.93810   1.94818   1.95384
 Alpha virt. eigenvalues --    1.95620   1.95860   1.99454   2.00621   2.01300
 Alpha virt. eigenvalues --    2.02941   2.03881   2.04568   2.05238   2.06179
 Alpha virt. eigenvalues --    2.06706   2.07504   2.10711   2.12673   2.13644
 Alpha virt. eigenvalues --    2.14708   2.15463   2.16293   2.17286   2.17739
 Alpha virt. eigenvalues --    2.17895   2.20002   2.20939   2.22293   2.23307
 Alpha virt. eigenvalues --    2.24919   2.26502   2.27297   2.28246   2.29301
 Alpha virt. eigenvalues --    2.30572   2.31412   2.31709   2.33562   2.34321
 Alpha virt. eigenvalues --    2.36355   2.36845   2.38283   2.38447   2.41625
 Alpha virt. eigenvalues --    2.44660   2.45366   2.47398   2.48416   2.49430
 Alpha virt. eigenvalues --    2.50915   2.53696   2.56045   2.56610   2.56963
 Alpha virt. eigenvalues --    2.58843   2.62526   2.63542   2.64352   2.67461
 Alpha virt. eigenvalues --    2.69479   2.71015   2.72992   2.73569   2.75235
 Alpha virt. eigenvalues --    2.76536   2.76977   2.79381   2.80163   2.82877
 Alpha virt. eigenvalues --    2.83951   2.85725   2.86293   2.89109   2.91879
 Alpha virt. eigenvalues --    2.94583   2.95683   2.96360   2.99240   3.03956
 Alpha virt. eigenvalues --    3.08253   3.10007   3.22365   3.30550   3.34464
 Alpha virt. eigenvalues --    3.43567   3.48732   3.90874   4.06325   4.23083
 Alpha virt. eigenvalues --    4.26549   4.28122   4.28979   4.32070   4.32950
 Alpha virt. eigenvalues --    4.33445   4.36811   4.39746   4.41218   4.42477
 Alpha virt. eigenvalues --    4.45166   4.47028   4.49539   4.51458   4.54976
 Alpha virt. eigenvalues --    4.56618   4.59792   4.68005   4.77172   4.80525
 Alpha virt. eigenvalues --    4.90380
          Condensed to atoms (all electrons):
               1          2          3          4          5          6
     1  C   31.552748 -15.183356   0.518805   2.572262   0.056525  -1.947321
     2  C  -15.183356  27.580216  -0.835716  -6.457927  -0.009863  -2.745345
     3  Cl   0.518805  -0.835716  17.137179   0.029718  -0.004430   0.026290
     4  C    2.572262  -6.457927   0.029718  19.140204   0.189263   2.070181
     5  H    0.056525  -0.009863  -0.004430   0.189263   0.406336  -0.035223
     6  C   -1.947321  -2.745345   0.026290   2.070181  -0.035223  15.830229
     7  C   -5.100690   5.871034   0.073434  -9.260489   0.109397  -2.428436
     8  C   -2.113575   1.793703  -0.019771  -5.646293   0.019721  -4.495028
     9  C    0.727754  -3.618887  -0.074590   2.739540  -0.009294   0.096407
    10  H   -0.037157  -0.046184  -0.000135  -0.010212   0.000010  -0.026267
    11  S   -1.103693  -1.304206   0.010698   1.078525  -0.001282   0.404716
    12  O   -0.482331  -0.222746   0.007075   0.057801   0.000024   0.028929
    13  O   -0.480375   0.044645  -0.104119   0.081593  -0.000055   0.045084
    14  N   -0.500899  -0.070087   0.021876   0.021622  -0.000211   0.052815
    15  H   -0.097564   0.036401  -0.003892   0.001402   0.000000   0.001914
    16  H    0.014003  -0.059512   0.014714   0.005434   0.000000   0.000707
    17  N   -0.157903   0.624125  -0.002857  -0.714025  -0.008342  -0.527913
    18  C    0.179571  -1.060022  -0.001852   1.751447  -0.004692  -0.519024
    19  N   -0.055340   0.034694   0.000928   0.235604  -0.000590   0.324170
    20  C   -0.105817   0.298118  -0.001435  -0.245686   0.001431  -0.134948
    21  H    0.005306   0.016261   0.000021  -0.021261   0.003601  -0.029238
    22  H    0.000721   0.000593   0.000014  -0.002079   0.000002   0.038892
    23  H    0.000832   0.000884  -0.000008  -0.003123   0.000000  -0.010138
    24  H   -0.006403   0.009757   0.000052   0.021977   0.000009   0.012541
    25  O    0.035327  -0.038468   0.000029   0.033065   0.000025   0.067204
    26  C    0.175522   0.035110  -0.004689  -0.089395   0.000612   0.338530
    27  C    0.149694  -0.072045   0.000294   0.175610  -0.000215   0.346489
    28  C   -0.246914   0.133370   0.001663  -0.399216   0.000218  -1.057400
    29  C    0.052820  -0.081765   0.000195   0.195057  -0.000025   0.557315
    30  H    0.000010   0.000003   0.000000  -0.000012  -0.000000  -0.000194
    31  C   -0.012679   0.011108  -0.000006  -0.029232   0.000003  -0.078023
    32  H    0.000001  -0.000000   0.000000  -0.000001   0.000000  -0.000035
    33  C    0.046470  -0.032815   0.000030   0.076683  -0.000027   0.210695
    34  H    0.000000  -0.000001   0.000000   0.000003   0.000000  -0.000068
    35  C   -0.047512  -0.001331   0.000552  -0.176081   0.000006  -0.510728
    36  H    0.000005   0.000223  -0.000000   0.000140  -0.000000   0.005264
    37  H   -0.000394  -0.003524   0.000055  -0.010559   0.000002   0.009249
    38  H    0.000020  -0.000288  -0.000001   0.000675  -0.000000   0.006119
    39  H   -0.001827   0.001637   0.000005  -0.004845   0.000000  -0.026719
    40  H    0.004989   0.000565   0.000011  -0.002272   0.000000  -0.002812
               7          8          9         10         11         12
     1  C   -5.100690  -2.113575   0.727754  -0.037157  -1.103693  -0.482331
     2  C    5.871034   1.793703  -3.618887  -0.046184  -1.304206  -0.222746
     3  Cl   0.073434  -0.019771  -0.074590  -0.000135   0.010698   0.007075
     4  C   -9.260489  -5.646293   2.739540  -0.010212   1.078525   0.057801
     5  H    0.109397   0.019721  -0.009294   0.000010  -0.001282   0.000024
     6  C   -2.428436  -4.495028   0.096407  -0.026267   0.404716   0.028929
     7  C   21.959036   0.260447  -3.625333  -0.028660  -1.800030  -0.088129
     8  C    0.260447  20.037464  -1.505526   0.033664  -0.364168   0.019079
     9  C   -3.625333  -1.505526  10.888542   0.391149   0.929641   0.323394
    10  H   -0.028660   0.033664   0.391149   0.401726  -0.005065   0.001621
    11  S   -1.800030  -0.364168   0.929641  -0.005065  15.857943   0.350730
    12  O   -0.088129   0.019079   0.323394   0.001621   0.350730   8.852469
    13  O   -0.212200  -0.000182   0.139834  -0.000020   0.484757  -0.128572
    14  N    0.050155   0.017514   0.070794  -0.000599  -0.029986  -0.059777
    15  H   -0.025543  -0.000725   0.007299  -0.000007   0.080955  -0.006660
    16  H   -0.004381  -0.000402   0.011828  -0.000005   0.038604   0.011032
    17  N    0.009783   1.434999   0.017525  -0.000550  -0.012996  -0.000277
    18  C    0.156784  -3.451412  -0.369228   0.002167   0.015565   0.002381
    19  N   -0.682945   0.164259   0.228784  -0.001152   0.000100  -0.000578
    20  C    0.054191   0.380027   0.028517  -0.000196  -0.006764  -0.000463
    21  H    0.041786   0.005695  -0.007241   0.000002   0.000018   0.000000
    22  H   -0.009041   0.005596   0.002949  -0.000000   0.000036   0.000000
    23  H    0.009261   0.044252  -0.000917  -0.000000  -0.000012   0.000000
    24  H   -0.012059  -0.067460  -0.000111  -0.000003   0.000007  -0.000001
    25  O    0.485884   0.207487  -0.271141   0.012276  -0.000013   0.000302
    26  C    2.258500  -2.673164  -1.201664   0.003105  -0.009052   0.000022
    27  C   -1.630877   0.792108   0.177500  -0.003126   0.025588   0.000995
    28  C   -2.462091   1.493668   0.565226   0.009523  -0.025851  -0.003028
    29  C    1.240900  -3.062433  -0.240062   0.000587   0.008504   0.000227
    30  H    0.000640   0.000391  -0.000137   0.000000  -0.000000  -0.000000
    31  C   -0.241267   0.272816   0.027630   0.000010  -0.000915  -0.000023
    32  H   -0.000072   0.000680   0.000009   0.000000   0.000000   0.000000
    33  C    0.557157  -0.274218  -0.061193  -0.000056   0.001870   0.000040
    34  H    0.000168  -0.002365  -0.000030  -0.000000   0.000000  -0.000000
    35  C   -0.711000   1.369832   0.136837   0.000109  -0.000197   0.000100
    36  H   -0.004513   0.010375   0.001175   0.000000  -0.000000   0.000000
    37  H   -0.007543   0.018907   0.001848   0.000000  -0.000002   0.000000
    38  H    0.033043   0.107919  -0.012419  -0.000002  -0.000078   0.000001
    39  H   -0.111539   0.044498   0.030600   0.000105  -0.000175  -0.000033
    40  H   -0.107576  -0.078853   0.038871  -0.000061   0.000267  -0.000000
              13         14         15         16         17         18
     1  C   -0.480375  -0.500899  -0.097564   0.014003  -0.157903   0.179571
     2  C    0.044645  -0.070087   0.036401  -0.059512   0.624125  -1.060022
     3  Cl  -0.104119   0.021876  -0.003892   0.014714  -0.002857  -0.001852
     4  C    0.081593   0.021622   0.001402   0.005434  -0.714025   1.751447
     5  H   -0.000055  -0.000211   0.000000   0.000000  -0.008342  -0.004692
     6  C    0.045084   0.052815   0.001914   0.000707  -0.527913  -0.519024
     7  C   -0.212200   0.050155  -0.025543  -0.004381   0.009783   0.156784
     8  C   -0.000182   0.017514  -0.000725  -0.000402   1.434999  -3.451412
     9  C    0.139834   0.070794   0.007299   0.011828   0.017525  -0.369228
    10  H   -0.000020  -0.000599  -0.000007  -0.000005  -0.000550   0.002167
    11  S    0.484757  -0.029986   0.080955   0.038604  -0.012996   0.015565
    12  O   -0.128572  -0.059777  -0.006660   0.011032  -0.000277   0.002381
    13  O    8.772485  -0.106102   0.010319  -0.006729  -0.000361   0.000857
    14  N   -0.106102   8.040764   0.252337   0.231557   0.000012  -0.001699
    15  H    0.010319   0.252337   0.251402  -0.014627  -0.000003   0.000027
    16  H   -0.006729   0.231557  -0.014627   0.266547   0.000005   0.000023
    17  N   -0.000361   0.000012  -0.000003   0.000005   8.209351  -2.111510
    18  C    0.000857  -0.001699   0.000027   0.000023  -2.111510  14.492879
    19  N   -0.000016  -0.000403   0.000003   0.000001   0.073047  -0.957106
    20  C   -0.000180   0.000192  -0.000002   0.000001   0.369676  -1.837489
    21  H    0.000000   0.000003  -0.000000  -0.000000   0.274384  -0.091712
    22  H    0.000000   0.000000   0.000000   0.000000  -0.024237   0.285561
    23  H    0.000000   0.000000   0.000000   0.000000   0.030017  -0.159848
    24  H   -0.000001   0.000001  -0.000000  -0.000000  -0.023113   0.043125
    25  O   -0.000077   0.000026   0.000009  -0.000001  -0.043952   0.229792
    26  C    0.000522   0.000343   0.000008  -0.000002  -0.489629   2.194119
    27  C    0.000663  -0.000482   0.000043   0.000003   0.079651  -0.902787
    28  C   -0.001514   0.000231  -0.000072  -0.000013   0.220713  -0.691854
    29  C    0.000037   0.000013   0.000001   0.000000  -0.199981   0.958097
    30  H   -0.000000   0.000000  -0.000000  -0.000000   0.000007   0.000449
    31  C   -0.000002  -0.000003  -0.000000  -0.000000   0.036225  -0.145656
    32  H   -0.000000  -0.000000  -0.000000  -0.000000   0.000002   0.000456
    33  C    0.000005   0.000018   0.000000   0.000000   0.006385  -0.565186
    34  H   -0.000000   0.000000  -0.000000   0.000000  -0.000033  -0.000950
    35  C   -0.000034   0.000150  -0.000002   0.000000   0.323106  -0.759277
    36  H    0.000000   0.000000   0.000000   0.000000   0.001065  -0.076107
    37  H   -0.000000   0.000000  -0.000000  -0.000000   0.007199  -0.120301
    38  H    0.000000   0.000000   0.000000   0.000000  -0.000318   0.008628
    39  H   -0.000002  -0.000006  -0.000000  -0.000000   0.001988  -0.009554
    40  H   -0.000002  -0.000001  -0.000000  -0.000000   0.000810  -0.040961
              19         20         21         22         23         24
     1  C   -0.055340  -0.105817   0.005306   0.000721   0.000832  -0.006403
     2  C    0.034694   0.298118   0.016261   0.000593   0.000884   0.009757
     3  Cl   0.000928  -0.001435   0.000021   0.000014  -0.000008   0.000052
     4  C    0.235604  -0.245686  -0.021261  -0.002079  -0.003123   0.021977
     5  H   -0.000590   0.001431   0.003601   0.000002   0.000000   0.000009
     6  C    0.324170  -0.134948  -0.029238   0.038892  -0.010138   0.012541
     7  C   -0.682945   0.054191   0.041786  -0.009041   0.009261  -0.012059
     8  C    0.164259   0.380027   0.005695   0.005596   0.044252  -0.067460
     9  C    0.228784   0.028517  -0.007241   0.002949  -0.000917  -0.000111
    10  H   -0.001152  -0.000196   0.000002  -0.000000  -0.000000  -0.000003
    11  S    0.000100  -0.006764   0.000018   0.000036  -0.000012   0.000007
    12  O   -0.000578  -0.000463   0.000000   0.000000   0.000000  -0.000001
    13  O   -0.000016  -0.000180   0.000000   0.000000   0.000000  -0.000001
    14  N   -0.000403   0.000192   0.000003   0.000000   0.000000   0.000001
    15  H    0.000003  -0.000002  -0.000000   0.000000   0.000000  -0.000000
    16  H    0.000001   0.000001  -0.000000   0.000000   0.000000  -0.000000
    17  N    0.073047   0.369676   0.274384  -0.024237   0.030017  -0.023113
    18  C   -0.957106  -1.837489  -0.091712   0.285561  -0.159848   0.043125
    19  N    7.957497   0.285355   0.015168  -0.029833   0.009065   0.006280
    20  C    0.285355   6.458039   0.013853   0.000712   0.435571   0.350699
    21  H    0.015168   0.013853   0.257447  -0.003690  -0.000073  -0.000184
    22  H   -0.029833   0.000712  -0.003690   0.481062  -0.002001   0.003749
    23  H    0.009065   0.435571  -0.000073  -0.002001   0.448695  -0.022477
    24  H    0.006280   0.350699  -0.000184   0.003749  -0.022477   0.437166
    25  O   -0.469007  -0.036381   0.000148  -0.000723   0.000080  -0.000225
    26  C   -1.195142  -0.447702   0.007814   0.042267  -0.023101   0.025025
    27  C    0.646102   0.123869  -0.000092  -0.005823  -0.005444  -0.002343
    28  C    0.374643   0.036162   0.000088  -0.002544   0.001928  -0.005484
    29  C   -0.315315  -0.169450   0.000094  -0.005176  -0.009822   0.002253
    30  H   -0.000451   0.000111   0.000000   0.000000  -0.000000  -0.000000
    31  C    0.078193   0.044534   0.000007  -0.002022   0.000419  -0.000190
    32  H    0.000282  -0.000083   0.000000  -0.000000   0.000000  -0.000000
    33  C    0.059172   0.035599  -0.000495  -0.009120   0.006519  -0.001414
    34  H   -0.000331  -0.000296  -0.000000   0.000033  -0.000002   0.000000
    35  C    0.222202   0.110648  -0.001459  -0.023150   0.013802  -0.013999
    36  H    0.008739   0.030251   0.000048   0.006268   0.000148  -0.000028
    37  H    0.010085   0.437724   0.001112  -0.002762  -0.020299  -0.024591
    38  H   -0.018247  -0.001065   0.000000  -0.000000   0.000001  -0.000000
    39  H    0.041661   0.000786  -0.000000   0.000003  -0.000002   0.000001
    40  H    0.062477   0.008576  -0.000000   0.000021  -0.000074   0.000047
              25         26         27         28         29         30
     1  C    0.035327   0.175522   0.149694  -0.246914   0.052820   0.000010
     2  C   -0.038468   0.035110  -0.072045   0.133370  -0.081765   0.000003
     3  Cl   0.000029  -0.004689   0.000294   0.001663   0.000195   0.000000
     4  C    0.033065  -0.089395   0.175610  -0.399216   0.195057  -0.000012
     5  H    0.000025   0.000612  -0.000215   0.000218  -0.000025  -0.000000
     6  C    0.067204   0.338530   0.346489  -1.057400   0.557315  -0.000194
     7  C    0.485884   2.258500  -1.630877  -2.462091   1.240900   0.000640
     8  C    0.207487  -2.673164   0.792108   1.493668  -3.062433   0.000391
     9  C   -0.271141  -1.201664   0.177500   0.565226  -0.240062  -0.000137
    10  H    0.012276   0.003105  -0.003126   0.009523   0.000587   0.000000
    11  S   -0.000013  -0.009052   0.025588  -0.025851   0.008504  -0.000000
    12  O    0.000302   0.000022   0.000995  -0.003028   0.000227  -0.000000
    13  O   -0.000077   0.000522   0.000663  -0.001514   0.000037  -0.000000
    14  N    0.000026   0.000343  -0.000482   0.000231   0.000013   0.000000
    15  H    0.000009   0.000008   0.000043  -0.000072   0.000001  -0.000000
    16  H   -0.000001  -0.000002   0.000003  -0.000013   0.000000  -0.000000
    17  N   -0.043952  -0.489629   0.079651   0.220713  -0.199981   0.000007
    18  C    0.229792   2.194119  -0.902787  -0.691854   0.958097   0.000449
    19  N   -0.469007  -1.195142   0.646102   0.374643  -0.315315  -0.000451
    20  C   -0.036381  -0.447702   0.123869   0.036162  -0.169450   0.000111
    21  H    0.000148   0.007814  -0.000092   0.000088   0.000094   0.000000
    22  H   -0.000723   0.042267  -0.005823  -0.002544  -0.005176   0.000000
    23  H    0.000080  -0.023101  -0.005444   0.001928  -0.009822  -0.000000
    24  H   -0.000225   0.025025  -0.002343  -0.005484   0.002253  -0.000000
    25  O   10.679418   1.137404  -0.548417  -2.628918   0.299579   0.000095
    26  C    1.137404  26.618193  -9.739341  -7.068733   5.010436   0.104631
    27  C   -0.548417  -9.739341  26.279716   1.599473 -15.407947   0.022260
    28  C   -2.628918  -7.068733   1.599473  16.086365  -2.097418  -0.074921
    29  C    0.299579   5.010436 -15.407947  -2.097418  21.662383   0.263214
    30  H    0.000095   0.104631   0.022260  -0.074921   0.263214   0.459371
    31  C   -0.072456  -2.583891   2.010854   0.607091  -1.452286   0.004246
    32  H   -0.000031   0.000716   0.045730  -0.006312  -0.053285  -0.002935
    33  C    0.110060   3.371597  -3.977032  -0.904456   2.467186   0.002450
    34  H    0.000007  -0.009162  -0.010744   0.002759   0.026172  -0.000124
    35  C   -0.215337  -8.698123   4.763497   2.072293  -2.729620  -0.024793
    36  H    0.000079  -0.028435   0.056671   0.006089  -0.036500   0.000015
    37  H   -0.000078  -0.020101   0.004175   0.002257  -0.000669   0.000000
    38  H    0.081615   0.235568  -0.071314  -0.073981   0.040661   0.003589
    39  H   -0.435492  -0.183327   0.059684   0.807085  -0.098037   0.000039
    40  H   -0.179473  -0.231139   0.002415   0.819173  -0.047350   0.000134
              31         32         33         34         35         36
     1  C   -0.012679   0.000001   0.046470   0.000000  -0.047512   0.000005
     2  C    0.011108  -0.000000  -0.032815  -0.000001  -0.001331   0.000223
     3  Cl  -0.000006   0.000000   0.000030   0.000000   0.000552  -0.000000
     4  C   -0.029232  -0.000001   0.076683   0.000003  -0.176081   0.000140
     5  H    0.000003   0.000000  -0.000027   0.000000   0.000006  -0.000000
     6  C   -0.078023  -0.000035   0.210695  -0.000068  -0.510728   0.005264
     7  C   -0.241267  -0.000072   0.557157   0.000168  -0.711000  -0.004513
     8  C    0.272816   0.000680  -0.274218  -0.002365   1.369832   0.010375
     9  C    0.027630   0.000009  -0.061193  -0.000030   0.136837   0.001175
    10  H    0.000010   0.000000  -0.000056  -0.000000   0.000109   0.000000
    11  S   -0.000915   0.000000   0.001870   0.000000  -0.000197  -0.000000
    12  O   -0.000023   0.000000   0.000040  -0.000000   0.000100   0.000000
    13  O   -0.000002  -0.000000   0.000005  -0.000000  -0.000034   0.000000
    14  N   -0.000003  -0.000000   0.000018   0.000000   0.000150   0.000000
    15  H   -0.000000  -0.000000   0.000000  -0.000000  -0.000002   0.000000
    16  H   -0.000000  -0.000000   0.000000   0.000000   0.000000   0.000000
    17  N    0.036225   0.000002   0.006385  -0.000033   0.323106   0.001065
    18  C   -0.145656   0.000456  -0.565186  -0.000950  -0.759277  -0.076107
    19  N    0.078193   0.000282   0.059172  -0.000331   0.222202   0.008739
    20  C    0.044534  -0.000083   0.035599  -0.000296   0.110648   0.030251
    21  H    0.000007   0.000000  -0.000495  -0.000000  -0.001459   0.000048
    22  H   -0.002022  -0.000000  -0.009120   0.000033  -0.023150   0.006268
    23  H    0.000419   0.000000   0.006519  -0.000002   0.013802   0.000148
    24  H   -0.000190  -0.000000  -0.001414   0.000000  -0.013999  -0.000028
    25  O   -0.072456  -0.000031   0.110060   0.000007  -0.215337   0.000079
    26  C   -2.583891   0.000716   3.371597  -0.009162  -8.698123  -0.028435
    27  C    2.010854   0.045730  -3.977032  -0.010744   4.763497   0.056671
    28  C    0.607091  -0.006312  -0.904456   0.002759   2.072293   0.006089
    29  C   -1.452286  -0.053285   2.467186   0.026172  -2.729620  -0.036500
    30  H    0.004246  -0.002935   0.002450  -0.000124  -0.024793   0.000015
    31  C    6.710806   0.348633  -0.814268  -0.037559   1.356984   0.005705
    32  H    0.348633   0.455938  -0.054489  -0.002765   0.029302  -0.000128
    33  C   -0.814268  -0.054489  10.950887   0.373405  -4.937082  -0.036528
    34  H   -0.037559  -0.002765   0.373405   0.449931  -0.029233  -0.003052
    35  C    1.356984   0.029302  -4.937082  -0.029233  13.915404   0.341590
    36  H    0.005705  -0.000128  -0.036528  -0.003052   0.341590   0.460218
    37  H    0.000223   0.000000   0.000999  -0.000000   0.009874   0.000075
    38  H   -0.014718  -0.000010   0.017490  -0.000000  -0.041731   0.000001
    39  H    0.004773   0.000002  -0.012822   0.000000   0.026739   0.000001
    40  H    0.014640   0.000003  -0.006351  -0.000000   0.027049  -0.000004
              37         38         39         40
     1  C   -0.000394   0.000020  -0.001827   0.004989
     2  C   -0.003524  -0.000288   0.001637   0.000565
     3  Cl   0.000055  -0.000001   0.000005   0.000011
     4  C   -0.010559   0.000675  -0.004845  -0.002272
     5  H    0.000002  -0.000000   0.000000   0.000000
     6  C    0.009249   0.006119  -0.026719  -0.002812
     7  C   -0.007543   0.033043  -0.111539  -0.107576
     8  C    0.018907   0.107919   0.044498  -0.078853
     9  C    0.001848  -0.012419   0.030600   0.038871
    10  H    0.000000  -0.000002   0.000105  -0.000061
    11  S   -0.000002  -0.000078  -0.000175   0.000267
    12  O    0.000000   0.000001  -0.000033  -0.000000
    13  O   -0.000000   0.000000  -0.000002  -0.000002
    14  N    0.000000   0.000000  -0.000006  -0.000001
    15  H   -0.000000   0.000000  -0.000000  -0.000000
    16  H   -0.000000   0.000000  -0.000000  -0.000000
    17  N    0.007199  -0.000318   0.001988   0.000810
    18  C   -0.120301   0.008628  -0.009554  -0.040961
    19  N    0.010085  -0.018247   0.041661   0.062477
    20  C    0.437724  -0.001065   0.000786   0.008576
    21  H    0.001112   0.000000  -0.000000  -0.000000
    22  H   -0.002762  -0.000000   0.000003   0.000021
    23  H   -0.020299   0.000001  -0.000002  -0.000074
    24  H   -0.024591  -0.000000   0.000001   0.000047
    25  O   -0.000078   0.081615  -0.435492  -0.179473
    26  C   -0.020101   0.235568  -0.183327  -0.231139
[...]
 62296,0.00012373,0.00000724,-0.00000119,-0.00000096,0.00001674,0.00004
 245,0.00001158,0.00018159,-0.00007826,0.00001495,-0.01763591,-0.002956
 08,-0.00381264,-0.00020240,0.00164840,-0.00542227,-0.00074226,0.000086
 57,0.00014711,0.00063984,-0.00076154,-0.00001237,0.00006348,-0.0004578
 5,0.00044929,0.00060872,0.00434898,-0.00403238,0.00044949,0.00018065,0
 .00009835,0.00758744,0.00744794,0.00149037,0.00039189,-0.00239828,0.00
 249807,-0.10567240,-0.09161904,-0.03370314,0.11386289,0.08718566,-0.00
 004545,0.00001624,0.00001466,0.00002119,-0.00000756,0.00002029,-0.0000
 1252,0.00000346,0.00000560,0.00000639,0.00000238,-0.00000401,-0.000001
 05,-0.00000054,0.00000150,-0.00001073,-0.00000024,-0.00001237,-0.00008
 663,-0.00005760,-0.00003376,0.00011531,0.00013264,-0.00080642,0.000049
 63,-0.00000363,-0.00005704,-0.00000224,-0.00000307,-0.00000147,-0.0000
 0058,0.00000076,-0.00003619,0.00000461,-0.00000086,0.00000921,-0.00000
 354,0.00000562,0.00001164,-0.00000359,-0.00000358,0.00000832,0.0000001
 7,0.00000118,-0.00000144,0.00000146,0.,-0.00000125,-0.00001382,0.00006
 821,-0.00004543,0.00027725,-0.00030532,0.00018853,-0.00172152,0.002688
 84,0.00027449,-0.00002961,-0.00004680,0.00000883,-0.00001121,-0.000006
 53,0.00002044,0.00007068,-0.00017281,-0.00004626,-0.00000246,0.0000161
 6,-0.00000840,-0.00000881,0.00000968,-0.00000071,0.00018821,-0.0001349
 4,0.00025084,-0.02165139,-0.00988575,-0.00088731,0.00141150,-0.0051992
 3,-0.00135938,-0.00104569,-0.00031827,0.00030616,0.00048207,0.00004293
 ,-0.00097401,-0.00019395,0.00044825,-0.00016994,0.00371075,-0.00412427
 ,0.00084035,0.00085025,0.00040581,0.00025778,0.01648139,0.00743144,0.0
 0839400,-0.00130441,0.00238544,-0.00096178,-0.05120424,-0.03327139,-0.
 06418343,0.05378372,0.04007850,0.05938840,-0.00003266,0.00002454,-0.00
 005145,0.00001885,-0.00002765,0.00009009,0.00001220,0.00000089,-0.0000
 0910,0.00005303,-0.00001082,-0.00012501,-0.00000082,-0.00000012,-0.000
 00157,0.00009171,0.00013743,0.00028527,0.00004567,-0.00011642,-0.00008
 695,-0.00010198,-0.00018902,-0.00020715,-0.00001343,0.00000484,-0.0000
 1984,0.00000576,0.00000408,-0.00000344,-0.00000419,-0.00000343,0.00005
 549,-0.00000642,0.00000465,-0.00001225,0.00000349,-0.00000561,-0.00001
 427,0.00000607,0.00000511,-0.00001242,-0.00000072,-0.00000231,0.000001
 80,-0.00000096,-0.00000017,0.00000099,0.00113723,-0.00017479,0.0000019
 8,0.00373015,-0.00611894,0.00546091,0.00083193,-0.00203064,0.00046545,
 -0.16779817,0.10354486,-0.09241545,0.00001928,0.00003923,-0.00000879,0
 .00036859,0.00050280,0.00004459,-0.01671231,0.01646742,-0.01524064,0.0
 0045067,-0.00162315,0.00111737,0.00026361,-0.00001004,0.00023585,0.000
 03177,-0.00026596,0.00002577,0.00015053,-0.00016650,-0.00006022,0.0001
 7765,-0.00000295,-0.00025424,-0.00000623,0.00001246,0.00001648,-0.0000
 0104,-0.00000139,0.00000279,0.00000833,-0.00000401,-0.00001076,-0.0000
 0125,0.00000134,0.00000489,-0.00001231,0.00003001,-0.00000189,-0.00000
 016,0.00000264,-0.00000108,0.00002714,-0.00004008,-0.00005447,0.000007
 90,-0.00000604,0.00001018,0.17754950,-0.00014277,0.00005239,-0.0001110
 6,0.00006966,-0.00003581,0.00019769,-0.00005660,0.00000799,0.00002285,
 0.00019841,-0.00006233,-0.00015866,-0.00001403,0.00000474,0.00000833,-
 0.00014949,0.00005814,0.00112142,-0.00033383,0.00027729,-0.00015784,-0
 .00002000,0.00030456,-0.00475694,-0.00003802,0.00003166,-0.00001524,-0
 .00000419,-0.00000899,-0.00001747,-0.00000922,-0.00000593,0.00001497,-
 0.00000350,0.00000080,0.00000994,0.00000331,0.00000934,0.00000656,-0.0
 0000128,-0.00000535,0.00000263,0.00000032,-0.00000035,0.00000075,0.000
 00058,0.00000195,-0.00000387,0.00106814,0.00168217,-0.00122985,0.02117
 887,-0.01468254,0.01624019,-0.00018101,-0.00868849,0.00328008,0.099873
 94,-0.13463383,0.07700676,-0.00060997,-0.00032476,0.00003617,0.0000393
 3,0.00140633,-0.00030891,-0.00361819,0.00338436,-0.00405103,-0.0073469
 3,0.00571374,-0.00410525,0.00143234,-0.00079418,0.00186022,-0.00128286
 ,0.00016071,0.00096727,0.00007695,-0.00007315,-0.00015942,-0.00001293,
 0.00001087,-0.00016879,0.00001648,0.00001781,0.00002391,0.00002885,0.0
 0000266,-0.00001120,0.00008186,-0.00001202,-0.00004043,0.00000929,-0.0
 0000321,-0.00000245,-0.00003890,0.00000457,-0.00003148,0.00001998,-0.0
 0001973,-0.00001742,0.00018613,0.00005063,-0.00025297,-0.00000324,-0.0
 0000527,0.00002346,-0.11020277,0.14610343,0.00010486,-0.00003563,-0.00
 006865,-0.00005614,0.00001891,-0.00006241,0.00000380,-0.00000348,0.000
 00179,0.00000545,0.00005488,0.00006518,0.00000481,-0.00000363,-0.00000
 149,-0.00009199,-0.00020233,-0.00010218,-0.00004256,0.00011796,-0.0000
 4991,0.00017175,-0.00053679,0.00002243,-0.00006918,0.00002230,0.000167
 47,0.00000246,-0.00000370,-0.00000099,-0.00000075,-0.00000637,0.000070
 35,-0.00000802,0.00000336,-0.00001267,0.00000845,-0.00001050,-0.000021
 52,0.00001033,0.00000845,-0.00001778,0.00000002,-0.00000348,0.00000127
 ,-0.00000312,0.00000032,0.00000092,0.00020024,0.00010341,0.00008541,0.
 00301573,-0.00218997,0.00018657,-0.00023637,-0.00081991,0.00152883,-0.
 09242882,0.07858457,-0.11947188,0.00016445,0.00017052,-0.00003352,0.00
 045916,0.00047665,0.00028728,0.00797606,-0.00861629,0.00669086,-0.0196
 3882,0.01796488,-0.01283958,0.00006263,0.00005535,0.00016290,-0.000026
 85,0.00009589,0.00012002,-0.00009560,0.00004949,0.00000625,0.00009759,
 -0.00010560,-0.00007647,0.00001173,0.00001367,-0.00000319,-0.00000139,
 0.00000150,-0.00000343,-0.00000399,0.00000773,0.00001577,-0.00000101,0
 .00000091,0.00000111,-0.00000482,-0.00001607,0.00001778,-0.00000231,-0
 .00000006,0.00000369,-0.00004068,0.00004250,0.00004911,-0.00001020,0.0
 0000544,-0.00001372,0.10059353,-0.08534203,0.12320940,-0.00005317,0.00
 002003,0.00003123,0.00002701,-0.00001147,0.00001857,-0.00002454,0.0000
 0536,0.00001079,-0.00000236,0.00000096,-0.00000630,-0.00000461,0.00000
 086,0.00000274,-0.00000168,0.00000497,0.00000040,0.00003245,0.00002018
 ,0.00004182,0.00039443,0.00035139,-0.00090996,0.00000255,-0.00000194,-
 0.00005156,-0.00000082,-0.00000038,-0.00000578,-0.00000096,0.00000470,
 -0.00006419,0.00000682,-0.00000408,0.00001807,-0.00000484,0.00001111,0
 .00002123,-0.00000841,-0.00000958,0.00001852,0.00000034,0.00000312,-0.
 00000152,0.00000245,0.00000094,-0.00000231,-0.00004249,0.00002523,-0.0
 0002029,0.00035095,-0.00006214,0.00018013,-0.00052123,-0.00079837,-0.0
 0002906,0.00000357,0.00006140,0.00005825,-0.00000197,-0.00000165,0.000
 02202,-0.00002485,0.00001103,-0.00001293,0.00000240,-0.00001900,0.0000
 6567,0.00001684,-0.00000124,-0.00006580,0.00007546,-0.00021012,0.00016
 262,0.00054046,-0.00065223,-0.00008545,-0.00358415,-0.00216746,-0.0009
 1703,-0.17739087,-0.13026923,0.04669581,-0.00004359,0.00192562,0.00174
 326,0.00032447,-0.00035389,0.00033088,-0.00017948,0.00001990,-0.001044
 51,-0.00000558,-0.00005735,-0.00002286,0.00053985,0.00023218,0.0001344
 0,0.00004709,-0.00010677,0.00005406,-0.00057961,0.00001815,0.00031244,
 0.00002166,-0.00006900,-0.00010269,-0.00004055,-0.00000858,-0.00003122
 ,0.18796902,-0.00003596,0.00000658,0.00001740,0.00001695,-0.00000494,0
 .00001494,-0.00001510,0.00000287,0.00000612,0.00000161,-0.00000131,-0.
 00000113,-0.00000224,0.00000065,0.00000160,0.00000243,0.00000063,0.000
 02185,-0.00009192,0.00006219,0.00012898,0.00014990,0.00001116,0.000091
 66,-0.00000837,0.00000107,-0.00004306,-0.00000051,-0.00000047,-0.00000
 269,-0.00000405,-0.00000003,-0.00003823,0.00000439,-0.00000108,0.00001
 110,-0.00000158,0.00000724,0.00001236,-0.00000399,-0.00000537,0.000011
 50,0.00000017,0.00000156,-0.00000113,0.00000129,0.00000054,-0.00000179
 ,-0.00007053,0.00001689,-0.00002251,-0.00002235,-0.00011297,0.00004060
 ,0.00049370,0.00036806,0.00029212,-0.00004489,-0.00000059,-0.00012053,
 -0.00000779,0.00000390,0.00001638,0.00002119,-0.00001363,0.00001180,-0
 .00012694,-0.00000971,-0.00000402,-0.00000492,-0.00000421,0.00001297,-
 0.00044711,-0.00032384,0.00012878,0.00136792,-0.00194441,-0.00254630,-
 0.01361212,-0.01338645,0.00453842,-0.12923929,-0.17995698,0.04413163,-
 0.00072633,0.00121060,0.00050535,0.00060938,-0.00016318,-0.00000279,-0
 .00021711,0.00023611,-0.00019646,0.00003883,-0.00002950,0.00002225,0.0
 0016319,-0.00019452,-0.00013947,0.00004978,-0.00005210,0.00001803,-0.0
 0089856,0.00046930,-0.00018136,-0.00004382,-0.00012199,-0.00021587,-0.
 00000772,0.00001090,0.00001424,0.14353250,0.19195710,0.00000800,-0.000
 00849,0.00000912,-0.00000245,0.00000180,-0.00000579,0.00000412,0.00000
 009,-0.00000187,-0.00000242,0.00000173,0.00001125,0.00000119,-0.000000
 72,-0.00000096,0.00000834,-0.00000647,-0.00005290,0.00000372,-0.000084
 28,0.00007212,-0.00051511,0.00065877,-0.00078005,-0.00000775,0.0000081
 1,0.00000050,-0.00000241,-0.00000179,0.00000466,-0.00000239,-0.0000001
 9,0.00000340,0.00000114,-0.00000052,-0.00000257,0.00000076,-0.00000039
 ,-0.00000140,0.00000129,-0.00000021,-0.00000121,-0.00000030,-0.0000003
 6,0.00000012,-0.00000023,0.,0.00000004,-0.00002719,0.00004343,0.000015
 95,0.00007642,-0.00011011,0.00008680,0.00006372,-0.00040505,0.00033909
 ,-0.00000978,-0.00001584,0.00002637,-0.00000913,-0.00000576,0.00000572
 ,0.00001788,-0.00000963,0.00000513,0.00007313,-0.00001244,-0.00002215,
 -0.00000471,0.00000576,0.00001588,0.00116829,0.00038873,0.00030929,0.0
 0114052,-0.00240589,-0.00279318,-0.01976324,-0.02033959,0.00385498,0.0
 4799794,0.04658128,-0.06102501,-0.00107874,-0.00010971,0.00035886,0.00
 038966,0.00020047,0.00006674,-0.00009861,0.00034236,0.00028232,0.00003
 398,0.00002387,0.00003034,-0.00037147,-0.00020307,0.00007510,0.0000287
 8,-0.00000809,-0.00001898,-0.00105376,0.00006349,-0.00081328,-0.000055
 76,-0.00011261,-0.00033310,0.00001538,0.00001678,0.00000304,-0.0504123
 8,-0.04619773,0.06832230,0.00000988,-0.00000481,0.00000928,-0.00000765
 ,0.00000008,-0.00001154,0.00000391,-0.00000161,0.00000004,0.00000165,0
 .00000569,0.00002273,0.00000201,-0.00000136,-0.00000130,0.00001658,-0.
 00000211,-0.00007183,-0.00000312,-0.00004078,0.00006268,-0.00034891,0.
 00079862,-0.00052783,0.00000079,0.00000426,-0.00001379,-0.00000560,-0.
 00000386,0.00000798,-0.00001099,-0.00000060,0.00000018,0.00000700,-0.0
 0000085,-0.00000017,0.00000340,-0.00000205,-0.00000081,0.00000238,0.00
 000383,-0.00000231,-0.00000026,-0.00000028,-0.00000034,-0.00000063,-0.
 00000060,0.00000098,-0.00005872,-0.00001476,0.00004498,0.00010174,-0.0
 0006384,0.00001900,0.00000310,-0.00040841,-0.00019343,0.00004055,0.000
 13060,-0.00009026,-0.00000291,0.00000775,0.00000442,0.00002344,-0.0000
 1260,-0.00000275,-0.00013339,-0.00006726,0.00010000,0.00003382,-0.0000
 1439,-0.00010582,0.00058529,0.00022687,-0.00020371,-0.00051643,-0.0010
 3515,-0.00078109,-0.00131906,0.00095148,-0.00261174,-0.07313828,0.0441
 5507,-0.07048977,-0.00033575,0.00118742,0.00125063,-0.00011188,0.00001
 509,-0.00006224,-0.00056443,-0.00074905,-0.00087130,-0.00000007,-0.000
 04374,0.00000173,0.00092660,0.00020060,-0.00009352,0.00000478,-0.00000
 624,-0.00000654,-0.00042376,0.00020643,0.00069922,-0.00000596,-0.00002
 664,-0.00006065,-0.00010776,-0.00006972,-0.00003635,0.00845389,-0.0109
 5184,0.01883217,0.07521203,-0.00007272,0.00001590,0.00001024,0.0000320
 2,-0.00001181,0.00004844,-0.00002462,0.00000394,0.00001027,0.00002505,
 -0.00000169,-0.00002142,-0.00000195,0.00000186,0.00000207,-0.00000793,
 0.00000464,0.00006353,0.00000999,0.00014367,0.00013808,-0.00024219,-0.
 00009742,-0.00025693,0.00001475,0.00000795,-0.00006001,0.00000032,0.00
 000230,-0.00000182,0.00000053,0.00000472,-0.00004883,0.00000528,-0.000
 00423,0.00001345,-0.00000341,0.00000652,0.00001404,-0.00000685,-0.0000
 0931,0.00001538,-0.00000023,0.00000286,-0.00000084,0.00000203,0.000001
 29,-0.00000255,-0.00009676,0.00001493,-0.00006788,-0.00000174,-0.00017
 350,0.00009839,-0.00014110,0.00039312,-0.00016457,0.00000780,-0.000091
 03,0.00007180,-0.00001096,0.00000706,0.00002453,0.00001097,-0.00000576
 ,0.00001651,0.00009952,0.00001444,-0.00004680,-0.00002715,0.00001327,0
 .00005916,-0.00052144,-0.00022210,-0.00053831,0.00045068,-0.00082002,-
 0.00031595,-0.00837045,0.01205472,-0.01879857,0.04501362,-0.11296877,0
 .10878707,-0.00007286,-0.00056260,-0.00049607,0.00018783,0.00024788,0.
 00000116,0.00030075,-0.00015556,0.00096529,0.00002966,0.00004211,-0.00
 007926,-0.00060879,-0.00029700,-0.00034489,-0.00000808,0.00003366,-0.0
 0004259,0.00036957,-0.00099979,0.00019827,-0.00003709,-0.00009062,-0.0
 0004988,0.00005010,0.00004165,0.00001392,0.00812337,-0.01084852,0.0165
 6299,-0.04789735,0.12187990,0.00000955,-0.00000567,0.00001892,-0.00000
 281,0.00000505,-0.00001352,0.00000596,-0.00000045,-0.00000201,-0.00001
 125,0.00000015,0.00001405,0.00000106,-0.00000071,-0.00000088,-0.000010
 06,0.00001684,-0.00010353,0.00004714,-0.00019781,-0.00002594,-0.000823
 93,0.00038181,-0.00133213,0.00000020,-0.00000300,0.00001222,-0.0000030
 5,0.00000107,0.00000066,-0.00000319,0.00000502,-0.00000450,0.00000364,
 -0.00000308,-0.00000024,-0.00000041,-0.00000068,0.00000085,0.00000117,
 -0.00000215,0.00000154,-0.00000070,0.00000004,0.00000030,-0.00000004,0
 .00000065,-0.00000016,-0.00002680,0.00004470,0.00005175,0.00010579,0.0
 0001991,0.00022095,-0.00074342,0.00077257,0.00062110,0.00000613,0.0000
 3621,-0.00002499,-0.00001652,-0.00001272,0.00001270,-0.00000149,-0.000
 01442,0.00002559,-0.00000652,-0.00001902,-0.00001814,-0.00001551,-0.00
 001015,0.00001677,0.00151110,0.00033663,0.00067796,0.00257358,-0.00032
 644,-0.00101843,-0.00833281,0.00830517,-0.02203140,-0.07161084,0.11136
 409,-0.22097226,-0.00109507,-0.00076294,0.00081267,0.00006180,0.000503
 93,-0.00043887,0.00004026,-0.00128113,0.00039443,0.00002659,-0.0000199
 6,-0.00013009,-0.00002865,0.00001353,-0.00026922,-0.00003513,0.0001318
 4,-0.00014136,0.00008138,-0.00120276,0.00041603,-0.00003839,-0.0001440
 4,-0.00008098,0.00002476,0.00004003,0.00001285,-0.00207751,0.00343105,
 -0.00529891,0.07800717,-0.11735991,0.24133899,0.00007734,-0.00004347,-
 0.00003658,-0.00003942,0.00001881,-0.00003468,0.00003197,-0.00000567,-
 0.00001408,-0.00001038,-0.00000566,0.00000089,0.00000372,-0.00000131,-
 0.00000252,-0.00002291,0.00003022,-0.00003786,0.00015398,0.00015421,-0
 .00013125,-0.00087560,-0.00206913,0.00068679,0.00000339,0.00005208,0.0
 0013575,0.00001069,0.00000277,-0.00000425,0.00000891,-0.00000504,0.000
 08043,-0.00001559,0.00000621,-0.00002191,0.00000625,-0.00001302,-0.000
 02707,0.00000533,0.00001024,-0.00001724,0.00000087,-0.00000371,0.00000
 106,-0.00000244,-0.00000073,0.00000318,0.00006356,0.00003951,0.0000097
 7,-0.00030071,-0.00020005,-0.00010477,-0.00072310,-0.00135296,-0.00100
 585,-0.00086536,0.00023333,-0.00084153,-0.00000886,0.00000591,-0.00002
 078,0.00007372,0.00004543,-0.00002460,-0.00007333,0.00018534,-0.000141
 77,-0.00029379,0.00030369,-0.00012541,-0.00037372,0.00027574,-0.000528
 18,-0.00115711,-0.00043792,0.00035889,0.00650673,-0.00291437,0.0002826
 4,-0.25077551,0.10997740,0.05827200,0.00024363,-0.00006787,-0.00124586
 ,0.00018502,-0.00006991,-0.00004841,0.00020698,0.00027519,-0.00010802,
 0.00002751,-0.00005940,0.00001408,-0.00019683,-0.00003801,0.00005546,0
 .00000165,-0.00000926,0.00002858,0.00030539,0.00019559,-0.00027451,0.0
 0002993,0.00004095,0.00005198,-0.00015010,-0.00013640,-0.00006284,-0.0
 1629595,0.01013182,0.00355140,-0.00833729,0.00341984,0.00237683,0.2725
 7142,0.00008061,-0.00004062,-0.00003682,-0.00004180,0.00002265,-0.0000
 3622,0.00003781,-0.00000619,-0.00001683,0.00000063,-0.00001060,0.00001
 506,0.00000777,-0.00000073,-0.00000413,0.00000452,0.00000744,-0.000055
 30,0.00000097,-0.00004988,-0.00000705,-0.00209879,-0.00187781,0.000932
 05,-0.00002087,0.00000060,0.00008808,0.00000330,0.00000363,0.00000785,
 0.00000126,-0.00000805,0.00008909,-0.00001135,0.00000869,-0.00002531,0
 .00000813,-0.00001608,-0.00003066,0.00001001,0.00001225,-0.00002246,0.
 00000065,-0.00000445,0.00000132,-0.00000306,-0.00000060,0.00000360,0.0
 0004624,-0.00003271,0.00006385,-0.00054687,0.00014834,-0.00027054,0.00
 016808,0.00052396,0.00021886,0.00029628,-0.00011306,0.00033313,-0.0000
 0679,-0.00000606,-0.00002592,0.00005150,-0.00006047,0.00005756,0.00019
 461,0.00006380,0.00006487,0.00010469,-0.00007306,0.00008872,0.00043656
 ,0.00054612,-0.00028390,0.00106853,0.00064762,-0.00028269,0.01718197,-
 0.00877813,-0.00245825,0.10747518,-0.10781710,-0.03300311,-0.00144854,
 -0.00217833,-0.00281877,0.00013699,-0.00005318,0.00016209,0.00095594,0
 .00092357,-0.00018363,-0.00000218,-0.00021256,-0.00016914,-0.00054662,
 -0.00024704,-0.00004019,-0.00003376,-0.00004218,0.00002162,0.00034512,
 -0.00000944,-0.00050341,-0.00002199,-0.00000979,0.00004716,0.00017811,
 0.00001729,0.00006898,-0.01956855,0.01280844,0.00513927,0.01352609,-0.
 00757864,-0.00404328,-0.11797037,0.11349234,0.00002446,0.00000034,-0.0
 0003332,-0.00001018,-0.00000644,0.00001049,0.00001109,-0.00000259,-0.0
 0000561,0.00001727,-0.00000081,-0.00002533,0.00000211,0.00000041,-0.00
 000183,0.00000710,-0.00001811,0.00013414,-0.00001205,-0.00002342,-0.00
 002663,-0.00003370,-0.00048668,0.00102248,-0.00002405,-0.00000879,0.00
 002444,-0.00000318,0.00000194,0.00000392,0.00000218,0.00000028,0.00004
 250,-0.00000664,0.00000023,-0.00000939,0.00000069,-0.00000653,-0.00001
 092,0.00000585,0.00000565,-0.00001086,0.00000005,-0.00000180,0.0000012
 0,-0.00000216,-0.00000072,0.00000068,0.00007869,0.00005925,-0.00010465
 ,-0.00050291,-0.00014859,-0.00009531,-0.00003295,0.00067773,0.00023712
 ,-0.00051470,-0.00019508,-0.00005871,-0.00000363,-0.00000216,-0.000012
 71,0.00003113,0.00001948,0.00002601,-0.00014284,0.00025489,-0.00059055
 ,-0.00005980,0.00004683,0.00020858,-0.00055400,0.00034609,-0.00031891,
 0.00131812,0.00057650,0.00025146,0.02338148,-0.01066594,-0.00715980,0.
 05573146,-0.03151590,-0.06085440,-0.00177196,-0.00359921,-0.00276930,-
 0.00014016,-0.00016446,0.00012951,0.00098030,0.00007602,-0.00090030,-0
 .00003732,-0.00019796,-0.00035886,0.00011385,-0.00002792,0.00005285,-0
 .00004539,-0.00005983,0.00000497,0.00003631,0.00025444,-0.00021150,-0.
 00004857,0.00001963,0.00001735,0.00013745,0.00006229,0.00006912,0.0059
 4041,-0.00376607,-0.00274777,-0.02282407,0.01158251,0.00725720,-0.0610
 4978,0.03691447,0.06681266\\0.00000793,-0.00000400,0.00000594,-0.00000
 076,0.00000664,-0.00000679,0.00000365,0.00000952,0.00000192,-0.0000037
 5,0.00000813,0.00001119,0.00000253,0.00000955,0.00000177,0.00000227,0.
 00000117,-0.00002570,-0.00000133,0.00000363,0.00000307,0.00002664,-0.0
 0001574,0.00001589,-0.00000145,0.00000059,-0.00000136,-0.00000066,-0.0
 0000307,-0.00000084,0.00000246,0.00000083,-0.00000426,-0.00000077,-0.0
 0000109,0.00000331,0.00000193,0.00000251,0.00000309,0.00000512,-0.0000
 0463,-0.00000111,-0.00000968,0.00000337,-0.00000744,0.00000023,0.00000
 941,0.00000748,0.00000361,0.00002263,0.00002524,0.00000328,-0.00000036
 ,-0.00000057,-0.00000991,-0.00001012,-0.00000650,0.00000319,0.00000239
 ,0.00000198,0.00000121,0.00000181,-0.00000112,-0.00000165,0.00000421,-
 0.00000334,0.00000465,0.00000086,0.00000223,0.00000495,0.00000129,0.00
 000255,-0.00001991,0.00000213,-0.00001142,0.00000752,0.00000563,-0.000
 00065,-0.00000481,-0.00000871,-0.00000423,-0.00001237,0.00002238,0.000
 00828,-0.00000220,-0.00001019,-0.00000602,-0.00000170,-0.00000868,-0.0
 0000076,-0.00000143,-0.00000614,-0.00000355,-0.00000523,-0.00000744,-0
 .00000307,-0.00000999,-0.00000354,-0.00000334,-0.00000796,-0.00000065,
 -0.00000418,-0.00000548,0.00000235,0.00000056,-0.00000867,0.00000158,-
 0.00000268,0.00000583,0.00000509,0.00000337,0.00001190,-0.00002267,-0.
 00000469,0.00000786,-0.00001524,0.00000505,0.00000296,-0.00000543,0.00
 000071\\\@
 The archive entry for this job was punched.


 TO SEE A WORLD IN A GRAIN OF SAND
 AND A HEAVEN IN A WILD FLOWER
 HOLD INFINITY IN THE PALM OF YOUR HAND
 AND ETERNITY IN AN HOUR

                       -- WILLIAM BLAKE
 Job cpu time:       0 days  8 hours 41 minutes 47.6 seconds.
 Elapsed time:       0 days  0 hours 32 minutes 45.1 seconds.
 File lengths (MBytes):  RWF=   1222 Int=      0 D2E=      0 Chk=     36 Scr=      1
 Normal termination of Gaussian 16 at Wed Jun 29 20:06:25 2022.
