 Entering Gaussian System, Link 0=g16
 AtFile(1): /home/561/yj5695/Basis/6-31pGd.gbs
 Initial command:
 /apps/gaussian/g16c01/g16/l1.exe "/jobfs/49976033.gadi-pbs/Gau-4173987.inp" -scrdir="/jobfs/49976033.gadi-pbs/"
 Entering Link 1 = /apps/gaussian/g16c01/g16/l1.exe PID=   4174003.
  
 Copyright (c) 1988-2019, Gaussian, Inc.  All Rights Reserved.
  
 This is part of the Gaussian(R) 16 program.  It is based on
 the Gaussian(R) 09 system (copyright 2009, Gaussian, Inc.),
 the Gaussian(R) 03 system (copyright 2003, Gaussian, Inc.),
 the Gaussian(R) 98 system (copyright 1998, Gaussian, Inc.),
 the Gaussian(R) 94 system (copyright 1995, Gaussian, Inc.),
 the Gaussian 92(TM) system (copyright 1992, Gaussian, Inc.),
 the Gaussian 90(TM) system (copyright 1990, Gaussian, Inc.),
 the Gaussian 88(TM) system (copyright 1988, Gaussian, Inc.),
 the Gaussian 86(TM) system (copyright 1986, Carnegie Mellon
 University), and the Gaussian 82(TM) system (copyright 1983,
 Carnegie Mellon University). Gaussian is a federally registered
 trademark of Gaussian, Inc.
  
 This software contains proprietary and confidential information,
 including trade secrets, belonging to Gaussian, Inc.
  
 This software is provided under written license and may be
 used, copied, transmitted, or stored only in accord with that
 written license.
  
 The following legend is applicable only to US Government
 contracts under FAR:
  
                    RESTRICTED RIGHTS LEGEND
  
 Use, reproduction and disclosure by the US Government is
 subject to restrictions as set forth in subparagraphs (a)
 and (c) of the Commercial Computer Software - Restricted
 Rights clause in FAR 52.227-19.
  
 Gaussian, Inc.
 340 Quinnipiac St., Bldg. 40, Wallingford CT 06492
  
  
 ---------------------------------------------------------------
 Warning -- This program may not be used in any manner that
 competes with the business of Gaussian, Inc. or will provide
 assistance to any competitor of Gaussian, Inc.  The licensee
 of this program is prohibited from giving any competitor of
 Gaussian, Inc. access to this program.  By using this program,
 the user acknowledges that Gaussian, Inc. is engaged in the
 business of creating and licensing software in the field of
 computational chemistry and represents and warrants to the
 licensee that it is not a competitor of Gaussian, Inc. and that
 it will not use this program in any manner prohibited above.
 ---------------------------------------------------------------
  

 Cite this work as:
 Gaussian 16, Revision C.01,
 M. J. Frisch, G. W. Trucks, H. B. Schlegel, G. E. Scuseria, 
 M. A. Robb, J. R. Cheeseman, G. Scalmani, V. Barone, 
 G. A. Petersson, H. Nakatsuji, X. Li, M. Caricato, A. V. Marenich, 
 J. Bloino, B. G. Janesko, R. Gomperts, B. Mennucci, H. P. Hratchian, 
 J. V. Ortiz, A. F. Izmaylov, J. L. Sonnenberg, D. Williams-Young, 
 F. Ding, F. Lipparini, F. Egidi, J. Goings, B. Peng, A. Petrone, 
 T. Henderson, D. Ranasinghe, V. G. Zakrzewski, J. Gao, N. Rega, 
 G. Zheng, W. Liang, M. Hada, M. Ehara, K. Toyota, R. Fukuda, 
 J. Hasegawa, M. Ishida, T. Nakajima, Y. Honda, O. Kitao, H. Nakai, 
 T. Vreven, K. Throssell, J. A. Montgomery, Jr., J. E. Peralta, 
 F. Ogliaro, M. J. Bearpark, J. J. Heyd, E. N. Brothers, K. N. Kudin, 
 V. N. Staroverov, T. A. Keith, R. Kobayashi, J. Normand, 
 K. Raghavachari, A. P. Rendell, J. C. Burant, S. S. Iyengar, 
 J. Tomasi, M. Cossi, J. M. Millam, M. Klene, C. Adamo, R. Cammi, 
 J. W. Ochterski, R. L. Martin, K. Morokuma, O. Farkas, 
 J. B. Foresman, and D. J. Fox, Gaussian, Inc., Wallingford CT, 2019.
 
 ******************************************
 Gaussian 16:  ES64L-G16RevC.01  3-Jul-2019
                 1-Jul-2022 
 ******************************************
 %nproc=16
 Will use up to   16 processors via shared memory.
 %mem=50gb
 -----------------------------------------------------
 #m062X/gen 6D OPT Freq=noraman SCRF=(SMD,Solvent=h2o)
 -----------------------------------------------------
 1/18=20,19=15,26=3,38=1/1,3;
 2/9=110,12=2,17=6,18=5,40=1/2;
 3/5=7,8=2,11=2,25=1,30=1,70=32201,71=1,72=1,74=-55/1,2,3;
 4//1;
 5/5=2,38=5,53=1/2;
 6/7=2,8=2,9=2,10=2,28=1/1;
 7//1,2,3,16;
 1/18=20,19=15,26=3/3(2);
 2/9=110/2;
 99//99;
 2/9=110/2;
 3/5=7,6=1,8=2,11=2,25=1,30=1,70=32205,71=1,72=1,74=-55,82=7/1,2,3;
 4/5=5,16=3,69=1/1;
 5/5=2,38=5,53=1/2;
 7//1,2,3,16;
 1/18=20,19=15,26=3/3(-5);
 2/9=110/2;
 6/7=2,8=2,9=2,10=2,19=2,28=1/1;
 99/9=1/99;
 ------------------
 HA.36.smd.a2d2.smd
 ------------------
 Symbolic Z-matrix:
 Charge =  0 Multiplicity = 1
 C                    -1.92264   1.24446  -1.21765 
 C                    -2.80196   0.16351  -1.35774 
 Cl                   -4.37483   0.15322  -0.61184 
 C                    -2.41968  -0.94357  -2.10021 
 H                    -3.10023  -1.78196  -2.20691 
 C                    -1.16431  -0.97357  -2.70779 
 C                    -0.28512   0.09548  -2.5723 
 C                    -0.6714    1.2073   -1.82088 
 S                    -2.34678   2.72124  -0.29697 
 O                    -2.70146   2.2821    1.04955 
 O                    -1.27461   3.69741  -0.47038 
 N                    -3.70494   3.39253  -0.93427 
 H                    -4.50469   2.75681  -0.91262 
 H                    -3.56185   3.78547  -1.86559 
 H                    -0.00313   2.05694  -1.70573 
 C                     1.08462   0.09536  -3.25281 
 N                     1.15065   1.11537  -4.2854 
 C                     2.213     0.53397  -2.32715 
 C                     2.08873   2.07688  -4.06843 
 C                     2.80558   1.6867   -2.82579 
 O                     2.28278   3.06713  -4.77198 
 C                     2.66933  -0.05944  -1.16018 
 C                     3.7497    0.54395  -0.50887 
 C                     4.34536   1.70698  -1.0129 
 C                     3.87594   2.29874  -2.18661 
 O                     1.35914  -1.14833  -3.86471 
 H                    -0.88348  -1.84388  -3.29092 
 H                     0.4273    1.21015  -4.99191 
 H                     2.2053   -0.95833  -0.76209 
 H                     4.13225   0.10504   0.40778 
 H                     5.18029   2.15255  -0.48099 
 H                     4.3262    3.20262  -2.58675 
 H                     1.38792  -1.02993  -4.83131 
 

 GradGradGradGradGradGradGradGradGradGradGradGradGradGradGradGradGradGrad
 Berny optimization.
 Initialization pass.
                           ----------------------------
                           !    Initial Parameters    !
                           ! (Angstroms and Degrees)  !
 --------------------------                            --------------------------
 ! Name  Definition              Value          Derivative Info.                !
 --------------------------------------------------------------------------------
 ! R1    R(1,2)                  1.4005         estimate D2E/DX2                !
 ! R2    R(1,8)                  1.3896         estimate D2E/DX2                !
 ! R3    R(1,9)                  1.7912         estimate D2E/DX2                !
 ! R4    R(2,3)                  1.7408         estimate D2E/DX2                !
 ! R5    R(2,4)                  1.3867         estimate D2E/DX2                !
 ! R6    R(4,5)                  1.0851         estimate D2E/DX2                !
 ! R7    R(4,6)                  1.395          estimate D2E/DX2                !
 ! R8    R(6,7)                  1.3908         estimate D2E/DX2                !
 ! R9    R(6,27)                 1.0846         estimate D2E/DX2                !
 ! R10   R(7,8)                  1.3964         estimate D2E/DX2                !
 ! R11   R(7,16)                 1.5295         estimate D2E/DX2                !
 ! R12   R(8,15)                 1.0871         estimate D2E/DX2                !
 ! R13   R(9,10)                 1.4601         estimate D2E/DX2                !
 ! R14   R(9,11)                 1.4603         estimate D2E/DX2                !
 ! R15   R(9,12)                 1.6436         estimate D2E/DX2                !
 ! R16   R(12,13)                1.0219         estimate D2E/DX2                !
 ! R17   R(12,14)                1.0209         estimate D2E/DX2                !
 ! R18   R(16,17)                1.4529         estimate D2E/DX2                !
 ! R19   R(16,18)                1.524          estimate D2E/DX2                !
 ! R20   R(16,26)                1.413          estimate D2E/DX2                !
 ! R21   R(17,19)                1.3607         estimate D2E/DX2                !
 ! R22   R(17,28)                1.0156         estimate D2E/DX2                !
 ! R23   R(18,20)                1.3887         estimate D2E/DX2                !
 ! R24   R(18,22)                1.3864         estimate D2E/DX2                !
 ! R25   R(19,20)                1.4867         estimate D2E/DX2                !
 ! R26   R(19,21)                1.2301         estimate D2E/DX2                !
 ! R27   R(20,25)                1.3888         estimate D2E/DX2                !
 ! R28   R(22,23)                1.3984         estimate D2E/DX2                !
 ! R29   R(22,29)                1.0871         estimate D2E/DX2                !
 ! R30   R(23,24)                1.4005         estimate D2E/DX2                !
 ! R31   R(23,30)                1.0859         estimate D2E/DX2                !
 ! R32   R(24,25)                1.3958         estimate D2E/DX2                !
 ! R33   R(24,31)                1.0856         estimate D2E/DX2                !
 ! R34   R(25,32)                1.0862         estimate D2E/DX2                !
 ! R35   R(26,33)                0.9742         estimate D2E/DX2                !
 ! A1    A(2,1,8)              120.0872         estimate D2E/DX2                !
 ! A2    A(2,1,9)              122.6226         estimate D2E/DX2                !
 ! A3    A(8,1,9)              117.284          estimate D2E/DX2                !
 ! A4    A(1,2,3)              121.9387         estimate D2E/DX2                !
 ! A5    A(1,2,4)              119.78           estimate D2E/DX2                !
 ! A6    A(3,2,4)              118.2792         estimate D2E/DX2                !
 ! A7    A(2,4,5)              119.7742         estimate D2E/DX2                !
 ! A8    A(2,4,6)              119.8967         estimate D2E/DX2                !
 ! A9    A(5,4,6)              120.329          estimate D2E/DX2                !
 ! A10   A(4,6,7)              120.6597         estimate D2E/DX2                !
 ! A11   A(4,6,27)             118.9756         estimate D2E/DX2                !
 ! A12   A(7,6,27)             120.3646         estimate D2E/DX2                !
 ! A13   A(6,7,8)              119.3123         estimate D2E/DX2                !
 ! A14   A(6,7,16)             121.5164         estimate D2E/DX2                !
 ! A15   A(8,7,16)             119.1577         estimate D2E/DX2                !
 ! A16   A(1,8,7)              120.2633         estimate D2E/DX2                !
 ! A17   A(1,8,15)             119.1216         estimate D2E/DX2                !
 ! A18   A(7,8,15)             120.6135         estimate D2E/DX2                !
 ! A19   A(1,9,10)             106.474          estimate D2E/DX2                !
 ! A20   A(1,9,11)             108.4356         estimate D2E/DX2                !
 ! A21   A(1,9,12)             109.4572         estimate D2E/DX2                !
 ! A22   A(10,9,11)            119.2696         estimate D2E/DX2                !
 ! A23   A(10,9,12)            106.2423         estimate D2E/DX2                !
 ! A24   A(11,9,12)            106.7165         estimate D2E/DX2                !
 ! A25   A(9,12,13)            112.6078         estimate D2E/DX2                !
 ! A26   A(9,12,14)            113.2724         estimate D2E/DX2                !
 ! A27   A(13,12,14)           111.6219         estimate D2E/DX2                !
 ! A28   A(7,16,17)            110.9071         estimate D2E/DX2                !
 ! A29   A(7,16,18)            113.1299         estimate D2E/DX2                !
 ! A30   A(7,16,26)            111.5146         estimate D2E/DX2                !
 ! A31   A(17,16,18)           101.3019         estimate D2E/DX2                !
 ! A32   A(17,16,26)           107.537          estimate D2E/DX2                !
 ! A33   A(18,16,26)           111.8708         estimate D2E/DX2                !
 ! A34   A(16,17,19)           114.461          estimate D2E/DX2                !
 ! A35   A(16,17,28)           121.8417         estimate D2E/DX2                !
 ! A36   A(19,17,28)           122.4122         estimate D2E/DX2                !
 ! A37   A(16,18,20)           109.6788         estimate D2E/DX2                !
 ! A38   A(16,18,22)           129.181          estimate D2E/DX2                !
 ! A39   A(20,18,22)           121.135          estimate D2E/DX2                !
 ! A40   A(17,19,20)           106.274          estimate D2E/DX2                !
 ! A41   A(17,19,21)           125.8998         estimate D2E/DX2                !
 ! A42   A(20,19,21)           127.8254         estimate D2E/DX2                !
 ! A43   A(18,20,19)           108.1933         estimate D2E/DX2                !
 ! A44   A(18,20,25)           121.9655         estimate D2E/DX2                !
 ! A45   A(19,20,25)           129.8388         estimate D2E/DX2                !
 ! A46   A(18,22,23)           117.4929         estimate D2E/DX2                !
 ! A47   A(18,22,29)           121.4427         estimate D2E/DX2                !
 ! A48   A(23,22,29)           121.0642         estimate D2E/DX2                !
 ! A49   A(22,23,24)           121.2843         estimate D2E/DX2                !
 ! A50   A(22,23,30)           119.4011         estimate D2E/DX2                !
 ! A51   A(24,23,30)           119.314          estimate D2E/DX2                !
 ! A52   A(23,24,25)           120.7746         estimate D2E/DX2                !
 ! A53   A(23,24,31)           119.4458         estimate D2E/DX2                !
 ! A54   A(25,24,31)           119.7794         estimate D2E/DX2                !
 ! A55   A(20,25,24)           117.347          estimate D2E/DX2                !
 ! A56   A(20,25,32)           121.1079         estimate D2E/DX2                !
 ! A57   A(24,25,32)           121.545          estimate D2E/DX2                !
 ! A58   A(16,26,33)           109.1733         estimate D2E/DX2                !
 ! D1    D(8,1,2,3)            179.4686         estimate D2E/DX2                !
 ! D2    D(8,1,2,4)              0.003          estimate D2E/DX2                !
 ! D3    D(9,1,2,3)             -1.4615         estimate D2E/DX2                !
 ! D4    D(9,1,2,4)            179.0728         estimate D2E/DX2                !
 ! D5    D(2,1,8,7)              0.1792         estimate D2E/DX2                !
 ! D6    D(2,1,8,15)           179.7198         estimate D2E/DX2                !
 ! D7    D(9,1,8,7)           -178.9393         estimate D2E/DX2                !
 ! D8    D(9,1,8,15)             0.6012         estimate D2E/DX2                !
 ! D9    D(2,1,9,10)            56.5407         estimate D2E/DX2                !
 ! D10   D(2,1,9,11)          -173.9646         estimate D2E/DX2                !
 ! D11   D(2,1,9,12)           -57.9038         estimate D2E/DX2                !
 ! D12   D(8,1,9,10)          -124.3648         estimate D2E/DX2                !
 ! D13   D(8,1,9,11)             5.1299         estimate D2E/DX2                !
 ! D14   D(8,1,9,12)           121.1907         estimate D2E/DX2                !
 ! D15   D(1,2,4,5)            179.8682         estimate D2E/DX2                !
 ! D16   D(1,2,4,6)             -0.2392         estimate D2E/DX2                !
 ! D17   D(3,2,4,5)              0.3832         estimate D2E/DX2                !
 ! D18   D(3,2,4,6)           -179.7242         estimate D2E/DX2                !
 ! D19   D(2,4,6,7)              0.2973         estimate D2E/DX2                !
 ! D20   D(2,4,6,27)          -179.5655         estimate D2E/DX2                !
 ! D21   D(5,4,6,7)           -179.8108         estimate D2E/DX2                !
 ! D22   D(5,4,6,27)             0.3265         estimate D2E/DX2                !
 ! D23   D(4,6,7,8)             -0.1153         estimate D2E/DX2                !
 ! D24   D(4,6,7,16)          -178.7613         estimate D2E/DX2                !
 ! D25   D(27,6,7,8)           179.7455         estimate D2E/DX2                !
 ! D26   D(27,6,7,16)            1.0995         estimate D2E/DX2                !
 ! D27   D(6,7,8,1)             -0.1228         estimate D2E/DX2                !
 ! D28   D(6,7,8,15)          -179.6565         estimate D2E/DX2                !
 ! D29   D(16,7,8,1)           178.5554         estimate D2E/DX2                !
 ! D30   D(16,7,8,15)           -0.9782         estimate D2E/DX2                !
 ! D31   D(6,7,16,17)          113.1114         estimate D2E/DX2                !
 ! D32   D(6,7,16,18)         -133.853          estimate D2E/DX2                !
 ! D33   D(6,7,16,26)           -6.7104         estimate D2E/DX2                !
 ! D34   D(8,7,16,17)          -65.5367         estimate D2E/DX2                !
 ! D35   D(8,7,16,18)           47.499          estimate D2E/DX2                !
 ! D36   D(8,7,16,26)          174.6415         estimate D2E/DX2                !
 ! D37   D(1,9,12,13)           59.2729         estimate D2E/DX2                !
 ! D38   D(1,9,12,14)          -68.5777         estimate D2E/DX2                !
 ! D39   D(10,9,12,13)         -55.3206         estimate D2E/DX2                !
 ! D40   D(10,9,12,14)         176.8287         estimate D2E/DX2                !
 ! D41   D(11,9,12,13)         176.421          estimate D2E/DX2                !
 ! D42   D(11,9,12,14)          48.5704         estimate D2E/DX2                !
 ! D43   D(7,16,17,19)         117.9569         estimate D2E/DX2                !
 ! D44   D(7,16,17,28)         -49.3837         estimate D2E/DX2                !
 ! D45   D(18,16,17,19)         -2.3853         estimate D2E/DX2                !
 ! D46   D(18,16,17,28)       -169.7259         estimate D2E/DX2                !
 ! D47   D(26,16,17,19)       -119.8727         estimate D2E/DX2                !
 ! D48   D(26,16,17,28)         72.7867         estimate D2E/DX2                !
 ! D49   D(7,16,18,20)        -118.2281         estimate D2E/DX2                !
 ! D50   D(7,16,18,22)          62.6156         estimate D2E/DX2                !
 ! D51   D(17,16,18,20)          0.5284         estimate D2E/DX2                !
 ! D52   D(17,16,18,22)       -178.6279         estimate D2E/DX2                !
 ! D53   D(26,16,18,20)        114.8171         estimate D2E/DX2                !
 ! D54   D(26,16,18,22)        -64.3392         estimate D2E/DX2                !
 ! D55   D(7,16,26,33)         113.2912         estimate D2E/DX2                !
 ! D56   D(17,16,26,33)         -8.5016         estimate D2E/DX2                !
 ! D57   D(18,16,26,33)       -118.8862         estimate D2E/DX2                !
 ! D58   D(16,17,19,20)          3.2094         estimate D2E/DX2                !
 ! D59   D(16,17,19,21)       -176.5071         estimate D2E/DX2                !
 ! D60   D(28,17,19,20)        170.4693         estimate D2E/DX2                !
 ! D61   D(28,17,19,21)         -9.2473         estimate D2E/DX2                !
 ! D62   D(16,18,20,19)          1.2608         estimate D2E/DX2                !
 ! D63   D(16,18,20,25)       -179.2473         estimate D2E/DX2                !
 ! D64   D(22,18,20,19)       -179.5033         estimate D2E/DX2                !
 ! D65   D(22,18,20,25)         -0.0113         estimate D2E/DX2                !
 ! D66   D(16,18,22,23)        178.8631         estimate D2E/DX2                !
 ! D67   D(16,18,22,29)         -1.3083         estimate D2E/DX2                !
 ! D68   D(20,18,22,23)         -0.2088         estimate D2E/DX2                !
 ! D69   D(20,18,22,29)        179.6198         estimate D2E/DX2                !
 ! D70   D(17,19,20,18)         -2.6839         estimate D2E/DX2                !
 ! D71   D(17,19,20,25)        177.8774         estimate D2E/DX2                !
 ! D72   D(21,19,20,18)        177.0254         estimate D2E/DX2                !
 ! D73   D(21,19,20,25)         -2.4133         estimate D2E/DX2                !
 ! D74   D(18,20,25,24)          0.188          estimate D2E/DX2                !
 ! D75   D(18,20,25,32)       -179.7354         estimate D2E/DX2                !
 ! D76   D(19,20,25,24)        179.5594         estimate D2E/DX2                !
 ! D77   D(19,20,25,32)         -0.364          estimate D2E/DX2                !
 ! D78   D(18,22,23,24)          0.253          estimate D2E/DX2                !
 ! D79   D(18,22,23,30)       -179.9976         estimate D2E/DX2                !
 ! D80   D(29,22,23,24)       -179.5763         estimate D2E/DX2                !
 ! D81   D(29,22,23,30)          0.1731         estimate D2E/DX2                !
 ! D82   D(22,23,24,25)         -0.079          estimate D2E/DX2                !
 ! D83   D(22,23,24,31)        179.772          estimate D2E/DX2                !
 ! D84   D(30,23,24,25)       -179.8286         estimate D2E/DX2                !
 ! D85   D(30,23,24,31)          0.0224         estimate D2E/DX2                !
 ! D86   D(23,24,25,20)         -0.1419         estimate D2E/DX2                !
 ! D87   D(23,24,25,32)        179.7811         estimate D2E/DX2                !
 ! D88   D(31,24,25,20)       -179.9924         estimate D2E/DX2                !
 ! D89   D(31,24,25,32)         -0.0694         estimate D2E/DX2                !
 --------------------------------------------------------------------------------
 Trust Radius=3.00D-01 FncErr=1.00D-07 GrdErr=1.00D-06 EigMax=2.50D+02 EigMin=1.00D-04
 Number of steps in this run=    192 maximum allowed number of steps=    198.
 GradGradGradGradGradGradGradGradGradGradGradGradGradGradGradGradGradGrad

                          Input orientation:                          
 ---------------------------------------------------------------------
 Center     Atomic      Atomic             Coordinates (Angstroms)
 Number     Number       Type             X           Y           Z
 ---------------------------------------------------------------------
      1          6           0       -1.922637    1.244460   -1.217649
      2          6           0       -2.801959    0.163511   -1.357741
      3         17           0       -4.374826    0.153218   -0.611836
      4          6           0       -2.419679   -0.943574   -2.100213
      5          1           0       -3.100228   -1.781958   -2.206914
      6          6           0       -1.164314   -0.973573   -2.707785
      7          6           0       -0.285115    0.095479   -2.572297
      8          6           0       -0.671395    1.207304   -1.820881
      9         16           0       -2.346777    2.721237   -0.296974
     10          8           0       -2.701459    2.282099    1.049547
     11          8           0       -1.274609    3.697411   -0.470378
     12          7           0       -3.704940    3.392527   -0.934269
     13          1           0       -4.504690    2.756812   -0.912618
     14          1           0       -3.561845    3.785472   -1.865589
     15          1           0       -0.003125    2.056942   -1.705725
     16          6           0        1.084621    0.095359   -3.252813
     17          7           0        1.150645    1.115366   -4.285401
     18          6           0        2.212998    0.533971   -2.327152
     19          6           0        2.088734    2.076885   -4.068428
     20          6           0        2.805580    1.686695   -2.825794
     21          8           0        2.282780    3.067128   -4.771983
     22          6           0        2.669326   -0.059440   -1.160181
     23          6           0        3.749702    0.543945   -0.508871
     24          6           0        4.345363    1.706978   -1.012897
     25          6           0        3.875937    2.298741   -2.186608
     26          8           0        1.359135   -1.148331   -3.864713
     27          1           0       -0.883484   -1.843877   -3.290923
     28          1           0        0.427303    1.210152   -4.991911
     29          1           0        2.205303   -0.958330   -0.762093
     30          1           0        4.132248    0.105035    0.407778
     31          1           0        5.180288    2.152547   -0.480989
     32          1           0        4.326203    3.202618   -2.586751
     33          1           0        1.387923   -1.029933   -4.831309
 ---------------------------------------------------------------------
                    Distance matrix (angstroms):
                    1          2          3          4          5
     1  C    0.000000
     2  C    1.400458   0.000000
     3  Cl   2.751554   1.740802   0.000000
     4  C    2.411112   1.386737   2.690877   0.000000
     5  H    3.394786   2.143574   2.813144   1.085090   0.000000
     6  C    2.777630   2.407792   3.996254   1.394986   2.156878
     7  C    2.415928   2.795403   4.535689   2.420508   3.403401
     8  C    1.389560   2.417293   4.035875   2.785821   3.870909
     9  S    1.791203   2.806132   3.287376   4.085073   4.949174
    10  O    2.612171   3.208356   3.176867   4.517229   5.223037
    11  O    2.644867   3.950780   4.710909   5.050375   6.030914
    12  N    2.805548   3.379534   3.323527   4.670449   5.362891
    13  H    3.007865   3.134109   2.624126   4.410273   4.924241
    14  H    3.092502   3.735497   3.927608   4.870674   5.596952
    15  H    2.140764   3.397005   4.892088   3.872783   4.957861
    16  C    3.808665   4.324517   6.064954   3.832491   4.704379
    17  N    4.344287   5.010020   6.704598   4.664922   5.548380
    18  C    4.340423   5.121210   6.818116   4.867888   5.797271
    19  C    4.991089   5.909966   7.578003   5.772593   6.729133
    20  C    5.013755   5.993310   7.668859   5.894753   6.877000
    21  O    5.800081   6.778098   8.373853   6.733291   7.685700
    22  C    4.773844   5.479388   7.068662   5.250079   6.111503
    23  C    5.759212   6.617369   8.134570   6.542656   7.430661
    24  C    6.288376   7.320206   8.866607   7.346664   8.308741
    25  C    5.972759   7.059782   8.669387   7.082009   8.082041
    26  O    4.847930   5.031952   6.719639   4.175502   4.799552
    27  H    3.862141   3.383393   4.832739   2.142016   2.468373
    28  H    4.446172   4.973005   6.585029   4.594101   5.399297
    29  H    4.701032   5.165849   6.675044   4.814690   5.560084
    30  H    6.371965   7.155676   8.568094   7.093472   7.918716
    31  H    7.198530   8.272921   9.762922   8.364649   9.328778
    32  H    6.690054   7.845848   9.429053   7.933130   8.952215
    33  H    5.402889   5.571812   7.239687   4.686595   5.253236
                    6          7          8          9         10
     6  C    0.000000
     7  C    1.390762   0.000000
     8  C    2.405367   1.396422   0.000000
     9  S    4.567477   4.040068   2.724186   0.000000
    10  O    5.203822   4.872143   3.676371   1.460055   0.000000
    11  O    5.180371   4.286149   2.896266   1.460318   2.519758
    12  N    5.353781   5.024825   3.842353   1.643588   2.485065
    13  H    5.319446   5.257570   4.233210   2.244298   2.706859
    14  H    5.394994   4.985223   3.873455   2.251564   3.390931
    15  H    3.396543   2.162823   1.087074   2.813996   3.863059
    16  C    2.548996   1.529470   2.523974   5.235142   6.134047
    17  N    3.494506   2.456889   3.066291   5.542412   6.682937
    18  C    3.718038   2.548125   3.004898   5.449523   6.213689
    19  C    4.662506   3.435045   3.664144   5.857714   7.012969
    20  C    4.780273   3.485488   3.650893   5.831980   6.760196
    21  O    5.698301   4.501489   4.571116   6.448112   7.703838
    22  C    4.234089   3.278230   3.633398   5.799878   6.261871
    23  C    5.593356   4.553965   4.659132   6.477079   6.860563
    24  C    6.357243   5.144899   5.105915   6.806321   7.364926
    25  C    6.031898   4.724137   4.690759   6.517008   7.330424
    26  O    2.781514   2.433302   3.721467   6.437088   7.239214
    27  H    1.084594   2.153038   3.393481   5.652011   6.258466
    28  H    3.538238   2.757638   3.355976   5.658739   6.887484
    29  H    3.891050   3.254156   3.753185   5.871710   6.152945
    30  H    6.238886   5.328605   5.408965   7.022745   7.200766
    31  H    7.415202   6.202881   6.077087   7.550760   8.030022
    32  H    6.899348   5.560465   5.435423   7.071313   7.966056
    33  H    3.320609   3.027993   4.278866   6.969896   7.891582
                   11         12         13         14         15
    11  O    0.000000
    12  N    2.492922   0.000000
    13  H    3.393188   1.021862   0.000000
    14  H    2.680637   1.020901   1.689749   0.000000
    15  H    2.415345   4.010283   4.624167   3.959528   0.000000
    16  C    5.126665   6.259941   6.618175   6.093519   2.724790
    17  N    5.206075   6.323943   6.786223   5.932328   2.978671
    18  C    5.061459   6.718144   7.215903   6.643351   2.759857
    19  C    5.184992   6.717181   7.341299   6.300858   3.155731
    20  C    5.122393   6.991037   7.631870   6.772810   3.046385
    21  O    5.617480   7.119461   7.814137   6.566794   3.955727
    22  C    5.490390   7.252474   7.710971   7.355844   3.452345
    23  C    5.932076   7.991688   8.555395   8.112145   4.219636
    24  C    5.986672   8.225244   8.912668   8.220168   4.417220
    25  C    5.606233   7.761083   8.489275   7.591708   3.916227
    26  O    6.476058   7.406197   7.638681   7.249479   4.097653
    27  H    6.230114   6.397996   6.319478   6.394901   4.301659
    28  H    5.433896   6.188914   6.584629   5.685021   3.420722
    29  H    5.819863   7.341020   7.671307   7.548600   3.854797
    30  H    6.550605   8.604081   9.130830   8.826827   5.037673
    31  H    6.637199   8.982777   9.713405   9.000469   5.326996
    32  H    6.007741   8.201586   8.999230   7.942361   4.564193
    33  H    6.960932   7.789886   8.026111   7.515572   4.607937
                   16         17         18         19         20
    16  C    0.000000
    17  N    1.452932   0.000000
    18  C    1.523963   2.302467   0.000000
    19  C    2.366414   1.360738   2.329821   0.000000
    20  C    2.382519   2.279403   1.388730   1.486693   0.000000
    21  O    3.546107   2.308217   3.521215   1.230132   2.442656
    22  C    2.629517   3.667910   1.386432   3.654979   2.416986
    23  C    3.851377   4.619935   2.380694   4.216535   2.750523
    24  C    4.271648   4.611454   2.765898   3.816474   2.378642
    25  C    3.712564   3.637654   2.428895   2.604719   1.388821
    26  O    1.412991   2.311876   2.433786   3.312979   3.347974
    27  H    2.763246   3.726095   4.021345   4.981061   5.127424
    28  H    2.167785   1.015561   3.278242   2.089115   3.251977
    29  H    2.927435   4.222111   2.162506   4.489763   3.408130
    30  H    4.763198   5.651252   3.368583   5.300996   3.836363
    31  H    5.356260   5.638024   3.851352   4.736365   3.369624
    32  H    4.539444   4.162475   3.413899   2.910139   2.160430
    33  H    1.962122   2.226348   3.065509   3.274972   3.662227
                   21         22         23         24         25
    21  O    0.000000
    22  C    4.792699   0.000000
    23  C    5.166472   1.398389   0.000000
    24  C    4.498331   2.439472   1.400536   0.000000
    25  C    3.132528   2.840859   2.431059   1.395758   0.000000
    26  O    4.409802   3.196369   4.454243   5.020279   4.586135
    27  H    6.027996   4.510736   5.908292   6.718543   6.405692
    28  H    2.634297   4.617433   5.619592   5.606298   4.576880
    29  H    5.682388   1.087104   2.169359   3.427335   3.927948
    30  H    6.246955   2.150741   1.085923   2.151733   3.407181
    31  H    5.257817   3.414545   2.152894   1.085614   2.152171
    32  H    2.994858   3.927005   3.423227   2.171249   1.086208
    33  H    4.194067   4.007622   5.170934   5.551342   4.925924
                   26         27         28         29         30
    26  O    0.000000
    27  H    2.417097   0.000000
    28  H    2.775127   3.733446   0.000000
    29  H    3.221545   4.088983   5.074934   0.000000
    30  H    5.245499   6.529641   6.641125   2.492481   0.000000
    31  H    6.078371   7.786942   6.620226   4.313596   2.465887
    32  H    5.419173   7.287236   4.995612   5.014088   4.312754
    33  H    0.974246   2.862618   2.442655   4.151115   6.022251
                   31         32         33
    31  H    0.000000
    32  H    2.503267   0.000000
    33  H    6.590561   5.620144   0.000000
 Stoichiometry    C14H11ClN2O4S
 Framework group  C1[X(C14H11ClN2O4S)]
 Deg. of freedom    93
 Full point group                 C1      NOp   1
 Largest Abelian subgroup         C1      NOp   1
 Largest concise Abelian subgroup C1      NOp   1
                         Standard orientation:                         
 ---------------------------------------------------------------------
 Center     Atomic      Atomic             Coordinates (Angstroms)
 Number     Number       Type             X           Y           Z
 ---------------------------------------------------------------------
      1          6           0       -1.762581    0.003836   -0.024062
      2          6           0       -2.511110    1.165445   -0.251335
      3         17           0       -4.239288    1.122033   -0.456041
      4          6           0       -1.870939    2.393111   -0.329157
      5          1           0       -2.450755    3.292815   -0.507389
      6          6           0       -0.486324    2.466220   -0.175916
      7          6           0        0.263991    1.316996    0.048874
      8          6           0       -0.383019    0.081731    0.122963
      9         16           0       -2.512848   -1.616781    0.114175
     10          8           0       -3.268263   -1.829702   -1.116992
     11          8           0       -1.476945   -2.574635    0.490937
     12          7           0       -3.614582   -1.607811    1.333799
     13          1           0       -4.355688   -0.919411    1.188645
     14          1           0       -3.191878   -1.516157    2.258547
     15          1           0        0.182060   -0.829232    0.303415
     16          6           0        1.779302    1.377614    0.247467
     17          7           0        2.139986    1.000723    1.603517
     18          6           0        2.531786    0.329802   -0.563903
     19          6           0        2.923399   -0.108463    1.690566
     20          6           0        3.213156   -0.524591    0.293020
     21          8           0        3.299810   -0.645842    2.731125
     22          6           0        2.606736    0.174968   -1.939622
     23          6           0        3.396777   -0.869666   -2.429586
     24          6           0        4.082440   -1.730809   -1.563676
     25          6           0        3.997340   -1.568693   -0.179979
     26          8           0        2.280115    2.679113    0.019806
     27          1           0       -0.001864    3.434955   -0.232451
     28          1           0        1.681063    1.407901    2.412814
     29          1           0        2.070590    0.837093   -2.614850
     30          1           0        3.477493   -1.019199   -3.502131
     31          1           0        4.684478   -2.534414   -1.976382
     32          1           0        4.520967   -2.231332    0.503083
     33          1           0        2.615708    3.044056    0.858465
 ---------------------------------------------------------------------
 Rotational constants (GHZ):           0.4115414           0.1581859           0.1423672
 General basis read from cards:  (6D, 7F)
 There are   448 symmetry adapted cartesian basis functions of A   symmetry.
 There are   448 symmetry adapted basis functions of A   symmetry.
   448 basis functions,   796 primitive gaussians,   448 cartesian basis functions
    87 alpha electrons       87 beta electrons
       nuclear repulsion energy      2117.4990031486 Hartrees.
 NAtoms=   33 NActive=   33 NUniq=   33 SFac= 1.00D+00 NAtFMM=   60 NAOKFM=F Big=F
 Integral buffers will be    131072 words long.
 Raffenetti 2 integral format.
 Two-electron integral symmetry is turned on.
 ------------------------------------------------------------------------------
 Polarizable Continuum Model (PCM)
 =================================
 Model                : PCM.
 Atomic radii         : SMD-Coulomb.
 Polarization charges : Total charges.
 Charge compensation  : None.
 Solution method      : On-the-fly selection.
 Cavity type          : VdW (van der Waals Surface) (Alpha=1.000).
 Cavity algorithm     : GePol (No added spheres)
                        Default sphere list used, NSphG=   33.
                        Lebedev-Laikov grids with approx.  5.0 points / Ang**2.
                        Smoothing algorithm: York/Karplus (Gamma=1.0000).
                        Polarization charges: spherical gaussians, with
                                              point-specific exponents (IZeta= 3).
                        Self-potential: point-specific (ISelfS= 7).
                        Self-field    : sphere-specific E.n sum rule (ISelfD= 2).
 1st derivatives      : Analytical E(r).r(x)/FMM algorithm (CHGder, D1EAlg=3).
                        Cavity 1st derivative terms included.
 Solvent              : Water, Eps=  78.355300 Eps(inf)=   1.777849
 ------------------------------------------------------------------------------
 ------------------------------------------------------------------------------
 Atomic radii for non-electrostatic terms: SMD-CDS.
 ------------------------------------------------------------------------------
 Nuclear repulsion after PCM non-electrostatic terms =     2117.5095298212 Hartrees.
 One-electron integrals computed using PRISM.
 NBasis=   448 RedAO= T EigKep=  1.54D-06  NBF=   448
 NBsUse=   444 1.00D-06 EigRej=  9.43D-07 NBFU=   444
 ExpMin= 4.05D-02 ExpMax= 2.52D+04 ExpMxC= 3.78D+03 IAcc=3 IRadAn=         5 AccDes= 0.00D+00
 Harris functional with IExCor= 1009 and IRadAn=       5 diagonalized for initial guess.
 HarFok:  IExCor= 1009 AccDes= 0.00D+00 IRadAn=         5 IDoV= 1 UseB2=F ITyADJ=14
 ICtDFT=  3500011 ScaDFX=  1.000000  1.000000  1.000000  1.000000
 FoFCou: FMM=F IPFlag=           0 FMFlag=      100000 FMFlg1=           0
         NFxFlg=           0 DoJE=T BraDBF=F KetDBF=T FulRan=T
         wScrn=  0.000000 ICntrl=       500 IOpCl=  0 I1Cent=   200000004 NGrid=           0
         NMat0=    1 NMatS0=      1 NMatT0=    0 NMatD0=    1 NMtDS0=    0 NMtDT0=    0
 Petite list used in FoFCou.
 Requested convergence on RMS density matrix=1.00D-08 within 128 cycles.
 Requested convergence on MAX density matrix=1.00D-06.
 Requested convergence on             energy=1.00D-06.
 No special actions if energy rises.
 Inv3:  Mode=1 IEnd=    21003948.
 Iteration    1 A*A^-1 deviation from unit magnitude is 6.44D-15 for   2642.
 Iteration    1 A*A^-1 deviation from orthogonality  is 4.86D-15 for   2642    577.
 Iteration    1 A^-1*A deviation from unit magnitude is 6.44D-15 for   2642.
 Iteration    1 A^-1*A deviation from orthogonality  is 1.74D-15 for   1012    106.
 Error on total polarization charges =  0.05289
 SCF Done:  E(RM062X) =  -1808.47684657     A.U. after   16 cycles
            NFock= 16  Conv=0.45D-08     -V/T= 2.0059
 SMD-CDS (non-electrostatic) energy       (kcal/mol) =       6.61
 (included in total energy above)

 **********************************************************************

            Population analysis using the SCF Density.

 **********************************************************************

 Orbital symmetries:
       Occupied  (A) (A) (A) (A) (A) (A) (A) (A) (A) (A) (A) (A)
                 (A) (A) (A) (A) (A) (A) (A) (A) (A) (A) (A) (A)
                 (A) (A) (A) (A) (A) (A) (A) (A) (A) (A) (A) (A)
                 (A) (A) (A) (A) (A) (A) (A) (A) (A) (A) (A) (A)
                 (A) (A) (A) (A) (A) (A) (A) (A) (A) (A) (A) (A)
                 (A) (A) (A) (A) (A) (A) (A) (A) (A) (A) (A) (A)
                 (A) (A) (A) (A) (A) (A) (A) (A) (A) (A) (A) (A)
                 (A) (A) (A)
       Virtual   (A) (A) (A) (A) (A) (A) (A) (A) (A) (A) (A) (A)
                 (A) (A) (A) (A) (A) (A) (A) (A) (A) (A) (A) (A)
                 (A) (A) (A) (A) (A) (A) (A) (A) (A) (A) (A) (A)
                 (A) (A) (A) (A) (A) (A) (A) (A) (A) (A) (A) (A)
                 (A) (A) (A) (A) (A) (A) (A) (A) (A) (A) (A) (A)
                 (A) (A) (A) (A) (A) (A) (A) (A) (A) (A) (A) (A)
                 (A) (A) (A) (A) (A) (A) (A) (A) (A) (A) (A) (A)
                 (A) (A) (A) (A) (A) (A) (A) (A) (A) (A) (A) (A)
                 (A) (A) (A) (A) (A) (A) (A) (A) (A) (A) (A) (A)
                 (A) (A) (A) (A) (A) (A) (A) (A) (A) (A) (A) (A)
                 (A) (A) (A) (A) (A) (A) (A) (A) (A) (A) (A) (A)
                 (A) (A) (A) (A) (A) (A) (A) (A) (A) (A) (A) (A)
                 (A) (A) (A) (A) (A) (A) (A) (A) (A) (A) (A) (A)
                 (A) (A) (A) (A) (A) (A) (A) (A) (A) (A) (A) (A)
                 (A) (A) (A) (A) (A) (A) (A) (A) (A) (A) (A) (A)
                 (A) (A) (A) (A) (A) (A) (A) (A) (A) (A) (A) (A)
                 (A) (A) (A) (A) (A) (A) (A) (A) (A) (A) (A) (A)
                 (A) (A) (A) (A) (A) (A) (A) (A) (A) (A) (A) (A)
                 (A) (A) (A) (A) (A) (A) (A) (A) (A) (A) (A) (A)
                 (A) (A) (A) (A) (A) (A) (A) (A) (A) (A) (A) (A)
                 (A) (A) (A) (A) (A) (A) (A) (A) (A) (A) (A) (A)
                 (A) (A) (A) (A) (A) (A) (A) (A) (A) (A) (A) (A)
                 (A) (A) (A) (A) (A) (A) (A) (A) (A) (A) (A) (A)
                 (A) (A) (A) (A) (A) (A) (A) (A) (A) (A) (A) (A)
                 (A) (A) (A) (A) (A) (A) (A) (A) (A) (A) (A) (A)
                 (A) (A) (A) (A) (A) (A) (A) (A) (A) (A) (A) (A)
                 (A) (A) (A) (A) (A) (A) (A) (A) (A) (A) (A) (A)
                 (A) (A) (A) (A) (A) (A) (A) (A) (A) (A) (A) (A)
                 (A) (A) (A) (A) (A) (A) (A) (A) (A) (A) (A) (A)
                 (A) (A) (A) (A) (A) (A) (A) (A) (A)
 The electronic state is 1-A.
 Alpha  occ. eigenvalues -- -102.69624 -90.19018 -19.66899 -19.66715 -19.66302
 Alpha  occ. eigenvalues --  -19.64192 -14.80766 -14.80275 -10.68044 -10.67710
 Alpha  occ. eigenvalues --  -10.64894 -10.61728 -10.59161 -10.59004 -10.58329
 Alpha  occ. eigenvalues --  -10.58075 -10.57844 -10.57327 -10.57142 -10.56900
 Alpha  occ. eigenvalues --  -10.56808 -10.56522  -9.84275  -8.49942  -7.56679
 Alpha  occ. eigenvalues --   -7.56018  -7.55987  -6.42145  -6.42125  -6.42025
 Alpha  occ. eigenvalues --   -1.26766  -1.19423  -1.17434  -1.15185  -1.06411
 Alpha  occ. eigenvalues --   -1.04014  -1.02413  -0.97740  -0.96778  -0.89604
 Alpha  occ. eigenvalues --   -0.88399  -0.87261  -0.85753  -0.79153  -0.77741
 Alpha  occ. eigenvalues --   -0.74458  -0.72080  -0.70373  -0.68782  -0.67372
 Alpha  occ. eigenvalues --   -0.64530  -0.63289  -0.62355  -0.60823  -0.59045
 Alpha  occ. eigenvalues --   -0.58096  -0.58010  -0.56741  -0.55763  -0.54619
 Alpha  occ. eigenvalues --   -0.53958  -0.53126  -0.51999  -0.51257  -0.50892
 Alpha  occ. eigenvalues --   -0.50267  -0.49627  -0.47079  -0.46370  -0.45201
 Alpha  occ. eigenvalues --   -0.44655  -0.44465  -0.43793  -0.42727  -0.42646
 Alpha  occ. eigenvalues --   -0.42116  -0.41402  -0.40910  -0.40149  -0.38353
 Alpha  occ. eigenvalues --   -0.37657  -0.35697  -0.35124  -0.33900  -0.32752
 Alpha  occ. eigenvalues --   -0.32224  -0.30930
 Alpha virt. eigenvalues --   -0.02592  -0.02369  -0.01144   0.00261   0.00892
 Alpha virt. eigenvalues --    0.01817   0.02518   0.02759   0.03128   0.04130
 Alpha virt. eigenvalues --    0.04331   0.04464   0.05081   0.05246   0.05729
 Alpha virt. eigenvalues --    0.05908   0.07099   0.07342   0.07719   0.07818
 Alpha virt. eigenvalues --    0.07973   0.08470   0.08892   0.09051   0.09868
 Alpha virt. eigenvalues --    0.10164   0.10887   0.11017   0.11339   0.11415
 Alpha virt. eigenvalues --    0.11628   0.12280   0.12895   0.13440   0.13603
 Alpha virt. eigenvalues --    0.14036   0.14317   0.14533   0.15156   0.15452
 Alpha virt. eigenvalues --    0.15623   0.16259   0.16612   0.16763   0.17399
 Alpha virt. eigenvalues --    0.17748   0.18119   0.18480   0.19074   0.19288
 Alpha virt. eigenvalues --    0.19392   0.19577   0.19836   0.20413   0.20762
 Alpha virt. eigenvalues --    0.20988   0.21308   0.21852   0.22234   0.22432
 Alpha virt. eigenvalues --    0.22516   0.23008   0.23140   0.23695   0.23979
 Alpha virt. eigenvalues --    0.24470   0.24779   0.24921   0.25231   0.25681
 Alpha virt. eigenvalues --    0.25777   0.26066   0.26589   0.26812   0.27414
 Alpha virt. eigenvalues --    0.27645   0.27910   0.28140   0.28275   0.29179
 Alpha virt. eigenvalues --    0.29667   0.29754   0.29956   0.30294   0.30928
 Alpha virt. eigenvalues --    0.30997   0.31416   0.31661   0.32087   0.32418
 Alpha virt. eigenvalues --    0.32674   0.33363   0.33684   0.34252   0.34402
 Alpha virt. eigenvalues --    0.34880   0.35111   0.35294   0.35984   0.36516
 Alpha virt. eigenvalues --    0.36695   0.37346   0.37811   0.38731   0.38950
 Alpha virt. eigenvalues --    0.39596   0.40035   0.40623   0.42095   0.42957
 Alpha virt. eigenvalues --    0.43968   0.44400   0.45451   0.45884   0.46249
 Alpha virt. eigenvalues --    0.46783   0.47510   0.47914   0.48714   0.49414
 Alpha virt. eigenvalues --    0.51241   0.55163   0.56743   0.58434   0.59225
 Alpha virt. eigenvalues --    0.60992   0.62171   0.65029   0.65854   0.66676
 Alpha virt. eigenvalues --    0.67442   0.69020   0.69645   0.71696   0.72213
 Alpha virt. eigenvalues --    0.72565   0.73135   0.73732   0.75698   0.76583
 Alpha virt. eigenvalues --    0.76890   0.77097   0.77553   0.77968   0.78948
 Alpha virt. eigenvalues --    0.79355   0.80100   0.80312   0.81866   0.82322
 Alpha virt. eigenvalues --    0.82627   0.84202   0.84779   0.85478   0.85633
 Alpha virt. eigenvalues --    0.88267   0.88468   0.90068   0.91279   0.91922
 Alpha virt. eigenvalues --    0.92511   0.93893   0.94055   0.94217   0.95775
 Alpha virt. eigenvalues --    0.96902   0.97825   0.98127   0.99573   1.00188
 Alpha virt. eigenvalues --    1.01955   1.02730   1.03429   1.03918   1.04170
 Alpha virt. eigenvalues --    1.05271   1.05491   1.06794   1.07951   1.08974
 Alpha virt. eigenvalues --    1.09442   1.10317   1.11144   1.12964   1.13593
 Alpha virt. eigenvalues --    1.14826   1.15155   1.15276   1.16320   1.17485
 Alpha virt. eigenvalues --    1.17814   1.18417   1.19169   1.20408   1.21208
 Alpha virt. eigenvalues --    1.21509   1.22947   1.23851   1.24767   1.25071
 Alpha virt. eigenvalues --    1.25834   1.27237   1.28639   1.29095   1.30689
 Alpha virt. eigenvalues --    1.31665   1.32691   1.34339   1.34994   1.35741
 Alpha virt. eigenvalues --    1.36360   1.37727   1.38122   1.38914   1.39715
 Alpha virt. eigenvalues --    1.39999   1.40479   1.41620   1.41938   1.43137
 Alpha virt. eigenvalues --    1.44834   1.45567   1.46593   1.47465   1.48222
 Alpha virt. eigenvalues --    1.49714   1.50233   1.50992   1.51514   1.52239
 Alpha virt. eigenvalues --    1.52599   1.53610   1.54058   1.54467   1.55763
 Alpha virt. eigenvalues --    1.57397   1.59560   1.60713   1.61297   1.67105
 Alpha virt. eigenvalues --    1.68358   1.70247   1.72411   1.74743   1.77015
 Alpha virt. eigenvalues --    1.78314   1.78778   1.80670   1.81079   1.81780
 Alpha virt. eigenvalues --    1.83336   1.85150   1.85257   1.86952   1.87851
 Alpha virt. eigenvalues --    1.88288   1.89663   1.89832   1.90833   1.91879
 Alpha virt. eigenvalues --    1.92675   1.93836   1.94982   1.97522   1.98918
 Alpha virt. eigenvalues --    2.00813   2.01931   2.02255   2.03677   2.05120
 Alpha virt. eigenvalues --    2.05183   2.07247   2.08339   2.10677   2.12543
 Alpha virt. eigenvalues --    2.14202   2.14209   2.15789   2.16833   2.17489
 Alpha virt. eigenvalues --    2.18498   2.19401   2.20488   2.22305   2.22599
 Alpha virt. eigenvalues --    2.23205   2.24787   2.26731   2.27618   2.29713
 Alpha virt. eigenvalues --    2.30026   2.30971   2.31860   2.34104   2.35271
 Alpha virt. eigenvalues --    2.36634   2.36996   2.37549   2.41098   2.45224
 Alpha virt. eigenvalues --    2.48514   2.50225   2.52951   2.53315   2.58698
 Alpha virt. eigenvalues --    2.62266   2.63313   2.63843   2.65783   2.66428
 Alpha virt. eigenvalues --    2.68641   2.69729   2.71050   2.73211   2.74408
 Alpha virt. eigenvalues --    2.75531   2.77817   2.78932   2.81069   2.82863
 Alpha virt. eigenvalues --    2.86669   2.87257   2.88859   2.92134   2.95354
 Alpha virt. eigenvalues --    2.95557   3.01042   3.03116   3.06753   3.13278
 Alpha virt. eigenvalues --    3.17005   3.22498   3.29653   3.35206   3.45211
 Alpha virt. eigenvalues --    3.91280   4.05505   4.21006   4.22844   4.26949
 Alpha virt. eigenvalues --    4.31037   4.32336   4.32393   4.35476   4.38129
 Alpha virt. eigenvalues --    4.40052   4.41063   4.45413   4.46599   4.46699
 Alpha virt. eigenvalues --    4.51043   4.53036   4.56984   4.70765   4.77811
 Alpha virt. eigenvalues --    4.87125   4.94329
          Condensed to atoms (all electrons):
               1          2          3          4          5          6
     1  C   31.725001 -15.263050   0.783530  -3.619301   0.086812  -2.593979
     2  C  -15.263050  37.308531  -1.243349  -5.194678   0.044354   1.864752
     3  Cl   0.783530  -1.243349  17.137700  -0.036801  -0.005613   0.029203
     4  C   -3.619301  -5.194678  -0.036801  15.176237   0.176574  -1.605880
     5  H    0.086812   0.044354  -0.005613   0.176574   0.403823  -0.047189
     6  C   -2.593979   1.864752   0.029203  -1.605880  -0.047189  12.194502
     7  C   -1.342593  -3.942028   0.031609   1.119252   0.047280  -3.217506
     8  C    2.548082  -7.814323   0.113051  -0.175416   0.006825  -0.415432
     9  S   -1.557223  -0.242325   0.019683   0.678354  -0.001611   0.286702
    10  O   -0.372183   0.295189  -0.100547   0.014240  -0.000046   0.041615
    11  O   -0.591636  -0.369611   0.004770   0.099439   0.000015  -0.030105
    12  N   -0.160979  -0.259652   0.020803   0.064897  -0.000243  -0.030557
    13  H    0.006987  -0.056742   0.023150   0.013465   0.000000   0.002245
    14  H   -0.094804   0.080962  -0.003615   0.000676   0.000000   0.004627
    15  H   -0.040377  -0.053113   0.000127  -0.022837   0.000010   0.005679
    16  C   -1.296708  -0.505154   0.001158  -0.163532   0.006528  -0.748224
    17  N   -0.095270   0.036490  -0.001001   0.013961  -0.000029   0.009688
    18  C    0.038395   0.036353  -0.002393  -0.201566  -0.001580   0.832148
    19  C    0.169883  -0.009644  -0.002057   0.016517  -0.000064   0.138981
    20  C    0.171060   0.344931  -0.003172  -0.099056  -0.000075  -0.106495
    21  O   -0.002280  -0.000208  -0.000005   0.000817  -0.000000  -0.006665
    22  C   -0.403724  -0.176550   0.001165   0.234488   0.000345  -0.853605
    23  C   -0.051054  -0.051969   0.001200   0.007427   0.000023   0.079756
    24  C   -0.003491   0.009696  -0.000140   0.011232  -0.000007  -0.022951
    25  C    0.003233   0.018281   0.000087  -0.040945   0.000047  -0.151775
    26  O    0.000468   0.045169   0.000012  -0.132266   0.000229  -0.047786
    27  H    0.002381   0.030735   0.001136  -0.084020  -0.002904   0.387907
    28  H   -0.006345  -0.003606  -0.000007   0.005615   0.000000  -0.015804
    29  H   -0.002463  -0.002018   0.000013   0.001932  -0.000000  -0.008659
    30  H    0.000047  -0.000041   0.000000   0.000068  -0.000000   0.000546
    31  H   -0.000018  -0.000003   0.000000  -0.000003   0.000000  -0.000039
    32  H   -0.000527  -0.000061   0.000000   0.000015  -0.000000   0.000163
    33  H   -0.002621  -0.000586  -0.000007  -0.014336  -0.000000  -0.022982
               7          8          9         10         11         12
     1  C   -1.342593   2.548082  -1.557223  -0.372183  -0.591636  -0.160979
     2  C   -3.942028  -7.814323  -0.242325   0.295189  -0.369611  -0.259652
     3  Cl   0.031609   0.113051   0.019683  -0.100547   0.004770   0.020803
     4  C    1.119252  -0.175416   0.678354   0.014240   0.099439   0.064897
     5  H    0.047280   0.006825  -0.001611  -0.000046   0.000015  -0.000243
     6  C   -3.217506  -0.415432   0.286702   0.041615  -0.030105  -0.030557
     7  C   16.345265  -0.474801  -0.921344  -0.135302   0.131275   0.100496
     8  C   -0.474801  12.384248   0.202323  -0.121070   0.511895   0.097102
     9  S   -0.921344   0.202323  15.583310   0.440922   0.296114  -0.138498
    10  O   -0.135302  -0.121070   0.440922   8.746402  -0.137834  -0.121196
    11  O    0.131275   0.511895   0.296114  -0.137834   8.803390  -0.099070
    12  N    0.100496   0.097102  -0.138498  -0.121196  -0.099070   8.055781
    13  H   -0.003507   0.018526   0.030567  -0.008518   0.010542   0.221363
    14  H   -0.020461  -0.039760   0.081999   0.009958  -0.006307   0.243378
    15  H   -0.061921   0.383262  -0.002984  -0.000418   0.005937  -0.001236
    16  C    1.645967  -1.921375  -0.017512  -0.003565   0.042070  -0.003405
    17  N   -0.232653   0.023166  -0.025880  -0.000588  -0.001243   0.000251
    18  C   -2.578120   0.620256  -0.087702  -0.006863  -0.014118  -0.001699
    19  C   -0.691024  -0.129842  -0.001570  -0.000118  -0.002119  -0.004062
    20  C   -0.039971   0.340606  -0.018841   0.003360  -0.000238   0.008280
    21  O    0.021886   0.014780  -0.000345  -0.000002   0.000020   0.000053
    22  C    1.292097  -0.374687   0.000914   0.001027   0.007796   0.002332
    23  C   -0.099393   0.143999   0.001394  -0.002990  -0.000767  -0.001291
    24  C    0.128799  -0.033733  -0.004006   0.000624   0.001698   0.000960
    25  C   -0.829904   0.334946  -0.015570  -0.001058  -0.013947  -0.001744
    26  O   -0.180451   0.135120  -0.003591  -0.000090  -0.000123  -0.000020
    27  H   -0.018791   0.033850   0.000645   0.000001  -0.000003   0.000016
    28  H    0.030902  -0.035710   0.000092   0.000001   0.000000   0.000008
    29  H    0.033736  -0.013244   0.000047   0.000001   0.000000   0.000000
    30  H   -0.001877  -0.000362   0.000024   0.000000   0.000000   0.000000
    31  H    0.000276  -0.000196  -0.000005  -0.000000   0.000000  -0.000000
    32  H    0.002173  -0.000721   0.000021   0.000000  -0.000001   0.000000
    33  H    0.010675   0.011730  -0.000071  -0.000000   0.000000  -0.000001
              13         14         15         16         17         18
     1  C    0.006987  -0.094804  -0.040377  -1.296708  -0.095270   0.038395
     2  C   -0.056742   0.080962  -0.053113  -0.505154   0.036490   0.036353
     3  Cl   0.023150  -0.003615   0.000127   0.001158  -0.001001  -0.002393
     4  C    0.013465   0.000676  -0.022837  -0.163532   0.013961  -0.201566
     5  H    0.000000   0.000000   0.000010   0.006528  -0.000029  -0.001580
     6  C    0.002245   0.004627   0.005679  -0.748224   0.009688   0.832148
     7  C   -0.003507  -0.020461  -0.061921   1.645967  -0.232653  -2.578120
     8  C    0.018526  -0.039760   0.383262  -1.921375   0.023166   0.620256
     9  S    0.030567   0.081999  -0.002984  -0.017512  -0.025880  -0.087702
    10  O   -0.008518   0.009958  -0.000418  -0.003565  -0.000588  -0.006863
    11  O    0.010542  -0.006307   0.005937   0.042070  -0.001243  -0.014118
    12  N    0.221363   0.243378  -0.001236  -0.003405   0.000251  -0.001699
    13  H    0.269433  -0.013560  -0.000003   0.000173  -0.000015  -0.000143
    14  H   -0.013560   0.246777  -0.000002  -0.000227  -0.000020  -0.000386
    15  H   -0.000003  -0.000002   0.399030   0.072076   0.003010   0.073641
    16  C    0.000173  -0.000227   0.072076  11.905379  -0.114747  -1.414718
    17  N   -0.000015  -0.000020   0.003010  -0.114747   7.661123   0.382950
    18  C   -0.000143  -0.000386   0.073641  -1.414718   0.382950  16.789348
    19  C    0.000048   0.000158   0.006917  -0.905228   0.289667  -0.613279
    20  C   -0.000093  -0.000107  -0.076216  -3.476457   0.452231  -0.794833
    21  O   -0.000000  -0.000001  -0.000198  -0.021504  -0.126033  -0.001041
    22  C    0.000030  -0.000049  -0.017029   1.850265  -0.468530  -6.422081
    23  C    0.000007  -0.000001   0.007726   0.174278  -0.009702   0.183277
    24  C   -0.000002  -0.000005  -0.009525  -0.261268   0.022176  -0.982984
    25  C    0.000001  -0.000028   0.019867   0.129049  -0.366670  -0.089127
    26  O   -0.000000  -0.000000  -0.000981   0.227940  -0.018123   0.035660
    27  H   -0.000000  -0.000000  -0.000111  -0.043157  -0.002713  -0.027269
    28  H    0.000000   0.000000   0.000046   0.023851   0.230558   0.006069
    29  H   -0.000000   0.000000  -0.000006  -0.013393  -0.000246   0.002789
    30  H   -0.000000  -0.000000  -0.000001  -0.003577   0.000039   0.003786
    31  H    0.000000   0.000000   0.000000   0.001577   0.000151   0.016772
    32  H   -0.000000  -0.000000  -0.000003   0.011233   0.000644   0.075851
    33  H    0.000000   0.000000   0.000001   0.068957  -0.002870  -0.027602
              19         20         21         22         23         24
     1  C    0.169883   0.171060  -0.002280  -0.403724  -0.051054  -0.003491
     2  C   -0.009644   0.344931  -0.000208  -0.176550  -0.051969   0.009696
     3  Cl  -0.002057  -0.003172  -0.000005   0.001165   0.001200  -0.000140
     4  C    0.016517  -0.099056   0.000817   0.234488   0.007427   0.011232
     5  H   -0.000064  -0.000075  -0.000000   0.000345   0.000023  -0.000007
     6  C    0.138981  -0.106495  -0.006665  -0.853605   0.079756  -0.022951
     7  C   -0.691024  -0.039971   0.021886   1.292097  -0.099393   0.128799
     8  C   -0.129842   0.340606   0.014780  -0.374687   0.143999  -0.033733
     9  S   -0.001570  -0.018841  -0.000345   0.000914   0.001394  -0.004006
    10  O   -0.000118   0.003360  -0.000002   0.001027  -0.002990   0.000624
    11  O   -0.002119  -0.000238   0.000020   0.007796  -0.000767   0.001698
    12  N   -0.004062   0.008280   0.000053   0.002332  -0.001291   0.000960
    13  H    0.000048  -0.000093  -0.000000   0.000030   0.000007  -0.000002
    14  H    0.000158  -0.000107  -0.000001  -0.000049  -0.000001  -0.000005
    15  H    0.006917  -0.076216  -0.000198  -0.017029   0.007726  -0.009525
    16  C   -0.905228  -3.476457  -0.021504   1.850265   0.174278  -0.261268
    17  N    0.289667   0.452231  -0.126033  -0.468530  -0.009702   0.022176
    18  C   -0.613279  -0.794833  -0.001041  -6.422081   0.183277  -0.982984
    19  C    7.946938   0.186521   0.208488  -0.963725   0.066444   0.092552
    20  C    0.186521  22.045495   0.057222  -3.044522  -0.625493   0.390372
    21  O    0.208488   0.057222   8.523373   0.034214  -0.004241   0.014676
    22  C   -0.963725  -3.044522   0.034214  12.547154  -0.236318   0.296622
    23  C    0.066444  -0.625493  -0.004241  -0.236318   6.318740   0.092129
    24  C    0.092552   0.390372   0.014676   0.296622   0.092129   5.902382
    25  C   -0.357398  -9.514836  -0.075534   2.972971  -0.146039   0.222657
    26  O   -0.013783   0.068296   0.001952  -0.086208   0.001921   0.003402
    27  H   -0.003491   0.000071   0.000000   0.014944   0.002155   0.000115
    28  H   -0.034778   0.011734   0.005372   0.016658  -0.000357   0.000234
    29  H    0.012934   0.082918   0.000019   0.299395  -0.049483  -0.003970
    30  H    0.003928   0.032665  -0.000002  -0.011395   0.345092  -0.047881
    31  H   -0.004266  -0.008804   0.000008  -0.002102  -0.032066   0.351011
    32  H   -0.060505   0.005152   0.005227  -0.015173   0.001281  -0.037944
    33  H   -0.011023  -0.012876  -0.000155   0.006228   0.001497  -0.000073
              25         26         27         28         29         30
     1  C    0.003233   0.000468   0.002381  -0.006345  -0.002463   0.000047
     2  C    0.018281   0.045169   0.030735  -0.003606  -0.002018  -0.000041
     3  Cl   0.000087   0.000012   0.001136  -0.000007   0.000013   0.000000
     4  C   -0.040945  -0.132266  -0.084020   0.005615   0.001932   0.000068
     5  H    0.000047   0.000229  -0.002904   0.000000  -0.000000  -0.000000
     6  C   -0.151775  -0.047786   0.387907  -0.015804  -0.008659   0.000546
     7  C   -0.829904  -0.180451  -0.018791   0.030902   0.033736  -0.001877
     8  C    0.334946   0.135120   0.033850  -0.035710  -0.013244  -0.000362
     9  S   -0.015570  -0.003591   0.000645   0.000092   0.000047   0.000024
    10  O   -0.001058  -0.000090   0.000001   0.000001   0.000001   0.000000
    11  O   -0.013947  -0.000123  -0.000003   0.000000   0.000000   0.000000
    12  N   -0.001744  -0.000020   0.000016   0.000008   0.000000   0.000000
    13  H    0.000001  -0.000000  -0.000000   0.000000  -0.000000  -0.000000
    14  H   -0.000028  -0.000000  -0.000000   0.000000   0.000000  -0.000000
    15  H    0.019867  -0.000981  -0.000111   0.000046  -0.000006  -0.000001
    16  C    0.129049   0.227940  -0.043157   0.023851  -0.013393  -0.003577
    17  N   -0.366670  -0.018123  -0.002713   0.230558  -0.000246   0.000039
    18  C   -0.089127   0.035660  -0.027269   0.006069   0.002789   0.003786
    19  C   -0.357398  -0.013783  -0.003491  -0.034778   0.012934   0.003928
    20  C   -9.514836   0.068296   0.000071   0.011734   0.082918   0.032665
    21  O   -0.075534   0.001952   0.000000   0.005372   0.000019  -0.000002
    22  C    2.972971  -0.086208   0.014944   0.016658   0.299395  -0.011395
    23  C   -0.146039   0.001921   0.002155  -0.000357  -0.049483   0.345092
    24  C    0.222657   0.003402   0.000115   0.000234  -0.003970  -0.047881
    25  C   13.955436  -0.030990   0.000102   0.007438  -0.036740  -0.007151
    26  O   -0.030990   8.494175   0.008568  -0.005459  -0.000572  -0.000061
    27  H    0.000102   0.008568   0.412841   0.000040  -0.000003   0.000000
    28  H    0.007438  -0.005459   0.000040   0.226798  -0.000000  -0.000000
    29  H   -0.036740  -0.000572  -0.000003  -0.000000   0.423642  -0.002558
    30  H   -0.007151  -0.000061   0.000000  -0.000000  -0.002558   0.432490
    31  H   -0.007250  -0.000001   0.000000  -0.000000  -0.000099  -0.002823
    32  H    0.317885  -0.000005  -0.000000  -0.000000   0.000012  -0.000100
    33  H   -0.004370   0.195854  -0.000586   0.000482   0.000003  -0.000000
              31         32         33
     1  C   -0.000018  -0.000527  -0.002621
     2  C   -0.000003  -0.000061  -0.000586
     3  Cl   0.000000   0.000000  -0.000007
     4  C   -0.000003   0.000015  -0.014336
     5  H    0.000000  -0.000000  -0.000000
     6  C   -0.000039   0.000163  -0.022982
     7  C    0.000276   0.002173   0.010675
     8  C   -0.000196  -0.000721   0.011730
     9  S   -0.000005   0.000021  -0.000071
    10  O   -0.000000   0.000000  -0.000000
    11  O    0.000000  -0.000001   0.000000
    12  N   -0.000000   0.000000  -0.000001
    13  H    0.000000  -0.000000   0.000000
    14  H    0.000000  -0.000000   0.000000
    15  H    0.000000  -0.000003   0.000001
    16  C    0.001577   0.011233   0.068957
    17  N    0.000151   0.000644  -0.002870
    18  C    0.016772   0.075851  -0.027602
    19  C   -0.004266  -0.060505  -0.011023
    20  C   -0.008804   0.005152  -0.012876
    21  O    0.000008   0.005227  -0.000155
    22  C   -0.002102  -0.015173   0.006228
    23  C   -0.032066   0.001281   0.001497
    24  C    0.351011  -0.037944  -0.000073
    25  C   -0.007250   0.317885  -0.004370
    26  O   -0.000001  -0.000005   0.195854
    27  H    0.000000  -0.000000  -0.000586
    28  H   -0.000000  -0.000000   0.000482
    29  H   -0.000099   0.000012   0.000003
    30  H   -0.002823  -0.000100  -0.000000
    31  H    0.433148  -0.002331  -0.000000
    32  H   -0.002331   0.425267  -0.000000
    33  H   -0.000000  -0.000000   0.229231
 Mulliken charges:
               1
     1  C   -2.035254
     2  C    1.073268
     3  Cl   0.230308
     4  C   -0.244569
     5  H    0.286494
     6  C    0.047119
     7  C   -0.150040
     8  C   -0.373098
     9  S    1.415968
    10  O   -0.540951
    11  O   -0.647839
    12  N   -0.992067
    13  H    0.486048
    14  H    0.510800
    15  H    0.309629
    16  C    0.753249
    17  N   -0.659770
    18  C    0.170208
    19  C    0.668001
    20  C   -0.378829
    21  O   -0.649891
    22  C   -0.502945
    23  C   -0.117182
    24  C   -0.133358
    25  C   -0.290922
    26  O   -0.698254
    27  H    0.287540
    28  H    0.536169
    29  H    0.276015
    30  H    0.259144
    31  H    0.257062
    32  H    0.272447
    33  H    0.575502
 Sum of Mulliken charges =  -0.00000
 Mulliken charges with hydrogens summed into heavy atoms:
               1
     1  C   -2.035254
     2  C    1.073268
     3  Cl   0.230308
     4  C    0.041925
     6  C    0.334659
     7  C   -0.150040
     8  C   -0.063469
     9  S    1.415968
    10  O   -0.540951
    11  O   -0.647839
    12  N    0.004781
    16  C    0.753249
    17  N   -0.123601
    18  C    0.170208
    19  C    0.668001
    20  C   -0.378829
    21  O   -0.649891
    22  C   -0.226931
    23  C    0.141962
    24  C    0.123704
    25  C   -0.018475
    26  O   -0.122752
 Electronic spatial extent (au):  <R**2>=           7744.3663
 Charge=             -0.0000 electrons
 Dipole moment (field-independent basis, Debye):
    X=             -0.3629    Y=              9.2239    Z=              1.0989  Tot=              9.2962
 Quadrupole moment (field-independent basis, Debye-Ang):
   XX=           -146.8299   YY=           -142.3012   ZZ=           -140.9016
   XY=            -14.9756   XZ=            -31.4521   YZ=              9.2996
 Traceless Quadrupole moment (field-independent basis, Debye-Ang):
   XX=             -3.4857   YY=              1.0431   ZZ=              2.4426
   XY=            -14.9756   XZ=            -31.4521   YZ=              9.2996
 Octapole moment (field-independent basis, Debye-Ang**2):
  XXX=            -64.1544  YYY=             84.8285  ZZZ=            -29.2274  XYY=             41.3312
  XXY=             19.7125  XXZ=             -2.5656  XZZ=            -40.3998  YZZ=             18.2835
  YYZ=             17.4740  XYZ=             65.4881
 Hexadecapole moment (field-independent basis, Debye-Ang**3):
 XXXX=          -6866.4466 YYYY=          -2033.7663 ZZZZ=          -1244.3738 XXXY=           -211.4093
 XXXZ=           -394.1911 YYYX=           -118.6724 YYYZ=             65.2492 ZZZX=           -278.0668
 ZZZY=             61.4435 XXYY=          -1476.7763 XXZZ=          -1435.8748 YYZZ=           -539.1658
 XXYZ=             82.5681 YYXZ=             30.7593 ZZXY=             58.7603
 N-N= 2.117509529821D+03 E-N=-8.485468945474D+03  KE= 1.797814537083D+03
 D1PCM: PCM CHGder 1st derivatives, ID1Alg=3 FixD1E=F DoIter=F DoCFld=F I1PDM=0.
 Calling FoFJK, ICntrl=      2127 FMM=F ISym2X=0 I1Cent= 0 IOpClX= 0 NMat=1 NMatS=1 NMatT=0.
 ***** Axes restored to original set *****
 -------------------------------------------------------------------
 Center     Atomic                   Forces (Hartrees/Bohr)
 Number     Number              X              Y              Z
 -------------------------------------------------------------------
      1        6           0.001909253    0.003244604   -0.004448640
      2        6           0.000692942   -0.000520622    0.001574506
      3       17          -0.000617926   -0.000512364   -0.000097741
      4        6           0.000087365    0.000377857   -0.000008484
      5        1          -0.000107446    0.000071995    0.000062206
      6        6           0.000463900   -0.000499619   -0.000469927
      7        6           0.001456534   -0.003206661   -0.000053488
      8        6          -0.000071556    0.000216830   -0.000477213
      9       16          -0.002571012   -0.002993987    0.003747277
     10        8           0.000011341    0.000974055    0.002839251
     11        8          -0.000622216   -0.002401066   -0.002241324
     12        7           0.000575034    0.000276301   -0.000415684
     13        1          -0.000248845    0.001792091    0.000103861
     14        1           0.000882658   -0.000619796   -0.000886293
     15        1          -0.000086156    0.000495006   -0.000289242
     16        6          -0.001110947    0.002538732   -0.010894392
     17        7           0.000028852    0.010565414    0.001821141
     18        6           0.000449427   -0.003565899   -0.000321709
     19        6           0.000116508    0.002205996   -0.000074774
     20        6          -0.000365097   -0.000146985   -0.000447140
     21        8           0.000412048   -0.000323885   -0.000161111
     22        6          -0.000442316   -0.000508819   -0.000015330
     23        6          -0.000091562    0.000055967   -0.000027943
     24        6           0.000013987    0.000005321   -0.000071284
     25        6           0.000051863    0.000036083    0.000119816
     26        8          -0.000441466   -0.008604790    0.007232936
     27        1           0.000638555    0.000390688    0.000184866
     28        1          -0.001043476    0.000372105   -0.000026611
     29        1           0.000159661    0.000282574   -0.000146746
     30        1           0.000018555    0.000012523   -0.000004795
     31        1          -0.000012686    0.000036766   -0.000016719
     32        1          -0.000061976    0.000041417    0.000026896
     33        1          -0.000073799   -0.000087831    0.003883833
 -------------------------------------------------------------------
 Cartesian Forces:  Max     0.010894392 RMS     0.002272620

 GradGradGradGradGradGradGradGradGradGradGradGradGradGradGradGradGradGrad
 Berny optimization.
 FormGI is forming the generalized inverse of G from B-inverse, IUseBI=4.
 Internal  Forces:  Max     0.009272030 RMS     0.001725407
 Search for a local minimum.
 Step number   1 out of a maximum of  192
 All quantities printed in internal units (Hartrees-Bohrs-Radians)
 Mixed Optimization -- RFO/linear search
 Second derivative matrix not updated -- first step.
 ITU=  0
     Eigenvalues ---    0.00376   0.00487   0.00953   0.01315   0.01437
     Eigenvalues ---    0.01502   0.01520   0.01543   0.01637   0.01696
     Eigenvalues ---    0.01916   0.02042   0.02095   0.02115   0.02119
     Eigenvalues ---    0.02135   0.02162   0.02178   0.02182   0.02190
     Eigenvalues ---    0.02191   0.02193   0.02202   0.02209   0.02221
     Eigenvalues ---    0.04317   0.06424   0.07066   0.09252   0.09949
     Eigenvalues ---    0.10393   0.13109   0.14430   0.15589   0.15999
     Eigenvalues ---    0.16000   0.16000   0.16000   0.16000   0.16000
     Eigenvalues ---    0.16000   0.16000   0.16000   0.16000   0.19944
     Eigenvalues ---    0.20336   0.22000   0.22375   0.22623   0.23486
     Eigenvalues ---    0.24430   0.24604   0.24731   0.24993   0.24997
     Eigenvalues ---    0.24999   0.24999   0.25000   0.26822   0.29138
     Eigenvalues ---    0.29472   0.31396   0.32369   0.35149   0.35153
     Eigenvalues ---    0.35255   0.35288   0.35324   0.35386   0.35445
     Eigenvalues ---    0.36112   0.40830   0.42403   0.42596   0.42669
     Eigenvalues ---    0.43534   0.43636   0.44042   0.44195   0.45054
     Eigenvalues ---    0.45326   0.45974   0.46016   0.46734   0.46990
     Eigenvalues ---    0.47024   0.47534   0.47589   0.50855   0.52519
     Eigenvalues ---    0.91031   0.91476   0.91586
 RFO step:  Lambda=-5.02868448D-03 EMin= 3.76114758D-03
 Linear search not attempted -- first point.
 Iteration  1 RMS(Cart)=  0.05096570 RMS(Int)=  0.00091458
 Iteration  2 RMS(Cart)=  0.00156102 RMS(Int)=  0.00029280
 Iteration  3 RMS(Cart)=  0.00000121 RMS(Int)=  0.00029279
 Iteration  4 RMS(Cart)=  0.00000000 RMS(Int)=  0.00029279
 Variable       Old X    -DE/DX   Delta X   Delta X   Delta X     New X
                                 (Linear)    (Quad)   (Total)
    R1        2.64648   0.00058   0.00000   0.00133   0.00135   2.64783
    R2        2.62589  -0.00021   0.00000  -0.00046  -0.00044   2.62545
    R3        3.38488  -0.00034   0.00000  -0.00124  -0.00124   3.38364
    R4        3.28964   0.00052   0.00000   0.00163   0.00163   3.29127
    R5        2.62055   0.00023   0.00000   0.00057   0.00057   2.62113
    R6        2.05052   0.00000   0.00000   0.00001   0.00001   2.05053
    R7        2.63614   0.00031   0.00000   0.00067   0.00066   2.63680
    R8        2.62816  -0.00091   0.00000  -0.00198  -0.00199   2.62617
    R9        2.04959  -0.00025   0.00000  -0.00069  -0.00069   2.04889
   R10        2.63885  -0.00051   0.00000  -0.00119  -0.00119   2.63766
   R11        2.89028  -0.00253   0.00000  -0.00844  -0.00844   2.88184
   R12        2.05427   0.00030   0.00000   0.00085   0.00085   2.05513
   R13        2.75910   0.00233   0.00000   0.00253   0.00253   2.76163
   R14        2.75960  -0.00179   0.00000  -0.00195  -0.00195   2.75765
   R15        3.10593   0.00004   0.00000   0.00010   0.00010   3.10603
   R16        1.93104  -0.00092   0.00000  -0.00208  -0.00208   1.92896
   R17        1.92922   0.00069   0.00000   0.00154   0.00154   1.93077
   R18        2.74564   0.00733   0.00000   0.01873   0.01860   2.76424
   R19        2.87987  -0.00099   0.00000  -0.00446  -0.00459   2.87528
   R20        2.67017   0.00273   0.00000   0.00621   0.00621   2.67637
   R21        2.57142   0.00043   0.00000   0.00145   0.00150   2.57293
   R22        1.91913   0.00080   0.00000   0.00175   0.00175   1.92088
   R23        2.62432   0.00099   0.00000   0.00184   0.00187   2.62619
   R24        2.61998  -0.00017   0.00000  -0.00042  -0.00044   2.61954
   R25        2.80944  -0.00017   0.00000   0.00031   0.00047   2.80992
   R26        2.32461  -0.00010   0.00000  -0.00011  -0.00011   2.32450
   R27        2.62449   0.00008   0.00000   0.00017   0.00017   2.62466
   R28        2.64257  -0.00006   0.00000  -0.00015  -0.00015   2.64242
   R29        2.05433  -0.00035   0.00000  -0.00098  -0.00098   2.05334
   R30        2.64663  -0.00005   0.00000  -0.00005  -0.00003   2.64660
   R31        2.05210  -0.00000   0.00000  -0.00000  -0.00000   2.05209
   R32        2.63760  -0.00013   0.00000  -0.00019  -0.00017   2.63743
   R33        2.05151  -0.00001   0.00000  -0.00002  -0.00002   2.05150
   R34        2.05264  -0.00001   0.00000  -0.00002  -0.00002   2.05262
   R35        1.84106  -0.00386   0.00000  -0.00728  -0.00728   1.83378
    A1        2.09592   0.00005   0.00000   0.00041   0.00034   2.09625
    A2        2.14017   0.00190   0.00000   0.00750   0.00736   2.14753
    A3        2.04699  -0.00193   0.00000  -0.00752  -0.00765   2.03934
    A4        2.12823   0.00127   0.00000   0.00484   0.00482   2.13305
    A5        2.09056  -0.00054   0.00000  -0.00182  -0.00179   2.08876
    A6        2.06436  -0.00073   0.00000  -0.00300  -0.00301   2.06135
    A7        2.09045  -0.00030   0.00000  -0.00166  -0.00167   2.08878
    A8        2.09259   0.00030   0.00000   0.00153   0.00152   2.09411
    A9        2.10014   0.00000   0.00000   0.00015   0.00014   2.10028
   A10        2.10591  -0.00031   0.00000  -0.00152  -0.00154   2.10437
   A11        2.07652   0.00086   0.00000   0.00506   0.00506   2.08157
   A12        2.10076  -0.00055   0.00000  -0.00352  -0.00352   2.09724
   A13        2.08239   0.00051   0.00000   0.00169   0.00169   2.08408
   A14        2.12086  -0.00077   0.00000  -0.00280  -0.00280   2.11806
   A15        2.07969   0.00026   0.00000   0.00120   0.00120   2.08089
   A16        2.09899   0.00000   0.00000  -0.00026  -0.00023   2.09876
   A17        2.07906  -0.00013   0.00000  -0.00066  -0.00067   2.07839
   A18        2.10510   0.00013   0.00000   0.00094   0.00092   2.10602
   A19        1.85832   0.00318   0.00000   0.02758   0.02734   1.88566
   A20        1.89256  -0.00465   0.00000  -0.03448  -0.03457   1.85799
   A21        1.91039   0.00164   0.00000   0.00605   0.00570   1.91609
   A22        2.08165   0.00047   0.00000   0.00208   0.00234   2.08399
   A23        1.85428   0.00068   0.00000   0.01738   0.01702   1.87129
   A24        1.86255  -0.00103   0.00000  -0.01700  -0.01720   1.84535
   A25        1.96538   0.00250   0.00000   0.01571   0.01573   1.98110
   A26        1.97698  -0.00204   0.00000  -0.01179  -0.01177   1.96521
   A27        1.94817  -0.00019   0.00000  -0.00021  -0.00018   1.94799
   A28        1.93569  -0.00057   0.00000   0.00330   0.00338   1.93908
   A29        1.97449   0.00235   0.00000  -0.00930  -0.01032   1.96417
   A30        1.94630  -0.00498   0.00000  -0.03822  -0.04029   1.90601
   A31        1.76805  -0.00228   0.00000  -0.00407  -0.00371   1.76434
   A32        1.87687   0.00927   0.00000   0.09758   0.09831   1.97518
   A33        1.95251  -0.00295   0.00000  -0.03832  -0.03982   1.91270
   A34        1.99772   0.00066   0.00000   0.00064   0.00039   1.99811
   A35        2.12654  -0.00054   0.00000  -0.00175  -0.00160   2.12494
   A36        2.13650   0.00005   0.00000  -0.00050  -0.00044   2.13605
   A37        1.91426   0.00145   0.00000   0.00267   0.00245   1.91670
   A38        2.25463  -0.00141   0.00000  -0.00340  -0.00325   2.25138
   A39        2.11420  -0.00004   0.00000   0.00078   0.00084   2.11505
   A40        1.85483  -0.00095   0.00000  -0.00304  -0.00299   1.85184
   A41        2.19737   0.00061   0.00000   0.00207   0.00203   2.19939
   A42        2.23097   0.00034   0.00000   0.00101   0.00097   2.23195
   A43        1.88833   0.00112   0.00000   0.00385   0.00390   1.89223
   A44        2.12870  -0.00032   0.00000  -0.00137  -0.00143   2.12727
   A45        2.26612  -0.00080   0.00000  -0.00253  -0.00254   2.26358
   A46        2.05064   0.00007   0.00000  -0.00025  -0.00028   2.05036
   A47        2.11957  -0.00005   0.00000   0.00004   0.00006   2.11963
   A48        2.11297  -0.00002   0.00000   0.00021   0.00023   2.11320
   A49        2.11681   0.00007   0.00000   0.00007   0.00007   2.11688
   A50        2.08394  -0.00002   0.00000   0.00004   0.00004   2.08398
   A51        2.08242  -0.00005   0.00000  -0.00011  -0.00010   2.08232
   A52        2.10791   0.00005   0.00000   0.00020   0.00022   2.10813
   A53        2.08472   0.00000   0.00000   0.00007   0.00006   2.08478
   A54        2.09055  -0.00006   0.00000  -0.00028  -0.00029   2.09026
   A55        2.04809   0.00016   0.00000   0.00056   0.00057   2.04866
   A56        2.11373  -0.00010   0.00000  -0.00037  -0.00038   2.11336
   A57        2.12136  -0.00007   0.00000  -0.00019  -0.00020   2.12116
   A58        1.90543  -0.00069   0.00000  -0.00418  -0.00418   1.90125
    D1        3.13232  -0.00006   0.00000  -0.00507  -0.00510   3.12722
    D2        0.00005  -0.00012   0.00000  -0.00777  -0.00777  -0.00772
    D3       -0.02551   0.00050   0.00000   0.02373   0.02382  -0.00169
    D4        3.12541   0.00044   0.00000   0.02103   0.02114  -3.13663
    D5        0.00313  -0.00010   0.00000  -0.00025  -0.00025   0.00288
    D6        3.13670   0.00000   0.00000   0.00314   0.00311   3.13981
    D7       -3.12308  -0.00067   0.00000  -0.02768  -0.02755   3.13255
    D8        0.01049  -0.00056   0.00000  -0.02429  -0.02419  -0.01370
    D9        0.98682   0.00035   0.00000  -0.05847  -0.05826   0.92856
   D10       -3.03625   0.00002   0.00000  -0.05993  -0.06009  -3.09635
   D11       -1.01061  -0.00291   0.00000  -0.09609  -0.09613  -1.10674
   D12       -2.17058   0.00091   0.00000  -0.03037  -0.03016  -2.20074
   D13        0.08953   0.00058   0.00000  -0.03183  -0.03199   0.05754
   D14        2.11518  -0.00235   0.00000  -0.06799  -0.06803   2.04715
   D15        3.13929   0.00005   0.00000   0.00243   0.00242  -3.14147
[...]
 96,0.00058484,-0.00061363,-0.00018286,-0.00039923,-0.00025350,0.000034
 20,0.00001650,0.00000734,0.27328523,-0.00013338,-0.00004213,0.00005517
 ,0.00000392,0.00013854,0.00000892,0.00000575,-0.00000335,-0.00000238,0
 .00011618,-0.00011155,-0.00005346,-0.00000299,-0.00000116,0.00001536,-
 0.00027717,-0.00016973,0.00005911,0.00031613,0.00022070,-0.00059714,-0
 .00006579,0.00020434,0.00002700,0.00003115,-0.00000651,-0.00002043,-0.
 00001152,0.00000545,0.00002583,-0.00001449,0.00000124,0.00001759,-0.00
 001693,0.00000285,-0.00000033,0.00000153,0.00000209,-0.00000106,0.0000
 0390,0.00000229,0.00000027,0.00000505,-0.00007087,0.00010744,0.0208335
 7,-0.00055918,0.00968047,0.08272920,-0.09498768,0.09737639,-0.00128711
 ,-0.00374329,0.00233134,-0.01596905,0.01380016,-0.01695145,-0.00453743
 ,-0.00286949,-0.00075852,0.00352058,-0.00038530,0.00097980,0.00053817,
 0.00108639,0.00062006,0.00005358,-0.00031101,0.00014597,-0.00027356,-0
 .00018945,-0.00020714,-0.00015943,0.00129569,-0.00062133,-0.00076045,-
 0.00060107,-0.00144892,0.00000318,0.00000399,-0.00000357,-0.08464737,0
 .08748831,0.00025870,-0.00004814,-0.00004743,0.00003942,-0.00036470,-0
 .00005593,-0.00019355,-0.00003142,0.00009417,-0.00042070,0.00007477,0.
 00018337,-0.00005154,0.00000175,0.00000697,0.00026608,0.00032704,0.000
 01424,-0.00058959,-0.00070773,0.00034408,-0.00004659,0.00040023,-0.000
 04612,0.00026782,-0.00038628,-0.00019722,-0.00006550,0.00008984,0.0001
 6241,-0.00005601,0.00018863,0.00004034,-0.00013961,0.00009071,-0.00001
 590,0.00002529,-0.00001084,-0.00000619,0.00001262,-0.00001374,0.000022
 27,0.00024733,-0.00052080,-0.00067141,-0.00657865,-0.00134085,-0.00821
 834,-0.17832407,0.09258822,-0.15220432,0.00040405,0.00152509,-0.000132
 31,-0.01027354,-0.00631295,-0.00750458,-0.00212238,0.00031580,0.003007
 20,0.00391600,0.00456493,-0.00276404,-0.00108880,0.00012674,0.00016855
 ,0.00044648,0.00039651,0.00011202,0.00006085,-0.00084605,0.00010484,-0
 .00100270,0.00042421,-0.00031904,0.00016695,-0.00014387,-0.00002105,0.
 00000427,-0.00004387,0.00003779,0.19506805,-0.09042424,0.16782590,0.00
 010241,0.00008013,-0.00006896,0.00001389,-0.00016431,-0.00001754,-0.00
 000666,0.00000292,-0.00000219,-0.00015100,0.00004812,0.00015549,0.0000
 0245,0.00000214,0.00000922,0.00000745,-0.00010630,-0.00000390,0.000166
 12,-0.00024385,-0.00023510,-0.00009419,0.00009158,0.00015507,0.0000008
 0,0.00000147,-0.00001120,0.00000185,-0.00000519,-0.00000004,0.00000051
 ,0.00000052,-0.00000185,-0.00000199,0.00000533,0.00000129,0.00000081,-
 0.00000187,-0.00000131,0.00000004,-0.00000006,0.00000008,0.00000051,0.
 00000318,-0.00000015,-0.00165078,0.00042368,0.00146840,0.00023893,0.00
 000923,0.00020793,0.01017827,0.01034460,-0.00116074,0.00060338,0.00040
 127,-0.00005295,0.00195510,-0.00025477,-0.00474622,-0.00024998,0.00029
 709,-0.00016333,-0.11117230,-0.11864567,0.01297014,-0.00583321,-0.0221
 5067,0.00524246,-0.00062663,-0.00189669,-0.00577072,-0.00076180,0.0004
 3997,-0.00020886,0.00034960,0.00018404,0.00034394,-0.00008389,0.000001
 72,-0.00009644,-0.00001525,-0.00005573,-0.00001020,0.10828783,-0.00003
 652,-0.00000135,0.00002520,0.00001835,0.00002943,0.00000744,0.00001799
 ,0.00000107,-0.00001148,0.00000444,-0.00000364,-0.00002767,0.00000660,
 0.00000077,-0.00000129,0.00013773,-0.00011602,0.00004835,0.00039261,0.
 00015655,0.00014545,0.00006941,-0.00005434,-0.00007873,0.00000203,0.00
 000203,0.00001195,-0.00000051,-0.00000340,-0.00000851,0.00000152,-0.00
 000303,-0.00000457,-0.00000088,-0.00000012,-0.00000231,0.,-0.00000035,
 0.00000060,0.00000051,-0.00000039,-0.00000067,-0.00000414,0.00000522,0
 .00001853,0.00024933,-0.00079315,-0.00169664,0.00022171,0.00004375,0.0
 0019201,-0.00893043,-0.01205443,0.00227444,-0.00102232,-0.00004739,-0.
 00071665,0.00045154,0.00102998,0.00446445,0.00027490,-0.00066291,0.000
 49592,-0.12026828,-0.27919949,0.04780268,-0.00153562,-0.00153945,0.002
 08879,-0.00222379,0.00263561,0.00120186,0.00053753,0.00011409,-0.00012
 405,-0.00008469,0.00030773,0.00012283,0.00002553,0.00000264,-0.0000364
 2,-0.00000095,0.00001949,-0.00000511,0.13019916,0.29096311,-0.00005457
 ,-0.00004524,0.00000662,-0.00000358,0.00008783,0.00002484,0.00001748,-
 0.00000218,-0.00000864,0.00006550,-0.00003933,-0.00008662,0.00000167,-
 0.00000131,-0.00000680,-0.00014084,0.00008745,-0.00009337,-0.00011255,
 0.00011714,0.00021464,0.00005813,-0.00005040,-0.00009533,0.00000182,0.
 00002631,0.00002111,-0.00000047,-0.00000727,-0.00000656,-0.00000226,-0
 .00000904,-0.00000438,-0.00000061,-0.00000450,-0.00000027,-0.00000038,
 -0.00000243,0.00000094,0.00000145,0.00000100,-0.00000253,0.00000973,-0
 .00000708,-0.00000119,0.00223538,-0.00125485,-0.00094869,-0.00007684,-
 0.00003287,-0.00004349,0.01067112,0.01874161,0.00119029,0.00085070,0.0
 0064488,0.00064514,-0.00523794,0.00370501,0.00097186,-0.00018718,0.000
 46248,-0.00066856,0.01420209,0.04874253,-0.05736541,-0.00778443,-0.015
 31862,0.00708770,-0.00553836,0.00162629,0.00185660,-0.00010847,-0.0002
 2235,-0.00076839,-0.00046404,-0.00021366,-0.00043423,-0.00000913,-0.00
 005056,0.00002811,-0.00003467,-0.00002129,0.00003089,-0.01122065,-0.05
 450394,0.05028469,-0.00001221,0.00000205,0.00002093,0.00000705,0.00001
 053,-0.00000511,-0.00002881,-0.00000272,0.00001557,0.00000599,-0.00000
 482,0.00001118,-0.00000768,-0.00000045,0.00000430,-0.00003992,0.000019
 56,0.00001403,0.00007935,-0.00000798,-0.00015742,-0.00002316,-0.000008
 35,0.00000838,0.00001639,-0.00004819,-0.00002319,-0.00000534,0.0000112
 3,0.00002076,-0.00000057,0.00001918,0.00000346,-0.00001290,0.00001122,
 -0.00000070,0.00000288,-0.00000195,-0.00000041,0.00000118,-0.00000117,
 0.00000194,0.00000258,-0.00000567,-0.00000860,0.00041692,0.00091345,-0
 .00026397,-0.00035595,0.00008152,-0.00031466,-0.00139985,-0.00351658,-
 0.00518898,-0.00040900,0.00004362,0.00046646,-0.00081237,-0.00048043,0
 .00024347,0.00008593,0.00019461,-0.00015427,-0.00453191,0.01586254,-0.
 01777076,-0.09187494,0.06201631,-0.08181551,0.00930098,-0.01022057,0.0
 1029640,0.00147640,-0.00448520,-0.00209375,0.00002154,-0.00010739,-0.0
 0002781,-0.00000064,0.00000302,-0.00000622,0.00002773,0.00017389,0.000
 05284,-0.00043059,0.00122441,0.00251111,0.08915913,0.00000569,0.000006
 50,-0.00001125,-0.00000347,-0.00000885,-0.00000030,0.00000257,0.000000
 45,-0.00000050,-0.00000800,0.00000157,-0.00000304,0.00000030,0.0000006
 5,0.00000041,0.00001348,-0.00000756,0.00001040,0.00013338,0.00002654,0
 .00002551,-0.00001340,0.00000753,0.00001896,0.00000012,0.00000245,0.00
 000572,0.00000031,-0.00000064,-0.00000343,-0.00000014,-0.00000091,-0.0
 0000120,0.00000015,-0.00000090,-0.00000070,0.00000001,0.00000017,-0.00
 000005,-0.00000027,-0.00000001,0.00000018,0.00000077,-0.00000109,0.000
 00231,-0.00024579,0.00048197,-0.00030187,-0.00003042,0.00003542,-0.000
 03980,-0.00352145,0.00161568,0.00059625,0.00013933,-0.00005047,-0.0004
 3853,-0.00055520,-0.00048090,-0.00061444,0.00000990,-0.00004753,0.0001
 2136,-0.00476474,0.00953853,-0.00700125,0.06199499,-0.16872136,0.13148
 155,0.01073820,-0.01175970,0.01927735,-0.00460843,-0.00251173,0.002020
 42,0.00000116,-0.00000888,-0.00000010,-0.00000128,-0.00000092,0.000000
 34,0.00007325,0.00000200,-0.00008532,0.00167255,-0.00029736,-0.0010652
 3,-0.06302020,0.17245311,0.00000836,0.00001553,-0.00000534,0.00000527,
 -0.00001984,-0.00000297,-0.00002470,-0.00000162,0.00001387,-0.00001767
 ,0.00000451,0.00001416,-0.00000617,-0.00000022,0.00000502,-0.00000590,
 0.00001827,0.00002050,0.00020206,-0.00000630,-0.00008373,-0.00004527,-
 0.00000293,0.00003124,0.00001951,-0.00004066,-0.00001467,-0.00000525,0
 .00001008,0.00001497,-0.00000215,0.00001710,0.00000132,-0.00001300,0.0
 0000995,-0.00000168,0.00000295,-0.00000174,-0.00000084,0.00000092,-0.0
 0000145,0.00000218,0.00000644,-0.00000773,-0.00000472,0.00026589,0.000
 75203,0.00021730,-0.00025851,0.00012161,-0.00028826,-0.00519181,0.0005
 6082,0.00271923,0.00031558,-0.00054989,-0.00034913,0.00030793,-0.00053
 806,-0.00013212,-0.00004391,0.00024232,-0.00003571,-0.00489058,0.01062
 454,-0.00594476,-0.08181961,0.13153603,-0.19178897,-0.00267357,0.00133
 433,0.00157164,-0.00207390,0.00214613,0.00405139,-0.00017897,-0.000157
 65,-0.00023100,0.00000076,0.00000339,-0.00000407,0.00012307,-0.0000303
 0,-0.00011947,0.00222069,-0.00145364,-0.00148958,0.09176926,-0.1431421
 6,0.19369197,0.00001946,0.00001453,-0.00000326,0.00000284,-0.00002844,
 -0.00000661,-0.00001809,-0.00000084,0.00000926,-0.00001707,0.00000970,
 0.00002829,-0.00000355,0.,0.00000365,-0.00000516,-0.00000105,0.0000113
 5,0.00004564,-0.00006565,-0.00008514,-0.00003253,0.00001616,0.00002839
 ,0.00000960,-0.00003145,-0.00001723,-0.00000242,0.00000720,0.00001253,
 0.00000042,0.00001367,0.00000186,-0.00000761,0.00000783,0.00000001,0.0
 0000193,-0.00000145,-0.00000037,0.00000081,-0.00000108,0.00000104,0.00
 000386,-0.00000494,-0.00000715,-0.00029877,0.00036163,0.00035774,-0.00
 040295,0.00005218,-0.00019349,0.00010149,0.00006828,0.00063671,0.00038
 491,-0.00086239,0.00039620,0.00296293,0.00002566,-0.00385977,-0.000023
 98,0.00033656,-0.00024121,0.00244348,-0.00364705,-0.00170360,-0.006162
 41,-0.00154428,-0.00766381,-0.24319241,-0.06242983,-0.13554756,-0.0035
 6947,-0.00363018,-0.00429921,0.00003813,-0.00004364,-0.00001748,-0.000
 00465,0.00000551,-0.00000908,-0.00005399,-0.00002335,0.00005798,-0.000
 43428,0.00002485,-0.00030859,-0.00090896,0.00132891,0.00199613,0.25019
 508,-0.00002102,-0.00000675,0.00000809,0.00000435,0.00002417,0.0000049
 6,0.00000272,-0.00000006,-0.00000176,0.00001444,-0.00000748,-0.0000188
 0,0.00000052,-0.00000011,-0.00000093,-0.00000418,0.00000140,-0.0000026
 6,0.00002234,0.00005017,0.00000759,0.00002195,-0.00001794,-0.00002013,
 0.00000060,0.00000241,0.00000308,-0.00000060,-0.00000019,-0.00000106,-
 0.00000058,-0.00000201,-0.00000064,-0.00000018,-0.00000109,-0.00000014
 ,-0.00000020,0.00000035,0.,-0.00000006,0.00000021,0.,-0.00000256,0.000
 00298,0.00000350,0.00027889,-0.00016134,-0.00021125,0.00037363,-0.0001
 0721,0.00022526,0.00027545,-0.00105143,0.00047717,0.00041097,0.0009662
 1,0.00010842,-0.00031254,-0.00109921,0.00503526,-0.00003693,-0.0002035
 4,0.00010170,-0.00342822,-0.00307435,0.00333855,-0.02267577,-0.0025806
 8,-0.01543041,-0.06234861,-0.07256911,-0.03288853,0.01718006,0.0088002
 9,0.01175955,-0.00006307,0.00002322,-0.00003083,0.00000545,-0.00000037
 ,0.00000506,0.00009533,0.00009102,-0.00002678,-0.00103770,-0.00018683,
 -0.00079276,0.00173521,0.00037200,-0.00133857,0.06877781,0.07070910,-0
 .00002686,-0.00001259,0.00001612,0.00000296,0.00003171,0.00000146,-0.0
 0000261,-0.00000127,0.00000290,0.00001404,-0.00001747,-0.00002547,-0.0
 0000256,-0.00000022,-0.00000008,-0.00003184,0.00001957,0.00000664,0.00
 003628,0.00003116,0.00003611,0.00001964,-0.00001677,-0.00002950,0.0000
 0750,-0.00001186,-0.00000128,-0.00000288,0.00000377,0.00000479,-0.0000
 0152,0.00000450,0.00000034,-0.00000463,0.00000263,-0.00000113,0.000000
 73,-0.00000024,-0.00000016,0.00000031,-0.00000040,0.00000058,0.0000104
 7,-0.00000665,-0.00000596,0.00041791,-0.00009523,-0.00037683,-0.000320
 15,0.00007657,-0.00055733,0.00052120,0.00026694,-0.00036557,-0.0005312
 4,-0.00112030,0.00078384,-0.00369491,0.00531676,0.00100215,0.00000687,
 0.00047567,-0.00023884,-0.00175704,0.00312620,0.00362329,0.00534138,0.
 00266046,0.00687276,-0.13560256,-0.03296344,-0.13494284,-0.01712889,-0
 .00599159,-0.00680407,-0.00011921,-0.00013999,-0.00010623,0.00000726,-
 0.00000327,0.00000835,0.00000692,-0.00012256,-0.00003610,0.00034184,0.
 00011414,0.00013064,0.00174479,-0.00168000,-0.00167955,0.14837169,0.03
 179441,0.13397435,0.00000204,0.00001613,0.00000867,0.00000679,-0.00001
 679,-0.00001013,-0.00002987,-0.00000158,0.00001636,-0.00001817,0.00001
 113,0.00002837,-0.00000625,0.,0.00000608,-0.00000679,0.00002654,0.0000
 1023,0.00005294,0.00001689,-0.00018759,-0.00004671,-0.00002925,0.00004
 474,0.00000882,-0.00005975,-0.00001729,-0.00000373,0.00001450,0.000017
 40,0.00000394,0.00002560,-0.00000031,-0.00001127,0.00001341,-0.0000008
 6,0.00000283,-0.00000212,-0.00000034,0.00000078,-0.00000189,0.00000187
 ,0.00000275,-0.00000559,-0.00000622,0.00003160,-0.00091074,0.00069472,
 0.00009910,-0.00016456,-0.00001531,-0.00056174,-0.00136890,-0.00579626
 ,-0.00049405,0.00072151,0.00285188,-0.00635681,-0.02226100,0.00534962,
 0.00018129,0.00055807,-0.00052248,-0.00058536,0.00053752,0.00002451,0.
 00201435,-0.00013689,-0.00479894,0.00987714,0.01106713,-0.00253493,-0.
 11081108,-0.12021196,0.01392724,-0.00039662,-0.00021658,-0.00050015,0.
 00000076,0.00000543,-0.00000841,0.00007698,0.00001030,-0.00010295,-0.0
 0035224,0.00024727,0.00064821,0.00022698,0.00065162,-0.00001616,-0.001
 07743,0.00073336,0.00235794,0.10812815,-0.00000666,-0.00000049,0.00001
 968,0.00000529,0.00001032,-0.00000328,-0.00002104,-0.00000179,0.000011
 29,0.00000990,-0.00000824,0.00000756,-0.00000592,-0.00000031,0.0000024
 9,-0.00003949,0.00001206,0.00002276,-0.00003627,-0.00001444,-0.0001458
 1,-0.00001371,-0.00000730,-0.00001379,0.00001343,-0.00003959,-0.000012
 40,-0.00000477,0.00001046,0.00001381,-0.00000075,0.00001614,0.00000195
 ,-0.00001111,0.00000914,-0.00000232,0.00000262,-0.00000157,-0.00000022
 ,0.00000076,-0.00000134,0.00000186,0.00000426,-0.00000611,-0.00001099,
 0.00002953,-0.00004483,0.00027498,-0.00031740,0.00004541,-0.00018495,-
 0.00199871,0.00261957,0.00121178,0.00144983,-0.00187225,-0.00027862,-0
 .00309469,-0.00208431,0.00090511,-0.00019197,0.00091799,-0.00040366,0.
 00047729,0.00002218,-0.00022221,0.00026853,0.00093315,0.00445592,-0.00
 947491,-0.01055830,0.00146930,-0.11884015,-0.28200705,0.04894655,-0.00
 004462,-0.00009381,-0.00002920,-0.00000275,0.00000134,-0.00000478,-0.0
 0004545,0.00000113,0.00006504,0.00026045,-0.00029769,-0.00039299,-0.00
 040991,-0.00064509,-0.00008474,0.00123398,0.00004648,-0.00170873,0.130
 78073,0.29304703,-0.00002275,-0.00001494,0.00003260,0.00000067,0.00004
 689,0.00000248,-0.00002457,-0.00000275,0.00001163,0.00004725,-0.000017
 25,-0.00000994,-0.00000658,-0.00000069,0.00000055,-0.00006691,-0.00002
 659,0.00004067,-0.00000327,0.00006389,-0.00026249,0.00000195,0.0000097
 0,-0.00000783,0.00001875,-0.00003939,-0.00000919,-0.00000503,0.0000108
 2,0.00001357,-0.00000159,0.00001413,0.00000074,-0.00001273,0.00000851,
 -0.00000328,0.00000271,-0.00000161,-0.00000047,0.00000074,-0.00000142,
 0.00000255,-0.00000302,-0.00000472,-0.00001357,-0.00049842,-0.00070662
 ,0.00042272,0.00007983,0.00024044,0.00023419,-0.00535747,0.00177262,0.
 00169755,0.00226554,-0.00097575,-0.00185453,-0.00640869,-0.01540312,0.
 00781802,-0.00004500,0.00010203,0.00032434,-0.00003252,-0.00018801,-0.
 00091737,-0.00493157,0.00420099,0.00090455,0.01028318,0.01873402,0.001
 93267,0.01283048,0.04783435,-0.05855441,-0.00002356,-0.00008461,-0.000
 04006,-0.00000426,0.00000106,-0.00000666,-0.00004321,0.00006541,0.0000
 8651,0.00062873,-0.00040432,-0.00050185,0.00063179,0.00082411,-0.00017
 445,0.00205833,-0.00211172,-0.00130390,-0.01139682,-0.05393587,0.05012
 335,0.00021985,0.00020287,-0.00025000,-0.00000170,-0.00029872,0.000026
 63,0.00008450,0.00000544,-0.00003820,-0.00035608,-0.00000562,-0.000053
 36,0.00003062,0.00000174,0.00002304,-0.00066816,0.00020793,0.00075152,
 0.00074067,0.00183516,0.00170784,-0.00045380,0.00018065,0.00030535,-0.
 00006288,0.00015939,0.00003374,0.00001780,-0.00003964,-0.00004015,-0.0
 0000300,-0.00005727,0.00000212,0.00003074,-0.00002837,0.00000383,-0.00
 000549,0.00000219,0.00000370,-0.00000442,0.00000730,-0.00000664,0.0000
 9018,-0.00003200,0.00002595,0.00520995,0.00348706,0.00914210,0.0010441
 3,0.00173825,0.00081834,-0.00016012,0.00100449,0.00031534,-0.00132050,
 -0.00099177,-0.00023405,0.00080625,0.00015592,0.00020705,0.00046500,0.
 00092518,-0.00022825,0.00028504,-0.00005184,-0.00000448,0.00001901,-0.
 00005542,0.00002910,0.00007565,-0.00006741,0.00009593,-0.00004367,0.00
 005762,-0.00022815,-0.33415815,-0.04797607,-0.23621524,0.00000551,-0.0
 0042504,0.00049325,-0.00001756,-0.00011033,-0.00022837,-0.00004517,0.0
 0000068,0.00001118,0.00002377,0.00000610,0.00002230,0.00000515,-0.0000
 0085,0.00001718,0.00004087,0.00002369,0.00003799,0.32810602,-0.0003204
 0,-0.00009276,0.00007690,0.00005090,0.00026963,-0.00000362,-0.00009621
 ,-0.00001596,0.00005622,0.00017103,-0.00011465,-0.00010524,-0.00002080
 ,-0.00000197,-0.00000125,-0.00034957,0.00014176,0.00000040,0.00080173,
 0.00084480,0.00058429,0.00017236,-0.00033233,0.00005112,0.00005326,-0.
 00018468,-0.00008677,-0.00002059,0.00003854,0.00006220,-0.00000343,0.0
 0006834,0.00000523,-0.00006497,0.00005224,-0.00000283,0.00001255,-0.00
 000565,-0.00000269,0.00000572,-0.00000579,0.00000892,0.00004429,-0.000
 01066,-0.00000218,-0.02873508,-0.01231214,-0.02573562,0.00024495,0.002
 27977,0.00005419,0.00184710,-0.00303072,-0.00215966,-0.00208922,-0.001
 35728,-0.00094925,-0.00009394,-0.00011086,-0.00004324,0.00050754,0.000
 82870,0.00000564,-0.00011965,0.00014046,0.00001020,-0.00019279,0.00010
 131,0.00019582,-0.00000601,-0.00009764,0.00002154,-0.00029907,-0.00000
 796,0.00010546,-0.01202326,-0.03588075,-0.03286207,-0.00012392,-0.0002
 8069,0.00027338,0.00043423,-0.00031391,0.00013316,0.00009367,-0.000050
 09,-0.00020462,-0.00000075,-0.00000067,-0.00001914,0.00003116,-0.00002
 031,-0.00003191,-0.00004953,-0.00000788,-0.00000962,0.04013869,0.04946
 977,-0.00077600,0.00020473,0.00037881,0.00008982,0.00055909,-0.0000759
 9,-0.00034007,-0.00001588,0.00018958,0.00035965,0.00007267,-0.00009104
 ,-0.00008649,-0.00000245,0.00007759,0.00036812,-0.00035612,-0.00095267
 ,-0.00004805,0.00097212,-0.00014930,0.00005809,-0.00063054,0.00024181,
 0.00025951,-0.00089440,-0.00030012,-0.00010380,0.00019957,0.00028336,0
 .00001371,0.00031913,-0.00000417,-0.00027365,0.00022352,-0.00002495,0.
 00005365,-0.00002117,-0.00000918,0.00002037,-0.00003010,0.00004457,0.0
 0000727,0.00001965,0.00002852,-0.01850370,-0.00448788,-0.01574439,0.00
 147480,0.00167581,0.00162987,0.00017098,-0.00410636,-0.00103981,-0.000
 84983,-0.00048050,-0.00036674,-0.00016086,0.00024990,-0.00050792,0.000
 33757,0.00056370,-0.00016407,0.00000870,0.00000340,0.00035975,0.000117
 80,0.00002664,0.00006602,0.00002857,-0.00017238,0.00006725,-0.00023575
 ,-0.00012657,-0.00002672,-0.20577032,-0.05520890,-0.17129770,0.0005385
 3,0.00102578,-0.00115572,-0.00017350,-0.00025202,0.00011787,0.00002707
 ,0.00006138,0.00003183,0.00001467,0.00000431,-0.00000375,-0.00000759,0
 .00000437,0.00001053,-0.00007268,0.00002448,0.00001132,0.22345341,0.06
 057504,0.18837554\\0.00000814,0.00000258,-0.00000090,-0.00000448,-0.00
 002114,0.00000010,0.00000523,-0.00000553,0.00000177,-0.00000363,0.0000
 0739,-0.00000466,-0.00000012,-0.00000158,-0.00000886,0.00001838,0.0000
 2267,-0.00001142,-0.00000849,-0.00002140,-0.00000823,-0.00001473,0.000
 01509,0.00001027,0.00001266,-0.00001324,0.00001742,0.00000284,-0.00000
 374,-0.00000376,-0.00000123,0.00000054,0.00000685,-0.00001310,0.000010
 89,0.00001589,-0.00000382,-0.00000661,-0.00000681,0.00000396,-0.000002
 09,0.00000231,-0.00000271,-0.00000624,0.00000211,0.00002255,0.00001137
 ,-0.00000551,-0.00000491,-0.00003396,-0.00003121,-0.00001352,-0.000004
 61,-0.00000865,0.00001637,0.00003797,0.00001808,-0.00000126,0.00000109
 ,0.00000584,-0.00000721,-0.00001665,0.00001233,0.00000385,0.00000408,-
 0.00000449,0.00000034,-0.00000725,0.00000193,-0.00000023,0.00000244,-0
 .00000443,-0.00000152,-0.00000498,0.00000296,-0.00000831,0.00002993,0.
 00000945,-0.00000348,-0.00000442,-0.00001041,-0.00000475,0.00001808,0.
 00001243,0.00000016,-0.00000503,-0.00000807,-0.00000155,-0.00000579,-0
 .00000763,-0.00000045,-0.00000498,0.00000196,-0.00000015,0.00000067,0.
 00000486,0.00000516,0.00000447,-0.00000153\\\@
 The archive entry for this job was punched.


 THERE'S A SUCKER BORN EVERY MINUTE

              -- PHINEAS TAYLOR (P.T.) BARNUM
 Job cpu time:       0 days  6 hours 20 minutes  1.9 seconds.
 Elapsed time:       0 days  0 hours 24 minutes 54.5 seconds.
 File lengths (MBytes):  RWF=    864 Int=      0 D2E=      0 Chk=     30 Scr=      1
 Normal termination of Gaussian 16 at Sat Jul  2 00:05:24 2022.
