 Entering Gaussian System, Link 0=g16
 AtFile(1): /home/561/yj5695/Basis/6-31pGd.gbs
 Initial command:
 /apps/gaussian/g16c01/g16/l1.exe "/jobfs/49796510.gadi-pbs/Gau-3629978.inp" -scrdir="/jobfs/49796510.gadi-pbs/"
 Entering Link 1 = /apps/gaussian/g16c01/g16/l1.exe PID=   3629979.
  
 Copyright (c) 1988-2019, Gaussian, Inc.  All Rights Reserved.
  
 This is part of the Gaussian(R) 16 program.  It is based on
 the Gaussian(R) 09 system (copyright 2009, Gaussian, Inc.),
 the Gaussian(R) 03 system (copyright 2003, Gaussian, Inc.),
 the Gaussian(R) 98 system (copyright 1998, Gaussian, Inc.),
 the Gaussian(R) 94 system (copyright 1995, Gaussian, Inc.),
 the Gaussian 92(TM) system (copyright 1992, Gaussian, Inc.),
 the Gaussian 90(TM) system (copyright 1990, Gaussian, Inc.),
 the Gaussian 88(TM) system (copyright 1988, Gaussian, Inc.),
 the Gaussian 86(TM) system (copyright 1986, Carnegie Mellon
 University), and the Gaussian 82(TM) system (copyright 1983,
 Carnegie Mellon University). Gaussian is a federally registered
 trademark of Gaussian, Inc.
  
 This software contains proprietary and confidential information,
 including trade secrets, belonging to Gaussian, Inc.
  
 This software is provided under written license and may be
 used, copied, transmitted, or stored only in accord with that
 written license.
  
 The following legend is applicable only to US Government
 contracts under FAR:
  
                    RESTRICTED RIGHTS LEGEND
  
 Use, reproduction and disclosure by the US Government is
 subject to restrictions as set forth in subparagraphs (a)
 and (c) of the Commercial Computer Software - Restricted
 Rights clause in FAR 52.227-19.
  
 Gaussian, Inc.
 340 Quinnipiac St., Bldg. 40, Wallingford CT 06492
  
  
 ---------------------------------------------------------------
 Warning -- This program may not be used in any manner that
 competes with the business of Gaussian, Inc. or will provide
 assistance to any competitor of Gaussian, Inc.  The licensee
 of this program is prohibited from giving any competitor of
 Gaussian, Inc. access to this program.  By using this program,
 the user acknowledges that Gaussian, Inc. is engaged in the
 business of creating and licensing software in the field of
 computational chemistry and represents and warrants to the
 licensee that it is not a competitor of Gaussian, Inc. and that
 it will not use this program in any manner prohibited above.
 ---------------------------------------------------------------
  

 Cite this work as:
 Gaussian 16, Revision C.01,
 M. J. Frisch, G. W. Trucks, H. B. Schlegel, G. E. Scuseria, 
 M. A. Robb, J. R. Cheeseman, G. Scalmani, V. Barone, 
 G. A. Petersson, H. Nakatsuji, X. Li, M. Caricato, A. V. Marenich, 
 J. Bloino, B. G. Janesko, R. Gomperts, B. Mennucci, H. P. Hratchian, 
 J. V. Ortiz, A. F. Izmaylov, J. L. Sonnenberg, D. Williams-Young, 
 F. Ding, F. Lipparini, F. Egidi, J. Goings, B. Peng, A. Petrone, 
 T. Henderson, D. Ranasinghe, V. G. Zakrzewski, J. Gao, N. Rega, 
 G. Zheng, W. Liang, M. Hada, M. Ehara, K. Toyota, R. Fukuda, 
 J. Hasegawa, M. Ishida, T. Nakajima, Y. Honda, O. Kitao, H. Nakai, 
 T. Vreven, K. Throssell, J. A. Montgomery, Jr., J. E. Peralta, 
 F. Ogliaro, M. J. Bearpark, J. J. Heyd, E. N. Brothers, K. N. Kudin, 
 V. N. Staroverov, T. A. Keith, R. Kobayashi, J. Normand, 
 K. Raghavachari, A. P. Rendell, J. C. Burant, S. S. Iyengar, 
 J. Tomasi, M. Cossi, J. M. Millam, M. Klene, C. Adamo, R. Cammi, 
 J. W. Ochterski, R. L. Martin, K. Morokuma, O. Farkas, 
 J. B. Foresman, and D. J. Fox, Gaussian, Inc., Wallingford CT, 2019.
 
 ******************************************
 Gaussian 16:  ES64L-G16RevC.01  3-Jul-2019
                 1-Jul-2022 
 ******************************************
 %nproc=16
 Will use up to   16 processors via shared memory.
 %mem=50gb
 -----------------------------------------------------
 #m062X/gen 6D OPT Freq=noraman SCRF=(SMD,Solvent=h2o)
 -----------------------------------------------------
 1/18=20,19=15,26=3,38=1/1,3;
 2/9=110,12=2,17=6,18=5,40=1/2;
 3/5=7,8=2,11=2,25=1,30=1,70=32201,71=1,72=1,74=-55/1,2,3;
 4//1;
 5/5=2,38=5,53=1/2;
 6/7=2,8=2,9=2,10=2,28=1/1;
 7//1,2,3,16;
 1/18=20,19=15,26=3/3(2);
 2/9=110/2;
 99//99;
 2/9=110/2;
 3/5=7,6=1,8=2,11=2,25=1,30=1,70=32205,71=1,72=1,74=-55,82=7/1,2,3;
 4/5=5,16=3,69=1/1;
 5/5=2,38=5,53=1/2;
 7//1,2,3,16;
 1/18=20,19=15,26=3/3(-5);
 2/9=110/2;
 6/7=2,8=2,9=2,10=2,19=2,28=1/1;
 99/9=1/99;
 ------------------
 HA.33.smd.a1c3.smd
 ------------------
 Symbolic Z-matrix:
 Charge =  0 Multiplicity = 1
 C                    -1.67135   1.12485  -0.94933 
 C                    -2.80478   0.60094  -1.61553 
 C                    -4.18096   0.53019  -0.98845 
 C                    -2.69455   0.13984  -2.91189 
 H                    -3.55884  -0.26083  -3.43107 
 C                    -1.45517   0.16985  -3.58241 
 C                    -0.3352    0.69334  -2.91536 
 C                     0.94653   0.84303  -3.65373 
 C                    -0.45275   1.16446  -1.61276 
 S                    -1.67306   1.76194   0.7193 
 O                    -0.40167   2.45927   0.9018 
 O                    -2.92084   2.48756   0.94025 
 N                    -1.65204   0.51378   1.79728 
 H                    -0.8106   -0.05763   1.69728 
 H                    -2.49176  -0.06358   1.73835 
 N                    -1.33177  -0.25295  -4.87736 
 C                    -0.01631  -0.72492  -5.28658 
 N                     0.95695   0.28688  -4.88567 
 H                    -2.10108  -0.81766  -5.2296 
 F                    -4.98718  -0.31071  -1.65302 
 F                    -4.79851   1.721    -0.97682 
 F                    -4.14096   0.08546   0.28351 
 H                     1.84467   0.30755  -5.38408 
 C                     0.02159  -0.94794  -6.79396 
 C                    -1.03288  -1.92932  -7.24511 
 C                    -0.69272  -3.24703  -7.56632 
 H                     0.34932  -3.55632  -7.51818 
 C                    -1.67468  -4.16126  -7.95341 
 H                    -1.39432  -5.18053  -8.20356 
 C                    -3.0097   -3.7652   -8.02129 
 H                    -3.77475  -4.47408  -8.32459 
 C                    -3.35898  -2.45105  -7.70169 
 H                    -4.39682  -2.13484  -7.75688 
 C                    -2.37659  -1.54084  -7.31632 
 H                    -2.64965  -0.51583  -7.0737 
 H                     0.21366  -1.67059  -4.77155 
 H                     1.02055  -1.2998   -7.07168 
 H                    -0.14366   0.02626  -7.26762 
 O                     1.90042   1.48619  -3.19984 
 H                     0.42282   1.57968  -1.1243 
 

 GradGradGradGradGradGradGradGradGradGradGradGradGradGradGradGradGradGrad
 Berny optimization.
 Initialization pass.
                           ----------------------------
                           !    Initial Parameters    !
                           ! (Angstroms and Degrees)  !
 --------------------------                            --------------------------
 ! Name  Definition              Value          Derivative Info.                !
 --------------------------------------------------------------------------------
 ! R1    R(1,2)                  1.4153         estimate D2E/DX2                !
 ! R2    R(1,9)                  1.3881         estimate D2E/DX2                !
 ! R3    R(1,10)                 1.7861         estimate D2E/DX2                !
 ! R4    R(2,3)                  1.514          estimate D2E/DX2                !
 ! R5    R(2,4)                  1.3803         estimate D2E/DX2                !
 ! R6    R(3,20)                 1.3412         estimate D2E/DX2                !
 ! R7    R(3,21)                 1.3415         estimate D2E/DX2                !
 ! R8    R(3,22)                 1.3481         estimate D2E/DX2                !
 ! R9    R(4,5)                  1.0849         estimate D2E/DX2                !
 ! R10   R(4,6)                  1.4095         estimate D2E/DX2                !
 ! R11   R(6,7)                  1.4048         estimate D2E/DX2                !
 ! R12   R(6,16)                 1.3678         estimate D2E/DX2                !
 ! R13   R(7,8)                  1.4868         estimate D2E/DX2                !
 ! R14   R(7,9)                  1.3902         estimate D2E/DX2                !
 ! R15   R(8,18)                 1.3517         estimate D2E/DX2                !
 ! R16   R(8,39)                 1.2368         estimate D2E/DX2                !
 ! R17   R(9,40)                 1.0852         estimate D2E/DX2                !
 ! R18   R(10,11)                1.4615         estimate D2E/DX2                !
 ! R19   R(10,12)                1.4602         estimate D2E/DX2                !
 ! R20   R(10,13)                1.6493         estimate D2E/DX2                !
 ! R21   R(13,14)                1.022          estimate D2E/DX2                !
 ! R22   R(13,15)                1.0208         estimate D2E/DX2                !
 ! R23   R(16,17)                1.4562         estimate D2E/DX2                !
 ! R24   R(16,19)                1.0173         estimate D2E/DX2                !
 ! R25   R(17,18)                1.46           estimate D2E/DX2                !
 ! R26   R(17,24)                1.5243         estimate D2E/DX2                !
 ! R27   R(17,36)                1.1011         estimate D2E/DX2                !
 ! R28   R(18,23)                1.0183         estimate D2E/DX2                !
 ! R29   R(24,25)                1.5095         estimate D2E/DX2                !
 ! R30   R(24,37)                1.0949         estimate D2E/DX2                !
 ! R31   R(24,38)                1.0958         estimate D2E/DX2                !
 ! R32   R(25,26)                1.3983         estimate D2E/DX2                !
 ! R33   R(25,34)                1.4005         estimate D2E/DX2                !
 ! R34   R(26,27)                1.088          estimate D2E/DX2                !
 ! R35   R(26,28)                1.3964         estimate D2E/DX2                !
 ! R36   R(28,29)                1.0863         estimate D2E/DX2                !
 ! R37   R(28,30)                1.3942         estimate D2E/DX2                !
 ! R38   R(30,31)                1.0862         estimate D2E/DX2                !
 ! R39   R(30,32)                1.3968         estimate D2E/DX2                !
 ! R40   R(32,33)                1.0863         estimate D2E/DX2                !
 ! R41   R(32,34)                1.3936         estimate D2E/DX2                !
 ! R42   R(34,35)                1.0882         estimate D2E/DX2                !
 ! A1    A(2,1,9)              119.2532         estimate D2E/DX2                !
 ! A2    A(2,1,10)             124.8228         estimate D2E/DX2                !
 ! A3    A(9,1,10)             115.9239         estimate D2E/DX2                !
 ! A4    A(1,2,3)              123.3876         estimate D2E/DX2                !
 ! A5    A(1,2,4)              120.1188         estimate D2E/DX2                !
 ! A6    A(3,2,4)              116.4859         estimate D2E/DX2                !
 ! A7    A(2,3,20)             111.7452         estimate D2E/DX2                !
 ! A8    A(2,3,21)             112.369          estimate D2E/DX2                !
 ! A9    A(2,3,22)             112.2881         estimate D2E/DX2                !
 ! A10   A(20,3,21)            106.5069         estimate D2E/DX2                !
 ! A11   A(20,3,22)            106.1722         estimate D2E/DX2                !
 ! A12   A(21,3,22)            107.3574         estimate D2E/DX2                !
 ! A13   A(2,4,5)              120.6089         estimate D2E/DX2                !
 ! A14   A(2,4,6)              120.657          estimate D2E/DX2                !
 ! A15   A(5,4,6)              118.732          estimate D2E/DX2                !
 ! A16   A(4,6,7)              118.8881         estimate D2E/DX2                !
 ! A17   A(4,6,16)             121.5434         estimate D2E/DX2                !
 ! A18   A(7,6,16)             119.5261         estimate D2E/DX2                !
 ! A19   A(6,7,8)              119.2763         estimate D2E/DX2                !
 ! A20   A(6,7,9)              120.253          estimate D2E/DX2                !
 ! A21   A(8,7,9)              120.2738         estimate D2E/DX2                !
 ! A22   A(7,8,18)             114.699          estimate D2E/DX2                !
 ! A23   A(7,8,39)             122.3453         estimate D2E/DX2                !
 ! A24   A(18,8,39)            122.8541         estimate D2E/DX2                !
 ! A25   A(1,9,7)              120.8252         estimate D2E/DX2                !
 ! A26   A(1,9,40)             120.2732         estimate D2E/DX2                !
 ! A27   A(7,9,40)             118.8952         estimate D2E/DX2                !
 ! A28   A(1,10,11)            106.6196         estimate D2E/DX2                !
 ! A29   A(1,10,12)            108.6277         estimate D2E/DX2                !
 ! A30   A(1,10,13)            109.9164         estimate D2E/DX2                !
 ! A31   A(11,10,12)           119.1669         estimate D2E/DX2                !
 ! A32   A(11,10,13)           105.5675         estimate D2E/DX2                !
 ! A33   A(12,10,13)           106.7407         estimate D2E/DX2                !
 ! A34   A(10,13,14)           111.694          estimate D2E/DX2                !
 ! A35   A(10,13,15)           112.3227         estimate D2E/DX2                !
 ! A36   A(14,13,15)           110.8183         estimate D2E/DX2                !
 ! A37   A(6,16,17)            116.598          estimate D2E/DX2                !
 ! A38   A(6,16,19)            115.5427         estimate D2E/DX2                !
 ! A39   A(17,16,19)           113.9488         estimate D2E/DX2                !
 ! A40   A(16,17,18)           107.4808         estimate D2E/DX2                !
 ! A41   A(16,17,24)           110.3518         estimate D2E/DX2                !
 ! A42   A(16,17,36)           109.6077         estimate D2E/DX2                !
 ! A43   A(18,17,24)           110.8773         estimate D2E/DX2                !
 ! A44   A(18,17,36)           109.1178         estimate D2E/DX2                !
 ! A45   A(24,17,36)           109.3723         estimate D2E/DX2                !
 ! A46   A(8,18,17)            122.0225         estimate D2E/DX2                !
 ! A47   A(8,18,23)            116.3891         estimate D2E/DX2                !
 ! A48   A(17,18,23)           117.4385         estimate D2E/DX2                !
 ! A49   A(17,24,25)           111.9208         estimate D2E/DX2                !
 ! A50   A(17,24,37)           108.6955         estimate D2E/DX2                !
 ! A51   A(17,24,38)           107.0763         estimate D2E/DX2                !
 ! A52   A(25,24,37)           110.647          estimate D2E/DX2                !
 ! A53   A(25,24,38)           110.088          estimate D2E/DX2                !
 ! A54   A(37,24,38)           108.279          estimate D2E/DX2                !
 ! A55   A(24,25,26)           120.7565         estimate D2E/DX2                !
 ! A56   A(24,25,34)           120.3365         estimate D2E/DX2                !
 ! A57   A(26,25,34)           118.888          estimate D2E/DX2                !
 ! A58   A(25,26,27)           119.3864         estimate D2E/DX2                !
 ! A59   A(25,26,28)           120.6364         estimate D2E/DX2                !
 ! A60   A(27,26,28)           119.9762         estimate D2E/DX2                !
 ! A61   A(26,28,29)           119.7784         estimate D2E/DX2                !
 ! A62   A(26,28,30)           120.058          estimate D2E/DX2                !
 ! A63   A(29,28,30)           120.1634         estimate D2E/DX2                !
 ! A64   A(28,30,31)           120.1751         estimate D2E/DX2                !
 ! A65   A(28,30,32)           119.707          estimate D2E/DX2                !
 ! A66   A(31,30,32)           120.1175         estimate D2E/DX2                !
 ! A67   A(30,32,33)           120.0728         estimate D2E/DX2                !
 ! A68   A(30,32,34)           120.0981         estimate D2E/DX2                !
 ! A69   A(33,32,34)           119.8286         estimate D2E/DX2                !
 ! A70   A(25,34,32)           120.6124         estimate D2E/DX2                !
 ! A71   A(25,34,35)           119.3868         estimate D2E/DX2                !
 ! A72   A(32,34,35)           119.9996         estimate D2E/DX2                !
 ! D1    D(9,1,2,3)           -179.1591         estimate D2E/DX2                !
 ! D2    D(9,1,2,4)             -0.2009         estimate D2E/DX2                !
 ! D3    D(10,1,2,3)             0.6931         estimate D2E/DX2                !
 ! D4    D(10,1,2,4)           179.6512         estimate D2E/DX2                !
 ! D5    D(2,1,9,7)             -0.2107         estimate D2E/DX2                !
 ! D6    D(2,1,9,40)           178.86           estimate D2E/DX2                !
 ! D7    D(10,1,9,7)           179.9243         estimate D2E/DX2                !
 ! D8    D(10,1,9,40)           -1.0051         estimate D2E/DX2                !
 ! D9    D(2,1,10,11)         -167.7657         estimate D2E/DX2                !
 ! D10   D(2,1,10,12)          -38.1727         estimate D2E/DX2                !
 ! D11   D(2,1,10,13)           78.2781         estimate D2E/DX2                !
 ! D12   D(9,1,10,11)           12.0908         estimate D2E/DX2                !
 ! D13   D(9,1,10,12)          141.6839         estimate D2E/DX2                !
 ! D14   D(9,1,10,13)         -101.8653         estimate D2E/DX2                !
 ! D15   D(1,2,3,20)          -163.3148         estimate D2E/DX2                !
 ! D16   D(1,2,3,21)            77.0197         estimate D2E/DX2                !
 ! D17   D(1,2,3,22)           -44.1342         estimate D2E/DX2                !
 ! D18   D(4,2,3,20)            17.692          estimate D2E/DX2                !
 ! D19   D(4,2,3,21)          -101.9735         estimate D2E/DX2                !
 ! D20   D(4,2,3,22)           136.8726         estimate D2E/DX2                !
 ! D21   D(1,2,4,5)           -179.8304         estimate D2E/DX2                !
 ! D22   D(1,2,4,6)              0.7158         estimate D2E/DX2                !
 ! D23   D(3,2,4,5)             -0.8023         estimate D2E/DX2                !
 ! D24   D(3,2,4,6)            179.7439         estimate D2E/DX2                !
 ! D25   D(2,4,6,7)             -0.8114         estimate D2E/DX2                !
 ! D26   D(2,4,6,16)          -178.4343         estimate D2E/DX2                !
 ! D27   D(5,4,6,7)            179.7247         estimate D2E/DX2                !
 ! D28   D(5,4,6,16)             2.1018         estimate D2E/DX2                !
 ! D29   D(4,6,7,8)           -174.5164         estimate D2E/DX2                !
 ! D30   D(4,6,7,9)              0.3982         estimate D2E/DX2                !
 ! D31   D(16,6,7,8)             3.1554         estimate D2E/DX2                !
 ! D32   D(16,6,7,9)           178.07           estimate D2E/DX2                !
 ! D33   D(4,6,16,17)         -154.3369         estimate D2E/DX2                !
 ! D34   D(4,6,16,19)          -16.3984         estimate D2E/DX2                !
 ! D35   D(7,6,16,17)           28.055          estimate D2E/DX2                !
 ! D36   D(7,6,16,19)          165.9935         estimate D2E/DX2                !
 ! D37   D(6,7,8,18)            -8.2334         estimate D2E/DX2                !
 ! D38   D(6,7,8,39)           168.1971         estimate D2E/DX2                !
 ! D39   D(9,7,8,18)           176.853          estimate D2E/DX2                !
 ! D40   D(9,7,8,39)            -6.7165         estimate D2E/DX2                !
 ! D41   D(6,7,9,1)              0.1068         estimate D2E/DX2                !
 ! D42   D(6,7,9,40)          -178.9764         estimate D2E/DX2                !
 ! D43   D(8,7,9,1)            174.9704         estimate D2E/DX2                !
 ! D44   D(8,7,9,40)            -4.1128         estimate D2E/DX2                !
 ! D45   D(7,8,18,17)          -18.6928         estimate D2E/DX2                !
 ! D46   D(7,8,18,23)         -175.1881         estimate D2E/DX2                !
 ! D47   D(39,8,18,17)         164.8972         estimate D2E/DX2                !
 ! D48   D(39,8,18,23)           8.4018         estimate D2E/DX2                !
 ! D49   D(1,10,13,14)          61.4488         estimate D2E/DX2                !
 ! D50   D(1,10,13,15)         -63.779          estimate D2E/DX2                !
 ! D51   D(11,10,13,14)        -53.1799         estimate D2E/DX2                !
 ! D52   D(11,10,13,15)       -178.4076         estimate D2E/DX2                !
 ! D53   D(12,10,13,14)        179.0784         estimate D2E/DX2                !
 ! D54   D(12,10,13,15)         53.8506         estimate D2E/DX2                !
 ! D55   D(6,16,17,18)         -49.9731         estimate D2E/DX2                !
 ! D56   D(6,16,17,24)        -170.992          estimate D2E/DX2                !
 ! D57   D(6,16,17,36)          68.4966         estimate D2E/DX2                !
 ! D58   D(19,16,17,18)        171.433          estimate D2E/DX2                !
 ! D59   D(19,16,17,24)         50.4141         estimate D2E/DX2                !
 ! D60   D(19,16,17,36)        -70.0973         estimate D2E/DX2                !
 ! D61   D(16,17,18,8)          46.5933         estimate D2E/DX2                !
 ! D62   D(16,17,18,23)       -157.1444         estimate D2E/DX2                !
 ! D63   D(24,17,18,8)         167.2812         estimate D2E/DX2                !
 ! D64   D(24,17,18,23)        -36.4564         estimate D2E/DX2                !
 ! D65   D(36,17,18,8)         -72.1919         estimate D2E/DX2                !
 ! D66   D(36,17,18,23)         84.0705         estimate D2E/DX2                !
 ! D67   D(16,17,24,25)        -57.5918         estimate D2E/DX2                !
 ! D68   D(16,17,24,37)        179.8987         estimate D2E/DX2                !
 ! D69   D(16,17,24,38)         63.1334         estimate D2E/DX2                !
 ! D70   D(18,17,24,25)       -176.5637         estimate D2E/DX2                !
 ! D71   D(18,17,24,37)         60.9269         estimate D2E/DX2                !
 ! D72   D(18,17,24,38)        -55.8384         estimate D2E/DX2                !
 ! D73   D(36,17,24,25)         63.0606         estimate D2E/DX2                !
 ! D74   D(36,17,24,37)        -59.4489         estimate D2E/DX2                !
 ! D75   D(36,17,24,38)       -176.2142         estimate D2E/DX2                !
 ! D76   D(17,24,25,26)       -103.0626         estimate D2E/DX2                !
 ! D77   D(17,24,25,34)         75.3337         estimate D2E/DX2                !
 ! D78   D(37,24,25,26)         18.3282         estimate D2E/DX2                !
 ! D79   D(37,24,25,34)       -163.2755         estimate D2E/DX2                !
 ! D80   D(38,24,25,26)        137.9773         estimate D2E/DX2                !
 ! D81   D(38,24,25,34)        -43.6264         estimate D2E/DX2                !
 ! D82   D(24,25,26,27)         -1.8606         estimate D2E/DX2                !
 ! D83   D(24,25,26,28)        178.4985         estimate D2E/DX2                !
 ! D84   D(34,25,26,27)        179.7202         estimate D2E/DX2                !
 ! D85   D(34,25,26,28)          0.0793         estimate D2E/DX2                !
 ! D86   D(24,25,34,32)       -178.4754         estimate D2E/DX2                !
 ! D87   D(24,25,34,35)          1.9266         estimate D2E/DX2                !
 ! D88   D(26,25,34,32)         -0.0493         estimate D2E/DX2                !
 ! D89   D(26,25,34,35)       -179.6474         estimate D2E/DX2                !
 ! D90   D(25,26,28,29)        179.7665         estimate D2E/DX2                !
 ! D91   D(25,26,28,30)         -0.0824         estimate D2E/DX2                !
 ! D92   D(27,26,28,29)          0.1277         estimate D2E/DX2                !
 ! D93   D(27,26,28,30)       -179.7211         estimate D2E/DX2                !
 ! D94   D(26,28,30,31)        179.8449         estimate D2E/DX2                !
 ! D95   D(26,28,30,32)          0.054          estimate D2E/DX2                !
 ! D96   D(29,28,30,31)         -0.0034         estimate D2E/DX2                !
 ! D97   D(29,28,30,32)       -179.7943         estimate D2E/DX2                !
 ! D98   D(28,30,32,33)        179.7245         estimate D2E/DX2                !
 ! D99   D(28,30,32,34)         -0.0243         estimate D2E/DX2                !
 ! D100  D(31,30,32,33)         -0.0665         estimate D2E/DX2                !
 ! D101  D(31,30,32,34)       -179.8153         estimate D2E/DX2                !
 ! D102  D(30,32,34,25)          0.0223         estimate D2E/DX2                !
 ! D103  D(30,32,34,35)        179.6179         estimate D2E/DX2                !
 ! D104  D(33,32,34,25)       -179.7271         estimate D2E/DX2                !
 ! D105  D(33,32,34,35)         -0.1314         estimate D2E/DX2                !
 --------------------------------------------------------------------------------
 Trust Radius=3.00D-01 FncErr=1.00D-07 GrdErr=1.00D-06 EigMax=2.50D+02 EigMin=1.00D-04
 Number of steps in this run=    229 maximum allowed number of steps=    240.
 GradGradGradGradGradGradGradGradGradGradGradGradGradGradGradGradGradGrad

                          Input orientation:                          
 ---------------------------------------------------------------------
 Center     Atomic      Atomic             Coordinates (Angstroms)
 Number     Number       Type             X           Y           Z
 ---------------------------------------------------------------------
      1          6           0       -1.671354    1.124851   -0.949329
      2          6           0       -2.804782    0.600942   -1.615527
      3          6           0       -4.180956    0.530192   -0.988448
      4          6           0       -2.694553    0.139843   -2.911893
      5          1           0       -3.558838   -0.260834   -3.431069
      6          6           0       -1.455172    0.169852   -3.582410
      7          6           0       -0.335202    0.693343   -2.915358
      8          6           0        0.946533    0.843026   -3.653726
      9          6           0       -0.452753    1.164456   -1.612759
     10         16           0       -1.673055    1.761936    0.719303
     11          8           0       -0.401673    2.459265    0.901802
     12          8           0       -2.920838    2.487558    0.940254
     13          7           0       -1.652038    0.513784    1.797277
     14          1           0       -0.810596   -0.057633    1.697284
     15          1           0       -2.491764   -0.063575    1.738354
     16          7           0       -1.331765   -0.252945   -4.877357
     17          6           0       -0.016314   -0.724919   -5.286578
     18          7           0        0.956947    0.286884   -4.885668
     19          1           0       -2.101081   -0.817663   -5.229597
     20          9           0       -4.987181   -0.310713   -1.653021
     21          9           0       -4.798514    1.720997   -0.976815
     22          9           0       -4.140962    0.085458    0.283509
     23          1           0        1.844671    0.307548   -5.384076
     24          6           0        0.021589   -0.947942   -6.793959
     25          6           0       -1.032880   -1.929315   -7.245114
     26          6           0       -0.692723   -3.247033   -7.566319
     27          1           0        0.349315   -3.556322   -7.518179
     28          6           0       -1.674681   -4.161261   -7.953411
     29          1           0       -1.394321   -5.180526   -8.203562
     30          6           0       -3.009705   -3.765196   -8.021291
     31          1           0       -3.774751   -4.474078   -8.324587
     32          6           0       -3.358979   -2.451046   -7.701690
     33          1           0       -4.396825   -2.134845   -7.756878
     34          6           0       -2.376585   -1.540842   -7.316319
     35          1           0       -2.649651   -0.515832   -7.073700
     36          1           0        0.213660   -1.670588   -4.771548
     37          1           0        1.020549   -1.299795   -7.071677
     38          1           0       -0.143661    0.026261   -7.267625
     39          8           0        1.900424    1.486189   -3.199842
     40          1           0        0.422823    1.579678   -1.124298
 ---------------------------------------------------------------------
                    Distance matrix (angstroms):
                    1          2          3          4          5
     1  C    0.000000
     2  C    1.415259   0.000000
     3  C    2.579390   1.513965   0.000000
     4  C    2.422568   1.380336   2.461992   0.000000
     5  H    3.412001   2.146497   2.641808   1.084931   0.000000
     6  C    2.809248   2.424029   3.779998   1.409453   2.152628
     7  C    2.415941   2.792297   4.304582   2.423409   3.401212
     8  C    3.774456   4.276123   5.787289   3.781837   4.643969
     9  C    1.388055   2.418594   3.832956   2.786261   3.871107
    10  S    1.786117   2.842559   3.274626   4.106121   4.987320
    11  O    2.611405   3.945281   4.645142   5.018096   6.011689
    12  O    2.643616   3.178806   3.023090   4.516858   5.202804
    13  N    2.813827   3.603283   3.762441   4.837660   5.618854
    14  H    3.023861   3.922399   4.349485   4.983252   5.821866
    15  H    3.051077   3.433377   3.262113   4.659109   5.282092
    16  N    4.176487   3.679462   4.884138   2.423741   2.655497
    17  C    4.997253   4.796882   6.115020   3.682378   4.025887
    18  N    4.806758   4.994303   6.453338   4.153416   4.775790
    19  H    4.720034   3.945775   4.912223   2.576971   2.381138
    20  F    3.681132   2.365457   1.341185   2.654035   2.281251
    21  F    3.183595   2.374330   1.341466   3.266684   3.389368
    22  F    2.949439   2.378537   1.348059   3.507941   3.775828
    23  H    5.718164   5.992116   7.461856   5.171496   5.773665
    24  C    6.428237   6.099473   7.317802   4.861187   4.959900
    25  C    7.026556   6.421377   7.423303   5.081277   4.869418
    26  C    7.990973   7.394568   8.348867   6.094418   5.850837
    27  H    8.315424   7.878609   8.936461   6.644143   6.545103
    28  C    8.774973   8.007776   8.763667   6.704964   6.262185
    29  H    9.615530   8.877893   9.614338   7.615687   7.187850
    30  C    8.701517   7.754932   8.323645   6.438525   5.801055
    31  H    9.495616   8.468067   8.889694   7.193911   6.461003
    32  C    7.824928   6.831043   7.391282   5.486012   4.803663
    33  H    8.024745   6.909075   7.277408   5.616566   4.788190
    34  C    6.938431   6.104885   6.898325   4.724910   4.258088
    35  H    6.415359   5.573410   6.361553   4.213379   3.763031
    36  H    5.096775   4.922531   6.202252   3.897907   4.244530
    37  H    7.113958   6.929324   8.210370   5.760065   5.941738
    38  H    6.592542   6.273598   7.482096   5.048995   5.144416
    39  O    4.237095   5.043082   6.541206   4.796809   5.736645
    40  H    2.150130   3.408323   4.723839   3.871260   4.956037
                    6          7          8          9         10
     6  C    0.000000
     7  C    1.404754   0.000000
     8  C    2.495283   1.486754   0.000000
     9  C    2.423552   1.390155   2.495369   0.000000
    10  S    4.592052   4.017773   5.179770   2.699006   0.000000
    11  O    5.143873   4.206377   5.018239   2.828808   1.461501
    12  O    5.289086   4.976994   6.226210   3.789448   1.460243
    13  N    5.394263   4.896450   6.047678   3.672874   1.649349
    14  H    5.323758   4.697492   5.703683   3.546539   2.238552
    15  H    5.425822   5.184662   6.458973   4.110424   2.245271
    16  N    1.367799   2.395420   2.808748   3.665963   5.958089
    17  C    2.403147   2.781338   2.460027   4.154174   6.708192
    18  N    2.744175   2.391021   1.351697   3.670057   6.364620
    19  H    2.026230   3.279812   3.811720   4.441542   6.498227
    20  F    4.053218   4.923671   6.367330   4.768520   4.572442
    21  F    4.513658   4.973447   6.398613   4.427166   3.556260
    22  F    4.708070   5.008601   6.477525   4.285202   3.015138
    23  H    3.762170   3.315909   2.021757   4.498364   7.193113
    24  C    3.707335   4.226661   3.731508   5.615341   8.164825
    25  C    4.242668   5.109978   4.949951   6.452239   8.801539
    26  C    5.303580   6.106212   5.892718   7.413751   9.731513
    27  H    5.712340   6.301919   5.885994   7.602831  10.011491
    28  C    6.157302   7.123438   7.099362   8.370199  10.502392
    29  H    7.070028   7.974282   7.903403   9.196958  11.308978
    30  C    6.132279   7.287118   7.480852   8.479903  10.427550
    31  H    7.030987   8.233620   8.507588   9.374293  11.184674
    32  C    5.240425   6.476062   6.765675   7.654612   9.565808
    33  H    5.602779   6.923564   7.365803   8.011947   9.718512
    34  C    4.209222   5.341094   5.490039   6.599270   8.716336
    35  H    3.753138   4.910253   5.145411   6.121405   8.177583
    36  H    2.754318   3.055300   2.846908   4.296455   6.744728
    37  H    4.523720   4.804753   4.034792   6.167896   8.793695
    38  H    3.914267   4.407257   3.862110   5.776550   8.315205
    39  O    3.624793   2.389050   1.236761   2.856534   5.310884
    40  H    3.399528   2.137308   2.686063   1.085190   2.797282
                   11         12         13         14         15
    11  O    0.000000
    12  O    2.519617   0.000000
    13  N    2.479957   2.498024   0.000000
    14  H    2.671102   3.391786   1.022028   0.000000
    15  H    3.381275   2.707277   1.020762   1.681680   0.000000
    16  N    6.451344   6.624206   6.726157   6.598156   6.719307
    17  C    6.970192   7.584834   7.375024   7.060487   7.477627
    18  N    6.329289   7.336317   7.177746   6.824819   7.476235
    19  H    7.156836   7.047237   7.165986   7.086937   7.019517
    20  F    5.935215   4.338798   4.869038   5.360266   4.217773
    21  F    4.838022   2.790777   4.365004   5.120334   3.984713
    22  F    4.472083   2.773103   2.944435   3.620852   2.204232
    23  H    7.013431   8.213384   7.990077   7.571622   8.346940
    24  C    8.426918   8.959832   8.873951   8.578251   8.938647
    25  C    9.275252   9.490701   9.387062   9.138878   9.290427
    26  C   10.215460  10.498181  10.136122   9.797985   9.997394
    27  H   10.375324  10.898049  10.360931   9.925270  10.293416
    28  C   11.129542  11.173942  10.813532  10.522467  10.554097
    29  H   11.927255  12.030758  11.511228  11.162953  11.235180
    30  C   11.187821  10.927677  10.796166  10.631689  10.450882
    31  H   12.023941  11.620276  11.482021  11.345885  11.061708
    32  C   10.338128   9.963181  10.096249  10.028130   9.775813
    33  H   10.584887   9.959179  10.287418  10.322646   9.903477
    34  C    9.350863   9.203000   9.370384   9.268078   9.175112
    35  H    8.804160   8.562555   8.986077   8.973418   8.825064
    36  H    7.044233   7.729162   7.169503   6.745110   7.230535
    37  H    8.929144   9.698949   9.438757   9.043823   9.564582
    38  H    8.527932   9.007773   9.202463   8.990074   9.307487
    39  O    4.803125   6.433327   6.207798   5.806450   6.788141
    40  H    2.357657   4.033198   3.738553   3.487612   4.403393
                   16         17         18         19         20
    16  N    0.000000
    17  C    1.456239   0.000000
    18  N    2.351529   1.460038   0.000000
    19  H    1.017264   2.087607   3.269533   0.000000
    20  F    4.874602   6.171209   6.792627   4.623685   0.000000
    21  F    5.579339   6.886654   7.103601   5.639778   2.149580
    22  F    5.885630   6.978202   7.262895   5.947359   2.150160
    23  H    3.265067   2.130436   1.018279   4.105962   7.808791
    24  C    2.447029   1.524262   2.457898   2.640062   7.205767
    25  C    2.916474   2.513929   3.799728   2.537545   7.037604
    26  C    4.074734   3.466382   4.732428   3.653160   7.876004
    27  H    4.551074   3.623613   4.697825   4.329238   8.568095
    28  C    4.985442   4.655172   6.010200   4.333662   8.092854
    29  H    5.945469   5.500921   6.813916   5.327152   8.918145
    30  C    5.003570   5.067774   6.479646   4.160181   7.509909
    31  H    5.972398   6.116497   7.542008   5.074397   7.956971
    32  C    4.113162   4.470536   5.835534   3.218927   6.619552
    33  H    4.607362   5.222945   6.539992   3.659584   6.397894
    34  C    2.949384   3.218145   4.512326   2.225601   6.356207
    35  H    2.574851   3.189355   4.294111   1.947498   5.906766
    36  H    2.099820   1.101106   2.096949   2.509047   6.214758
    37  H    3.382945   2.142929   2.701894   3.656540   8.150640
    38  H    2.683827   2.122507   2.636851   2.949112   7.422736
    39  O    4.035553   3.594072   2.273871   5.043777   7.284272
    40  H    4.530181   4.777927   4.013042   5.382454   5.755108
                   21         22         23         24         25
    21  F    0.000000
    22  F    2.166975   0.000000
    23  H    8.096524   8.246129   0.000000
    24  C    8.012228   8.275585   2.624434   0.000000
    25  C    8.172903   8.390450   4.092349   1.509483   0.000000
    26  C    9.217397   9.198676   4.882172   2.528359   1.398306
    27  H    9.855947   9.710380   4.660470   2.726820   2.152250
    28  C    9.645319   9.589787   6.241600   3.814063   2.427998
    29  H   10.556771  10.358813   6.968467   4.680443   3.408759
    30  C    9.106195   9.223718   6.863462   4.316481   2.807267
    31  H    9.665237   9.747964   7.942824   5.402653   3.893448
    32  C    8.043765   8.414794   6.329230   3.809401   2.427221
    33  H    7.810130   8.345240   7.109975   4.675290   3.408852
    34  C    7.529585   7.969646   4.996910   2.525001   1.400544
    35  H    6.840543   7.530875   4.871521   2.720385   2.154360
    36  H    7.143160   6.899278   2.635984   2.156213   2.781965
    37  H    8.951761   9.091693   2.471988   1.094920   2.154750
    38  H    8.007127   8.544094   2.753242   1.095782   2.148370
    39  O    7.062064   7.112955   2.482576   4.729978   6.052616
    40  H    5.225331   5.004273   4.667513   6.220523   7.203922
                   26         27         28         29         30
    26  C    0.000000
    27  H    1.088035   0.000000
    28  C    1.396386   2.156835   0.000000
    29  H    2.153303   2.479527   1.086314   0.000000
    30  C    2.417416   3.402905   1.394189   2.155423   0.000000
    31  H    3.402867   4.301220   2.155440   2.485993   1.086185
    32  C    2.785829   3.873855   2.413516   3.400267   1.396828
    33  H    3.872163   4.960183   3.399273   4.300085   2.156864
    34  C    2.410182   3.396092   2.786602   3.872898   2.417763
    35  H    3.395836   4.293709   3.874740   4.961029   3.403812
    36  H    3.334285   3.334423   4.460217   5.165655   5.033716
    37  H    2.640399   2.396212   4.028611   4.708804   4.819016
    38  H    3.332438   3.625011   4.511060   5.436061   4.812210
    39  O    6.942184   6.817690   8.201920   8.963127   8.656372
    40  H    8.126575   8.201562   9.164862   9.955820   9.376483
                   31         32         33         34         35
    31  H    0.000000
    32  C    2.157203   0.000000
    33  H    2.486218   1.086349   0.000000
    34  C    3.402256   1.393585   2.151349   0.000000
    35  H    4.300963   2.154663   2.478014   1.088152   0.000000
    36  H    6.032501   4.686000   5.512196   3.633464   3.851223
    37  H    5.885640   4.571932   5.524016   3.414451   3.752995
    38  H    5.878353   4.082123   4.795743   2.728394   2.571275
    39  O    9.695123   7.964281   8.575186   6.663415   6.302226
    40  H   10.301056   8.591324   9.000989   7.477664   7.016170
                   36         37         38         39         40
    36  H    0.000000
    37  H    2.465593   0.000000
    38  H    3.039305   1.775445   0.000000
    39  O    3.909050   4.850463   4.780851   0.000000
    40  H    4.889827   6.634754   6.361955   2.549496   0.000000
 Stoichiometry    C16H14F3N3O3S
 Framework group  C1[X(C16H14F3N3O3S)]
 Deg. of freedom   114
 Full point group                 C1      NOp   1
 Largest Abelian subgroup         C1      NOp   1
 Largest concise Abelian subgroup C1      NOp   1
                         Standard orientation:                         
 ---------------------------------------------------------------------
 Center     Atomic      Atomic             Coordinates (Angstroms)
 Number     Number       Type             X           Y           Z
 ---------------------------------------------------------------------
      1          6           0       -2.358192    0.345205    0.014077
      2          6           0       -1.662281   -0.873617   -0.167973
      3          6           0       -2.344921   -2.224232   -0.211918
      4          6           0       -0.292496   -0.870352   -0.338278
      5          1           0        0.248625   -1.799781   -0.481198
      6          6           0        0.431300    0.338898   -0.318444
      7          6           0       -0.266712    1.544750   -0.139460
      8          6           0        0.469322    2.832643   -0.239562
      9          6           0       -1.647302    1.537366    0.023162
     10         16           0       -4.124706    0.487734    0.236171
     11          8           0       -4.451338    1.904800    0.090498
     12          8           0       -4.783683   -0.487033   -0.628634
     13          7           0       -4.529346    0.097338    1.786723
     14          1           0       -4.092255    0.728322    2.461520
     15          1           0       -4.316777   -0.875856    2.009578
     16          7           0        1.784377    0.366292   -0.516701
     17          6           0        2.506343    1.488003    0.067388
     18          7           0        1.812509    2.710111   -0.328539
     19          1           0        2.260297   -0.527370   -0.418237
     20          9           0       -1.473157   -3.227641   -0.033102
     21          9           0       -2.951958   -2.451471   -1.386396
     22          9           0       -3.275327   -2.358520    0.754298
     23          1           0        2.347445    3.576536   -0.321896
     24          6           0        3.950369    1.500826   -0.420463
     25          6           0        4.666239    0.212086   -0.096090
     26          6           0        5.573376    0.145737    0.965965
     27          1           0        5.785484    1.042936    1.543775
     28          6           0        6.210774   -1.055458    1.283373
     29          1           0        6.915916   -1.090305    2.108987
     30          6           0        5.944630   -2.204793    0.540432
     31          1           0        6.441250   -3.139567    0.784080
     32          6           0        5.039465   -2.148162   -0.521922
     33          1           0        4.831044   -3.039064   -1.107591
     34          6           0        4.405426   -0.947722   -0.836594
     35          1           0        3.705271   -0.903964   -1.668426
     36          1           0        2.492455    1.404966    1.165270
     37          1           0        4.466329    2.353678    0.032611
     38          1           0        3.922175    1.652946   -1.505269
     39          8           0       -0.110796    3.922903   -0.305698
     40          1           0       -2.166249    2.482865    0.143005
 ---------------------------------------------------------------------
 Rotational constants (GHZ):           0.3356072           0.1015220           0.0826789
 General basis read from cards:  (6D, 7F)
 There are   526 symmetry adapted cartesian basis functions of A   symmetry.
 There are   526 symmetry adapted basis functions of A   symmetry.
   526 basis functions,   912 primitive gaussians,   526 cartesian basis functions
    99 alpha electrons       99 beta electrons
       nuclear repulsion energy      2572.6694446293 Hartrees.
 NAtoms=   40 NActive=   40 NUniq=   40 SFac= 1.00D+00 NAtFMM=   60 NAOKFM=F Big=F
 Integral buffers will be    131072 words long.
 Raffenetti 2 integral format.
 Two-electron integral symmetry is turned on.
 ------------------------------------------------------------------------------
 Polarizable Continuum Model (PCM)
 =================================
 Model                : PCM.
 Atomic radii         : SMD-Coulomb.
 Polarization charges : Total charges.
 Charge compensation  : None.
 Solution method      : On-the-fly selection.
 Cavity type          : VdW (van der Waals Surface) (Alpha=1.000).
 Cavity algorithm     : GePol (No added spheres)
                        Default sphere list used, NSphG=   40.
                        Lebedev-Laikov grids with approx.  5.0 points / Ang**2.
                        Smoothing algorithm: York/Karplus (Gamma=1.0000).
                        Polarization charges: spherical gaussians, with
                                              point-specific exponents (IZeta= 3).
                        Self-potential: point-specific (ISelfS= 7).
                        Self-field    : sphere-specific E.n sum rule (ISelfD= 2).
 1st derivatives      : Analytical E(r).r(x)/FMM algorithm (CHGder, D1EAlg=3).
                        Cavity 1st derivative terms included.
 Solvent              : Water, Eps=  78.355300 Eps(inf)=   1.777849
 ------------------------------------------------------------------------------
 ------------------------------------------------------------------------------
 Atomic radii for non-electrostatic terms: SMD-CDS.
 ------------------------------------------------------------------------------
 Nuclear repulsion after PCM non-electrostatic terms =     2572.6801019118 Hartrees.
 One-electron integrals computed using PRISM.
 NBasis=   526 RedAO= T EigKep=  1.16D-06  NBF=   526
 NBsUse=   523 1.00D-06 EigRej=  7.93D-07 NBFU=   523
 ExpMin= 4.05D-02 ExpMax= 2.19D+04 ExpMxC= 3.30D+03 IAcc=3 IRadAn=         5 AccDes= 0.00D+00
 Harris functional with IExCor= 1009 and IRadAn=       5 diagonalized for initial guess.
 HarFok:  IExCor= 1009 AccDes= 0.00D+00 IRadAn=         5 IDoV= 1 UseB2=F ITyADJ=14
 ICtDFT=  3500011 ScaDFX=  1.000000  1.000000  1.000000  1.000000
 FoFCou: FMM=F IPFlag=           0 FMFlag=      100000 FMFlg1=           0
         NFxFlg=           0 DoJE=T BraDBF=F KetDBF=T FulRan=T
         wScrn=  0.000000 ICntrl=       500 IOpCl=  0 I1Cent=   200000004 NGrid=           0
         NMat0=    1 NMatS0=      1 NMatT0=    0 NMatD0=    1 NMtDS0=    0 NMtDT0=    0
 Petite list used in FoFCou.
 Requested convergence on RMS density matrix=1.00D-08 within 128 cycles.
 Requested convergence on MAX density matrix=1.00D-06.
 Requested convergence on             energy=1.00D-06.
 No special actions if energy rises.
 Inv3:  Mode=1 IEnd=    25825068.
 Iteration    1 A*A^-1 deviation from unit magnitude is 6.77D-15 for   2920.
 Iteration    1 A*A^-1 deviation from orthogonality  is 2.24D-15 for   1414   1287.
 Iteration    1 A^-1*A deviation from unit magnitude is 6.77D-15 for   2920.
 Iteration    1 A^-1*A deviation from orthogonality  is 9.58D-14 for   1448   1414.
 Error on total polarization charges =  0.05839
 SCF Done:  E(RM062X) =  -1705.29736550     A.U. after   16 cycles
            NFock= 16  Conv=0.53D-08     -V/T= 2.0071
 SMD-CDS (non-electrostatic) energy       (kcal/mol) =       6.69
 (included in total energy above)

 **********************************************************************

            Population analysis using the SCF Density.

 **********************************************************************

 Orbital symmetries:
       Occupied  (A) (A) (A) (A) (A) (A) (A) (A) (A) (A) (A) (A)
                 (A) (A) (A) (A) (A) (A) (A) (A) (A) (A) (A) (A)
                 (A) (A) (A) (A) (A) (A) (A) (A) (A) (A) (A) (A)
                 (A) (A) (A) (A) (A) (A) (A) (A) (A) (A) (A) (A)
                 (A) (A) (A) (A) (A) (A) (A) (A) (A) (A) (A) (A)
                 (A) (A) (A) (A) (A) (A) (A) (A) (A) (A) (A) (A)
                 (A) (A) (A) (A) (A) (A) (A) (A) (A) (A) (A) (A)
                 (A) (A) (A) (A) (A) (A) (A) (A) (A) (A) (A) (A)
                 (A) (A) (A)
       Virtual   (A) (A) (A) (A) (A) (A) (A) (A) (A) (A) (A) (A)
                 (A) (A) (A) (A) (A) (A) (A) (A) (A) (A) (A) (A)
                 (A) (A) (A) (A) (A) (A) (A) (A) (A) (A) (A) (A)
                 (A) (A) (A) (A) (A) (A) (A) (A) (A) (A) (A) (A)
                 (A) (A) (A) (A) (A) (A) (A) (A) (A) (A) (A) (A)
                 (A) (A) (A) (A) (A) (A) (A) (A) (A) (A) (A) (A)
                 (A) (A) (A) (A) (A) (A) (A) (A) (A) (A) (A) (A)
                 (A) (A) (A) (A) (A) (A) (A) (A) (A) (A) (A) (A)
                 (A) (A) (A) (A) (A) (A) (A) (A) (A) (A) (A) (A)
                 (A) (A) (A) (A) (A) (A) (A) (A) (A) (A) (A) (A)
                 (A) (A) (A) (A) (A) (A) (A) (A) (A) (A) (A) (A)
                 (A) (A) (A) (A) (A) (A) (A) (A) (A) (A) (A) (A)
                 (A) (A) (A) (A) (A) (A) (A) (A) (A) (A) (A) (A)
                 (A) (A) (A) (A) (A) (A) (A) (A) (A) (A) (A) (A)
                 (A) (A) (A) (A) (A) (A) (A) (A) (A) (A) (A) (A)
                 (A) (A) (A) (A) (A) (A) (A) (A) (A) (A) (A) (A)
                 (A) (A) (A) (A) (A) (A) (A) (A) (A) (A) (A) (A)
                 (A) (A) (A) (A) (A) (A) (A) (A) (A) (A) (A) (A)
                 (A) (A) (A) (A) (A) (A) (A) (A) (A) (A) (A) (A)
                 (A) (A) (A) (A) (A) (A) (A) (A) (A) (A) (A) (A)
                 (A) (A) (A) (A) (A) (A) (A) (A) (A) (A) (A) (A)
                 (A) (A) (A) (A) (A) (A) (A) (A) (A) (A) (A) (A)
                 (A) (A) (A) (A) (A) (A) (A) (A) (A) (A) (A) (A)
                 (A) (A) (A) (A) (A) (A) (A) (A) (A) (A) (A) (A)
                 (A) (A) (A) (A) (A) (A) (A) (A) (A) (A) (A) (A)
                 (A) (A) (A) (A) (A) (A) (A) (A) (A) (A) (A) (A)
                 (A) (A) (A) (A) (A) (A) (A) (A) (A) (A) (A) (A)
                 (A) (A) (A) (A) (A) (A) (A) (A) (A) (A) (A) (A)
                 (A) (A) (A) (A) (A) (A) (A) (A) (A) (A) (A) (A)
                 (A) (A) (A) (A) (A) (A) (A) (A) (A) (A) (A) (A)
                 (A) (A) (A) (A) (A) (A) (A) (A) (A) (A) (A) (A)
                 (A) (A) (A) (A) (A) (A) (A) (A) (A) (A) (A) (A)
                 (A) (A) (A) (A) (A) (A) (A) (A) (A) (A) (A) (A)
                 (A) (A) (A) (A) (A) (A) (A) (A) (A) (A) (A) (A)
                 (A) (A) (A) (A) (A) (A) (A) (A) (A) (A) (A) (A)
                 (A) (A) (A) (A)
 The electronic state is 1-A.
 Alpha  occ. eigenvalues --  -90.18723 -25.31886 -25.31591 -25.31275 -19.66318
 Alpha  occ. eigenvalues --  -19.66296 -19.63723 -14.80387 -14.80289 -14.79785
 Alpha  occ. eigenvalues --  -10.83174 -10.68145 -10.63948 -10.63397 -10.62023
 Alpha  occ. eigenvalues --  -10.61197 -10.59457 -10.58656 -10.58567 -10.56832
 Alpha  occ. eigenvalues --  -10.55823 -10.55690 -10.55628 -10.55587 -10.55534
 Alpha  occ. eigenvalues --  -10.55460  -8.49639  -6.41840  -6.41825  -6.41721
 Alpha  occ. eigenvalues --   -1.48428  -1.39144  -1.38791  -1.26472  -1.18197
 Alpha  occ. eigenvalues --   -1.14952  -1.10624  -1.03441  -1.03096  -0.99915
 Alpha  occ. eigenvalues --   -0.96918  -0.92294  -0.90313  -0.87327  -0.84590
 Alpha  occ. eigenvalues --   -0.83823  -0.82312  -0.77363  -0.76806  -0.73570
 Alpha  occ. eigenvalues --   -0.72615  -0.70782  -0.70147  -0.70017  -0.69111
 Alpha  occ. eigenvalues --   -0.67379  -0.66633  -0.63335  -0.62252  -0.61959
 Alpha  occ. eigenvalues --   -0.60976  -0.59829  -0.58865  -0.58705  -0.58512
 Alpha  occ. eigenvalues --   -0.57325  -0.55427  -0.55276  -0.55190  -0.54638
 Alpha  occ. eigenvalues --   -0.53269  -0.52830  -0.52511  -0.52450  -0.52268
 Alpha  occ. eigenvalues --   -0.51836  -0.50397  -0.49452  -0.48650  -0.48226
 Alpha  occ. eigenvalues --   -0.47420  -0.46835  -0.44878  -0.44093  -0.43792
 Alpha  occ. eigenvalues --   -0.43643  -0.42355  -0.41757  -0.40282  -0.40092
 Alpha  occ. eigenvalues --   -0.39850  -0.39214  -0.38488  -0.36059  -0.34699
 Alpha  occ. eigenvalues --   -0.34098  -0.31204  -0.30585  -0.28526
 Alpha virt. eigenvalues --   -0.04392  -0.01462   0.00908   0.01168   0.01514
 Alpha virt. eigenvalues --    0.02039   0.02441   0.02929   0.03457   0.03658
 Alpha virt. eigenvalues --    0.04082   0.04300   0.04517   0.04861   0.05305
 Alpha virt. eigenvalues --    0.05722   0.06041   0.06514   0.06692   0.07004
 Alpha virt. eigenvalues --    0.07618   0.08139   0.08329   0.08984   0.09150
 Alpha virt. eigenvalues --    0.09283   0.09973   0.10143   0.10374   0.10791
 Alpha virt. eigenvalues --    0.11128   0.11706   0.12441   0.12471   0.12750
 Alpha virt. eigenvalues --    0.12867   0.13598   0.14012   0.14289   0.14905
 Alpha virt. eigenvalues --    0.15084   0.15356   0.15555   0.16119   0.16282
 Alpha virt. eigenvalues --    0.16438   0.16723   0.16969   0.17102   0.17472
 Alpha virt. eigenvalues --    0.18190   0.18656   0.18911   0.19255   0.19390
 Alpha virt. eigenvalues --    0.19607   0.19649   0.20032   0.20490   0.20792
 Alpha virt. eigenvalues --    0.20972   0.21202   0.21760   0.21889   0.22136
 Alpha virt. eigenvalues --    0.22473   0.22696   0.23027   0.23366   0.23509
 Alpha virt. eigenvalues --    0.23909   0.24240   0.24536   0.24998   0.25294
 Alpha virt. eigenvalues --    0.25362   0.25562   0.26189   0.26620   0.26654
 Alpha virt. eigenvalues --    0.26878   0.27056   0.27373   0.27726   0.28035
 Alpha virt. eigenvalues --    0.28163   0.28466   0.28793   0.29158   0.29465
 Alpha virt. eigenvalues --    0.29846   0.30067   0.30248   0.30536   0.30671
 Alpha virt. eigenvalues --    0.31104   0.31223   0.31798   0.32136   0.32333
 Alpha virt. eigenvalues --    0.32823   0.33135   0.33328   0.33607   0.34043
 Alpha virt. eigenvalues --    0.34504   0.34698   0.34868   0.35314   0.35569
 Alpha virt. eigenvalues --    0.35986   0.36209   0.36622   0.36784   0.37138
 Alpha virt. eigenvalues --    0.37714   0.38398   0.38700   0.39008   0.39510
 Alpha virt. eigenvalues --    0.40082   0.40599   0.40778   0.41072   0.41962
 Alpha virt. eigenvalues --    0.42233   0.42563   0.42836   0.43496   0.44075
 Alpha virt. eigenvalues --    0.44723   0.45350   0.45508   0.45859   0.47027
 Alpha virt. eigenvalues --    0.47452   0.48372   0.48870   0.49297   0.50415
 Alpha virt. eigenvalues --    0.50498   0.51960   0.52173   0.53945   0.54569
 Alpha virt. eigenvalues --    0.55369   0.58126   0.60849   0.62857   0.64102
 Alpha virt. eigenvalues --    0.64988   0.66715   0.67370   0.69912   0.70573
 Alpha virt. eigenvalues --    0.71184   0.72669   0.73200   0.73432   0.73810
 Alpha virt. eigenvalues --    0.74041   0.75467   0.75967   0.77471   0.77711
 Alpha virt. eigenvalues --    0.77977   0.78965   0.79653   0.80183   0.80935
 Alpha virt. eigenvalues --    0.81711   0.82076   0.82902   0.83733   0.84392
 Alpha virt. eigenvalues --    0.85218   0.85679   0.87132   0.87996   0.88655
 Alpha virt. eigenvalues --    0.89457   0.90590   0.91051   0.91711   0.92440
 Alpha virt. eigenvalues --    0.93206   0.94738   0.95016   0.95971   0.96720
 Alpha virt. eigenvalues --    0.98336   0.98828   0.99507   1.01033   1.01634
 Alpha virt. eigenvalues --    1.01996   1.02556   1.02941   1.04570   1.06093
 Alpha virt. eigenvalues --    1.06158   1.07300   1.07972   1.08733   1.08926
 Alpha virt. eigenvalues --    1.09888   1.11260   1.11550   1.12569   1.13461
 Alpha virt. eigenvalues --    1.13622   1.14531   1.15161   1.15938   1.17023
 Alpha virt. eigenvalues --    1.17627   1.18269   1.18642   1.19154   1.20051
 Alpha virt. eigenvalues --    1.21134   1.22103   1.22817   1.23585   1.24799
 Alpha virt. eigenvalues --    1.25160   1.26030   1.27338   1.27942   1.28972
 Alpha virt. eigenvalues --    1.29671   1.30023   1.31349   1.32105   1.33293
 Alpha virt. eigenvalues --    1.34260   1.35523   1.36586   1.36876   1.37586
 Alpha virt. eigenvalues --    1.38082   1.38734   1.39395   1.39899   1.40538
 Alpha virt. eigenvalues --    1.41638   1.42692   1.43811   1.44371   1.45788
 Alpha virt. eigenvalues --    1.46120   1.47231   1.47893   1.49403   1.50795
 Alpha virt. eigenvalues --    1.51552   1.52056   1.53149   1.53459   1.53567
 Alpha virt. eigenvalues --    1.54660   1.55991   1.58004   1.60426   1.60796
 Alpha virt. eigenvalues --    1.62786   1.63514   1.65901   1.66760   1.67535
 Alpha virt. eigenvalues --    1.69865   1.70383   1.71644   1.72227   1.73805
 Alpha virt. eigenvalues --    1.74138   1.74584   1.75454   1.75697   1.76706
 Alpha virt. eigenvalues --    1.77150   1.77885   1.78201   1.79657   1.80495
 Alpha virt. eigenvalues --    1.81003   1.82907   1.84035   1.85016   1.85397
 Alpha virt. eigenvalues --    1.86573   1.87297   1.87943   1.88338   1.89287
 Alpha virt. eigenvalues --    1.90057   1.90271   1.91377   1.92013   1.92415
 Alpha virt. eigenvalues --    1.93430   1.93576   1.94847   1.95679   1.95730
 Alpha virt. eigenvalues --    1.96967   1.97782   1.99491   2.00376   2.01325
 Alpha virt. eigenvalues --    2.02241   2.03138   2.03887   2.06528   2.06774
 Alpha virt. eigenvalues --    2.07165   2.08528   2.08990   2.09543   2.10581
 Alpha virt. eigenvalues --    2.11280   2.12152   2.12610   2.13373   2.14459
 Alpha virt. eigenvalues --    2.14708   2.15425   2.16006   2.16148   2.17919
 Alpha virt. eigenvalues --    2.18208   2.18888   2.20315   2.20462   2.21985
 Alpha virt. eigenvalues --    2.22701   2.23705   2.25230   2.25779   2.26984
 Alpha virt. eigenvalues --    2.27579   2.29860   2.30258   2.31863   2.32756
 Alpha virt. eigenvalues --    2.33576   2.34943   2.38548   2.41302   2.41758
 Alpha virt. eigenvalues --    2.42745   2.43239   2.46786   2.47075   2.48378
 Alpha virt. eigenvalues --    2.49843   2.51435   2.52072   2.53291   2.56172
 Alpha virt. eigenvalues --    2.57358   2.59406   2.60470   2.63224   2.65102
 Alpha virt. eigenvalues --    2.65935   2.66763   2.69801   2.70110   2.71939
 Alpha virt. eigenvalues --    2.73798   2.75413   2.77428   2.78443   2.78821
 Alpha virt. eigenvalues --    2.80349   2.80905   2.82203   2.84463   2.86302
 Alpha virt. eigenvalues --    2.88910   2.91038   2.92181   2.94808   2.95707
 Alpha virt. eigenvalues --    2.96680   3.01385   3.05786   3.08379   3.10183
 Alpha virt. eigenvalues --    3.14735   3.20078   3.20438   3.28522   3.30330
 Alpha virt. eigenvalues --    3.33703   3.41741   3.42206   3.94269   4.09484
 Alpha virt. eigenvalues --    4.22568   4.25261   4.28279   4.31017   4.31732
 Alpha virt. eigenvalues --    4.33688   4.34362   4.35171   4.37210   4.39775
 Alpha virt. eigenvalues --    4.40366   4.43349   4.44287   4.50108   4.51461
 Alpha virt. eigenvalues --    4.55153   4.62572   4.66646   4.75977   4.76483
 Alpha virt. eigenvalues --    4.87331   5.84835   6.11738   7.05614
          Condensed to atoms (all electrons):
               1          2          3          4          5          6
     1  C   38.877667 -18.690037  -2.397872   6.562128  -0.025127   1.330465
     2  C  -18.690037  41.544167   0.779943 -10.026317   0.014097 -11.895193
     3  C   -2.397872   0.779943  17.237976  -7.299812   0.027450  -3.461671
     4  C    6.562128 -10.026317  -7.299812  19.637310   0.280759   7.218535
     5  H   -0.025127   0.014097   0.027450   0.280759   0.399401  -0.034993
     6  C    1.330465 -11.895193  -3.461671   7.218535  -0.034993  23.251828
     7  C  -19.358956  10.825324   4.619665 -14.526402   0.052401 -13.237641
     8  C   -3.318530   3.350246   0.216608  -1.493580   0.008744  -2.086242
     9  C    5.616684  -8.461799  -2.800754   5.634489  -0.017218   5.528431
    10  S    1.662650  -1.394861  -2.992339   1.951070  -0.001303   0.896468
    11  O    0.062897  -0.280261  -0.080508   0.084186   0.000018   0.027844
    12  O   -0.450367  -0.046510  -0.248659   0.110449  -0.000018   0.059133
    13  N   -0.840723  -0.014121   0.445698  -0.105419   0.000051  -0.021336
    14  H   -0.022678   0.023715  -0.012310   0.002151  -0.000000   0.003393
    15  H    0.000498   0.013579  -0.072146   0.021889  -0.000000   0.007482
    16  N    0.170822   0.323909   0.039070  -0.067708  -0.012560  -0.574183
    17  C   -0.811606  -0.815483  -0.049203  -0.708790  -0.001207  -0.774426
    18  N   -0.389713   0.317023   0.016864  -0.050156   0.000362   0.470677
    19  H    0.004721   0.036237   0.004643   0.000603   0.004635  -0.047262
    20  F    0.024365  -0.240236  -0.041056   0.206935   0.005763   0.129848
    21  F   -0.102939   0.190932   0.119048  -0.064417  -0.000302  -0.038733
    22  F    0.027642  -0.140113   0.161967  -0.015276   0.000316  -0.039368
    23  H    0.002430   0.001320   0.000075   0.002697  -0.000000  -0.008167
    24  C   -0.101130   0.311828   0.024208  -0.156343   0.000250  -0.567440
    25  C   -0.148443   0.047998   0.007778   0.033172   0.002584   0.251327
    26  C   -0.048290   0.028239   0.002424  -0.141378  -0.000488  -0.074981
    27  H    0.000023  -0.000137  -0.000002  -0.000343   0.000000  -0.000162
    28  C    0.006471  -0.013977  -0.001252   0.020936   0.000200   0.018070
    29  H    0.000001   0.000001  -0.000000   0.000057  -0.000000  -0.000076
    30  C   -0.002384   0.027375   0.002325  -0.023210  -0.000359   0.001868
    31  H    0.000001  -0.000034  -0.000001  -0.000305   0.000000   0.000340
    32  C    0.013572  -0.015307  -0.009104   0.156873   0.001880  -0.044848
    33  H   -0.000028   0.000334   0.000006   0.002676   0.000000  -0.003041
    34  C    0.123219  -0.023206  -0.000417  -0.085575  -0.003544   0.189693
    35  H    0.000430   0.002798   0.000023   0.028653   0.000010  -0.043779
    36  H    0.010701   0.005173   0.000106   0.051029  -0.000006   0.017672
    37  H    0.000044  -0.000575  -0.000028   0.000915   0.000000   0.006434
    38  H   -0.000059   0.001314   0.000043   0.006859  -0.000001  -0.008876
    39  O    0.101476  -0.055517  -0.005781   0.022996   0.000015   0.043833
    40  H   -0.106108   0.006212   0.007097  -0.012672   0.000010  -0.008737
               7          8          9         10         11         12
     1  C  -19.358956  -3.318530   5.616684   1.662650   0.062897  -0.450367
     2  C   10.825324   3.350246  -8.461799  -1.394861  -0.280261  -0.046510
     3  C    4.619665   0.216608  -2.800754  -2.992339  -0.080508  -0.248659
     4  C  -14.526402  -1.493580   5.634489   1.951070   0.084186   0.110449
     5  H    0.052401   0.008744  -0.017218  -0.001303   0.000018  -0.000018
     6  C  -13.237641  -2.086242   5.528431   0.896468   0.027844   0.059133
     7  C   52.906401  -2.197665 -13.267561  -4.520654  -0.288672  -0.021187
     8  C   -2.197665  13.544259  -2.131156  -0.444430  -0.015960  -0.012901
     9  C  -13.267561  -2.131156  15.630812   1.256337   0.169056   0.307587
    10  S   -4.520654  -0.444430   1.256337  17.545489   0.383546   0.368633
    11  O   -0.288672  -0.015960   0.169056   0.383546   8.819160  -0.135407
    12  O   -0.021187  -0.012901   0.307587   0.368633  -0.135407   8.802371
    13  N    0.227203  -0.018893   0.241169  -0.423318  -0.106705  -0.094527
    14  H   -0.047891  -0.002142  -0.028708   0.102581  -0.005017   0.008702
    15  H   -0.004454  -0.000029   0.013439   0.050193   0.010862  -0.003796
    16  N    0.186140   0.049815  -0.036223   0.005540   0.000078   0.000225
    17  C    4.120881  -2.280829  -1.115760  -0.060004  -0.003645   0.000261
    18  N   -0.589157   0.466154  -0.005566  -0.020090  -0.001021  -0.000333
    19  H    0.020427   0.012980  -0.004247   0.000061   0.000000   0.000000
    20  F    0.000329  -0.000514   0.023299   0.009376   0.000124  -0.000142
    21  F    0.034417   0.003615   0.016616  -0.020400  -0.000278  -0.018306
    22  F    0.050980   0.002192  -0.007167   0.063934   0.000874  -0.024761
    23  H    0.103995  -0.100150   0.003150  -0.000010   0.000000   0.000000
    24  C   -0.313929   0.758081   0.002969  -0.005572  -0.000165  -0.000111
    25  C   -0.189291  -0.017409  -0.064311  -0.004560  -0.000056  -0.000023
    26  C    0.042704  -0.039966  -0.041057  -0.001171  -0.000003  -0.000005
    27  H    0.000719  -0.000094   0.000059   0.000000  -0.000000   0.000000
    28  C   -0.003545  -0.004800   0.004713   0.000151   0.000000   0.000001
    29  H    0.000006   0.000004   0.000001   0.000000  -0.000000  -0.000000
    30  C    0.009077   0.009311  -0.002747  -0.000067   0.000000  -0.000001
    31  H    0.000001  -0.000003   0.000001   0.000000   0.000000   0.000000
    32  C   -0.087837   0.020467   0.018226   0.000718   0.000003   0.000002
    33  H   -0.000156   0.000019   0.000006  -0.000000  -0.000000  -0.000000
    34  C    0.014378   0.132405   0.064621   0.003640   0.000032   0.000029
    35  H    0.001090  -0.000010  -0.000074  -0.000007  -0.000000  -0.000000
    36  H   -0.051168   0.025272   0.018104   0.000030   0.000000  -0.000000
    37  H   -0.009861   0.005865   0.001241  -0.000002  -0.000000  -0.000000
    38  H   -0.001608   0.016445  -0.000582  -0.000006  -0.000000  -0.000000
    39  O   -0.105299   0.201800  -0.029652   0.014080   0.000430   0.000092
    40  H    0.091981  -0.042357   0.358435  -0.007284  -0.002382   0.000560
              13         14         15         16         17         18
     1  C   -0.840723  -0.022678   0.000498   0.170822  -0.811606  -0.389713
     2  C   -0.014121   0.023715   0.013579   0.323909  -0.815483   0.317023
     3  C    0.445698  -0.012310  -0.072146   0.039070  -0.049203   0.016864
     4  C   -0.105419   0.002151   0.021889  -0.067708  -0.708790  -0.050156
     5  H    0.000051  -0.000000  -0.000000  -0.012560  -0.001207   0.000362
     6  C   -0.021336   0.003393   0.007482  -0.574183  -0.774426   0.470677
     7  C    0.227203  -0.047891  -0.004454   0.186140   4.120881  -0.589157
     8  C   -0.018893  -0.002142  -0.000029   0.049815  -2.280829   0.466154
     9  C    0.241169  -0.028708   0.013439  -0.036223  -1.115760  -0.005566
    10  S   -0.423318   0.102581   0.050193   0.005540  -0.060004  -0.020090
    11  O   -0.106705  -0.005017   0.010862   0.000078  -0.003645  -0.001021
    12  O   -0.094527   0.008702  -0.003796   0.000225   0.000261  -0.000333
    13  N    8.327803   0.230099   0.198013  -0.000346  -0.000980  -0.000676
    14  H    0.230099   0.251473  -0.012355  -0.000002  -0.000197  -0.000007
    15  H    0.198013  -0.012355   0.263009  -0.000007   0.000039   0.000000
    16  N   -0.000346  -0.000002  -0.000007   7.535476  -0.432626  -0.020250
    17  C   -0.000980  -0.000197   0.000039  -0.432626  11.416726  -0.410812
    18  N   -0.000676  -0.000007   0.000000  -0.020250  -0.410812   7.653402
    19  H    0.000002  -0.000000  -0.000000   0.262487  -0.099290   0.008479
    20  F   -0.000846  -0.000006   0.000212  -0.000343   0.000208   0.000049
    21  F    0.003248  -0.000007  -0.000225   0.000174  -0.000990   0.000033
    22  F    0.017328  -0.000701   0.002104   0.000656  -0.000171  -0.000050
    23  H    0.000000  -0.000000   0.000000   0.008830  -0.009867   0.252727
    24  C   -0.000263  -0.000003  -0.000002   0.029424  -1.901665  -0.001037
    25  C    0.000051  -0.000001  -0.000001  -0.192258   1.042739  -0.061727
    26  C   -0.000027  -0.000000  -0.000000  -0.144642   0.242918  -0.038729
    27  H   -0.000000   0.000000   0.000000   0.001168   0.014837  -0.000071
    28  C    0.000004   0.000000  -0.000000   0.003752   0.055667   0.002346
    29  H    0.000000  -0.000000  -0.000000   0.000055  -0.000234  -0.000003
    30  C   -0.000002  -0.000000   0.000000   0.014712  -0.103395   0.003640
    31  H   -0.000000   0.000000   0.000000  -0.000019  -0.000371   0.000001
    32  C   -0.000013   0.000000   0.000000  -0.008777   0.023218   0.017264
    33  H    0.000000  -0.000000  -0.000000   0.000363   0.000678  -0.000022
    34  C    0.000011   0.000001   0.000000   0.351524  -1.245430   0.123957
    35  H    0.000000   0.000000   0.000000   0.008685   0.015874  -0.002610
    36  H    0.000011   0.000000   0.000000  -0.036893   0.317743  -0.038602
    37  H    0.000000   0.000000   0.000000   0.000833   0.007657  -0.002884
    38  H    0.000000   0.000000  -0.000000   0.024342  -0.124565   0.013127
    39  O   -0.000092   0.000010   0.000001  -0.015029   0.122334  -0.139120
    40  H    0.000697  -0.000046  -0.000007  -0.000775   0.003301   0.000089
              19         20         21         22         23         24
     1  C    0.004721   0.024365  -0.102939   0.027642   0.002430  -0.101130
     2  C    0.036237  -0.240236   0.190932  -0.140113   0.001320   0.311828
     3  C    0.004643  -0.041056   0.119048   0.161967   0.000075   0.024208
     4  C    0.000603   0.206935  -0.064417  -0.015276   0.002697  -0.156343
     5  H    0.004635   0.005763  -0.000302   0.000316  -0.000000   0.000250
     6  C   -0.047262   0.129848  -0.038733  -0.039368  -0.008167  -0.567440
     7  C    0.020427   0.000329   0.034417   0.050980   0.103995  -0.313929
     8  C    0.012980  -0.000514   0.003615   0.002192  -0.100150   0.758081
     9  C   -0.004247   0.023299   0.016616  -0.007167   0.003150   0.002969
    10  S    0.000061   0.009376  -0.020400   0.063934  -0.000010  -0.005572
    11  O    0.000000   0.000124  -0.000278   0.000874   0.000000  -0.000165
    12  O    0.000000  -0.000142  -0.018306  -0.024761   0.000000  -0.000111
    13  N    0.000002  -0.000846   0.003248   0.017328   0.000000  -0.000263
    14  H   -0.000000  -0.000006  -0.000007  -0.000701  -0.000000  -0.000003
    15  H   -0.000000   0.000212  -0.000225   0.002104   0.000000  -0.000002
    16  N    0.262487  -0.000343   0.000174   0.000656   0.008830   0.029424
    17  C   -0.099290   0.000208  -0.000990  -0.000171  -0.009867  -1.901665
    18  N    0.008479   0.000049   0.000033  -0.000050   0.252727  -0.001037
    19  H    0.286064  -0.000021   0.000001   0.000003  -0.000041  -0.001530
    20  F   -0.000021   9.289676  -0.046849  -0.034763   0.000000  -0.000076
    21  F    0.000001  -0.046849   9.215141  -0.045771  -0.000000   0.000021
    22  F    0.000003  -0.034763  -0.045771   9.306733  -0.000000   0.000088
    23  H   -0.000041   0.000000  -0.000000  -0.000000   0.238248  -0.028988
    24  C   -0.001530  -0.000076   0.000021   0.000088  -0.028988   9.945348
    25  C   -0.045313   0.000362   0.000066  -0.000028   0.001849  -2.781957
    26  C   -0.018619   0.000009   0.000001   0.000004   0.001737   1.835287
    27  H   -0.000011  -0.000000   0.000000   0.000000  -0.000001  -0.045460
    28  C   -0.000375   0.000015   0.000000  -0.000002   0.000307  -0.409671
    29  H   -0.000000   0.000000   0.000000  -0.000000  -0.000000  -0.003665
    30  C    0.002650  -0.000108  -0.000002   0.000003  -0.000029   0.107310
    31  H   -0.000002  -0.000000  -0.000000   0.000000   0.000000   0.001679
    32  C   -0.009198  -0.000214  -0.000013  -0.000043   0.000141  -0.487242
    33  H    0.000010   0.000000   0.000000  -0.000000   0.000000  -0.003025
    34  C    0.099523   0.000161  -0.000057   0.000065  -0.001090  -0.259724
    35  H    0.000712   0.000002   0.000000  -0.000000  -0.000001   0.008732
    36  H    0.000541   0.000002   0.000000  -0.000000   0.001331  -0.157406
    37  H   -0.000026  -0.000000  -0.000000  -0.000000   0.002018   0.386830
    38  H    0.000085   0.000000   0.000000  -0.000000  -0.000313   0.422172
    39  O    0.000070   0.000001  -0.000006  -0.000004   0.008134  -0.027723
    40  H    0.000002   0.000012   0.000006   0.000023  -0.000005  -0.000143
              25         26         27         28         29         30
     1  C   -0.148443  -0.048290   0.000023   0.006471   0.000001  -0.002384
     2  C    0.047998   0.028239  -0.000137  -0.013977   0.000001   0.027375
     3  C    0.007778   0.002424  -0.000002  -0.001252  -0.000000   0.002325
     4  C    0.033172  -0.141378  -0.000343   0.020936   0.000057  -0.023210
     5  H    0.002584  -0.000488   0.000000   0.000200  -0.000000  -0.000359
     6  C    0.251327  -0.074981  -0.000162   0.018070  -0.000076   0.001868
     7  C   -0.189291   0.042704   0.000719  -0.003545   0.000006   0.009077
     8  C   -0.017409  -0.039966  -0.000094  -0.004800   0.000004   0.009311
     9  C   -0.064311  -0.041057   0.000059   0.004713   0.000001  -0.002747
    10  S   -0.004560  -0.001171   0.000000   0.000151   0.000000  -0.000067
    11  O   -0.000056  -0.000003  -0.000000   0.000000  -0.000000   0.000000
    12  O   -0.000023  -0.000005   0.000000   0.000001  -0.000000  -0.000001
    13  N    0.000051  -0.000027  -0.000000   0.000004   0.000000  -0.000002
    14  H   -0.000001  -0.000000   0.000000   0.000000  -0.000000  -0.000000
    15  H   -0.000001  -0.000000   0.000000  -0.000000  -0.000000   0.000000
    16  N   -0.192258  -0.144642   0.001168   0.003752   0.000055   0.014712
    17  C    1.042739   0.242918   0.014837   0.055667  -0.000234  -0.103395
    18  N   -0.061727  -0.038729  -0.000071   0.002346  -0.000003   0.003640
    19  H   -0.045313  -0.018619  -0.000011  -0.000375  -0.000000   0.002650
    20  F    0.000362   0.000009  -0.000000   0.000015   0.000000  -0.000108
    21  F    0.000066   0.000001   0.000000   0.000000   0.000000  -0.000002
    22  F   -0.000028   0.000004   0.000000  -0.000002  -0.000000   0.000003
    23  H    0.001849   0.001737  -0.000001   0.000307  -0.000000  -0.000029
    24  C   -2.781957   1.835287  -0.045460  -0.409671  -0.003665   0.107310
    25  C   11.683699  -2.615146   0.072574   0.339527   0.044833  -0.795379
    26  C   -2.615146  12.406941   0.194175  -0.578338  -0.056238   0.271479
    27  H    0.072574   0.194175   0.456684   0.012060  -0.003174   0.005653
    28  C    0.339527  -0.578338   0.012060   5.872674   0.356680   0.450903
    29  H    0.044833  -0.056238  -0.003174   0.356680   0.448470  -0.034204
    30  C   -0.795379   0.271479   0.005653   0.450903  -0.034204   5.379576
    31  H   -0.013726   0.018483  -0.000112  -0.032352  -0.003168   0.347230
    32  C    0.491378  -0.742969  -0.012006   0.109147   0.014137   0.245325
    33  H    0.029360  -0.012782   0.000013   0.011925  -0.000116  -0.027136
    34  C   -1.589736  -4.005753   0.056359   0.054818  -0.010976   0.389002
    35  H    0.107500   0.016780  -0.000122  -0.001040   0.000014  -0.014461
    36  H    0.111996  -0.133820  -0.000017   0.002155   0.000001  -0.003706
    37  H   -0.122429   0.091056   0.002642   0.008667  -0.000005   0.000903
    38  H   -0.072521  -0.059409   0.000057   0.000578   0.000002   0.000955
    39  O    0.002605   0.000953  -0.000001   0.000056  -0.000000   0.000001
    40  H    0.000018   0.000001   0.000000   0.000001  -0.000000  -0.000000
              31         32         33         34         35         36
     1  C    0.000001   0.013572  -0.000028   0.123219   0.000430   0.010701
     2  C   -0.000034  -0.015307   0.000334  -0.023206   0.002798   0.005173
     3  C   -0.000001  -0.009104   0.000006  -0.000417   0.000023   0.000106
     4  C   -0.000305   0.156873   0.002676  -0.085575   0.028653   0.051029
     5  H    0.000000   0.001880   0.000000  -0.003544   0.000010  -0.000006
     6  C    0.000340  -0.044848  -0.003041   0.189693  -0.043779   0.017672
     7  C    0.000001  -0.087837  -0.000156   0.014378   0.001090  -0.051168
     8  C   -0.000003   0.020467   0.000019   0.132405  -0.000010   0.025272
     9  C    0.000001   0.018226   0.000006   0.064621  -0.000074   0.018104
    10  S    0.000000   0.000718  -0.000000   0.003640  -0.000007   0.000030
    11  O    0.000000   0.000003  -0.000000   0.000032  -0.000000   0.000000
    12  O    0.000000   0.000002  -0.000000   0.000029  -0.000000  -0.000000
    13  N   -0.000000  -0.000013   0.000000   0.000011   0.000000   0.000011
    14  H    0.000000   0.000000  -0.000000   0.000001   0.000000   0.000000
    15  H    0.000000   0.000000  -0.000000   0.000000   0.000000   0.000000
    16  N   -0.000019  -0.008777   0.000363   0.351524   0.008685  -0.036893
    17  C   -0.000371   0.023218   0.000678  -1.245430   0.015874   0.317743
    18  N    0.000001   0.017264  -0.000022   0.123957  -0.002610  -0.038602
    19  H   -0.000002  -0.009198   0.000010   0.099523   0.000712   0.000541
    20  F   -0.000000  -0.000214   0.000000   0.000161   0.000002   0.000002
    21  F   -0.000000  -0.000013   0.000000  -0.000057   0.000000   0.000000
    22  F    0.000000  -0.000043  -0.000000   0.000065  -0.000000  -0.000000
    23  H    0.000000   0.000141   0.000000  -0.001090  -0.000001   0.001331
    24  C    0.001679  -0.487242  -0.003025  -0.259724   0.008732  -0.157406
    25  C   -0.013726   0.491378   0.029360  -1.589736   0.107500   0.111996
    26  C    0.018483  -0.742969  -0.012782  -4.005753   0.016780  -0.133820
    27  H   -0.000112  -0.012006   0.000013   0.056359  -0.000122  -0.000017
    28  C   -0.032352   0.109147   0.011925   0.054818  -0.001040   0.002155
    29  H   -0.003168   0.014137  -0.000116  -0.010976   0.000014   0.000001
    30  C    0.347230   0.245325  -0.027136   0.389002  -0.014461  -0.003706
    31  H    0.450293  -0.037421  -0.003175   0.027109  -0.000123   0.000000
    32  C   -0.037421   6.649625   0.341898  -0.539006   0.019858   0.018255
    33  H   -0.003175   0.341898   0.447911  -0.030948  -0.002931   0.000000
    34  C    0.027109  -0.539006  -0.030948  12.137438   0.135396   0.080980
    35  H   -0.000123   0.019858  -0.002931   0.135396   0.456705   0.000070
    36  H    0.000000   0.018255   0.000000   0.080980   0.000070   0.486202
    37  H   -0.000000  -0.001795   0.000002  -0.062384  -0.000010  -0.002635
    38  H   -0.000000   0.003056  -0.000002   0.079957   0.000726   0.003791
    39  O   -0.000000  -0.000014  -0.000000  -0.002443  -0.000000   0.000118
    40  H    0.000000  -0.000001  -0.000000  -0.000032  -0.000000  -0.000002
              37         38         39         40
     1  C    0.000044  -0.000059   0.101476  -0.106108
     2  C   -0.000575   0.001314  -0.055517   0.006212
     3  C   -0.000028   0.000043  -0.005781   0.007097
     4  C    0.000915   0.006859   0.022996  -0.012672
     5  H    0.000000  -0.000001   0.000015   0.000010
     6  C    0.006434  -0.008876   0.043833  -0.008737
     7  C   -0.009861  -0.001608  -0.105299   0.091981
     8  C    0.005865   0.016445   0.201800  -0.042357
     9  C    0.001241  -0.000582  -0.029652   0.358435
    10  S   -0.000002  -0.000006   0.014080  -0.007284
    11  O   -0.000000  -0.000000   0.000430  -0.002382
    12  O   -0.000000  -0.000000   0.000092   0.000560
    13  N    0.000000   0.000000  -0.000092   0.000697
    14  H    0.000000   0.000000   0.000010  -0.000046
    15  H    0.000000  -0.000000   0.000001  -0.000007
    16  N    0.000833   0.024342  -0.015029  -0.000775
    17  C    0.007657  -0.124565   0.122334   0.003301
    18  N   -0.002884   0.013127  -0.139120   0.000089
    19  H   -0.000026   0.000085   0.000070   0.000002
    20  F   -0.000000   0.000000   0.000001   0.000012
    21  F   -0.000000   0.000000  -0.000006   0.000006
    22  F   -0.000000  -0.000000  -0.000004   0.000023
    23  H    0.002018  -0.000313   0.008134  -0.000005
    24  C    0.386830   0.422172  -0.027723  -0.000143
    25  C   -0.122429  -0.072521   0.002605   0.000018
    26  C    0.091056  -0.059409   0.000953   0.000001
    27  H    0.002642   0.000057  -0.000001   0.000000
    28  C    0.008667   0.000578   0.000056   0.000001
    29  H   -0.000005   0.000002  -0.000000  -0.000000
    30  C    0.000903   0.000955   0.000001  -0.000000
    31  H   -0.000000  -0.000000  -0.000000   0.000000
    32  C   -0.001795   0.003056  -0.000014  -0.000001
    33  H    0.000002  -0.000002  -0.000000  -0.000000
    34  C   -0.062384   0.079957  -0.002443  -0.000032
[...]
 4,-0.00087167,0.00385489,-0.00176608,-0.00010078,0.00079145,-0.0001503
 9,-0.00006939,-0.00002423,-0.00032739,0.00008740,-0.00007248,-0.000134
 01,-0.00003832,-0.00003072,-0.00001349,0.00001284,0.00000190,-0.000028
 13,0.00003771,0.00004235,0.00002803,-0.00000575,-0.00000680,0.00000009
 ,-0.00004987,0.00001647,-0.00006118,-0.00000450,0.00000200,0.00001485,
 0.00009209,-0.00000863,0.00006323,-0.00001175,0.00001868,0.00004308,-0
 .04753287,0.26420273,-0.00090870,-0.00025750,0.00020293,0.00042160,0.0
 0053350,0.00069440,0.00004743,0.00001142,0.00003394,0.00055497,0.00033
 932,-0.00078169,0.00003585,-0.00008463,0.00001972,0.00008085,-0.001055
 62,0.00410476,-0.00095108,0.00195797,0.00097446,0.00104795,-0.00060811
 ,0.00267440,0.00041372,-0.00007208,-0.00112117,-0.00005319,-0.00010761
 ,-0.00015533,0.00002926,0.00002466,0.00002309,-0.00001351,0.00002189,0
 .00004443,0.00000991,-0.00000829,0.00007892,-0.00000789,0.00000413,-0.
 00000575,0.00000745,0.00000610,-0.00001055,0.00720778,-0.01258909,0.00
 470079,-0.02423990,0.10142551,-0.11052805,-0.00095317,-0.01382701,0.00
 610736,-0.00012267,-0.00004288,0.00020579,-0.00001172,-0.00001059,-0.0
 0000261,-0.00001329,-0.00000041,-0.00001029,-0.00001613,-0.00000357,0.
 00000699,0.00008175,-0.00025928,0.00003621,-0.00738903,0.02731498,-0.0
 1784330,0.00148955,0.00133246,0.00123871,-0.00037798,-0.00010336,-0.00
 033129,0.00017451,-0.00016232,-0.00014425,-0.00041401,-0.00029125,-0.0
 0005597,-0.00001137,-0.00001997,-0.00002033,0.00028978,-0.00035888,0.0
 0012440,0.00002140,-0.00001463,-0.00002204,0.00017195,0.00049862,0.000
 08405,-0.00001077,-0.00000734,-0.00002027,-0.00088561,-0.00022150,-0.0
 0010770,0.00004905,-0.00005562,-0.00003656,0.02507801,-0.10220535,0.11
 483181,0.00003265,0.00003133,0.00005979,-0.00004151,-0.00002337,-0.000
 06758,0.00003150,-0.00000800,-0.00001526,-0.00006858,0.00008311,0.0000
 7845,0.00000211,-0.00000352,0.00000120,-0.00000201,-0.00037541,-0.0005
 7931,0.00018599,0.00004458,-0.00005962,0.00029361,-0.00001774,0.000191
 42,0.00001564,0.00000838,-0.00001690,-0.00000244,-0.00002966,-0.000080
 13,0.00001344,0.00001007,0.00001672,-0.00001062,0.00000955,0.00001775,
 0.00000091,-0.00000533,0.00002741,-0.00000309,0.00000167,-0.00000254,0
 .00000187,0.00000142,-0.00000294,0.00079255,-0.00045784,0.00031695,-0.
 00171127,0.00032028,-0.00017975,0.00069356,-0.00045785,-0.00105153,0.0
 0007701,0.00004304,-0.00024511,-0.00000996,-0.00000170,0.00000145,-0.0
 0000756,0.00000518,0.00000244,-0.00000645,-0.00000343,0.00001104,0.000
 01494,0.00045310,0.00033220,-0.27970992,0.07136667,0.06553806,-0.01962
 283,0.00455347,0.00303702,0.00147420,0.00213602,-0.00035544,0.00000295
 ,-0.00039765,0.00063991,-0.00030297,-0.00023436,-0.00091117,-0.0000115
 5,-0.00003538,0.00004557,0.00020956,-0.00036453,0.00018347,-0.00005242
 ,-0.00006045,0.00014442,-0.00018766,0.00063652,-0.00093633,-0.00020263
 ,-0.00019188,-0.00010543,-0.00151490,-0.00326179,0.00007223,0.00000676
 ,-0.00003842,0.00031869,0.00036917,0.00003075,0.00023533,0.30304914,-0
 .00001431,-0.00003318,-0.00009376,0.00007615,-0.00001227,0.00006360,-0
 .00005288,0.00000117,0.00001593,0.00006723,-0.00011636,-0.00017533,-0.
 00000727,0.00001511,-0.00000599,0.00023555,0.00063929,0.00020951,-0.00
 006843,-0.00002985,-0.00005021,0.00005969,-0.00005510,0.00003622,-0.00
 003740,0.00000150,0.00005512,0.00000563,0.00003953,0.00011661,-0.00001
 927,-0.00001386,-0.00002300,0.00001552,-0.00001421,-0.00002744,-0.0000
 0100,0.00000774,-0.00003717,0.00000420,-0.00000233,0.00000358,-0.00000
 286,-0.00000220,0.00000401,-0.00003665,0.00053616,-0.00186258,0.002477
 86,-0.00251515,0.00041084,0.00089833,-0.00003707,-0.00048132,0.0000709
 6,-0.00021867,0.00002937,0.00001640,0.00000526,-0.00000103,0.00001488,
 -0.00000836,-0.00000254,0.00001090,0.00000614,-0.00001736,-0.00037589,
 -0.00033029,-0.00038168,0.07211951,-0.07119240,-0.01814808,-0.02287990
 ,0.00594210,0.00617748,-0.00084933,0.00031838,-0.00065450,0.00048703,-
 0.00008782,-0.00003082,0.00029933,0.00060295,0.00021114,0.00006270,0.0
 0000364,0.00002740,-0.00056715,0.00007108,-0.00013638,0.00002933,-0.00
 002254,-0.00004346,-0.00031591,-0.00007049,-0.00093688,-0.00014675,-0.
 00014694,-0.00013530,-0.00109165,-0.00233641,-0.00034663,-0.00015020,0
 .00013760,0.00012279,-0.00037273,0.00025088,-0.00025034,-0.07475465,0.
 07463354,-0.00010169,-0.00014485,-0.00027182,0.00032110,0.00015460,0.0
 0015627,-0.00020809,-0.00001447,0.00005678,0.00012331,-0.00032466,-0.0
 0084375,-0.00000950,-0.00000247,0.00000707,0.00193026,0.00042512,0.001
 01541,-0.00024286,-0.00003741,-0.00007535,0.00034598,0.00001264,-0.000
 23208,-0.00009518,-0.00001557,0.00007509,0.00001176,0.00013555,0.00039
 269,-0.00006521,-0.00004867,-0.00008426,0.00005398,-0.00005090,-0.0000
 9206,-0.00000347,0.00002725,-0.00012438,0.00001403,-0.00000878,0.00001
 140,-0.00000924,-0.00000827,0.00001402,-0.00092015,-0.00181659,-0.0087
 1243,0.03232615,-0.01139378,-0.00882568,0.00146335,0.00046346,0.001183
 66,-0.00026783,-0.00008724,0.00007121,0.00006143,0.00001893,-0.0000062
 4,0.00006851,-0.00004171,-0.00001591,0.00004945,0.00002992,-0.00007604
 ,-0.00083725,-0.00041397,-0.00013576,0.06150730,-0.01636696,-0.0646354
 2,-0.01231681,0.00292586,0.00246244,-0.00000368,0.00052240,0.00021679,
 0.00015097,0.00003837,0.00014642,0.00020059,0.00007179,-0.00016861,0.0
 0000886,-0.00001777,-0.00000005,-0.00021831,0.00017291,-0.00007154,-0.
 00003630,-0.00003063,0.00007933,-0.00029042,-0.00025527,-0.00085355,-0
 .00011906,-0.00011422,-0.00008670,-0.00101518,-0.00169695,-0.00014454,
 -0.00005249,-0.00014155,0.00038608,-0.00030379,0.00051343,0.00153721,-
 0.06758910,0.02481707,0.07357123,-0.00007562,-0.00003568,-0.00003545,0
 .00006978,0.00006121,0.00007511,-0.00002825,-0.00000457,0.00001821,0.0
 0005914,-0.00000535,-0.00015136,0.00000185,-0.00000635,0.00000118,0.00
 011166,0.00003347,0.00042826,-0.00005544,0.00007678,0.00003476,-0.0000
 1950,0.00001523,-0.00000206,0.00001006,-0.00000899,-0.00003910,-0.0000
 0037,0.00001590,0.00005768,-0.00001021,-0.00000684,-0.00001228,0.00000
 825,-0.00000751,-0.00001307,0.00000020,0.00000376,-0.00001642,0.000001
 29,-0.00000106,0.00000234,-0.00000088,-0.00000073,0.00000150,0.0006401
 4,-0.00109613,0.00012436,-0.00127594,-0.00077914,0.00135656,-0.0000140
 4,0.00042198,-0.00051253,-0.00004715,-0.00015080,-0.00002694,0.0000090
 5,0.00000234,-0.00000103,0.00001156,-0.00000583,-0.00000524,0.00000489
 ,0.00000358,-0.00000938,-0.00007652,0.00010003,0.00003131,-0.06288275,
 0.05100302,-0.02447209,0.00391582,-0.01959738,0.00983637,-0.00267932,-
 0.00200305,-0.00146902,0.00003280,-0.00008643,0.00017336,0.00078306,-0
 .00074569,-0.00013250,-0.00018729,-0.00020784,-0.00006367,-0.00019021,
 0.00000281,-0.00005108,-0.00001616,0.00001994,-0.00003864,0.00017472,-
 0.00016341,0.00025457,0.00001020,0.00005787,0.00002481,0.00101266,-0.0
 0118268,0.00037659,-0.00014419,0.00043154,-0.00018093,0.00083652,-0.00
 031762,-0.00002984,-0.00381599,0.02481099,-0.01382737,0.06383406,0.000
 08661,0.00001824,-0.00002595,-0.00003914,-0.00004958,-0.00006350,-0.00
 001104,-0.00000582,0.00000494,-0.00004880,0.00001261,0.00007007,-0.000
 00372,0.00000876,-0.00000375,-0.00009256,0.00010754,-0.00016223,0.0000
 7290,-0.00015699,-0.00015277,0.00006812,0.00015618,-0.00011417,-0.0000
 4026,-0.00000161,0.00011435,0.00000630,0.00001399,0.00002761,-0.000004
 43,-0.00000312,-0.00000437,0.00000207,-0.00000316,-0.00000750,-0.00000
 144,0.00000301,-0.00001177,0.00000128,-0.00000118,0.00000055,-0.000001
 00,-0.00000120,0.00000108,-0.00061765,0.00070931,-0.00026517,-0.000816
 22,0.00233218,-0.00231873,0.00028186,0.00142967,-0.00056951,0.00004303
 ,-0.00002241,0.00008040,0.00000391,0.00000270,0.00000016,0.00000376,-0
 .00000074,0.00000029,0.00000171,0.00000068,-0.00000184,-0.00000604,0.0
 0003399,0.00033502,0.04781314,-0.25980650,0.10350710,0.00505642,-0.019
 46495,0.00841613,-0.00399567,-0.00163492,-0.00111977,-0.00002955,0.000
 19744,0.00011851,0.00091542,-0.00082120,0.00008022,-0.00022626,-0.0002
 6857,-0.00014195,-0.00021196,0.00017617,-0.00005855,-0.00009361,0.0000
 2385,0.00003428,-0.00002228,-0.00017319,-0.00034228,-0.00003114,0.0000
 0729,0.00000779,0.00230214,0.00138519,0.00054961,-0.00066695,0.0003931
 7,0.00000674,-0.00007226,0.00067946,-0.00083755,0.00093034,-0.00597031
 ,0.00269466,-0.05062247,0.28065459,0.00002780,0.00001193,0.00002506,-0
 .00002639,0.00001149,-0.00006432,-0.00000729,0.00000260,0.00000258,-0.
 00005143,0.00007452,0.00010766,0.00000247,-0.00000909,0.00000304,-0.00
 012327,-0.00047530,0.00008942,-0.00000061,0.00014449,0.00003346,0.0001
 2425,-0.00044359,-0.00003517,-0.00000252,-0.00000963,0.00001413,-0.000
 00059,-0.00000064,-0.00001495,0.00000221,-0.00000088,0.00000082,-0.000
 00061,-0.00000174,0.00000216,-0.00000070,-0.00000208,0.00000664,-0.000
 00084,0.00000080,-0.00000062,0.00000038,0.00000049,-0.00000002,-0.0006
 9690,0.00034617,0.00282599,-0.00801919,0.03133078,-0.01995928,0.000786
 38,0.00061135,0.00241367,0.00017062,0.00009781,-0.00019944,0.00000123,
 -0.00000125,-0.00000033,0.00000386,-0.00000327,-0.00000115,0.00000271,
 -0.00000124,-0.00000108,-0.00027981,-0.00004054,-0.00008956,-0.0220911
 5,0.10164209,-0.09686375,0.00243992,-0.01073764,0.00460564,-0.00200791
 ,-0.00124893,-0.00008775,-0.00010118,0.00007803,0.00005233,-0.00006960
 ,-0.00066479,-0.00013350,-0.00006597,-0.00014126,-0.00014941,0.0001492
 5,-0.00019377,0.00011504,-0.00001867,0.00000062,-0.00001455,0.00010800
 ,0.00013477,0.00008680,0.00000864,0.00001525,-0.00003475,0.00003942,-0
 .00093534,0.00019829,0.00014943,0.00024517,-0.00003681,0.00034836,-0.0
 0158640,-0.00580464,0.00088049,-0.00847666,0.00401242,0.02828964,-0.10
 994174,0.10890253,-0.00433655,-0.00015477,0.00125490,-0.00089254,0.000
 77384,0.00356633,0.00417623,0.00020095,-0.00183174,-0.00049430,-0.0009
 9330,-0.00327359,-0.00078506,0.00007402,0.00058037,-0.00185933,0.00331
 288,0.01437760,-0.05535841,-0.03023033,-0.00205338,-0.41064844,-0.2051
 1299,-0.11799112,0.00190078,-0.00309798,-0.00903192,-0.00057033,-0.001
 66785,-0.00449374,0.00078507,0.00074739,0.00121134,-0.00072265,0.00087
 519,0.00136272,0.00015255,-0.00041239,0.00148894,-0.00017117,0.0000979
 9,-0.00011209,0.00010928,0.00011027,-0.00021261,-0.00187603,-0.0023187
 1,-0.00666167,0.01096720,0.00353974,0.00551337,-0.00470369,-0.02627762
 ,-0.05952337,0.00061794,-0.00057889,0.00104779,-0.00121059,-0.00042057
 ,0.00004969,-0.00146427,0.00073731,0.00045136,-0.00078530,-0.00029179,
 0.00116884,-0.00178541,-0.00162867,0.00005958,-0.00087007,-0.00119802,
 0.00077100,0.00060100,0.00068593,-0.00060344,-0.00028930,-0.00002873,-
 0.00010809,0.00002349,0.00000961,-0.00000813,0.00002077,-0.00005035,0.
 00004268,-0.00002744,-0.00006139,-0.00000818,-0.00011599,-0.00011391,-
 0.00004830,-0.00001392,-0.00001912,-0.00001345,-0.00008740,0.00003911,
 0.00002949,-0.00006369,-0.00003100,-0.00001760,-0.00004626,-0.00037710
 ,-0.00005799,0.00001775,0.00001433,-0.00000340,-0.00303170,-0.00224208
 ,-0.00104431,0.00001848,-0.00001951,-0.00011250,-0.00000804,0.00006645
 ,0.00002812,0.47319321,-0.00185190,-0.00042397,0.00157794,0.00011881,0
 .00044693,0.00134789,0.00140154,0.00017184,-0.00057634,0.00014943,-0.0
 0175154,-0.00080710,-0.00028205,0.00001626,0.00021897,-0.00131636,0.00
 338367,0.00303307,-0.02542407,0.00806874,-0.00138676,-0.20662556,-0.20
 499614,-0.08359573,0.00170342,-0.00173748,-0.00498095,-0.00036264,-0.0
 0076340,-0.00194152,0.00038264,0.00032467,0.00045470,-0.00031728,0.000
 37355,0.00058644,0.00007457,-0.00013879,0.00066052,-0.00006670,0.00003
 348,-0.00005174,0.00003872,0.00004110,-0.00009788,-0.00246899,-0.00193
 763,-0.00213609,0.00601658,0.01043412,-0.00223378,-0.03321713,-0.01280
 773,-0.05464433,-0.00003920,-0.00036776,0.00095848,-0.00041803,-0.0001
 2701,0.00003379,-0.00053436,0.00027491,0.00015100,-0.00027164,-0.00011
 100,0.00038360,-0.00004037,-0.00455000,0.00541451,-0.00195213,-0.00189
 291,0.00037234,0.00077299,0.00050573,-0.00072442,-0.00028413,-0.000089
 92,-0.00008582,0.00002816,0.00000751,-0.00002796,-0.00000876,-0.000061
 64,0.00006736,-0.00002794,-0.00005516,-0.00000739,-0.00008622,-0.00010
 954,-0.00004618,-0.00001026,-0.00001594,-0.00001500,-0.00008013,0.0000
 4919,0.00003300,-0.00005444,-0.00002726,-0.00001989,-0.00011561,-0.000
 33245,-0.00000047,0.00001673,0.00002321,-0.00001707,-0.00147308,-0.001
 42261,-0.00000972,0.00005580,0.00000328,0.00001144,-0.00002509,0.00003
 790,0.00016645,0.26611084,0.20891656,-0.00049086,0.00064325,0.00182238
 ,0.00083610,0.00016059,-0.00009451,-0.00030083,0.00003688,0.00027479,0
 .00056239,0.00060457,0.00114201,0.00025271,-0.00002909,-0.00009806,0.0
 0263524,-0.00135898,-0.00653477,0.00844961,0.00507104,0.02045813,-0.13
 305003,-0.09274618,-0.14968058,0.00136197,0.00008559,-0.00355152,-0.00
 039676,-0.00003035,0.00011506,0.00011089,-0.00006458,-0.00018564,0.000
 06736,-0.00002814,0.00000177,0.00003082,0.00003992,-0.00001217,-0.0000
 0804,-0.00000876,0.00000993,-0.00000298,0.00000143,0.00000612,-0.00257
 088,-0.00078285,0.00201034,0.01388665,0.00376649,-0.00185105,-0.059484
 25,-0.05067294,-0.04590634,-0.00052111,0.00010546,0.00070204,0.0001606
 6,0.00005606,-0.00001256,0.00012188,-0.00008270,-0.00005237,0.00004324
 ,0.00001464,-0.00008922,-0.00192785,0.00126691,0.00474591,-0.00230658,
 -0.00224248,0.00051880,0.00063791,0.00067568,-0.00105766,-0.00031144,-
 0.00009812,-0.00008640,0.00003004,0.00000891,-0.00001492,0.00005570,-0
 .00002141,0.00007655,-0.00002356,-0.00005826,-0.00001112,-0.00014840,-
 0.00006901,-0.00007112,-0.00001112,-0.00001636,-0.00001670,-0.00013284
 ,-0.00002794,0.00004488,-0.00006144,-0.00003076,-0.00001665,-0.0000629
 0,-0.00037628,-0.00001392,0.00002161,0.00002840,-0.00003376,-0.0029415
 5,-0.00234064,-0.00071362,0.00004338,0.00002285,0.00008398,0.00000642,
 0.00009359,-0.00000237,0.17391165,0.13752646,0.17679997,-0.01596820,-0
 .00852187,-0.00953395,-0.00223857,-0.00070197,0.00356504,0.00021381,-0
 .00044187,-0.00082160,0.00042639,0.00044441,0.00031814,-0.00002203,0.0
 0005456,-0.00009533,0.00041739,-0.00102120,0.00216709,0.00784277,0.000
 48270,-0.00004242,-0.00190241,0.00037548,0.00000403,-0.25796094,-0.090
 16955,-0.10640545,-0.00407936,-0.00055308,-0.00042921,0.00189023,-0.00
 064767,-0.00269025,0.00077248,-0.00023568,0.00009730,0.00015115,0.0004
 7558,-0.00054033,0.00003101,-0.00007748,0.00010064,-0.00008198,0.00001
 350,0.00004218,0.00052805,0.00021631,0.00011331,-0.00002428,-0.0000556
 7,-0.00009123,0.00008591,-0.00005078,-0.00022378,-0.00002683,0.0000933
 1,0.00011605,-0.00052043,-0.00017694,-0.00002161,-0.00010632,0.0001452
 2,0.00008034,-0.00000229,0.00000461,0.00013243,0.00006146,-0.00006652,
 0.00000466,-0.00002011,-0.00000592,-0.00000643,-0.00000207,-0.00000398
 ,-0.00000775,-0.00000005,-0.00000235,0.00000064,-0.00000008,0.00000021
 ,-0.00000005,0.00000093,0.00000132,0.00000028,0.00000017,0.00000025,0.
 00000012,-0.00000071,0.00000142,-0.00000019,0.00000004,0.00000013,-0.0
 0000003,-0.00000072,-0.00000201,0.00000044,0.00000027,0.00000013,-0.00
 000040,0.00000028,0.00000174,0.00000165,-0.00000039,0.00000070,-0.0000
 0091,-0.00000389,-0.00000224,0.00000606,-0.00000167,0.00000156,0.00000
 845,0.00000017,-0.00000103,0.00000144,-0.00036588,0.00048383,0.0015271
 7,0.27090667,-0.00073591,0.00471832,-0.00046891,-0.00076318,0.00461411
 ,-0.00174555,-0.00010756,0.00056816,-0.00026721,0.00025429,-0.00083369
 ,0.00035648,0.00001718,-0.00028147,0.00010971,-0.00050863,0.00563511,-
 0.00281640,-0.00717534,0.00202047,-0.00577069,-0.00015153,-0.00424606,
 0.00115298,-0.09219361,-0.08186086,-0.05010467,0.00067164,-0.00274285,
 0.00089273,0.00018457,-0.00090993,-0.00181176,0.00058461,-0.00016550,-
 0.00067714,-0.00012513,-0.00016596,0.00090847,-0.00002984,0.00001812,0
 .00000673,0.00006729,0.00000748,0.00000355,-0.00038713,-0.00017767,0.0
 0017294,0.00015119,0.00000737,0.00000155,-0.00001206,0.00006578,-0.000
 11238,0.00013002,-0.00019843,0.00001585,0.00032442,-0.00003896,0.00006
 543,-0.00001996,0.00003299,0.00010018,0.00002544,-0.00000957,0.0000223
 0,-0.00006190,0.00020486,-0.00010948,-0.00000547,-0.00000999,0.0000026
 4,0.00000510,-0.00000185,-0.00000386,0.00000026,0.00000311,-0.00000195
 ,0.00000086,0.,-0.00000062,-0.00000268,-0.00000141,0.00000038,-0.00000
 027,-0.00000052,-0.00000007,0.00000052,-0.00000296,0.00000102,0.000000
 05,-0.00000019,-0.00000031,0.00000138,0.00000292,0.00000050,-0.0000001
 7,-0.00000005,-0.00000009,-0.00000017,-0.00000270,-0.00000221,0.000000
 23,0.00000017,0.00000026,-0.00001245,-0.00001271,-0.00000606,0.0000016
 4,0.00000045,-0.00000273,0.00000022,0.00000152,0.00000096,-0.00006878,
 0.00060719,0.00087713,0.09994085,0.07315522,0.01210884,0.00519988,0.01
 157345,0.00358815,-0.00163832,-0.00135083,0.00007554,0.00015262,0.0010
 0201,0.00038969,0.00026141,-0.00077552,-0.00009894,0.00010702,0.000036
 67,0.00227376,-0.00297690,-0.00366981,-0.02340868,-0.01033370,-0.00744
 400,-0.00119273,0.00084236,-0.00077030,-0.10750432,-0.05141756,-0.1129
 6644,0.00250354,0.00140834,-0.00161617,0.00005745,-0.00086529,-0.00255
 290,-0.00054314,0.00010706,0.00059633,-0.00013394,-0.00020630,-0.00034
 142,-0.00004057,0.00004677,0.00003377,0.00002226,-0.00002682,0.0000980
 1,-0.00138249,-0.00064232,-0.00026060,-0.00046695,0.00006251,0.0000567
 4,-0.00008639,0.00013328,0.00082341,0.00008719,0.00004411,-0.00038810,
 0.00047139,0.00027194,-0.00000584,0.00013994,-0.00017717,-0.00014528,0
 .00000560,0.00001378,-0.00013533,0.00007439,-0.00001943,0.00006867,0.0
 0006327,0.00000988,-0.00000169,0.00000312,-0.00000209,0.00000692,0.000
 00300,0.00001211,0.00000071,0.00000014,-0.00000068,0.00000049,-0.00000
 677,-0.00000281,-0.00000367,-0.00000006,-0.00000036,0.00000006,0.00000
 394,-0.00000726,0.00000290,-0.00000017,-0.00000043,0.00000017,0.000006
 24,0.00000933,-0.00000060,-0.00000051,-0.00000003,-0.00000003,0.000002
 48,-0.00000514,-0.00000729,-0.00000061,-0.00000179,0.00000306,0.000068
 35,0.00002862,-0.00000895,0.00000272,-0.00000510,-0.00002335,-0.000003
 02,0.,-0.00000426,0.00029484,0.00040817,0.00129436,0.11262346,0.059210
 28,0.11687463\\-0.00000980,-0.00001060,-0.00001191,-0.00000018,0.00000
 044,0.00000933,-0.00000299,-0.00000915,0.00000381,0.00001213,-0.000003
 08,-0.00001317,-0.00000189,-0.00000172,0.00000065,-0.00000704,-0.00000
 312,0.00005308,-0.00001011,0.,-0.00000276,0.00000890,-0.00000452,0.000
 00551,0.00000434,-0.00000063,0.00000485,-0.00001212,0.00000157,0.00001
 152,-0.00000776,-0.00000206,0.00000597,-0.00000016,-0.00000909,0.00000
 083,0.00000125,-0.00000678,-0.00000515,-0.00000685,-0.00000902,-0.0000
 0242,-0.00000587,-0.00000228,0.00000534,-0.00002081,0.00003221,-0.0000
 5242,0.00002128,-0.00001821,-0.00000841,0.00000615,0.00000163,0.000000
 12,0.00000044,-0.00001071,-0.00000044,-0.00000038,-0.00000619,-0.00000
 230,0.00000183,-0.00000249,0.00000254,-0.00000422,-0.00000606,-0.00000
 358,0.00000185,0.00000596,0.00000378,0.00000225,-0.00001396,0.00002354
 ,-0.00004918,0.00006910,-0.00003588,0.00000660,-0.00003962,0.00000109,
 0.00000319,0.00000495,-0.00000220,0.00004245,0.00000718,0.00001612,0.0
 0000368,0.00000400,-0.00000548,-0.00002458,0.00002999,-0.00001867,0.00
 000482,0.00000498,-0.00000718,-0.00000129,-0.00003841,-0.00000512,0.00
 000346,0.00000614,-0.00000333,0.00005557,0.00000148,0.00002046,-0.0000
 0428,0.00000444,0.00000065,-0.00000009,0.00000862,0.00000812,-0.000003
 91,0.00000045,-0.00000995,0.00000522,0.00001109,0.00000800,-0.00000786
 ,0.00000486,0.00000260,-0.00000404,-0.00000140,0.00000250\\\@
 The archive entry for this job was punched.


 SUCCESS-- IF YOU HAVE TRIED TO DO SOMETHING AND FAILED
           YOU ARE BETTER OFF THAN IF YOU HAD TRIED TO DO
           NOTHING AND SUCCEEDED.

                   -- FROM THE BACK OF A SUGAR PACKET
 Job cpu time:       0 days  9 hours 27 minutes 17.7 seconds.
 Elapsed time:       0 days  0 hours 35 minutes 44.7 seconds.
 File lengths (MBytes):  RWF=   1340 Int=      0 D2E=      0 Chk=     36 Scr=      1
 Normal termination of Gaussian 16 at Fri Jul  1 10:29:44 2022.
