 Entering Gaussian System, Link 0=g16
 AtFile(1): /home/561/yj5695/Basis/6-31pGd.gbs
 Initial command:
 /apps/gaussian/g16c01/g16/l1.exe "/jobfs/50077393.gadi-pbs/Gau-690330.inp" -scrdir="/jobfs/50077393.gadi-pbs/"
 Entering Link 1 = /apps/gaussian/g16c01/g16/l1.exe PID=    690335.
  
 Copyright (c) 1988-2019, Gaussian, Inc.  All Rights Reserved.
  
 This is part of the Gaussian(R) 16 program.  It is based on
 the Gaussian(R) 09 system (copyright 2009, Gaussian, Inc.),
 the Gaussian(R) 03 system (copyright 2003, Gaussian, Inc.),
 the Gaussian(R) 98 system (copyright 1998, Gaussian, Inc.),
 the Gaussian(R) 94 system (copyright 1995, Gaussian, Inc.),
 the Gaussian 92(TM) system (copyright 1992, Gaussian, Inc.),
 the Gaussian 90(TM) system (copyright 1990, Gaussian, Inc.),
 the Gaussian 88(TM) system (copyright 1988, Gaussian, Inc.),
 the Gaussian 86(TM) system (copyright 1986, Carnegie Mellon
 University), and the Gaussian 82(TM) system (copyright 1983,
 Carnegie Mellon University). Gaussian is a federally registered
 trademark of Gaussian, Inc.
  
 This software contains proprietary and confidential information,
 including trade secrets, belonging to Gaussian, Inc.
  
 This software is provided under written license and may be
 used, copied, transmitted, or stored only in accord with that
 written license.
  
 The following legend is applicable only to US Government
 contracts under FAR:
  
                    RESTRICTED RIGHTS LEGEND
  
 Use, reproduction and disclosure by the US Government is
 subject to restrictions as set forth in subparagraphs (a)
 and (c) of the Commercial Computer Software - Restricted
 Rights clause in FAR 52.227-19.
  
 Gaussian, Inc.
 340 Quinnipiac St., Bldg. 40, Wallingford CT 06492
  
  
 ---------------------------------------------------------------
 Warning -- This program may not be used in any manner that
 competes with the business of Gaussian, Inc. or will provide
 assistance to any competitor of Gaussian, Inc.  The licensee
 of this program is prohibited from giving any competitor of
 Gaussian, Inc. access to this program.  By using this program,
 the user acknowledges that Gaussian, Inc. is engaged in the
 business of creating and licensing software in the field of
 computational chemistry and represents and warrants to the
 licensee that it is not a competitor of Gaussian, Inc. and that
 it will not use this program in any manner prohibited above.
 ---------------------------------------------------------------
  

 Cite this work as:
 Gaussian 16, Revision C.01,
 M. J. Frisch, G. W. Trucks, H. B. Schlegel, G. E. Scuseria, 
 M. A. Robb, J. R. Cheeseman, G. Scalmani, V. Barone, 
 G. A. Petersson, H. Nakatsuji, X. Li, M. Caricato, A. V. Marenich, 
 J. Bloino, B. G. Janesko, R. Gomperts, B. Mennucci, H. P. Hratchian, 
 J. V. Ortiz, A. F. Izmaylov, J. L. Sonnenberg, D. Williams-Young, 
 F. Ding, F. Lipparini, F. Egidi, J. Goings, B. Peng, A. Petrone, 
 T. Henderson, D. Ranasinghe, V. G. Zakrzewski, J. Gao, N. Rega, 
 G. Zheng, W. Liang, M. Hada, M. Ehara, K. Toyota, R. Fukuda, 
 J. Hasegawa, M. Ishida, T. Nakajima, Y. Honda, O. Kitao, H. Nakai, 
 T. Vreven, K. Throssell, J. A. Montgomery, Jr., J. E. Peralta, 
 F. Ogliaro, M. J. Bearpark, J. J. Heyd, E. N. Brothers, K. N. Kudin, 
 V. N. Staroverov, T. A. Keith, R. Kobayashi, J. Normand, 
 K. Raghavachari, A. P. Rendell, J. C. Burant, S. S. Iyengar, 
 J. Tomasi, M. Cossi, J. M. Millam, M. Klene, C. Adamo, R. Cammi, 
 J. W. Ochterski, R. L. Martin, K. Morokuma, O. Farkas, 
 J. B. Foresman, and D. J. Fox, Gaussian, Inc., Wallingford CT, 2019.
 
 ******************************************
 Gaussian 16:  ES64L-G16RevC.01  3-Jul-2019
                 2-Jul-2022 
 ******************************************
 %nproc=16
 Will use up to   16 processors via shared memory.
 %mem=50gb
 -----------------------------------------------------
 #m062X/gen 6D OPT Freq=noraman SCRF=(SMD,Solvent=h2o)
 -----------------------------------------------------
 1/18=20,19=15,26=3,38=1/1,3;
 2/9=110,12=2,17=6,18=5,40=1/2;
 3/5=7,8=2,11=2,25=1,30=1,70=32201,71=1,72=1,74=-55/1,2,3;
 4//1;
 5/5=2,38=5,53=1/2;
 6/7=2,8=2,9=2,10=2,28=1/1;
 7//1,2,3,16;
 1/18=20,19=15,26=3/3(2);
 2/9=110/2;
 99//99;
 2/9=110/2;
 3/5=7,6=1,8=2,11=2,25=1,30=1,70=32205,71=1,72=1,74=-55,82=7/1,2,3;
 4/5=5,16=3,69=1/1;
 5/5=2,38=5,53=1/2;
 7//1,2,3,16;
 1/18=20,19=15,26=3/3(-5);
 2/9=110/2;
 6/7=2,8=2,9=2,10=2,19=2,28=1/1;
 99/9=1/99;
 ----------------
 HA.38.smd.a3.smd
 ----------------
 Symbolic Z-matrix:
 Charge =  0 Multiplicity = 1
 C                    -1.59855   1.06974  -1.11926 
 C                    -2.84701   0.92347  -1.73801 
 C                    -2.94517   0.13676  -2.8907 
 C                    -1.82056  -0.49027  -3.41875 
 C                    -0.60158  -0.32442  -2.7793 
 C                    -0.46816   0.44568  -1.63035 
 S                    -1.3629    2.10073   0.33871 
 O                    -1.70738   3.45529  -0.07561 
 O                    -2.07697   1.4795    1.44746 
 N                     0.22452   2.12702   0.73863 
 H                     0.81933   2.51126   0.00198 
 H                     0.57816   1.24006   1.09872 
 Cl                   -4.25904   1.68528  -1.10305 
 Cl                   -4.46167  -0.07336  -3.69411 
 S                     0.83895  -1.15089  -3.43768 
 H                    -1.90692  -1.09024  -4.31982 
 H                     0.49378   0.57389  -1.14368 
 O                     0.57068  -1.43174  -4.84434 
 O                     2.00321  -0.35965  -3.05272 
 N                     0.99388  -2.60521  -2.68815 
 H                     0.20379  -3.22637  -2.87391 
 H                     1.16323  -2.51017  -1.68457 
 

 GradGradGradGradGradGradGradGradGradGradGradGradGradGradGradGradGradGrad
 Berny optimization.
 Initialization pass.
                           ----------------------------
                           !    Initial Parameters    !
                           ! (Angstroms and Degrees)  !
 --------------------------                            --------------------------
 ! Name  Definition              Value          Derivative Info.                !
 --------------------------------------------------------------------------------
 ! R1    R(1,2)                  1.401          estimate D2E/DX2                !
 ! R2    R(1,6)                  1.3887         estimate D2E/DX2                !
 ! R3    R(1,7)                  1.8012         estimate D2E/DX2                !
 ! R4    R(2,3)                  1.399          estimate D2E/DX2                !
 ! R5    R(2,13)                 1.7255         estimate D2E/DX2                !
 ! R6    R(3,4)                  1.3917         estimate D2E/DX2                !
 ! R7    R(3,14)                 1.729          estimate D2E/DX2                !
 ! R8    R(4,5)                  1.3865         estimate D2E/DX2                !
 ! R9    R(4,16)                 1.086          estimate D2E/DX2                !
 ! R10   R(5,6)                  1.3896         estimate D2E/DX2                !
 ! R11   R(5,15)                 1.7865         estimate D2E/DX2                !
 ! R12   R(6,17)                 1.0856         estimate D2E/DX2                !
 ! R13   R(7,8)                  1.4578         estimate D2E/DX2                !
 ! R14   R(7,9)                  1.4578         estimate D2E/DX2                !
 ! R15   R(7,10)                 1.6372         estimate D2E/DX2                !
 ! R16   R(10,11)                1.0218         estimate D2E/DX2                !
 ! R17   R(10,12)                1.0205         estimate D2E/DX2                !
 ! R18   R(15,18)                1.4593         estimate D2E/DX2                !
 ! R19   R(15,19)                1.4594         estimate D2E/DX2                !
 ! R20   R(15,20)                1.6434         estimate D2E/DX2                !
 ! R21   R(20,21)                1.0221         estimate D2E/DX2                !
 ! R22   R(20,22)                1.0222         estimate D2E/DX2                !
 ! A1    A(2,1,6)              121.0575         estimate D2E/DX2                !
 ! A2    A(2,1,7)              122.2652         estimate D2E/DX2                !
 ! A3    A(6,1,7)              116.6569         estimate D2E/DX2                !
 ! A4    A(1,2,3)              119.0199         estimate D2E/DX2                !
 ! A5    A(1,2,13)             121.3725         estimate D2E/DX2                !
 ! A6    A(3,2,13)             119.6068         estimate D2E/DX2                !
 ! A7    A(2,3,4)              120.6165         estimate D2E/DX2                !
 ! A8    A(2,3,14)             120.8465         estimate D2E/DX2                !
 ! A9    A(4,3,14)             118.5365         estimate D2E/DX2                !
 ! A10   A(3,4,5)              118.7887         estimate D2E/DX2                !
 ! A11   A(3,4,16)             119.9658         estimate D2E/DX2                !
 ! A12   A(5,4,16)             121.244          estimate D2E/DX2                !
 ! A13   A(4,5,6)              122.1439         estimate D2E/DX2                !
 ! A14   A(4,5,15)             118.9218         estimate D2E/DX2                !
 ! A15   A(6,5,15)             118.9255         estimate D2E/DX2                !
 ! A16   A(1,6,5)              118.3723         estimate D2E/DX2                !
 ! A17   A(1,6,17)             120.2116         estimate D2E/DX2                !
 ! A18   A(5,6,17)             121.4111         estimate D2E/DX2                !
 ! A19   A(1,7,8)              105.7176         estimate D2E/DX2                !
 ! A20   A(1,7,9)              107.9173         estimate D2E/DX2                !
 ! A21   A(1,7,10)             109.4978         estimate D2E/DX2                !
 ! A22   A(8,7,9)              119.7606         estimate D2E/DX2                !
 ! A23   A(8,7,10)             106.4758         estimate D2E/DX2                !
 ! A24   A(9,7,10)             107.2172         estimate D2E/DX2                !
 ! A25   A(7,10,11)            113.2253         estimate D2E/DX2                !
 ! A26   A(7,10,12)            114.0934         estimate D2E/DX2                !
 ! A27   A(11,10,12)           112.3025         estimate D2E/DX2                !
 ! A28   A(5,15,18)            107.2197         estimate D2E/DX2                !
 ! A29   A(5,15,19)            107.1725         estimate D2E/DX2                !
 ! A30   A(5,15,20)            108.5006         estimate D2E/DX2                !
 ! A31   A(18,15,19)           120.3501         estimate D2E/DX2                !
 ! A32   A(18,15,20)           106.6573         estimate D2E/DX2                !
 ! A33   A(19,15,20)           106.5156         estimate D2E/DX2                !
 ! A34   A(15,20,21)           112.4614         estimate D2E/DX2                !
 ! A35   A(15,20,22)           112.4025         estimate D2E/DX2                !
 ! A36   A(21,20,22)           111.286          estimate D2E/DX2                !
 ! D1    D(6,1,2,3)             -0.1648         estimate D2E/DX2                !
 ! D2    D(6,1,2,13)           179.523          estimate D2E/DX2                !
 ! D3    D(7,1,2,3)            178.1343         estimate D2E/DX2                !
 ! D4    D(7,1,2,13)            -2.1779         estimate D2E/DX2                !
 ! D5    D(2,1,6,5)              0.3814         estimate D2E/DX2                !
 ! D6    D(2,1,6,17)           179.5832         estimate D2E/DX2                !
 ! D7    D(7,1,6,5)           -178.0093         estimate D2E/DX2                !
 ! D8    D(7,1,6,17)             1.1925         estimate D2E/DX2                !
 ! D9    D(2,1,7,8)            -61.8758         estimate D2E/DX2                !
 ! D10   D(2,1,7,9)             67.3909         estimate D2E/DX2                !
 ! D11   D(2,1,7,10)          -176.2186         estimate D2E/DX2                !
 ! D12   D(6,1,7,8)            116.4938         estimate D2E/DX2                !
 ! D13   D(6,1,7,9)           -114.2394         estimate D2E/DX2                !
 ! D14   D(6,1,7,10)             2.1511         estimate D2E/DX2                !
 ! D15   D(1,2,3,4)             -0.1289         estimate D2E/DX2                !
 ! D16   D(1,2,3,14)          -179.878          estimate D2E/DX2                !
 ! D17   D(13,2,3,4)          -179.8223         estimate D2E/DX2                !
 ! D18   D(13,2,3,14)            0.4285         estimate D2E/DX2                !
 ! D19   D(2,3,4,5)              0.1934         estimate D2E/DX2                !
 ! D20   D(2,3,4,16)          -179.3725         estimate D2E/DX2                !
 ! D21   D(14,3,4,5)           179.9483         estimate D2E/DX2                !
 ! D22   D(14,3,4,16)            0.3824         estimate D2E/DX2                !
 ! D23   D(3,4,5,6)              0.0332         estimate D2E/DX2                !
 ! D24   D(3,4,5,15)           178.9411         estimate D2E/DX2                !
 ! D25   D(16,4,5,6)           179.5933         estimate D2E/DX2                !
 ! D26   D(16,4,5,15)           -1.4988         estimate D2E/DX2                !
 ! D27   D(4,5,6,1)             -0.3175         estimate D2E/DX2                !
 ! D28   D(4,5,6,17)          -179.5093         estimate D2E/DX2                !
 ! D29   D(15,5,6,1)          -179.2254         estimate D2E/DX2                !
 ! D30   D(15,5,6,17)            1.5828         estimate D2E/DX2                !
 ! D31   D(4,5,15,18)           22.5027         estimate D2E/DX2                !
 ! D32   D(4,5,15,19)          153.003          estimate D2E/DX2                !
 ! D33   D(4,5,15,20)          -92.3417         estimate D2E/DX2                !
 ! D34   D(6,5,15,18)         -158.5538         estimate D2E/DX2                !
 ! D35   D(6,5,15,19)          -28.0535         estimate D2E/DX2                !
 ! D36   D(6,5,15,20)           86.6018         estimate D2E/DX2                !
 ! D37   D(1,7,10,11)           60.7119         estimate D2E/DX2                !
 ! D38   D(1,7,10,12)          -69.3991         estimate D2E/DX2                !
 ! D39   D(8,7,10,11)          -53.1417         estimate D2E/DX2                !
 ! D40   D(8,7,10,12)          176.7474         estimate D2E/DX2                !
 ! D41   D(9,7,10,11)          177.5448         estimate D2E/DX2                !
 ! D42   D(9,7,10,12)           47.4339         estimate D2E/DX2                !
 ! D43   D(5,15,20,21)          63.1059         estimate D2E/DX2                !
 ! D44   D(5,15,20,22)         -63.4291         estimate D2E/DX2                !
 ! D45   D(18,15,20,21)        -52.1054         estimate D2E/DX2                !
 ! D46   D(18,15,20,22)       -178.6404         estimate D2E/DX2                !
 ! D47   D(19,15,20,21)        178.1902         estimate D2E/DX2                !
 ! D48   D(19,15,20,22)         51.6552         estimate D2E/DX2                !
 --------------------------------------------------------------------------------
 Trust Radius=3.00D-01 FncErr=1.00D-07 GrdErr=1.00D-06 EigMax=2.50D+02 EigMin=1.00D-04
 Number of steps in this run=    116 maximum allowed number of steps=    132.
 GradGradGradGradGradGradGradGradGradGradGradGradGradGradGradGradGradGrad

                          Input orientation:                          
 ---------------------------------------------------------------------
 Center     Atomic      Atomic             Coordinates (Angstroms)
 Number     Number       Type             X           Y           Z
 ---------------------------------------------------------------------
      1          6           0       -1.598552    1.069739   -1.119261
      2          6           0       -2.847008    0.923469   -1.738013
      3          6           0       -2.945171    0.136760   -2.890703
      4          6           0       -1.820559   -0.490268   -3.418754
      5          6           0       -0.601575   -0.324419   -2.779295
      6          6           0       -0.468158    0.445681   -1.630351
      7         16           0       -1.362900    2.100725    0.338710
      8          8           0       -1.707379    3.455290   -0.075609
      9          8           0       -2.076974    1.479500    1.447462
     10          7           0        0.224519    2.127020    0.738627
     11          1           0        0.819326    2.511263    0.001982
     12          1           0        0.578160    1.240062    1.098723
     13         17           0       -4.259038    1.685279   -1.103052
     14         17           0       -4.461670   -0.073364   -3.694112
     15         16           0        0.838954   -1.150885   -3.437680
     16          1           0       -1.906924   -1.090242   -4.319820
     17          1           0        0.493778    0.573893   -1.143679
     18          8           0        0.570679   -1.431738   -4.844342
     19          8           0        2.003207   -0.359654   -3.052720
     20          7           0        0.993878   -2.605208   -2.688148
     21          1           0        0.203788   -3.226373   -2.873909
     22          1           0        1.163230   -2.510165   -1.684565
 ---------------------------------------------------------------------
                    Distance matrix (angstroms):
                    1          2          3          4          5
     1  C    0.000000
     2  C    1.401032   0.000000
     3  C    2.412849   1.399014   0.000000
     4  C    2.787575   2.424281   1.391673   0.000000
     5  C    2.386075   2.771906   2.391138   1.386483   0.000000
     6  C    1.388687   2.428744   2.796339   2.429686   1.389578
     7  S    1.801151   2.810923   4.097542   4.587072   4.022797
     8  O    2.606129   3.236118   4.524326   5.172703   4.776915
     9  O    2.642888   3.324060   4.623461   5.256024   4.826635
    10  N    2.809480   4.125113   5.213454   5.321312   4.366665
    11  H    3.030068   4.357829   5.308232   5.261142   4.218478
    12  H    3.112320   4.458596   5.435684   5.399583   4.344928
    13  Cl   2.730813   1.725502   2.705523   4.005204   4.497301
    14  Cl   4.016713   2.725277   1.728984   2.687954   3.974953
    15  S    4.030840   4.558303   4.034454   2.740398   1.786516
    16  H    3.873524   3.406540   2.150783   1.085978   2.159546
    17  H    2.150420   3.411200   3.881952   3.415342   2.163794
    18  O    4.983892   5.184290   4.317186   2.938824   2.620068
    19  O    4.330600   5.186467   4.975854   3.843466   2.619330
    20  N    4.763122   5.301577   4.803699   3.595527   2.784919
    21  H    4.978333   5.274353   4.607265   3.446898   3.013121
    22  H    4.556613   5.279650   5.033879   3.998799   3.015038
                    6          7          8          9         10
     6  C    0.000000
     7  S    2.723405   0.000000
     8  O    3.607026   1.457797   0.000000
     9  O    3.623535   1.457791   2.521922   0.000000
    10  N    2.986429   1.637231   2.481836   2.493712   0.000000
    11  H    2.930658   2.245893   2.698415   3.397426   1.021804
    12  H    3.028806   2.255233   3.392636   2.688622   1.020503
    13  Cl   4.023111   3.261731   3.271015   3.362866   4.867155
    14  Cl   4.525114   5.531066   5.755961   5.876559   6.815514
    15  S    2.742992   5.448142   6.245333   6.267868   5.344505
    16  H    3.415018   5.672754   6.222138   6.316172   6.362524
    17  H    1.085638   2.824172   3.779989   3.760705   2.455154
    18  O    3.864405   6.563616   7.198153   7.421063   6.629791
    19  O    2.962996   5.374564   6.097986   6.346810   4.870482
    20  N    3.544631   6.071415   7.131044   6.574058   5.893105
    21  H    3.934708   6.415092   7.491840   6.783905   6.458302
    22  H    3.376595   5.633408   6.812913   6.018799   5.315686
                   11         12         13         14         15
    11  H    0.000000
    12  H    1.696159   0.000000
    13  Cl   5.262426   5.333340   0.000000
    14  Cl   6.944806   7.077870   3.138069   0.000000
    15  S    5.024240   5.134549   6.283617   5.415111   0.000000
    16  H    6.251500   6.400513   4.856290   2.819978   2.884735
    17  H    2.274186   2.340784   4.881198   5.610714   2.890752
    18  O    6.252675   6.516026   6.858514   5.337860   1.459297
    19  O    4.356024   4.671652   6.870129   6.502921   1.459358
    20  N    5.783212   5.412884   6.965195   6.097967   1.643428
    21  H    6.447488   5.989240   6.868557   5.690404   2.242526
    22  H    5.308244   4.706719   6.880472   6.451029   2.241921
                   16         17         18         19         20
    16  H    0.000000
    17  H    4.315158   0.000000
    18  O    2.555437   4.209914   0.000000
    19  O    4.174737   2.606592   2.532076   0.000000
    20  N    3.656792   3.569617   2.491044   2.488809   0.000000
    21  H    3.332990   4.185667   2.690340   3.389389   1.022054
    22  H    4.287959   3.201896   3.390916   2.683674   1.022200
                   21         22
    21  H    0.000000
    22  H    1.687608   0.000000
 Stoichiometry    C6H6Cl2N2O4S2
 Framework group  C1[X(C6H6Cl2N2O4S2)]
 Deg. of freedom    60
 Full point group                 C1      NOp   1
 Largest Abelian subgroup         C1      NOp   1
 Largest concise Abelian subgroup C1      NOp   1
                         Standard orientation:                         
 ---------------------------------------------------------------------
 Center     Atomic      Atomic             Coordinates (Angstroms)
 Number     Number       Type             X           Y           Z
 ---------------------------------------------------------------------
      1          6           0        0.880613   -0.417519    0.004706
      2          6           0        1.165019    0.954312    0.013794
      3          6           0        0.105656    1.867314   -0.023900
      4          6           0       -1.212082    1.422385   -0.072474
      5          6           0       -1.456195    0.057576   -0.078736
      6          6           0       -0.429039   -0.877396   -0.037456
      7         16           0        2.176737   -1.668197    0.001294
      8          8           0        2.924115   -1.459023   -1.232742
      9          8           0        2.865733   -1.603540    1.284359
     10          7           0        1.500971   -3.155189   -0.111495
     11          1           0        0.956918   -3.286759   -0.966351
     12          1           0        0.988228   -3.444094    0.722204
     13         17           0        2.788707    1.534683    0.078336
     14         17           0        0.402637    3.570591   -0.017745
     15         16           0       -3.147292   -0.517504   -0.112144
     16          1           0       -2.025916    2.140354   -0.111725
     17          1           0       -0.633499   -1.943523   -0.050813
     18          8           0       -3.960367    0.563248   -0.660262
     19          8           0       -3.143025   -1.831728   -0.746590
     20          7           0       -3.650591   -0.747407    1.435334
     21          1           0       -3.659056    0.119815    1.976119
     22          1           0       -3.118769   -1.477743    1.913525
 ---------------------------------------------------------------------
 Rotational constants (GHZ):           0.4458893           0.2736249           0.1824675
 General basis read from cards:  (6D, 7F)
 There are   332 symmetry adapted cartesian basis functions of A   symmetry.
 There are   332 symmetry adapted basis functions of A   symmetry.
   332 basis functions,   632 primitive gaussians,   332 cartesian basis functions
    77 alpha electrons       77 beta electrons
       nuclear repulsion energy      1730.0787103304 Hartrees.
 NAtoms=   22 NActive=   22 NUniq=   22 SFac= 1.00D+00 NAtFMM=   60 NAOKFM=F Big=F
 Integral buffers will be    131072 words long.
 Raffenetti 2 integral format.
 Two-electron integral symmetry is turned on.
 ------------------------------------------------------------------------------
 Polarizable Continuum Model (PCM)
 =================================
 Model                : PCM.
 Atomic radii         : SMD-Coulomb.
 Polarization charges : Total charges.
 Charge compensation  : None.
 Solution method      : On-the-fly selection.
 Cavity type          : VdW (van der Waals Surface) (Alpha=1.000).
 Cavity algorithm     : GePol (No added spheres)
                        Default sphere list used, NSphG=   22.
                        Lebedev-Laikov grids with approx.  5.0 points / Ang**2.
                        Smoothing algorithm: York/Karplus (Gamma=1.0000).
                        Polarization charges: spherical gaussians, with
                                              point-specific exponents (IZeta= 3).
                        Self-potential: point-specific (ISelfS= 7).
                        Self-field    : sphere-specific E.n sum rule (ISelfD= 2).
 1st derivatives      : Analytical E(r).r(x)/FMM algorithm (CHGder, D1EAlg=3).
                        Cavity 1st derivative terms included.
 Solvent              : Water, Eps=  78.355300 Eps(inf)=   1.777849
 ------------------------------------------------------------------------------
 ------------------------------------------------------------------------------
 Atomic radii for non-electrostatic terms: SMD-CDS.
 ------------------------------------------------------------------------------
 Nuclear repulsion after PCM non-electrostatic terms =     1730.0857905738 Hartrees.
 One-electron integrals computed using PRISM.
 NBasis=   332 RedAO= T EigKep=  1.11D-06  NBF=   332
 NBsUse=   330 1.00D-06 EigRej=  8.55D-07 NBFU=   330
 ExpMin= 4.05D-02 ExpMax= 2.52D+04 ExpMxC= 3.78D+03 IAcc=3 IRadAn=         5 AccDes= 0.00D+00
 Harris functional with IExCor= 1009 and IRadAn=       5 diagonalized for initial guess.
 HarFok:  IExCor= 1009 AccDes= 0.00D+00 IRadAn=         5 IDoV= 1 UseB2=F ITyADJ=14
 ICtDFT=  3500011 ScaDFX=  1.000000  1.000000  1.000000  1.000000
 FoFCou: FMM=F IPFlag=           0 FMFlag=      100000 FMFlg1=           0
         NFxFlg=           0 DoJE=T BraDBF=F KetDBF=T FulRan=T
         wScrn=  0.000000 ICntrl=       500 IOpCl=  0 I1Cent=   200000004 NGrid=           0
         NMat0=    1 NMatS0=      1 NMatT0=    0 NMatD0=    1 NMtDS0=    0 NMtDT0=    0
 Petite list used in FoFCou.
 Requested convergence on RMS density matrix=1.00D-08 within 128 cycles.
 Requested convergence on MAX density matrix=1.00D-06.
 Requested convergence on             energy=1.00D-06.
 No special actions if energy rises.
 Inv3:  Mode=1 IEnd=    12681408.
 Iteration    1 A*A^-1 deviation from unit magnitude is 4.88D-15 for   2051.
 Iteration    1 A*A^-1 deviation from orthogonality  is 2.43D-15 for    917    215.
 Iteration    1 A^-1*A deviation from unit magnitude is 4.88D-15 for   2051.
 Iteration    1 A^-1*A deviation from orthogonality  is 2.27D-15 for   1306    622.
 Error on total polarization charges =  0.03192
 SCF Done:  E(RM062X) =  -2358.95243073     A.U. after   16 cycles
            NFock= 16  Conv=0.83D-08     -V/T= 2.0046
 SMD-CDS (non-electrostatic) energy       (kcal/mol) =       4.44
 (included in total energy above)

 **********************************************************************

            Population analysis using the SCF Density.

 **********************************************************************

 Orbital symmetries:
       Occupied  (A) (A) (A) (A) (A) (A) (A) (A) (A) (A) (A) (A)
                 (A) (A) (A) (A) (A) (A) (A) (A) (A) (A) (A) (A)
                 (A) (A) (A) (A) (A) (A) (A) (A) (A) (A) (A) (A)
                 (A) (A) (A) (A) (A) (A) (A) (A) (A) (A) (A) (A)
                 (A) (A) (A) (A) (A) (A) (A) (A) (A) (A) (A) (A)
                 (A) (A) (A) (A) (A) (A) (A) (A) (A) (A) (A) (A)
                 (A) (A) (A) (A) (A)
       Virtual   (A) (A) (A) (A) (A) (A) (A) (A) (A) (A) (A) (A)
                 (A) (A) (A) (A) (A) (A) (A) (A) (A) (A) (A) (A)
                 (A) (A) (A) (A) (A) (A) (A) (A) (A) (A) (A) (A)
                 (A) (A) (A) (A) (A) (A) (A) (A) (A) (A) (A) (A)
                 (A) (A) (A) (A) (A) (A) (A) (A) (A) (A) (A) (A)
                 (A) (A) (A) (A) (A) (A) (A) (A) (A) (A) (A) (A)
                 (A) (A) (A) (A) (A) (A) (A) (A) (A) (A) (A) (A)
                 (A) (A) (A) (A) (A) (A) (A) (A) (A) (A) (A) (A)
                 (A) (A) (A) (A) (A) (A) (A) (A) (A) (A) (A) (A)
                 (A) (A) (A) (A) (A) (A) (A) (A) (A) (A) (A) (A)
                 (A) (A) (A) (A) (A) (A) (A) (A) (A) (A) (A) (A)
                 (A) (A) (A) (A) (A) (A) (A) (A) (A) (A) (A) (A)
                 (A) (A) (A) (A) (A) (A) (A) (A) (A) (A) (A) (A)
                 (A) (A) (A) (A) (A) (A) (A) (A) (A) (A) (A) (A)
                 (A) (A) (A) (A) (A) (A) (A) (A) (A) (A) (A) (A)
                 (A) (A) (A) (A) (A) (A) (A) (A) (A) (A) (A) (A)
                 (A) (A) (A) (A) (A) (A) (A) (A) (A) (A) (A) (A)
                 (A) (A) (A) (A) (A) (A) (A) (A) (A) (A) (A) (A)
                 (A) (A) (A) (A) (A) (A) (A) (A) (A) (A) (A) (A)
                 (A) (A) (A) (A) (A) (A) (A) (A) (A) (A) (A) (A)
                 (A) (A) (A) (A) (A) (A) (A) (A) (A) (A) (A) (A)
                 (A)
 The electronic state is 1-A.
 Alpha  occ. eigenvalues -- -102.70563-102.69936 -90.19649 -90.19219 -19.67051
 Alpha  occ. eigenvalues --  -19.66988 -19.66981 -19.66769 -14.81569 -14.80900
 Alpha  occ. eigenvalues --  -10.67208 -10.66017 -10.63379 -10.62445 -10.61343
 Alpha  occ. eigenvalues --  -10.61126  -9.85185  -9.84577  -8.50548  -8.50172
 Alpha  occ. eigenvalues --   -7.57610  -7.56999  -7.56917  -7.56874  -7.56310
 Alpha  occ. eigenvalues --   -7.56276  -6.42747  -6.42725  -6.42647  -6.42367
 Alpha  occ. eigenvalues --   -6.42358  -6.42258  -1.27279  -1.27108  -1.15655
 Alpha  occ. eigenvalues --   -1.15596  -1.06022  -1.04588  -1.03891  -0.98930
 Alpha  occ. eigenvalues --   -0.98459  -0.90514  -0.87149  -0.79340  -0.78181
 Alpha  occ. eigenvalues --   -0.72561  -0.70812  -0.66717  -0.63048  -0.62889
 Alpha  occ. eigenvalues --   -0.62401  -0.61279  -0.60917  -0.58760  -0.58266
 Alpha  occ. eigenvalues --   -0.55517  -0.54863  -0.54378  -0.52682  -0.50173
 Alpha  occ. eigenvalues --   -0.48882  -0.45128  -0.44998  -0.44875  -0.44764
 Alpha  occ. eigenvalues --   -0.43346  -0.42477  -0.42404  -0.41624  -0.41237
 Alpha  occ. eigenvalues --   -0.40926  -0.40319  -0.39980  -0.39055  -0.38498
 Alpha  occ. eigenvalues --   -0.34675  -0.33027
 Alpha virt. eigenvalues --   -0.04734  -0.03058   0.00204   0.00269   0.02106
 Alpha virt. eigenvalues --    0.03109   0.03485   0.03779   0.04378   0.04999
 Alpha virt. eigenvalues --    0.05239   0.05825   0.06803   0.06882   0.07185
 Alpha virt. eigenvalues --    0.07608   0.08046   0.08604   0.09513   0.09925
 Alpha virt. eigenvalues --    0.10183   0.10791   0.11141   0.11334   0.11816
 Alpha virt. eigenvalues --    0.12358   0.12792   0.13060   0.13685   0.13870
 Alpha virt. eigenvalues --    0.14162   0.14711   0.15097   0.15375   0.16570
 Alpha virt. eigenvalues --    0.16810   0.17133   0.17491   0.17911   0.18261
 Alpha virt. eigenvalues --    0.18886   0.19192   0.19906   0.20087   0.20619
 Alpha virt. eigenvalues --    0.20972   0.22101   0.22438   0.23081   0.23550
 Alpha virt. eigenvalues --    0.24023   0.24139   0.24671   0.24927   0.25380
 Alpha virt. eigenvalues --    0.26056   0.26531   0.26851   0.27236   0.28252
 Alpha virt. eigenvalues --    0.28614   0.29054   0.29760   0.29862   0.30424
 Alpha virt. eigenvalues --    0.30581   0.30997   0.31073   0.31829   0.31980
 Alpha virt. eigenvalues --    0.32622   0.33309   0.33794   0.34725   0.35391
 Alpha virt. eigenvalues --    0.36316   0.37199   0.37608   0.38315   0.38699
 Alpha virt. eigenvalues --    0.42181   0.43284   0.44466   0.46217   0.48417
 Alpha virt. eigenvalues --    0.52018   0.53098   0.54439   0.56458   0.57145
 Alpha virt. eigenvalues --    0.57963   0.59328   0.61645   0.62363   0.63518
 Alpha virt. eigenvalues --    0.64280   0.64548   0.66093   0.66716   0.67143
 Alpha virt. eigenvalues --    0.67729   0.67940   0.69792   0.70483   0.72251
 Alpha virt. eigenvalues --    0.72682   0.73904   0.74827   0.75942   0.76895
 Alpha virt. eigenvalues --    0.78225   0.79565   0.83565   0.85581   0.86574
 Alpha virt. eigenvalues --    0.88243   0.89569   0.91359   0.91620   0.92984
 Alpha virt. eigenvalues --    0.93313   0.93919   0.95423   0.96090   0.97376
 Alpha virt. eigenvalues --    0.98201   0.99214   1.01438   1.01711   1.02458
 Alpha virt. eigenvalues --    1.03831   1.04328   1.05519   1.06207   1.06992
 Alpha virt. eigenvalues --    1.08812   1.11164   1.11698   1.11780   1.13118
 Alpha virt. eigenvalues --    1.13231   1.14016   1.14150   1.15126   1.15821
 Alpha virt. eigenvalues --    1.17303   1.19118   1.20234   1.21861   1.23768
 Alpha virt. eigenvalues --    1.24612   1.25826   1.26022   1.30492   1.31474
 Alpha virt. eigenvalues --    1.32644   1.32840   1.34947   1.36117   1.36994
 Alpha virt. eigenvalues --    1.37623   1.38361   1.39166   1.40076   1.41476
 Alpha virt. eigenvalues --    1.41902   1.43754   1.45616   1.45755   1.47506
 Alpha virt. eigenvalues --    1.48294   1.53137   1.53411   1.54362   1.55278
 Alpha virt. eigenvalues --    1.56896   1.58651   1.59811   1.62156   1.68822
 Alpha virt. eigenvalues --    1.70826   1.75085   1.76880   1.79087   1.79799
 Alpha virt. eigenvalues --    1.80398   1.81926   1.83365   1.84168   1.84461
 Alpha virt. eigenvalues --    1.84738   1.85311   1.88421   1.90099   1.92128
 Alpha virt. eigenvalues --    1.94486   1.97170   1.98243   1.99253   2.00108
 Alpha virt. eigenvalues --    2.01493   2.03190   2.11112   2.12053   2.12911
 Alpha virt. eigenvalues --    2.13310   2.14787   2.15345   2.15828   2.17298
 Alpha virt. eigenvalues --    2.17675   2.20510   2.22588   2.23497   2.27143
 Alpha virt. eigenvalues --    2.27860   2.31999   2.33536   2.37498   2.44927
 Alpha virt. eigenvalues --    2.46291   2.48841   2.49770   2.56605   2.57935
 Alpha virt. eigenvalues --    2.60428   2.67832   2.71664   2.76025   2.79515
 Alpha virt. eigenvalues --    2.86484   2.90057   2.90868   2.91381   2.93570
 Alpha virt. eigenvalues --    3.05596   3.27385   3.88261   3.95493   4.03994
 Alpha virt. eigenvalues --    4.07193   4.10618   4.20410   4.23693   4.26556
 Alpha virt. eigenvalues --    4.29292   4.30755   4.35589   4.39613   4.43315
 Alpha virt. eigenvalues --    4.45447   4.49767   4.66562
          Condensed to atoms (all electrons):
               1          2          3          4          5          6
     1  C   47.510663   0.916278   5.093726  -9.940347 -13.663668 -21.704265
     2  C    0.916278  43.988120 -18.031048   5.216580   1.455757 -26.862786
     3  C    5.093726 -18.031048  26.088084 -12.888516  -2.388383   7.665075
     4  C   -9.940347   5.216580 -12.888516  35.849606  -6.978630  -6.151988
     5  C  -13.663668   1.455757  -2.388383  -6.978630  33.264388  -3.296193
     6  C  -21.704265 -26.862786   7.665075  -6.151988  -3.296193  57.017625
     7  S   -0.089814  -0.613568   0.650669  -0.445457  -1.375219   0.702488
     8  O    0.045998  -0.109292   0.073234  -0.021568  -0.096960   0.039865
     9  O    0.220917  -0.309030   0.174507  -0.036912  -0.160544   0.120979
    10  N    0.586021   0.636665  -0.171556   0.094008   0.266989  -1.501152
    11  H   -0.060495  -0.027887   0.005348  -0.003988  -0.042506   0.096165
    12  H   -0.104966  -0.019808   0.002803  -0.000181  -0.005390   0.113774
    13  Cl   0.190369  -1.149328   0.254071   0.125507  -0.156119   0.429486
    14  Cl  -0.002306   0.130569   0.168212  -0.324045  -0.021495  -0.147832
    15  S   -2.435201   0.659281  -1.112981   2.364364   1.077441  -1.748519
    16  H    0.013167   0.001254  -0.046470   0.369457  -0.029219  -0.002356
    17  H   -0.079530   0.039011  -0.041140   0.046208   0.068191   0.274264
    18  O    0.100433   0.087157  -0.059819  -0.412764   0.032416   0.105976
    19  O   -0.230180   0.007585   0.053416   0.222358   0.030348  -0.277920
    20  N    0.788174  -0.127364   0.304015  -0.208513  -1.369667   0.864952
    21  H   -0.011554  -0.002088  -0.014424  -0.071440   0.093355  -0.018993
    22  H   -0.043658   0.005939  -0.007995   0.065329   0.017362  -0.071967
               7          8          9         10         11         12
     1  C   -0.089814   0.045998   0.220917   0.586021  -0.060495  -0.104966
     2  C   -0.613568  -0.109292  -0.309030   0.636665  -0.027887  -0.019808
     3  C    0.650669   0.073234   0.174507  -0.171556   0.005348   0.002803
     4  C   -0.445457  -0.021568  -0.036912   0.094008  -0.003988  -0.000181
     5  C   -1.375219  -0.096960  -0.160544   0.266989  -0.042506  -0.005390
     6  C    0.702488   0.039865   0.120979  -1.501152   0.096165   0.113774
     7  S   15.268217   0.331708   0.298965  -0.131483   0.054049   0.035199
     8  O    0.331708   8.660315  -0.218298  -0.119701  -0.004187   0.007350
     9  O    0.298965  -0.218298   8.580212  -0.120991   0.008472  -0.004123
    10  N   -0.131483  -0.119701  -0.120991   8.269336   0.207075   0.204041
    11  H    0.054049  -0.004187   0.008472   0.207075   0.252013  -0.013727
    12  H    0.035199   0.007350  -0.004123   0.204041  -0.013727   0.245546
    13  Cl   0.038245  -0.035474  -0.032583  -0.040163   0.001048   0.000724
    14  Cl   0.002204   0.000605  -0.000898   0.003617  -0.000055  -0.000044
    15  S   -0.200961  -0.004346  -0.005811   0.007783  -0.002428  -0.001131
    16  H    0.001581   0.000006   0.000007   0.000000   0.000000   0.000000
    17  H   -0.038202  -0.000773  -0.000960  -0.009850  -0.000157  -0.000403
    18  O   -0.007234  -0.000062  -0.000069   0.000170  -0.000007  -0.000002
    19  O    0.000074   0.000162   0.000072  -0.004043  -0.000051   0.000072
    20  N    0.024993   0.000077   0.000026   0.001627  -0.000004   0.000101
    21  H   -0.000527  -0.000000  -0.000001  -0.000014  -0.000000  -0.000000
    22  H   -0.001576  -0.000000  -0.000003   0.000004   0.000000  -0.000001
              13         14         15         16         17         18
     1  C    0.190369  -0.002306  -2.435201   0.013167  -0.079530   0.100433
     2  C   -1.149328   0.130569   0.659281   0.001254   0.039011   0.087157
     3  C    0.254071   0.168212  -1.112981  -0.046470  -0.041140  -0.059819
     4  C    0.125507  -0.324045   2.364364   0.369457   0.046208  -0.412764
     5  C   -0.156119  -0.021495   1.077441  -0.029219   0.068191   0.032416
     6  C    0.429486  -0.147832  -1.748519  -0.002356   0.274264   0.105976
     7  S    0.038245   0.002204  -0.200961   0.001581  -0.038202  -0.007234
     8  O   -0.035474   0.000605  -0.004346   0.000006  -0.000773  -0.000062
     9  O   -0.032583  -0.000898  -0.005811   0.000007  -0.000960  -0.000069
    10  N   -0.040163   0.003617   0.007783   0.000000  -0.009850   0.000170
    11  H    0.001048  -0.000055  -0.002428   0.000000  -0.000157  -0.000007
    12  H    0.000724  -0.000044  -0.001131   0.000000  -0.000403  -0.000002
    13  Cl  17.053139  -0.020432  -0.024214   0.000769   0.000078  -0.000523
    14  Cl  -0.020432  16.922012   0.000139   0.000879   0.000060  -0.001391
    15  S   -0.024214   0.000139  15.678237  -0.007944   0.024723   0.273465
    16  H    0.000769   0.000879  -0.007944   0.372205  -0.000093   0.004232
    17  H    0.000078   0.000060   0.024723  -0.000093   0.390445   0.001285
    18  O   -0.000523  -0.001391   0.273465   0.004232   0.001285   8.754315
    19  O   -0.000062  -0.000104   0.339157   0.000756   0.004617  -0.142647
    20  N    0.001196   0.002244  -0.611346  -0.000752   0.000580  -0.127221
    21  H   -0.000025  -0.000060   0.060613   0.000041   0.000016  -0.007288
    22  H   -0.000046  -0.000000   0.065868   0.000007  -0.000016   0.008510
              19         20         21         22
     1  C   -0.230180   0.788174  -0.011554  -0.043658
     2  C    0.007585  -0.127364  -0.002088   0.005939
     3  C    0.053416   0.304015  -0.014424  -0.007995
     4  C    0.222358  -0.208513  -0.071440   0.065329
     5  C    0.030348  -1.369667   0.093355   0.017362
     6  C   -0.277920   0.864952  -0.018993  -0.071967
     7  S    0.000074   0.024993  -0.000527  -0.001576
     8  O    0.000162   0.000077  -0.000000  -0.000000
     9  O    0.000072   0.000026  -0.000001  -0.000003
    10  N   -0.004043   0.001627  -0.000014   0.000004
    11  H   -0.000051  -0.000004  -0.000000   0.000000
    12  H    0.000072   0.000101  -0.000000  -0.000001
    13  Cl  -0.000062   0.001196  -0.000025  -0.000046
    14  Cl  -0.000104   0.002244  -0.000060  -0.000000
    15  S    0.339157  -0.611346   0.060613   0.065868
    16  H    0.000756  -0.000752   0.000041   0.000007
    17  H    0.004617   0.000580   0.000016  -0.000016
    18  O   -0.142647  -0.127221  -0.007288   0.008510
    19  O    8.750946  -0.124839   0.007391  -0.006974
    20  N   -0.124839   8.158978   0.215315   0.217508
    21  H    0.007391   0.215315   0.250810  -0.011852
    22  H   -0.006974   0.217508  -0.011852   0.251094
 Mulliken charges:
               1
     1  C   -1.099762
     2  C    0.108003
     3  C    0.229173
     4  C   -0.869069
     5  C   -0.722253
     6  C    0.353323
     7  S    1.495651
     8  O   -0.548662
     9  O   -0.513932
    10  N   -1.178386
    11  H    0.531322
    12  H    0.540165
    13  Cl   0.364336
    14  Cl   0.288121
    15  S    1.603808
    16  H    0.322472
    17  H    0.321647
    18  O   -0.608932
    19  O   -0.630133
    20  N   -1.010082
    21  H    0.510724
    22  H    0.512466
 Sum of Mulliken charges =  -0.00000
 Mulliken charges with hydrogens summed into heavy atoms:
               1
     1  C   -1.099762
     2  C    0.108003
     3  C    0.229173
     4  C   -0.546597
     5  C   -0.722253
     6  C    0.674970
     7  S    1.495651
     8  O   -0.548662
     9  O   -0.513932
    10  N   -0.106899
    13  Cl   0.364336
    14  Cl   0.288121
    15  S    1.603808
    18  O   -0.608932
    19  O   -0.630133
    20  N    0.013108
 Electronic spatial extent (au):  <R**2>=           5521.2045
 Charge=              0.0000 electrons
 Dipole moment (field-independent basis, Debye):
    X=             -4.3883    Y=             -0.9368    Z=              5.5067  Tot=              7.1034
 Quadrupole moment (field-independent basis, Debye-Ang):
   XX=           -169.6440   YY=           -110.2370   ZZ=           -120.3059
   XY=              4.8390   XZ=            -18.4360   YZ=             -3.0415
 Traceless Quadrupole moment (field-independent basis, Debye-Ang):
   XX=            -36.2484   YY=             23.1587   ZZ=             13.0897
   XY=              4.8390   XZ=            -18.4360   YZ=             -3.0415
 Octapole moment (field-independent basis, Debye-Ang**2):
  XXX=             41.1267  YYY=            -38.8005  ZZZ=             18.4744  XYY=             -6.4690
  XXY=             67.0546  XXZ=             61.1689  XZZ=            -35.7402  YZZ=             -3.5684
  YYZ=             11.1323  XYZ=              8.3717
 Hexadecapole moment (field-independent basis, Debye-Ang**3):
 XXXX=          -4926.4557 YYYY=          -2301.3194 ZZZZ=           -347.8704 XXXY=             96.4477
 XXXZ=           -179.4929 YYYX=              7.9787 YYYZ=            -23.0917 ZZZX=            -65.0511
 ZZZY=             -6.4751 XXYY=          -1237.6133 XXZZ=           -771.9619 YYZZ=           -463.3919
 XXYZ=             -7.8542 YYXZ=            -34.2065 ZZXY=             29.6716
 N-N= 1.730085790574D+03 E-N=-9.033999094470D+03  KE= 2.348248129363D+03
 D1PCM: PCM CHGder 1st derivatives, ID1Alg=3 FixD1E=F DoIter=F DoCFld=F I1PDM=0.
 Calling FoFJK, ICntrl=      2127 FMM=F ISym2X=0 I1Cent= 0 IOpClX= 0 NMat=1 NMatS=1 NMatT=0.
 ***** Axes restored to original set *****
 -------------------------------------------------------------------
 Center     Atomic                   Forces (Hartrees/Bohr)
 Number     Number              X              Y              Z
 -------------------------------------------------------------------
      1        6           0.007888004   -0.002861229    0.000016987
      2        6          -0.001801546    0.000961659    0.001937729
      3        6           0.000621249    0.000109317    0.000441491
      4        6           0.000642391   -0.000203307    0.000051891
      5        6           0.000543991   -0.000687945   -0.000725442
      6        6          -0.002321710   -0.000066562   -0.001016915
      7       16          -0.005390342    0.003670861   -0.000339308
      8        8          -0.000451401    0.003645422    0.000354072
      9        8           0.000032920   -0.001499062    0.001507680
     10        7          -0.004150987   -0.002310701   -0.003645113
     11        1           0.001183217    0.001525394    0.001202634
     12        1           0.000414875   -0.000822622    0.000792135
     13       17           0.001787305    0.000469056    0.001322346
     14       17           0.000206044    0.000044143    0.000084216
     15       16          -0.000318734   -0.000494757   -0.000335040
     16        1           0.000111222    0.000020870    0.000027648
     17        1           0.000890418   -0.001897745   -0.001992378
     18        8           0.000066552    0.000025666    0.000099046
     19        8           0.000042733    0.000186616    0.000106190
     20        7           0.000052329    0.000131890   -0.000005472
     21        1           0.000016502    0.000009312    0.000033778
     22        1          -0.000065029    0.000043726    0.000081824
 -------------------------------------------------------------------
 Cartesian Forces:  Max     0.007888004 RMS     0.001760452

 GradGradGradGradGradGradGradGradGradGradGradGradGradGradGradGradGradGrad
 Berny optimization.
 FormGI is forming the generalized inverse of G from B-inverse, IUseBI=4.
 Internal  Forces:  Max     0.013028364 RMS     0.002064298
 Search for a local minimum.
 Step number   1 out of a maximum of  116
 All quantities printed in internal units (Hartrees-Bohrs-Radians)
 Mixed Optimization -- RFO/linear search
 Second derivative matrix not updated -- first step.
 ITU=  0
     Eigenvalues ---    0.00355   0.00549   0.01445   0.01592   0.02044
     Eigenvalues ---    0.02088   0.02121   0.02126   0.02150   0.02195
     Eigenvalues ---    0.02230   0.02233   0.02247   0.04172   0.04459
     Eigenvalues ---    0.09252   0.09555   0.10459   0.10508   0.14165
     Eigenvalues ---    0.14380   0.15998   0.16000   0.16000   0.16000
     Eigenvalues ---    0.16000   0.16000   0.19765   0.19934   0.23488
     Eigenvalues ---    0.23502   0.24990   0.24996   0.24998   0.25000
     Eigenvalues ---    0.25000   0.25000   0.25000   0.26026   0.27208
     Eigenvalues ---    0.32616   0.32988   0.35282   0.35322   0.42453
     Eigenvalues ---    0.42807   0.43661   0.43989   0.44012   0.44051
     Eigenvalues ---    0.44258   0.44644   0.46016   0.46784   0.47284
     Eigenvalues ---    0.47681   0.91879   0.91905   0.92541   0.92543
 RFO step:  Lambda=-2.02989498D-03 EMin= 3.55081443D-03
 Linear search not attempted -- first point.
 Iteration  1 RMS(Cart)=  0.04289112 RMS(Int)=  0.00064490
 Iteration  2 RMS(Cart)=  0.00111551 RMS(Int)=  0.00013611
 Iteration  3 RMS(Cart)=  0.00000026 RMS(Int)=  0.00013611
 Variable       Old X    -DE/DX   Delta X   Delta X   Delta X     New X
                                 (Linear)    (Quad)   (Total)
    R1        2.64757  -0.00254   0.00000  -0.00568  -0.00567   2.64190
    R2        2.62424   0.00207   0.00000   0.00441   0.00442   2.62866
    R3        3.40368   0.00122   0.00000   0.00465   0.00465   3.40833
    R4        2.64375  -0.00025   0.00000  -0.00072  -0.00072   2.64303
    R5        3.26073  -0.00077   0.00000  -0.00232  -0.00232   3.25841
    R6        2.62988   0.00030   0.00000   0.00057   0.00056   2.63044
    R7        3.26731  -0.00023   0.00000  -0.00069  -0.00069   3.26662
    R8        2.62007  -0.00072   0.00000  -0.00138  -0.00139   2.61868
    R9        2.05220  -0.00005   0.00000  -0.00013  -0.00013   2.05207
   R10        2.62592   0.00068   0.00000   0.00159   0.00160   2.62752
   R11        3.37603  -0.00013   0.00000  -0.00048  -0.00048   3.37554
   R12        2.05156  -0.00033   0.00000  -0.00092  -0.00092   2.05064
   R13        2.75484   0.00339   0.00000   0.00365   0.00365   2.75849
   R14        2.75482   0.00177   0.00000   0.00191   0.00191   2.75674
   R15        3.09392  -0.00289   0.00000  -0.00645  -0.00645   3.08747
   R16        1.93093   0.00038   0.00000   0.00086   0.00086   1.93179
   R17        1.92847   0.00116   0.00000   0.00261   0.00261   1.93108
   R18        2.75767  -0.00011   0.00000  -0.00012  -0.00012   2.75755
   R19        2.75779   0.00016   0.00000   0.00017   0.00017   2.75796
   R20        3.10563  -0.00011   0.00000  -0.00024  -0.00024   3.10539
   R21        1.93140  -0.00001   0.00000  -0.00002  -0.00002   1.93139
   R22        1.93168   0.00007   0.00000   0.00015   0.00015   1.93183
    A1        2.11285  -0.00041   0.00000  -0.00151  -0.00156   2.11129
    A2        2.13393  -0.01261   0.00000  -0.04983  -0.04993   2.08400
    A3        2.03605   0.01303   0.00000   0.05194   0.05184   2.08789
    A4        2.07729   0.00076   0.00000   0.00245   0.00246   2.07975
    A5        2.11835  -0.00387   0.00000  -0.01508  -0.01509   2.10326
    A6        2.08753   0.00311   0.00000   0.01264   0.01263   2.10016
    A7        2.10516   0.00012   0.00000   0.00002   0.00001   2.10517
    A8        2.10917  -0.00005   0.00000   0.00002   0.00002   2.10919
    A9        2.06885  -0.00007   0.00000  -0.00003  -0.00003   2.06883
   A10        2.07325  -0.00018   0.00000  -0.00071  -0.00073   2.07253
   A11        2.09380   0.00020   0.00000   0.00104   0.00104   2.09484
   A12        2.11611  -0.00002   0.00000  -0.00030  -0.00029   2.11581
   A13        2.13181  -0.00008   0.00000   0.00015   0.00015   2.13196
   A14        2.07558   0.00004   0.00000  -0.00012  -0.00013   2.07545
   A15        2.07564   0.00004   0.00000  -0.00012  -0.00013   2.07551
   A16        2.06599  -0.00021   0.00000  -0.00040  -0.00039   2.06559
   A17        2.09809   0.00304   0.00000   0.01841   0.01838   2.11646
   A18        2.11902  -0.00283   0.00000  -0.01787  -0.01790   2.10113
   A19        1.84512   0.00311   0.00000   0.02150   0.02152   1.86664
   A20        1.88351  -0.00036   0.00000  -0.00689  -0.00709   1.87642
   A21        1.91110  -0.00273   0.00000  -0.01307  -0.01315   1.89795
   A22        2.09022  -0.00008   0.00000   0.00390   0.00389   2.09410
   A23        1.85835   0.00015   0.00000   0.00400   0.00407   1.86242
   A24        1.87129  -0.00043   0.00000  -0.01104  -0.01119   1.86010
   A25        1.97615   0.00246   0.00000   0.02126   0.02102   1.99717
   A26        1.99131  -0.00011   0.00000   0.00539   0.00515   1.99645
   A27        1.96005  -0.00051   0.00000   0.00617   0.00581   1.96586
   A28        1.87134   0.00019   0.00000   0.00123   0.00123   1.87257
   A29        1.87051  -0.00015   0.00000  -0.00137  -0.00137   1.86914
   A30        1.89369  -0.00030   0.00000  -0.00139  -0.00139   1.89231
   A31        2.10051  -0.00001   0.00000   0.00033   0.00033   2.10083
   A32        1.86152   0.00012   0.00000   0.00103   0.00103   1.86255
   A33        1.85905   0.00010   0.00000  -0.00007  -0.00007   1.85898
   A34        1.96282   0.00001   0.00000  -0.00021  -0.00021   1.96261
   A35        1.96179  -0.00006   0.00000  -0.00060  -0.00061   1.96119
   A36        1.94231  -0.00001   0.00000  -0.00050  -0.00050   1.94181
    D1       -0.00288  -0.00018   0.00000  -0.01027  -0.01019  -0.01307
    D2        3.13327  -0.00017   0.00000  -0.00866  -0.00849   3.12478
    D3        3.10903   0.00043   0.00000   0.01565   0.01504   3.12407
    D4       -0.03801   0.00044   0.00000   0.01725   0.01674  -0.02127
    D5        0.00666  -0.00000   0.00000   0.00416   0.00419   0.01085
    D6        3.13432   0.00023   0.00000   0.01539   0.01567  -3.13319
    D7       -3.10685  -0.00017   0.00000  -0.01874  -0.01943  -3.12628
    D8        0.02081   0.00006   0.00000  -0.00751  -0.00795   0.01286
    D9       -1.07994  -0.00061   0.00000  -0.01661  -0.01664  -1.09658
   D10        1.17619   0.00108   0.00000  -0.00224  -0.00227   1.17393
   D11       -3.07559  -0.00110   0.00000  -0.02622  -0.02615  -3.10174
   D12        2.03320  -0.00022   0.00000   0.00746   0.00742   2.04062
   D13       -1.99385   0.00147   0.00000   0.02183   0.02179  -1.97206
   D14        0.03754  -0.00071   0.00000  -0.00215  -0.00208   0.03546
   D15       -0.00225   0.00020   0.00000   0.00861   0.00850   0.00625
   D16       -3.13946   0.00010   0.00000   0.00521   0.00522  -3.13424
   D17       -3.13849   0.00021   0.00000   0.00712   0.00689  -3.13160
   D18        0.00748   0.00011   0.00000   0.00372   0.00361   0.01109
   D19        0.00338  -0.00004   0.00000  -0.00096  -0.00090   0.00248
   D20       -3.13064  -0.00012   0.00000  -0.00466  -0.00458  -3.13522
   D21        3.14069   0.00005   0.00000   0.00236   0.00230  -3.14019
   D22        0.00667  -0.00002   0.00000  -0.00134  -0.00138   0.00529
   D23        0.00058  -0.00014   0.00000  -0.00540  -0.00533  -0.00475
   D24        3.12311  -0.00022   0.00000  -0.01100  -0.01100   3.11211
   D25        3.13449  -0.00007   0.00000  -0.00164  -0.00160   3.13290
   D26       -0.02616  -0.00015   0.00000  -0.00725  -0.00726  -0.03342
   D27       -0.00554   0.00017   0.00000   0.00381   0.00370  -0.00184
   D28       -3.13303  -0.00012   0.00000  -0.00787  -0.00798  -3.14101
   D29       -3.12807   0.00025   0.00000   0.00941   0.00937  -3.11871
   D30        0.02762  -0.00004   0.00000  -0.00227  -0.00231   0.02531
   D31        0.39275   0.00003   0.00000  -0.00138  -0.00135   0.39139
   D32        2.67041   0.00005   0.00000  -0.00107  -0.00104   2.66937
   D33       -1.61167  -0.00006   0.00000  -0.00253  -0.00250  -1.61416
   D34       -2.76729  -0.00005   0.00000  -0.00680  -0.00683  -2.77412
   D35       -0.48963  -0.00003   0.00000  -0.00649  -0.00652  -0.49614
   D36        1.51149  -0.00014   0.00000  -0.00794  -0.00797   1.50351
   D37        1.05962   0.00263   0.00000   0.04766   0.04768   1.10730
   D38       -1.21124   0.00114   0.00000   0.01358   0.01344  -1.19780
   D39       -0.92750   0.00024   0.00000   0.02682   0.02690  -0.90060
   D40        3.08482  -0.00125   0.00000  -0.00725  -0.00734   3.07749
   D41        3.09874   0.00052   0.00000   0.02650   0.02665   3.12539
   D42        0.82788  -0.00097   0.00000  -0.00757  -0.00758   0.82029
   D43        1.10141   0.00013   0.00000   0.00149   0.00149   1.10289
   D44       -1.10705   0.00019   0.00000   0.00283   0.00283  -1.10421
   D45       -0.90941  -0.00001   0.00000   0.00021   0.00021  -0.90920
   D46       -3.11786   0.00005   0.00000   0.00156   0.00156  -3.11631
   D47        3.11001  -0.00014   0.00000  -0.00080  -0.00080   3.10920
   D48        0.90155  -0.00008   0.00000   0.00054   0.00054   0.90210
         Item               Value     Threshold  Converged?
 Maximum Force            0.013028     0.000450     NO 
 RMS     Force            0.002064     0.000300     NO 
 Maximum Displacement     0.160683     0.001800     NO 
 RMS     Displacement     0.042714     0.001200     NO 
 Predicted change in Energy=-1.030139D-03
 GradGradGradGradGradGradGradGradGradGradGradGradGradGradGradGradGradGrad

                          Input orientation:                          
 ---------------------------------------------------------------------
 Center     Atomic      Atomic             Coordinates (Angstroms)
 Number     Number       Type             X           Y           Z
 ---------------------------------------------------------------------
      1          6           0       -1.557271    1.078470   -1.133299
      2          6           0       -2.812109    0.928331   -1.731071
      3          6           0       -2.929193    0.141701   -2.881583
      4          6           0       -1.814543   -0.491659   -3.423796
      5          6           0       -0.587450   -0.330466   -2.800457
      6          6           0       -0.434543    0.446136   -1.657310
      7         16           0       -1.393882    2.113410    0.334767
      8          8           0       -1.754502    3.471739   -0.059825
      9          8           0       -2.113315    1.453924    1.419018
     10          7           0        0.178708    2.154273    0.775965
     11          1           0        0.800082    2.583516    0.087012
     12          1           0        0.539994    1.267528    1.132897
     13         17           0       -4.200377    1.697611   -1.057241
     14         17           0       -4.457542   -0.064813   -3.662366
     15         16           0        0.837240   -1.177901   -3.465916
     16          1           0       -1.915346   -1.095356   -4.320786
     17          1           0        0.540292    0.553113   -1.192760
     18          8           0        0.550928   -1.474155   -4.865780
     19          8           0        2.012116   -0.391579   -3.103480
     20          7           0        0.987380   -2.623005   -2.698082
     21          1           0        0.189767   -3.239366   -2.866873
     22          1           0        1.167180   -2.515088   -1.697542
 ---------------------------------------------------------------------
                    Distance matrix (angstroms):
                    1          2          3          4          5
     1  C    0.000000
     2  C    1.398031   0.000000
     3  C    2.411680   1.398633   0.000000
     4  C    2.788883   2.424217   1.391971   0.000000
     5  C    2.388528   2.770787   2.390247   1.385746   0.000000
     6  C    1.391026   2.427091   2.795497   2.429883   1.390423
     7  S    1.803611   2.771906   4.073048   4.592399   4.056167
     8  O    2.630396   3.221881   4.520107   5.198887   4.830097
     9  O    2.639029   3.269193   4.569765   5.227562   4.828694
    10  N    2.795758   4.090617   5.204532   5.349018   4.421733
    11  H    3.051465   4.369552   5.355605   5.349648   4.330590
    12  H    3.093527   4.421986   5.423909   5.422365   4.392720
    13  Cl   2.715719   1.724276   2.713852   4.010697   4.495013
    14  Cl   4.014330   2.724644   1.728618   2.687853   3.973798
    15  S    4.033112   4.556715   4.033462   2.739463   1.786260
    16  H    3.874765   3.406775   2.151627   1.085911   2.158649
    17  H    2.163170   3.416014   3.880554   3.407978   2.153416
    18  O    4.989169   5.187326   4.319637   2.939399   2.620970
    19  O    4.333957   5.186407   4.974953   3.841346   2.617881
    20  N    4.756544   5.289916   4.797584   3.594450   2.783219
    21  H    4.970023   5.260323   4.599971   3.446348   3.011674
    22  H    4.544740   5.262413   5.024017   3.995609   3.011266
                    6          7          8          9         10
     6  C    0.000000
     7  S    2.769206   0.000000
     8  O    3.667223   1.459729   0.000000
     9  O    3.646602   1.458803   2.527311   0.000000
    10  N    3.035562   1.633819   2.484263   2.481406   0.000000
    11  H    3.022475   2.257401   2.708579   3.396778   1.022258
    12  H    3.067518   2.256635   3.397917   2.675193   1.021883
    13  Cl   4.013450   3.160220   3.181929   3.247625   4.769232
    14  Cl   4.523919   5.487052   5.726423   5.798485   6.791019
    15  S    2.743353   5.500529   6.319631   6.284494   5.434207
    16  H    3.415125   5.678228   6.248200   6.283579   6.397032
    17  H    1.085151   2.917000   3.881752   3.830728   2.563266
    18  O    3.866904   6.610490   7.271455   7.427686   6.718133
    19  O    2.962991   5.449526   6.194875   6.393595   4.989273
    20  N    3.539025   6.107553   7.185000   6.571619   5.961991
    21  H    3.928833   6.435110   7.529849   6.760179   6.508589
    22  H    3.366894   5.666772   6.860061   6.018941   5.375709
                   11         12         13         14         15
    11  H    0.000000
    12  H    1.700984   0.000000
    13  Cl   5.205645   5.239542   0.000000
    14  Cl   6.979548   7.053017   3.155780   0.000000
    15  S    5.174257   5.217046   6.280755   5.414081   0.000000
    16  H    6.351089   6.430752   4.865466   2.821045   2.883461
    17  H    2.414093   2.432914   4.878748   5.608843   2.872599
    18  O    6.407567   6.595534   6.865855   5.340339   1.459232
    19  O    4.527633   4.781911   6.866359   6.501970   1.459450
    20  N    5.907596   5.478395   6.947871   6.092731   1.643301
    21  H    6.557734   6.035969   6.849955   5.684019   2.242256
    22  H    5.414347   4.765809   6.853283   6.442195   2.241445
                   16         17         18         19         20
    16  H    0.000000
    17  H    4.304898   0.000000
    18  O    2.554019   4.195354   0.000000
    19  O    4.171582   2.590282   2.532339   0.000000
    20  N    3.659604   3.543107   2.491839   2.488713   0.000000
    21  H    3.337984   4.160339   2.691103   3.389222   1.022046
    22  H    4.289407   3.172011   3.391318   2.683257   1.022279
                   21         22
    21  H    0.000000
    22  H    1.687380   0.000000
 Stoichiometry    C6H6Cl2N2O4S2
 Framework group  C1[X(C6H6Cl2N2O4S2)]
 Deg. of freedom    60
 Full point group                 C1      NOp   1
 Largest Abelian subgroup         C1      NOp   1
 Largest concise Abelian subgroup C1      NOp   1
                         Standard orientation:                         
 ---------------------------------------------------------------------
 Center     Atomic      Atomic             Coordinates (Angstroms)
 Number     Number       Type             X           Y           Z
 ---------------------------------------------------------------------
      1          6           0        0.862092   -0.430435   -0.018958
      2          6           0        1.140198    0.939451    0.004678
      3          6           0        0.079859    1.850832   -0.030525
      4          6           0       -1.237526    1.404132   -0.080908
      5          6           0       -1.478583    0.039563   -0.092514
      6          6           0       -0.448717   -0.894068   -0.061113
      7         16           0        2.225350   -1.611211   -0.001334
      8          8           0        2.993661   -1.392461   -1.223076
      9          8           0        2.878574   -1.508098    1.298963
     10          7           0        1.612121   -3.122597   -0.096339
     11          1           0        1.109719   -3.321226   -0.964181
     12          1           0        1.096727   -3.421797    0.733777
     13         17           0        2.768699    1.500837    0.081873
     14         17           0        0.374182    3.554131   -0.014157
     15         16           0       -3.168513   -0.538815   -0.111036
     16          1           0       -2.053208    2.120214   -0.113919
     17          1           0       -0.670308   -1.956299   -0.071813
     18          8           0       -3.991361    0.542986   -0.642059
     19          8           0       -3.166619   -1.848633   -0.754750
     20          7           0       -3.651244   -0.781794    1.440857
     21          1           0       -3.655835    0.081534    1.987868
     22          1           0       -3.109593   -1.512925    1.906813
 ---------------------------------------------------------------------
 Rotational constants (GHZ):           0.4551166           0.2696739           0.1822441
 Basis read from rwf:  (6D, 7F)
 There are   332 symmetry adapted cartesian basis functions of A   symmetry.
 There are   332 symmetry adapted basis functions of A   symmetry.
   332 basis functions,   632 primitive gaussians,   332 cartesian basis functions
    77 alpha electrons       77 beta electrons
       nuclear repulsion energy      1731.4271219026 Hartrees.
 NAtoms=   22 NActive=   22 NUniq=   22 SFac= 1.00D+00 NAtFMM=   60 NAOKFM=F Big=F
 Integral buffers will be    131072 words long.
 Raffenetti 2 integral format.
 Two-electron integral symmetry is turned on.
 ------------------------------------------------------------------------------
 Polarizable Continuum Model (PCM)
 =================================
 Model                : PCM.
 Atomic radii         : SMD-Coulomb.
 Polarization charges : Total charges.
 Charge compensation  : None.
 Solution method      : On-the-fly selection.
 Cavity type          : VdW (van der Waals Surface) (Alpha=1.000).
 Cavity algorithm     : GePol (No added spheres)
                        Default sphere list used, NSphG=   22.
                        Lebedev-Laikov grids with approx.  5.0 points / Ang**2.
                        Smoothing algorithm: York/Karplus (Gamma=1.0000).
                        Polarization charges: spherical gaussians, with
                                              point-specific exponents (IZeta= 3).
                        Self-potential: point-specific (ISelfS= 7).
                        Self-field    : sphere-specific E.n sum rule (ISelfD= 2).
 1st derivatives      : Analytical E(r).r(x)/FMM algorithm (CHGder, D1EAlg=3).
                        Cavity 1st derivative terms included.
 Solvent              : Water, Eps=  78.355300 Eps(inf)=   1.777849
 ------------------------------------------------------------------------------
 ------------------------------------------------------------------------------
 Atomic radii for non-electrostatic terms: SMD-CDS.
 ------------------------------------------------------------------------------
 Nuclear repulsion after PCM non-electrostatic terms =     1731.4342441137 Hartrees.
 One-electron integrals computed using PRISM.
 NBasis=   332 RedAO= T EigKep=  1.09D-06  NBF=   332
 NBsUse=   330 1.00D-06 EigRej=  9.05D-07 NBFU=   330
 Initial guess from the checkpoint file:  "/jobfs/50077393.gadi-pbs/Gau-690335.chk"
 B after Tr=     0.000000    0.000000    0.000000
         Rot=    0.999984    0.000175    0.000341   -0.005612 Ang=   0.64 deg.
 ExpMin= 4.05D-02 ExpMax= 2.52D+04 ExpMxC= 3.78D+03 IAcc=3 IRadAn=         5 AccDes= 0.00D+00
 Harris functional with IExCor= 1009 and IRadAn=       5 diagonalized for initial guess.
 HarFok:  IExCor= 1009 AccDes= 0.00D+00 IRadAn=         5 IDoV= 1 UseB2=F ITyADJ=14
 ICtDFT=  3500011 ScaDFX=  1.000000  1.000000  1.000000  1.000000
 FoFCou: FMM=F IPFlag=           0 FMFlag=      100000 FMFlg1=           0
         NFxFlg=           0 DoJE=T BraDBF=F KetDBF=T FulRan=T
         wScrn=  0.000000 ICntrl=       500 IOpCl=  0 I1Cent=   200000004 NGrid=           0
         NMat0=    1 NMatS0=      1 NMatT0=    0 NMatD0=    1 NMtDS0=    0 NMtDT0=    0
 Petite list used in FoFCou.
 Requested convergence on RMS density matrix=1.00D-08 within 128 cycles.
 Requested convergence on MAX density matrix=1.00D-06.
 Requested convergence on             energy=1.00D-06.
 No special actions if energy rises.
 Inv3:  Mode=1 IEnd=    12792675.
 Iteration    1 A*A^-1 deviation from unit magnitude is 5.00D-15 for   2062.
 Iteration    1 A*A^-1 deviation from orthogonality  is 2.47D-15 for   2062   1968.
 Iteration    1 A^-1*A deviation from unit magnitude is 4.88D-15 for   2053.
 Iteration    1 A^-1*A deviation from orthogonality  is 3.46D-15 for   2029    354.
 Error on total polarization charges =  0.03200
 SCF Done:  E(RM062X) =  -2358.95322491     A.U. after   14 cycles
            NFock= 14  Conv=0.78D-08     -V/T= 2.0046
 SMD-CDS (non-electrostatic) energy       (kcal/mol) =       4.47
 (included in total energy above)
 D1PCM: PCM CHGder 1st derivatives, ID1Alg=3 FixD1E=F DoIter=F DoCFld=F I1PDM=0.
 Calling FoFJK, ICntrl=      2127 FMM=F ISym2X=0 I1Cent= 0 IOpClX= 0 NMat=1 NMatS=1 NMatT=0.
 ***** Axes restored to original set *****
 -------------------------------------------------------------------
 Center     Atomic                   Forces (Hartrees/Bohr)
 Number     Number              X              Y              Z
 -------------------------------------------------------------------
      1        6           0.005156539   -0.001420778    0.000157947
      2        6          -0.002109579    0.000260748   -0.000202087
      3        6          -0.000109274   -0.000138481   -0.000067456
      4        6          -0.000566213   -0.000027580    0.000066688
      5        6          -0.000138648    0.000272880    0.000294834
      6        6          -0.001888241    0.001222283    0.001607143
      7       16           0.002197754    0.001655751    0.001064895
      8        8           0.000317092   -0.000629643    0.000029157
      9        8          -0.000659056   -0.000385361    0.000256910
     10        7          -0.000098693   -0.001551507   -0.002438936
     11        1          -0.000576985    0.000353122    0.000691624
     12        1          -0.000504631    0.000245065   -0.000336412
     13       17          -0.001574370   -0.000686574   -0.001617354
     14       17          -0.000231304    0.000161093    0.000149579
     15       16          -0.000084359    0.000113712   -0.000055347
     16        1          -0.000050672    0.000030922   -0.000031168
     17        1           0.000717750    0.000518227    0.000273571
     18        8           0.000013496    0.000019972    0.000251286
     19        8           0.000158509    0.000012427   -0.000030592
     20        7           0.000051038    0.000028719   -0.000050933
     21        1           0.000006603   -0.000016919    0.000023174
     22        1          -0.000026757   -0.000038077   -0.000036524
 -------------------------------------------------------------------
 Cartesian Forces:  Max     0.005156539 RMS     0.001012144

 GradGradGradGradGradGradGradGradGradGradGradGradGradGradGradGradGradGrad
 Berny optimization.
 Using GEDIIS/GDIIS optimizer.
 FormGI is forming the generalized inverse of G from B-inverse, IUseBI=4.
 Internal  Forces:  Max     0.004518755 RMS     0.001062334
 Search for a local minimum.
 Step number   2 out of a maximum of  116
 All quantities printed in internal units (Hartrees-Bohrs-Radians)
 Mixed Optimization -- RFO/linear search
 Update second derivatives using D2CorX and points    1    2
 DE= -7.94D-04 DEPred=-1.03D-03 R= 7.71D-01
 TightC=F SS=  1.41D+00  RLast= 1.24D-01 DXNew= 5.0454D-01 3.7187D-01
 Trust test= 7.71D-01 RLast= 1.24D-01 DXMaxT set to 3.72D-01
 ITU=  1  0
 Use linear search instead of GDIIS.
     Eigenvalues ---    0.00355   0.00549   0.01443   0.01594   0.02044
     Eigenvalues ---    0.02075   0.02091   0.02122   0.02150   0.02193
     Eigenvalues ---    0.02230   0.02236   0.02252   0.03918   0.04467
     Eigenvalues ---    0.09125   0.09572   0.10278   0.10514   0.14145
     Eigenvalues ---    0.14273   0.15682   0.16000   0.16000   0.16000
     Eigenvalues ---    0.16000   0.16044   0.19594   0.19753   0.22389
     Eigenvalues ---    0.23492   0.23510   0.24993   0.24999   0.25000
     Eigenvalues ---    0.25000   0.25000   0.26019   0.27208   0.32607
     Eigenvalues ---    0.32904   0.34005   0.35282   0.35636   0.42789
     Eigenvalues ---    0.43144   0.43660   0.43989   0.44012   0.44088
     Eigenvalues ---    0.44236   0.44489   0.46570   0.46936   0.47671
     Eigenvalues ---    0.51558   0.91877   0.91903   0.92397   0.92757
 RFO step:  Lambda=-2.49827099D-04 EMin= 3.54663302D-03
 Quartic linear search produced a step of -0.17717.
 Iteration  1 RMS(Cart)=  0.01920280 RMS(Int)=  0.00014077
 Iteration  2 RMS(Cart)=  0.00019910 RMS(Int)=  0.00002534
 Iteration  3 RMS(Cart)=  0.00000002 RMS(Int)=  0.00002534
 Variable       Old X    -DE/DX   Delta X   Delta X   Delta X     New X
                                 (Linear)    (Quad)   (Total)
    R1        2.64190   0.00452   0.00100   0.00662   0.00762   2.64952
    R2        2.62866  -0.00283  -0.00078  -0.00359  -0.00437   2.62429
    R3        3.40833  -0.00071  -0.00082  -0.00085  -0.00168   3.40665
    R4        2.64303  -0.00039   0.00013  -0.00077  -0.00064   2.64239
    R5        3.25841   0.00033   0.00041   0.00012   0.00053   3.25894
    R6        2.63044  -0.00047  -0.00010  -0.00063  -0.00073   2.62972
    R7        3.26662   0.00012   0.00012   0.00009   0.00021   3.26682
    R8        2.61868   0.00041   0.00025   0.00016   0.00040   2.61909
    R9        2.05207   0.00001   0.00002  -0.00001   0.00002   2.05209
   R10        2.62752  -0.00017  -0.00028   0.00002  -0.00026   2.62726
   R11        3.37554  -0.00000   0.00009  -0.00016  -0.00007   3.37547
   R12        2.05064   0.00081   0.00016   0.00162   0.00178   2.05242
   R13        2.75849  -0.00067  -0.00065   0.00049  -0.00016   2.75833
   R14        2.75674   0.00069  -0.00034   0.00119   0.00085   2.75759
   R15        3.08747  -0.00173   0.00114  -0.00512  -0.00397   3.08350
   R16        1.93179  -0.00068  -0.00015  -0.00102  -0.00117   1.93062
   R17        1.93108  -0.00050  -0.00046  -0.00015  -0.00061   1.93047
   R18        2.75755  -0.00025   0.00002  -0.00026  -0.00024   2.75731
   R19        2.75796   0.00013  -0.00003   0.00017   0.00014   2.75810
   R20        3.10539   0.00001   0.00004  -0.00006  -0.00002   3.10537
   R21        1.93139   0.00001   0.00000   0.00001   0.00001   1.93140
   R22        1.93183  -0.00004  -0.00003  -0.00004  -0.00006   1.93176
    A1        2.11129   0.00017   0.00028   0.00030   0.00058   2.11187
    A2        2.08400   0.00369   0.00885  -0.00294   0.00593   2.08992
    A3        2.08789  -0.00386  -0.00918   0.00267  -0.00650   2.08139
    A4        2.07975  -0.00091  -0.00044  -0.00167  -0.00211   2.07765
    A5        2.10326   0.00426   0.00267   0.00922   0.01189   2.11515
    A6        2.10016  -0.00336  -0.00224  -0.00754  -0.00978   2.09038
    A7        2.10517   0.00016  -0.00000   0.00084   0.00084   2.10601
    A8        2.10919  -0.00055  -0.00000  -0.00197  -0.00197   2.10722
    A9        2.06883   0.00039   0.00000   0.00112   0.00113   2.06995
   A10        2.07253   0.00004   0.00013  -0.00034  -0.00021   2.07232
   A11        2.09484  -0.00007  -0.00018   0.00010  -0.00009   2.09475
   A12        2.11581   0.00003   0.00005   0.00023   0.00028   2.11609
   A13        2.13196   0.00045  -0.00003   0.00097   0.00095   2.13291
   A14        2.07545  -0.00006   0.00002   0.00006   0.00008   2.07553
   A15        2.07551  -0.00039   0.00002  -0.00104  -0.00102   2.07450
   A16        2.06559   0.00010   0.00007  -0.00011  -0.00004   2.06555
   A17        2.11646  -0.00027  -0.00326   0.00435   0.00109   2.11756
   A18        2.10113   0.00017   0.00317  -0.00425  -0.00107   2.10005
   A19        1.86664   0.00116  -0.00381   0.00981   0.00599   1.87263
   A20        1.87642   0.00040   0.00126  -0.00208  -0.00081   1.87561
   A21        1.89795  -0.00418   0.00233  -0.01946  -0.01713   1.88082
   A22        2.09410  -0.00033  -0.00069   0.00374   0.00304   2.09714
   A23        1.86242   0.00086  -0.00072   0.00357   0.00284   1.86527
   A24        1.86010   0.00148   0.00198   0.00129   0.00326   1.86336
   A25        1.99717   0.00011  -0.00372   0.00751   0.00382   2.00099
   A26        1.99645  -0.00052  -0.00091  -0.00048  -0.00136   1.99509
   A27        1.96586   0.00039  -0.00103   0.00466   0.00368   1.96955
   A28        1.87257  -0.00006  -0.00022   0.00001  -0.00021   1.87236
   A29        1.86914   0.00011   0.00024   0.00034   0.00058   1.86972
   A30        1.89231   0.00008   0.00025  -0.00010   0.00015   1.89245
   A31        2.10083  -0.00000  -0.00006   0.00001  -0.00005   2.10079
   A32        1.86255  -0.00007  -0.00018  -0.00026  -0.00044   1.86211
   A33        1.85898  -0.00004   0.00001  -0.00002  -0.00000   1.85898
   A34        1.96261   0.00002   0.00004   0.00002   0.00006   1.96267
   A35        1.96119   0.00005   0.00011   0.00008   0.00019   1.96138
   A36        1.94181  -0.00004   0.00009  -0.00039  -0.00031   1.94151
    D1       -0.01307   0.00008   0.00181   0.00007   0.00186  -0.01121
    D2        3.12478   0.00011   0.00150   0.00196   0.00344   3.12821
    D3        3.12407   0.00007  -0.00266   0.00703   0.00448   3.12855
    D4       -0.02127   0.00009  -0.00297   0.00892   0.00606  -0.01521
    D5        0.01085  -0.00005  -0.00074  -0.00062  -0.00137   0.00948
    D6       -3.13319  -0.00022  -0.00278  -0.00323  -0.00606  -3.13925
    D7       -3.12628  -0.00005   0.00344  -0.00759  -0.00402  -3.13030
    D8        0.01286  -0.00022   0.00141  -0.01020  -0.00871   0.00416
    D9       -1.09658  -0.00044   0.00295  -0.02471  -0.02177  -1.11835
   D10        1.17393   0.00019   0.00040  -0.01489  -0.01449   1.15944
   D11       -3.10174   0.00002   0.00463  -0.02432  -0.01968  -3.12142
   D12        2.04062  -0.00044  -0.00131  -0.01785  -0.01917   2.02145
   D13       -1.97206   0.00019  -0.00386  -0.00802  -0.01189  -1.98395
   D14        0.03546   0.00002   0.00037  -0.01746  -0.01708   0.01838
   D15        0.00625  -0.00004  -0.00151   0.00107  -0.00041   0.00584
   D16       -3.13424   0.00001  -0.00092   0.00228   0.00135  -3.13289
   D17       -3.13160  -0.00008  -0.00122  -0.00085  -0.00202  -3.13362
   D18        0.01109  -0.00003  -0.00064   0.00036  -0.00025   0.01084
   D19        0.00248  -0.00005   0.00016  -0.00163  -0.00148   0.00100
   D20       -3.13522   0.00006   0.00081   0.00094   0.00174  -3.13349
   D21       -3.14019  -0.00010  -0.00041  -0.00281  -0.00321   3.13979
   D22        0.00529  -0.00000   0.00024  -0.00025   0.00001   0.00530
   D23       -0.00475   0.00008   0.00094   0.00105   0.00199  -0.00277
   D24        3.11211   0.00010   0.00195   0.00079   0.00273   3.11485
   D25        3.13290  -0.00003   0.00028  -0.00155  -0.00127   3.13163
   D26       -0.03342  -0.00000   0.00129  -0.00181  -0.00052  -0.03395
   D27       -0.00184  -0.00004  -0.00066   0.00005  -0.00058  -0.00242
   D28       -3.14101   0.00013   0.00141   0.00262   0.00406  -3.13695
   D29       -3.11871  -0.00007  -0.00166   0.00031  -0.00134  -3.12005
   D30        0.02531   0.00010   0.00041   0.00288   0.00329   0.02861
   D31        0.39139  -0.00004   0.00024   0.00108   0.00131   0.39271
   D32        2.66937  -0.00000   0.00018   0.00132   0.00150   2.67087
   D33       -1.61416   0.00004   0.00044   0.00143   0.00186  -1.61230
   D34       -2.77412  -0.00000   0.00121   0.00085   0.00206  -2.77205
   D35       -0.49614   0.00003   0.00115   0.00109   0.00225  -0.49389
   D36        1.50351   0.00007   0.00141   0.00119   0.00261   1.50613
   D37        1.10730   0.00050  -0.00845   0.02599   0.01754   1.12484
   D38       -1.19780   0.00034  -0.00238   0.01182   0.00947  -1.18833
   D39       -0.90060   0.00076  -0.00477   0.02227   0.01749  -0.88310
   D40        3.07749   0.00059   0.00130   0.00810   0.00942   3.08691
   D41        3.12539  -0.00032  -0.00472   0.01464   0.00989   3.13528
   D42        0.82029  -0.00048   0.00134   0.00047   0.00181   0.82210
   D43        1.10289  -0.00006  -0.00026   0.00016  -0.00010   1.10280
   D44       -1.10421  -0.00006  -0.00050   0.00061   0.00011  -1.10410
   D45       -0.90920   0.00000  -0.00004   0.00033   0.00030  -0.90890
   D46       -3.11631   0.00000  -0.00028   0.00078   0.00050  -3.11580
   D47        3.10920   0.00008   0.00014   0.00050   0.00064   3.10984
   D48        0.90210   0.00008  -0.00010   0.00094   0.00085   0.90295
         Item               Value     Threshold  Converged?
 Maximum Force            0.004519     0.000450     NO 
 RMS     Force            0.001062     0.000300     NO 
 Maximum Displacement     0.088907     0.001800     NO 
 RMS     Displacement     0.019195     0.001200     NO 
 Predicted change in Energy=-1.645881D-04
 GradGradGradGradGradGradGradGradGradGradGradGradGradGradGradGradGradGrad

                          Input orientation:                          
 ---------------------------------------------------------------------
 Center     Atomic      Atomic             Coordinates (Angstroms)
[...]
 02,0.00644497,-0.00868959,-0.00253627,-0.11855706,0.35159786,0.0005101
 7,-0.00084593,0.00018943,-0.00048464,0.00006332,0.00040880,-0.00007302
 ,0.00013764,-0.00010448,0.00011367,0.00009844,0.00024082,0.00032526,0.
 00000809,0.00000818,-0.00045298,0.00003334,0.00002933,-0.01644212,0.00
 482641,-0.00863146,0.00127781,0.00016397,0.00402736,0.00262242,0.00023
 843,-0.00192281,-0.02407137,0.11544459,-0.05671787,-0.01023884,0.01541
 384,-0.00678605,0.04570964,-0.13489606,0.07106945,-0.03454648,0.018239
 26,0.01384219,-0.13781701,0.05791120,0.04574108,-0.01470830,0.01123225
 ,0.00929432,0.00472857,-0.00030987,-0.00038431,-0.00361942,0.00117584,
 0.00111513,-0.00170877,-0.00255702,-0.00528746,-0.00252052,0.00264852,
 0.00367391,-0.00183381,-0.00252085,-0.00150696,-0.00063509,-0.00006579
 ,-0.00304273,-0.00062760,-0.00018425,-0.00055211,0.00017493,0.00018330
 ,0.00006574,0.00011483,-0.00001114,0.00022453,0.19013526,0.00787068,0.
 00136557,-0.00052311,0.05499945,-0.06093079,-0.03276014,0.02277723,-0.
 01002397,-0.01446724,-0.00359622,0.00211540,-0.00404593,0.00216433,-0.
 00057213,0.00003824,0.00016592,0.00301570,-0.00163085,0.00026480,-0.00
 495074,-0.00184646,-0.00322807,0.00061976,-0.00119980,-0.00061984,0.00
 059427,0.00117599,-0.00008269,0.00063752,0.00012386,0.00002174,-0.0000
 3884,0.00001186,-0.00008918,0.00003946,-0.00004397,-0.08229735,0.07164
 763,-0.00066141,0.00277376,0.00702481,0.04176080,-0.03170442,-0.056334
 98,0.02566029,-0.01825585,-0.01200105,-0.00513278,-0.00309889,-0.00154
 321,0.00212250,0.00001774,0.00005718,-0.00153284,-0.00236270,0.0003733
 6,0.00039631,-0.00107377,-0.00496834,-0.00218268,0.00036079,0.00018655
 ,-0.00408128,-0.00024348,-0.00096774,-0.00031286,0.00008893,0.00056066
 ,-0.00005956,-0.00001423,0.00003639,0.00004797,0.00004586,0.00001481,-
 0.05961505,0.05660290,0.07290007,0.00122203,-0.00036729,-0.00144029,-0
 .01892647,-0.00242009,-0.01059862,-0.15152531,-0.01539097,-0.06110347,
 -0.04379259,-0.00293153,-0.01969388,0.00055473,0.00458076,0.00492425,-
 0.00190282,-0.00143868,-0.00252116,-0.00060380,0.00264137,0.00336443,0
 .00019846,-0.00121367,-0.00037662,0.00042721,-0.00007738,-0.00123009,-
 0.00078616,-0.00055947,-0.00094657,0.00016240,0.00019945,-0.00002731,0
 .00010610,-0.00011577,0.00021300,0.00248796,0.00150678,0.00318612,0.21
 198408,0.00225913,0.00113437,-0.00361888,-0.01521574,-0.00050765,-0.01
 084642,-0.01239099,-0.03077695,-0.01400563,0.00991407,0.00528177,0.004
 28983,0.00146174,0.00203383,-0.00308410,-0.00072274,-0.00025740,0.0006
 2098,-0.00022757,0.00098459,0.00088800,-0.00002285,-0.00041789,-0.0001
 2549,0.00007668,-0.00001865,-0.00050192,-0.00045501,-0.00030165,-0.000
 33423,0.00003933,0.00004267,-0.00002259,0.00005407,-0.00003983,0.00007
 402,-0.00366072,-0.00318501,-0.00373386,0.01803398,0.02761845,0.002114
 90,-0.00442755,-0.00126290,-0.02841769,-0.00670345,-0.01450544,-0.0571
 2148,-0.01496712,-0.06251848,-0.00143383,0.00009238,0.00423054,0.00099
 916,-0.00222993,0.00190460,-0.00121540,0.00030134,-0.00084177,-0.00059
 726,0.00184187,0.00264062,0.00002927,-0.00104581,-0.00034532,0.0002262
 8,-0.00002520,-0.00102923,-0.00086078,-0.00041372,-0.00094152,0.000150
 17,0.00015681,-0.00003167,0.00007592,-0.00009597,0.00014248,-0.0038619
 2,-0.00212055,-0.00579475,0.08781781,0.02840982,0.07853842,0.00550328,
 -0.00406943,-0.00457817,-0.00468842,0.00083178,-0.00005726,-0.00392792
 ,-0.00194806,-0.00549259,-0.02423069,0.00930863,0.00393851,-0.12773909
 ,0.04060321,0.02316864,0.00499646,0.00704783,0.01243881,0.00254904,0.0
 0547647,0.00785149,-0.00011601,-0.00375426,-0.00138540,0.00057373,-0.0
 0031646,-0.00406318,-0.00190080,-0.00099865,-0.00186952,0.00039740,0.0
 0048101,-0.00006432,0.00023991,-0.00025201,0.00049296,0.00475216,-0.00
 259354,-0.00216619,0.00288969,0.00040661,0.00139513,0.69538446,-0.0015
 1790,0.00342192,-0.00323091,0.00074144,-0.00225991,-0.00190695,-0.0003
 5756,0.00678516,-0.00022802,0.00533974,0.00371795,0.00649790,0.0349452
 4,-0.08188278,-0.02285253,0.01023079,-0.00867970,-0.00715770,-0.000268
 34,-0.00259261,-0.00450087,0.00000782,0.00194155,0.00082998,-0.0004012
 5,0.00004440,0.00179558,0.00086438,0.00071332,0.00119609,-0.00021684,-
 0.00032866,-0.00002913,-0.00014068,0.00014353,-0.00037506,-0.00295162,
 0.00120514,0.00149502,-0.00258359,0.00000460,-0.00083978,0.17595054,0.
 60890671,-0.00111612,-0.00404881,-0.00087337,-0.00033358,-0.00191956,-
 0.00346164,-0.00331709,-0.00060446,0.00373834,0.00114484,0.00844843,0.
 01018810,0.02505443,-0.02718621,-0.07752963,0.01690883,-0.00966275,-0.
 00746819,0.00027139,-0.00258092,-0.00291289,-0.00008859,0.00116046,0.0
 0034572,-0.00026618,0.00016589,0.00137257,0.00060326,0.00059980,0.0010
 0024,-0.00019662,-0.00027781,-0.00000447,-0.00011892,0.00008601,-0.000
 30612,-0.00233809,0.00140919,0.00091022,-0.00259433,-0.00004391,-0.000
 59646,0.16654523,0.11361404,0.83092013,-0.00102922,0.00025773,0.000252
 53,-0.00300118,0.00217600,0.00029356,0.00395216,0.01488260,0.02053503,
 -0.05850544,-0.01405382,-0.02545926,0.00296604,-0.01478498,-0.02133404
 ,-0.00493145,0.00065060,-0.00245833,-0.00017104,0.00000333,0.00008184,
 0.00006491,-0.00008707,0.00000495,0.00004244,0.00002435,-0.00002072,0.
 00005506,-0.00008348,-0.00011523,0.00002666,0.00004278,0.00001341,0.00
 001611,-0.00000948,0.00005470,-0.00042193,0.00084178,0.00116632,0.0003
 5906,0.00046710,0.00165876,-0.00140528,-0.00129688,-0.00251083,0.06060
 883,0.00042387,-0.00027562,0.00075785,0.00223970,0.00332012,-0.0029537
 7,-0.00122273,-0.00251958,-0.01044042,-0.01223213,-0.13928350,-0.14497
 535,-0.00102168,0.00365426,-0.00186034,0.00094948,0.00445683,-0.002205
 41,-0.00007781,-0.00046405,-0.00010750,0.00004989,-0.00000569,0.000002
 49,-0.00011332,0.00005639,0.00021970,0.00004684,0.00005393,0.00002259,
 -0.00001174,-0.00002481,0.00001219,-0.00001134,-0.00000735,-0.00000116
 ,0.00003221,-0.00035956,-0.00010381,-0.00132852,-0.00146202,0.00126361
 ,0.00017016,-0.00219789,0.00095450,0.01102017,0.13537137,0.00038350,0.
 00068661,0.00040996,0.00033331,-0.00279497,0.00189946,-0.00170966,-0.0
 0528962,-0.00339986,-0.02411085,-0.14639247,-0.25372941,-0.00168715,-0
 .00638640,-0.00498256,-0.00196070,-0.00211629,0.00238406,-0.00003250,-
 0.00009239,-0.00051832,-0.00005404,0.00019089,0.00010077,0.00003408,0.
 00001179,0.00005486,0.00007439,-0.00001651,0.00004002,-0.00000564,0.00
 001012,-0.00000247,-0.00000289,0.00001511,-0.00000630,-0.00003669,0.00
 019339,-0.00002141,-0.00060344,0.00171194,-0.00007374,-0.00029869,0.00
 110609,-0.00210712,0.02753441,0.15925678,0.25972876,-0.01593499,-0.001
 54485,-0.00831119,-0.00097409,0.00237056,0.00131930,-0.00004448,0.0001
 6716,0.00043617,0.00117001,0.00122947,0.00054430,0.00374101,-0.0009747
 6,-0.00129857,-0.29604633,-0.02678214,-0.11495707,-0.00296712,-0.00001
 616,-0.00004181,0.00043253,-0.00082147,0.00005217,0.00048283,0.0002955
 4,-0.00033277,0.00127407,-0.00223231,-0.00250168,0.00030962,0.00037583
 ,-0.00004033,0.00025356,-0.00010306,0.00062523,-0.00059173,0.00001010,
 -0.00019164,0.00020734,-0.00005242,0.00010702,-0.00062339,0.00010483,0
 .00086939,0.00033179,0.00005223,0.00008742,0.30987638,0.01209340,0.005
 93562,0.00594710,0.00230707,0.00257923,-0.00403048,0.00029126,-0.00093
 159,-0.00003030,0.00104936,0.00173326,-0.00518578,-0.01544398,0.002688
 36,-0.00707618,-0.02675351,-0.04993355,-0.02330911,0.00146138,-0.00239
 658,0.00155734,0.00008657,-0.00054481,-0.00054870,-0.00055977,0.000283
 53,0.00094938,-0.00007277,0.00058712,0.00040966,-0.00059520,-0.0015066
 0,-0.00115885,-0.00023009,-0.00001463,-0.00061785,0.00099450,0.0000006
 6,0.00006465,-0.00012058,-0.00020206,0.00022116,-0.00148114,-0.0030494
 6,-0.00047014,-0.00073586,0.00014695,-0.00020024,0.02723112,0.04406235
 ,0.01047967,0.00152467,0.00977516,0.00093934,-0.00392459,0.00088997,0.
 00060333,-0.00002301,-0.00064241,0.00013168,-0.00525067,-0.00158702,-0
 .02112167,-0.00274931,-0.00576504,-0.11413420,-0.02274479,-0.10287889,
 0.00216609,0.00100612,-0.00128793,-0.00031487,0.00061184,0.00035833,0.
 00011030,-0.00023512,-0.00055581,0.00028044,-0.00015711,0.00096692,-0.
 00040294,-0.00084472,-0.00059270,-0.00040448,-0.00062813,-0.00193844,0
 .00106595,-0.00020025,0.00017990,0.00008244,0.00025033,-0.00002272,-0.
 00160829,-0.00010602,-0.00286661,-0.00100466,0.00005165,-0.00008130,0.
 12263204,0.03210886,0.10435544,-0.00012836,0.00166786,0.00130273,0.000
 52226,-0.00003407,0.00029850,0.00162860,0.00051099,0.00112464,-0.00215
 637,-0.00029409,0.00044153,0.00770793,0.00621784,0.01853006,-0.0040383
 5,-0.00036935,-0.00062474,-0.00059155,-0.00105276,-0.00170087,0.000013
 66,0.00082403,0.00031952,-0.00012626,0.00005525,0.00082187,0.00038585,
 0.00016723,0.00035266,-0.00007503,-0.00008774,0.00001419,-0.00004268,0
 .00004927,-0.00009050,-0.00062383,0.00037966,0.00034065,-0.00048878,-0
 .00008303,-0.00026062,-0.09488506,-0.01781741,-0.08130103,0.00056441,0
 .00110589,0.00184267,0.00009750,0.00002660,0.00031026,0.08202866,0.000
 55739,-0.00179394,-0.00057318,-0.00084227,0.00030588,-0.00025226,-0.00
 075024,-0.00061557,0.00012718,0.00024782,-0.00062174,-0.00139384,-0.00
 279001,0.00410005,-0.01701917,0.00368596,0.00118561,-0.00008839,0.0004
 8778,0.00094538,0.00188281,-0.00001557,-0.00088249,-0.00037200,0.00014
 341,-0.00001133,-0.00078198,-0.00035412,-0.00020269,-0.00040972,0.0000
 7702,0.00010876,0.00000341,0.00004023,-0.00005342,0.00011111,0.0008546
 1,-0.00039803,-0.00037453,0.00067544,0.00004654,0.00023189,-0.01752358
 ,-0.09523774,-0.09881130,0.00058952,-0.00015787,-0.00039127,-0.0000117
 4,0.00060174,0.00006752,0.01755633,0.08281080,-0.00041132,-0.00201824,
 -0.00215153,-0.00086532,0.00071998,0.00059125,-0.00051595,-0.00076308,
 -0.00040734,-0.00168440,-0.00105818,-0.00160911,-0.01297951,-0.0024479
 1,-0.01869336,0.00842955,-0.00164045,-0.00029383,0.00091437,0.00206176
 ,0.00310586,-0.00001471,-0.00154695,-0.00051682,0.00027183,-0.00007052
 ,-0.00153611,-0.00064247,-0.00042162,-0.00071585,0.00013769,0.00020366
 ,-0.00001444,0.00008231,-0.00007933,0.00022399,0.00138378,-0.00063703,
 -0.00056372,0.00122300,0.00005032,0.00044793,-0.08952675,-0.09654790,-
 0.51920146,0.00075264,0.00028070,-0.00010966,0.00023019,0.00063695,0.0
 0053695,0.10268168,0.10440624,0.58216212,-0.00007014,0.00123846,0.0005
 3142,0.00070267,-0.00107676,-0.00106625,-0.00033527,0.00149212,-0.0004
 1334,-0.00361952,0.00475233,0.00809146,-0.02070670,-0.02341964,-0.0123
 6768,-0.00172006,-0.00034449,-0.00097073,-0.00071497,-0.00227004,-0.00
 325054,0.00001455,0.00146455,0.00055224,-0.00024739,0.00012049,0.00150
 525,0.00073706,0.00046544,0.00081662,-0.00016828,-0.00021485,0.0000201
 1,-0.00010600,0.00009174,-0.00022529,-0.00173353,0.00089814,0.00085925
 ,-0.00206085,0.00015069,-0.00057053,-0.39050027,-0.20899646,-0.0965817
 2,0.00041229,-0.00043441,0.00058769,-0.00100493,-0.00015356,0.00036173
 ,0.00090226,-0.00940217,-0.00094124,0.42248585,-0.00016226,0.00054471,
 0.00072875,0.00050779,0.00034292,0.00054407,0.00028513,-0.00118770,-0.
 00026209,-0.00161623,0.00131623,-0.00041749,0.00736169,0.00512960,-0.0
 0267969,0.00075086,-0.00066800,-0.00175184,-0.00022980,0.00012448,0.00
 015133,0.00003864,-0.00000622,-0.00001735,0.00006060,0.00000291,-0.000
 04288,0.00001372,-0.00004983,-0.00009086,-0.00000470,0.00003672,0.0000
 3630,0.00000588,-0.00000043,0.00003862,0.00012101,-0.00003546,-0.00000
 197,0.00000042,-0.00002717,0.00007633,-0.20163181,-0.21121569,-0.06603
 748,0.00024461,0.00034382,0.00015846,0.00087672,0.00023903,0.00077355,
 -0.01263393,0.00588845,-0.00178381,0.24369283,0.23075891,0.00033723,0.
 00070363,0.00076039,0.00029077,0.00000553,0.00016493,0.00033622,0.0003
 0610,0.00011770,0.00033477,-0.00116394,-0.00096526,0.00631694,0.000711
 94,0.00830670,-0.00021485,-0.00035796,-0.00157536,-0.00021113,0.000384
 29,0.00035033,0.00004380,-0.00013804,-0.00002247,0.00006830,-0.0000274
 6,-0.00015846,-0.00003803,-0.00011233,-0.00014555,0.00002104,0.0000590
 7,0.00001641,0.00001191,0.00000161,0.00006641,0.00010313,-0.00003291,0
 .00003783,0.00031976,0.00000336,0.00007541,-0.09270163,-0.06268346,-0.
 10647270,0.00030648,-0.00006343,0.00030025,0.00090777,0.00064532,0.001
 28863,-0.03293178,-0.02165908,-0.00665819,0.10761211,0.07316689,0.0921
 0260,-0.00122931,-0.00058925,0.00119212,0.00091672,-0.00004883,-0.0001
 5681,0.00057741,-0.00076960,0.00160601,0.00084073,0.00129331,0.0009777
 7,0.00365202,0.01811016,-0.00648915,-0.00193124,0.00048478,-0.00172848
 ,-0.00048503,-0.00119320,-0.00161229,0.00003270,0.00071251,0.00023880,
 -0.00009751,0.00007866,0.00082189,0.00040133,0.00023599,0.00038742,-0.
 00008126,-0.00010507,0.00000277,-0.00004930,0.00004562,-0.00010113,-0.
 00113660,0.00069537,0.00046069,-0.00057107,-0.00004669,-0.00027972,-0.
 06603472,-0.01293189,-0.01560138,0.00005289,0.00052512,-0.00030269,-0.
 00005317,0.00058441,-0.00018650,0.00582627,0.00757407,-0.00864799,-0.0
 0498888,-0.03902765,0.01071528,0.36863112,0.00069972,0.00055667,-0.001
 32360,-0.00069775,0.00062834,0.00103544,0.00015863,0.00046203,-0.00234
 526,0.00013309,-0.00361333,-0.00240848,0.00158946,-0.01105839,0.012871
 84,0.00233362,-0.00069896,0.00114885,0.00052285,0.00168386,0.00246813,
 -0.00002360,-0.00107507,-0.00039818,0.00018925,-0.00005409,-0.00120072
 ,-0.00054083,-0.00034176,-0.00061953,0.00012321,0.00017027,0.00000376,
 0.00006926,-0.00008366,0.00017476,0.00155584,-0.00097933,-0.00064324,0
 .00114973,0.00007864,0.00040395,0.00938809,-0.19269893,0.05152797,-0.0
 0022172,-0.00071597,0.00026410,-0.00001224,-0.00032771,0.00065476,0.00
 093743,0.00565755,-0.00409220,-0.00699999,-0.02892218,0.01092650,0.232
 65742,0.45237162,-0.00045560,0.00054532,0.00063731,0.00046408,0.000335
 13,0.00035848,0.00037064,-0.00031811,-0.00033006,-0.00059892,-0.000306
 81,-0.00022758,0.00460430,-0.00148083,0.00753543,-0.00127147,0.0004045
 3,0.00005630,-0.00018780,-0.00021388,-0.00036169,0.00001070,0.00015746
 ,0.00006416,-0.00004211,-0.00000208,0.00023639,0.00008957,0.00005167,0
 .00004995,-0.00000911,-0.00000839,0.00000034,-0.00000906,0.00001347,-0
 .00002282,-0.00001560,0.00001950,-0.00002313,-0.00008959,-0.00000103,-
 0.00004207,-0.02903592,0.07010094,-0.11467957,0.00029411,-0.00003521,0
 .00011232,-0.00005237,-0.00001754,-0.00014606,-0.00923067,0.03522136,-
 0.03555866,-0.00446106,-0.00751990,0.00973718,0.15674137,-0.01761118,0
 .61338093,0.00006799,0.00013056,-0.00008371,0.00000324,-0.00006588,-0.
 00004134,-0.00010491,-0.00000811,0.00004992,-0.00003233,0.00027952,0.0
 0017890,-0.00072534,0.00000528,-0.00056868,0.00002172,0.00001056,-0.00
 007360,-0.00000905,-0.00005463,-0.00007691,-0.00001080,0.00003963,0.00
 002354,-0.00000753,-0.00000495,0.00004019,0.00001090,0.00000009,0.0000
 3028,-0.00000362,-0.00000474,0.00000281,-0.00000349,0.00000053,-0.0000
 1130,-0.00005248,0.00001777,0.00002518,-0.00006680,-0.00000442,-0.0000
 0821,0.00289814,0.00921804,0.00238570,0.00001953,-0.00005234,-0.000072
 61,0.00003188,-0.00004884,-0.00003079,-0.00004284,0.00091188,-0.000336
 35,0.00460974,0.00300918,-0.00171420,-0.27332992,-0.21187984,-0.071622
 07,0.27082553,-0.00039168,0.00001812,0.00024462,0.00025665,0.00000356,
 0.00010407,0.00037475,-0.00014328,0.00019339,0.00014112,0.00007035,0.0
 0012609,0.00142266,0.00199475,0.00015790,-0.00036740,0.00007311,-0.000
 37707,-0.00011662,-0.00033947,-0.00046618,0.00000704,0.00020254,0.0000
 6792,-0.00003064,0.00002221,0.00023542,0.00010663,0.00005673,0.0001128
 9,-0.00002245,-0.00003039,-0.00000127,-0.00001281,0.00001338,-0.000028
 17,-0.00027924,0.00016591,0.00011590,-0.00016752,-0.00001984,-0.000089
 97,-0.02247914,-0.02661936,-0.00012501,0.00010887,0.00003489,0.0000716
 9,-0.00004076,0.00008192,-0.00006531,0.00216645,0.00260500,-0.00309618
 ,-0.00179619,-0.00319341,0.00232796,-0.17738189,-0.16587744,-0.0292456
 1,0.19765591,0.19033155,-0.00003664,0.00006812,-0.00002825,0.00003804,
 -0.00008219,0.00004579,0.00007912,0.00003805,-0.00002895,-0.00006097,0
 .00014296,0.00025303,0.00006007,0.00021774,-0.00055620,-0.00020296,-0.
 00007286,-0.00007284,-0.00002469,-0.00010354,-0.00011185,0.00000035,0.
 00005590,0.00001485,-0.00000229,0.00000440,0.00005555,0.00002615,0.000
 01784,0.00003559,-0.00000605,-0.00001165,-0.00000266,-0.00000563,0.000
 00091,-0.00000917,-0.00007850,0.00004211,0.00003394,-0.00005916,-0.000
 00042,-0.00002513,0.01651782,0.00330641,0.00606233,-0.00000925,-0.0000
 2755,-0.00001675,-0.00001423,0.00002792,-0.00004687,-0.00155603,-0.001
 02576,-0.00129348,0.00090743,0.00706148,0.00014356,-0.05648256,-0.0163
 1232,-0.06466406,0.06765310,0.02970931,0.06078467,-0.00018271,0.000083
 38,0.00004109,0.00005853,0.00016494,0.00019279,0.00003971,-0.00010462,
 -0.00032433,-0.00009820,-0.00033320,-0.00029754,0.00026839,-0.00016089
 ,0.00146413,0.00008313,-0.00002926,0.00008580,0.00004957,0.00021894,0.
 00028953,-0.00000269,-0.00013246,-0.00004732,0.00001318,-0.00001632,-0
 .00011559,-0.00006789,-0.00004171,-0.00008219,0.00001999,0.00001901,-0
 .00000211,0.00001465,-0.00000691,0.00002179,0.00018338,-0.00010686,-0.
 00008979,0.00012558,0.00001879,0.00005299,-0.00413262,0.01207759,-0.00
 741858,-0.00000666,-0.00010955,0.00000008,0.00003172,0.00006961,0.0000
 4512,0.00352172,-0.00171173,0.00045899,-0.00188765,-0.00166271,0.00008
 612,-0.03094318,-0.03113160,-0.04549343,-0.00409958,0.00084628,-0.0267
 4311,0.03701165,0.00010912,-0.00015273,-0.00012001,-0.00007927,-0.0001
 2218,-0.00017397,-0.00009194,0.00004360,0.00029388,0.00005401,0.000278
 30,0.00001588,-0.00085152,-0.00048951,-0.00153200,0.00036695,-0.000100
 92,0.00000278,0.00001985,-0.00011921,-0.00015705,-0.00000719,0.0000734
 5,0.00002868,-0.00001919,0.00000367,0.00005472,0.00002750,0.00003208,0
 .00006219,-0.00000818,-0.00002371,-0.00000929,-0.00000257,0.00000325,-
 0.00001838,-0.00011068,0.00006685,0.00004521,-0.00007290,-0.00000935,-
 0.00004010,0.00738375,-0.00012156,0.03380208,-0.00003612,0.00003536,0.
 00000319,-0.00012166,-0.00003277,-0.00012026,0.00070756,-0.00428092,0.
 00784379,0.00074174,0.00057830,-0.00300358,-0.03090335,-0.05516215,-0.
 05008881,0.00084481,0.00054919,-0.02305686,0.02204927,0.05895095,-0.00
 004006,0.00001391,-0.00011221,-0.00003397,0.00007971,0.00019251,-0.000
 01517,-0.00002713,-0.00031905,-0.00013465,-0.00035372,-0.00017950,0.00
 027686,-0.00091133,0.00112900,0.00026679,0.00008000,0.00007147,0.00006
 956,0.00021368,0.00035448,-0.00000074,-0.00013824,-0.00006167,0.000024
 67,-0.00000005,-0.00016835,-0.00008660,-0.00005984,-0.00007894,0.00001
 594,0.00001671,-0.00000153,0.00001177,-0.00001048,0.00002447,0.0002096
 7,-0.00010881,-0.00009738,0.00015374,0.00001988,0.00005122,0.00049934,
 0.00051628,-0.01605743,-0.00003644,-0.00004811,0.00001845,-0.00006934,
 0.00007686,0.00006051,-0.00068473,0.00110096,0.00225546,-0.00099692,-0
 .00213042,0.00252969,-0.08155541,-0.03452536,-0.41611310,0.00425016,0.
 00002758,-0.00057309,0.07787553,0.03616793,0.42707500\\-0.00000678,0.0
 0000685,0.00000269,-0.00002688,-0.00000885,-0.00003313,0.00000005,0.00
 004563,0.00002658,0.00004149,0.00000912,-0.00000451,-0.00001076,-0.000
 01642,-0.00003084,0.00001218,0.00000393,0.00001582,-0.00000932,0.00002
 095,-0.00002110,0.00003262,-0.00001378,0.00002024,0.00000238,-0.000019
 64,0.00001573,-0.00001518,-0.00001599,0.00001595,0.00000860,-0.0000128
 6,0.00001447,-0.00000689,-0.00001924,0.00001983,0.00001832,0.00001793,
 -0.00001610,0.00000836,0.00003003,-0.00001915,-0.00000175,-0.00000258,
 0.00000707,-0.00000257,0.00001631,-0.00001035,-0.00000568,-0.00001431,
 0.00000440,0.00000742,0.00000315,-0.00000299,0.00000322,-0.00001225,0.
 00001417,-0.00001994,-0.00000710,-0.00000975,-0.00001785,-0.00000066,-
 0.00000650,-0.00001103,-0.00001021,-0.00000252\\\@
 The archive entry for this job was punched.


 IT'S WHAT YOU LEARN AFTER YOU KNOW IT ALL
 THAT COUNTS.
 Job cpu time:       0 days  1 hours 56 minutes 26.6 seconds.
 Elapsed time:       0 days  0 hours  8 minutes 55.0 seconds.
 File lengths (MBytes):  RWF=    386 Int=      0 D2E=      0 Chk=     16 Scr=      1
 Normal termination of Gaussian 16 at Sat Jul  2 14:49:39 2022.
