 Entering Gaussian System, Link 0=g16
 AtFile(1): /home/561/yj5695/Basis/6-31pGd.gbs
 Initial command:
 /apps/gaussian/g16c01/g16/l1.exe "/jobfs/49943079.gadi-pbs/Gau-1449992.inp" -scrdir="/jobfs/49943079.gadi-pbs/"
 Entering Link 1 = /apps/gaussian/g16c01/g16/l1.exe PID=   1449994.
  
 Copyright (c) 1988-2019, Gaussian, Inc.  All Rights Reserved.
  
 This is part of the Gaussian(R) 16 program.  It is based on
 the Gaussian(R) 09 system (copyright 2009, Gaussian, Inc.),
 the Gaussian(R) 03 system (copyright 2003, Gaussian, Inc.),
 the Gaussian(R) 98 system (copyright 1998, Gaussian, Inc.),
 the Gaussian(R) 94 system (copyright 1995, Gaussian, Inc.),
 the Gaussian 92(TM) system (copyright 1992, Gaussian, Inc.),
 the Gaussian 90(TM) system (copyright 1990, Gaussian, Inc.),
 the Gaussian 88(TM) system (copyright 1988, Gaussian, Inc.),
 the Gaussian 86(TM) system (copyright 1986, Carnegie Mellon
 University), and the Gaussian 82(TM) system (copyright 1983,
 Carnegie Mellon University). Gaussian is a federally registered
 trademark of Gaussian, Inc.
  
 This software contains proprietary and confidential information,
 including trade secrets, belonging to Gaussian, Inc.
  
 This software is provided under written license and may be
 used, copied, transmitted, or stored only in accord with that
 written license.
  
 The following legend is applicable only to US Government
 contracts under FAR:
  
                    RESTRICTED RIGHTS LEGEND
  
 Use, reproduction and disclosure by the US Government is
 subject to restrictions as set forth in subparagraphs (a)
 and (c) of the Commercial Computer Software - Restricted
 Rights clause in FAR 52.227-19.
  
 Gaussian, Inc.
 340 Quinnipiac St., Bldg. 40, Wallingford CT 06492
  
  
 ---------------------------------------------------------------
 Warning -- This program may not be used in any manner that
 competes with the business of Gaussian, Inc. or will provide
 assistance to any competitor of Gaussian, Inc.  The licensee
 of this program is prohibited from giving any competitor of
 Gaussian, Inc. access to this program.  By using this program,
 the user acknowledges that Gaussian, Inc. is engaged in the
 business of creating and licensing software in the field of
 computational chemistry and represents and warrants to the
 licensee that it is not a competitor of Gaussian, Inc. and that
 it will not use this program in any manner prohibited above.
 ---------------------------------------------------------------
  

 Cite this work as:
 Gaussian 16, Revision C.01,
 M. J. Frisch, G. W. Trucks, H. B. Schlegel, G. E. Scuseria, 
 M. A. Robb, J. R. Cheeseman, G. Scalmani, V. Barone, 
 G. A. Petersson, H. Nakatsuji, X. Li, M. Caricato, A. V. Marenich, 
 J. Bloino, B. G. Janesko, R. Gomperts, B. Mennucci, H. P. Hratchian, 
 J. V. Ortiz, A. F. Izmaylov, J. L. Sonnenberg, D. Williams-Young, 
 F. Ding, F. Lipparini, F. Egidi, J. Goings, B. Peng, A. Petrone, 
 T. Henderson, D. Ranasinghe, V. G. Zakrzewski, J. Gao, N. Rega, 
 G. Zheng, W. Liang, M. Hada, M. Ehara, K. Toyota, R. Fukuda, 
 J. Hasegawa, M. Ishida, T. Nakajima, Y. Honda, O. Kitao, H. Nakai, 
 T. Vreven, K. Throssell, J. A. Montgomery, Jr., J. E. Peralta, 
 F. Ogliaro, M. J. Bearpark, J. J. Heyd, E. N. Brothers, K. N. Kudin, 
 V. N. Staroverov, T. A. Keith, R. Kobayashi, J. Normand, 
 K. Raghavachari, A. P. Rendell, J. C. Burant, S. S. Iyengar, 
 J. Tomasi, M. Cossi, J. M. Millam, M. Klene, C. Adamo, R. Cammi, 
 J. W. Ochterski, R. L. Martin, K. Morokuma, O. Farkas, 
 J. B. Foresman, and D. J. Fox, Gaussian, Inc., Wallingford CT, 2019.
 
 ******************************************
 Gaussian 16:  ES64L-G16RevC.01  3-Jul-2019
                 1-Jul-2022 
 ******************************************
 %nproc=16
 Will use up to   16 processors via shared memory.
 %mem=50gb
 -----------------------------------------------------
 #m062X/gen 6D OPT Freq=noraman SCRF=(SMD,Solvent=h2o)
 -----------------------------------------------------
 1/18=20,19=15,26=3,38=1/1,3;
 2/9=110,12=2,17=6,18=5,40=1/2;
 3/5=7,8=2,11=2,25=1,30=1,70=32201,71=1,72=1,74=-55/1,2,3;
 4//1;
 5/5=2,38=5,53=1/2;
 6/7=2,8=2,9=2,10=2,28=1/1;
 7//1,2,3,16;
 1/18=20,19=15,26=3/3(2);
 2/9=110/2;
 99//99;
 2/9=110/2;
 3/5=7,6=1,8=2,11=2,25=1,30=1,70=32205,71=1,72=1,74=-55,82=7/1,2,3;
 4/5=5,16=3,69=1/1;
 5/5=2,38=5,53=1/2;
 7//1,2,3,16;
 1/18=20,19=15,26=3/3(-5);
 2/9=110/2;
 6/7=2,8=2,9=2,10=2,19=2,28=1/1;
 99/9=1/99;
 --------------------
 HA.35.smd.a3d3e3.smd
 --------------------
 Symbolic Z-matrix:
 Charge =  0 Multiplicity = 1
 C                    -1.33511   0.81426  -0.71798 
 C                    -2.45603   0.7606   -1.57117 
 Cl                   -4.06295   0.99857  -0.9527 
 C                    -2.32443   0.50421  -2.91621 
 H                    -3.19937   0.46621  -3.55764 
 C                    -1.04763   0.27857  -3.47838 
 C                     0.06075   0.33493  -2.61207 
 S                     1.686     0.08469  -3.24052 
 C                    -0.0754    0.60065  -1.25576 
 H                     0.80024   0.65537  -0.61459 
 S                    -1.44323   1.17926   1.01972 
 O                    -2.00903   2.52228   1.11974 
 O                    -2.11278   0.06939   1.69296 
 N                     0.0692    1.26926   1.66194 
 H                     0.64151   1.98527   1.20984 
 H                     0.54863   0.3682    1.68416 
 N                    -0.91035   0.06022  -4.80659 
 C                     0.33198  -0.38712  -5.40741 
 N                     1.43425   0.45082  -4.86616 
 O                     2.59028   1.09007  -2.68218 
 O                     2.0877   -1.31762  -3.06523 
 H                    -1.7573   -0.00583  -5.36402 
 C                     2.71208   0.32678  -5.60647 
 C                     0.24934  -0.2377   -6.92135 
 S                    -1.1296   -1.25807  -7.55166 
 C                    -0.35752  -2.86576  -7.18973 
 C                     1.01586  -2.9401   -7.80164 
 H                     0.52341  -1.44401  -5.16007 
 H                     2.61991   0.88049  -6.54007 
 H                     2.96809  -0.71839  -5.81071 
 H                     3.5047    0.79189  -5.01916 
 H                     1.17128  -0.59317  -7.38194 
 H                     0.07919   0.81074  -7.18636 
 H                    -0.95466  -3.68172  -7.60468 
 H                    -0.24885  -2.99948  -6.11014 
 F                     0.99942  -2.75111  -9.13524 
 F                     1.57083  -4.14576  -7.5842 
 F                     1.86064  -2.0233   -7.29406 
 

 GradGradGradGradGradGradGradGradGradGradGradGradGradGradGradGradGradGrad
 Berny optimization.
 Initialization pass.
                           ----------------------------
                           !    Initial Parameters    !
                           ! (Angstroms and Degrees)  !
 --------------------------                            --------------------------
 ! Name  Definition              Value          Derivative Info.                !
 --------------------------------------------------------------------------------
 ! R1    R(1,2)                  1.4097         estimate D2E/DX2                !
 ! R2    R(1,9)                  1.3863         estimate D2E/DX2                !
 ! R3    R(1,11)                 1.7789         estimate D2E/DX2                !
 ! R4    R(2,3)                  1.7382         estimate D2E/DX2                !
 ! R5    R(2,4)                  1.3756         estimate D2E/DX2                !
 ! R6    R(4,5)                  1.0855         estimate D2E/DX2                !
 ! R7    R(4,6)                  1.4132         estimate D2E/DX2                !
 ! R8    R(6,7)                  1.4079         estimate D2E/DX2                !
 ! R9    R(6,17)                 1.353          estimate D2E/DX2                !
 ! R10   R(7,8)                  1.7604         estimate D2E/DX2                !
 ! R11   R(7,9)                  1.3888         estimate D2E/DX2                !
 ! R12   R(8,19)                 1.6853         estimate D2E/DX2                !
 ! R13   R(8,20)                 1.463          estimate D2E/DX2                !
 ! R14   R(8,21)                 1.4692         estimate D2E/DX2                !
 ! R15   R(9,10)                 1.0867         estimate D2E/DX2                !
 ! R16   R(11,12)                1.4608         estimate D2E/DX2                !
 ! R17   R(11,13)                1.4606         estimate D2E/DX2                !
 ! R18   R(11,14)                1.6456         estimate D2E/DX2                !
 ! R19   R(14,15)                1.0221         estimate D2E/DX2                !
 ! R20   R(14,16)                1.0209         estimate D2E/DX2                !
 ! R21   R(17,18)                1.4507         estimate D2E/DX2                !
 ! R22   R(17,22)                1.0161         estimate D2E/DX2                !
 ! R23   R(18,19)                1.4866         estimate D2E/DX2                !
 ! R24   R(18,24)                1.5235         estimate D2E/DX2                !
 ! R25   R(18,28)                1.1022         estimate D2E/DX2                !
 ! R26   R(19,23)                1.482          estimate D2E/DX2                !
 ! R27   R(23,29)                1.0894         estimate D2E/DX2                !
 ! R28   R(23,30)                1.0953         estimate D2E/DX2                !
 ! R29   R(23,31)                1.0906         estimate D2E/DX2                !
 ! R30   R(24,25)                1.8275         estimate D2E/DX2                !
 ! R31   R(24,32)                1.0902         estimate D2E/DX2                !
 ! R32   R(24,33)                1.0947         estimate D2E/DX2                !
 ! R33   R(25,26)                1.8198         estimate D2E/DX2                !
 ! R34   R(26,27)                1.5054         estimate D2E/DX2                !
 ! R35   R(26,34)                1.093          estimate D2E/DX2                !
 ! R36   R(26,35)                1.0932         estimate D2E/DX2                !
 ! R37   R(27,36)                1.347          estimate D2E/DX2                !
 ! R38   R(27,37)                1.345          estimate D2E/DX2                !
 ! R39   R(27,38)                1.346          estimate D2E/DX2                !
 ! A1    A(2,1,9)              118.8101         estimate D2E/DX2                !
 ! A2    A(2,1,11)             123.414          estimate D2E/DX2                !
 ! A3    A(9,1,11)             117.7617         estimate D2E/DX2                !
 ! A4    A(1,2,3)              120.9664         estimate D2E/DX2                !
 ! A5    A(1,2,4)              121.521          estimate D2E/DX2                !
 ! A6    A(3,2,4)              117.5086         estimate D2E/DX2                !
 ! A7    A(2,4,5)              120.4762         estimate D2E/DX2                !
 ! A8    A(2,4,6)              120.3426         estimate D2E/DX2                !
 ! A9    A(5,4,6)              119.18           estimate D2E/DX2                !
 ! A10   A(4,6,7)              117.3934         estimate D2E/DX2                !
 ! A11   A(4,6,17)             120.5265         estimate D2E/DX2                !
 ! A12   A(7,6,17)             122.0479         estimate D2E/DX2                !
 ! A13   A(6,7,8)              120.0964         estimate D2E/DX2                !
 ! A14   A(6,7,9)              122.1013         estimate D2E/DX2                !
 ! A15   A(8,7,9)              117.7979         estimate D2E/DX2                !
 ! A16   A(7,8,19)             100.1117         estimate D2E/DX2                !
 ! A17   A(7,8,20)             109.677          estimate D2E/DX2                !
 ! A18   A(7,8,21)             110.2127         estimate D2E/DX2                !
 ! A19   A(19,8,20)            108.1305         estimate D2E/DX2                !
 ! A20   A(19,8,21)            111.3028         estimate D2E/DX2                !
 ! A21   A(20,8,21)            116.1931         estimate D2E/DX2                !
 ! A22   A(1,9,7)              119.8302         estimate D2E/DX2                !
 ! A23   A(1,9,10)             119.7087         estimate D2E/DX2                !
 ! A24   A(7,9,10)             120.4561         estimate D2E/DX2                !
 ! A25   A(1,11,12)            106.2045         estimate D2E/DX2                !
 ! A26   A(1,11,13)            108.7964         estimate D2E/DX2                !
 ! A27   A(1,11,14)            109.6688         estimate D2E/DX2                !
 ! A28   A(12,11,13)           119.3083         estimate D2E/DX2                !
 ! A29   A(12,11,14)           106.1994         estimate D2E/DX2                !
 ! A30   A(13,11,14)           106.4385         estimate D2E/DX2                !
 ! A31   A(11,14,15)           112.3542         estimate D2E/DX2                !
 ! A32   A(11,14,16)           113.0687         estimate D2E/DX2                !
 ! A33   A(15,14,16)           111.4064         estimate D2E/DX2                !
 ! A34   A(6,17,18)            122.9031         estimate D2E/DX2                !
 ! A35   A(6,17,22)            117.6761         estimate D2E/DX2                !
 ! A36   A(18,17,22)           117.8116         estimate D2E/DX2                !
 ! A37   A(17,18,19)           108.0812         estimate D2E/DX2                !
 ! A38   A(17,18,24)           109.5641         estimate D2E/DX2                !
 ! A39   A(17,18,28)           110.5783         estimate D2E/DX2                !
 ! A40   A(19,18,24)           110.2869         estimate D2E/DX2                !
 ! A41   A(19,18,28)           109.2686         estimate D2E/DX2                !
 ! A42   A(24,18,28)           109.0537         estimate D2E/DX2                !
 ! A43   A(8,19,18)            109.8466         estimate D2E/DX2                !
 ! A44   A(8,19,23)            109.5649         estimate D2E/DX2                !
 ! A45   A(18,19,23)           114.2212         estimate D2E/DX2                !
 ! A46   A(19,23,29)           108.2171         estimate D2E/DX2                !
 ! A47   A(19,23,30)           111.9975         estimate D2E/DX2                !
 ! A48   A(19,23,31)           108.7798         estimate D2E/DX2                !
 ! A49   A(29,23,30)           110.1818         estimate D2E/DX2                !
 ! A50   A(29,23,31)           107.8316         estimate D2E/DX2                !
 ! A51   A(30,23,31)           109.7243         estimate D2E/DX2                !
 ! A52   A(18,24,25)           109.2012         estimate D2E/DX2                !
 ! A53   A(18,24,32)           109.9976         estimate D2E/DX2                !
 ! A54   A(18,24,33)           110.0546         estimate D2E/DX2                !
 ! A55   A(25,24,32)           108.0787         estimate D2E/DX2                !
 ! A56   A(25,24,33)           109.5092         estimate D2E/DX2                !
 ! A57   A(32,24,33)           109.9655         estimate D2E/DX2                !
 ! A58   A(24,25,26)            96.0004         estimate D2E/DX2                !
 ! A59   A(25,26,27)           110.4779         estimate D2E/DX2                !
 ! A60   A(25,26,34)           110.6241         estimate D2E/DX2                !
 ! A61   A(25,26,35)           110.2812         estimate D2E/DX2                !
 ! A62   A(27,26,34)           107.8936         estimate D2E/DX2                !
 ! A63   A(27,26,35)           107.7391         estimate D2E/DX2                !
 ! A64   A(34,26,35)           109.7492         estimate D2E/DX2                !
 ! A65   A(26,27,36)           112.6051         estimate D2E/DX2                !
 ! A66   A(26,27,37)           110.7937         estimate D2E/DX2                !
 ! A67   A(26,27,38)           112.6848         estimate D2E/DX2                !
 ! A68   A(36,27,37)           106.9095         estimate D2E/DX2                !
 ! A69   A(36,27,38)           106.5848         estimate D2E/DX2                !
 ! A70   A(37,27,38)           106.8959         estimate D2E/DX2                !
 ! D1    D(9,1,2,3)            179.1651         estimate D2E/DX2                !
 ! D2    D(9,1,2,4)             -0.0882         estimate D2E/DX2                !
 ! D3    D(11,1,2,3)            -2.2355         estimate D2E/DX2                !
 ! D4    D(11,1,2,4)           178.5112         estimate D2E/DX2                !
 ! D5    D(2,1,9,7)             -0.2336         estimate D2E/DX2                !
 ! D6    D(2,1,9,10)           178.9629         estimate D2E/DX2                !
 ! D7    D(11,1,9,7)          -178.9124         estimate D2E/DX2                !
 ! D8    D(11,1,9,10)            0.2841         estimate D2E/DX2                !
 ! D9    D(2,1,11,12)          -61.2758         estimate D2E/DX2                !
 ! D10   D(2,1,11,13)           68.3216         estimate D2E/DX2                !
 ! D11   D(2,1,11,14)         -175.6316         estimate D2E/DX2                !
 ! D12   D(9,1,11,12)          117.3372         estimate D2E/DX2                !
 ! D13   D(9,1,11,13)         -113.0653         estimate D2E/DX2                !
 ! D14   D(9,1,11,14)            2.9815         estimate D2E/DX2                !
 ! D15   D(1,2,4,5)            179.9657         estimate D2E/DX2                !
 ! D16   D(1,2,4,6)              0.3663         estimate D2E/DX2                !
 ! D17   D(3,2,4,5)              0.6876         estimate D2E/DX2                !
 ! D18   D(3,2,4,6)           -178.9119         estimate D2E/DX2                !
 ! D19   D(2,4,6,7)             -0.3117         estimate D2E/DX2                !
 ! D20   D(2,4,6,17)          -178.2884         estimate D2E/DX2                !
 ! D21   D(5,4,6,7)           -179.9163         estimate D2E/DX2                !
 ! D22   D(5,4,6,17)             2.107          estimate D2E/DX2                !
 ! D23   D(4,6,7,8)           -179.2357         estimate D2E/DX2                !
 ! D24   D(4,6,7,9)             -0.0099         estimate D2E/DX2                !
 ! D25   D(17,6,7,8)            -1.2919         estimate D2E/DX2                !
 ! D26   D(17,6,7,9)           177.9339         estimate D2E/DX2                !
 ! D27   D(4,6,17,18)         -169.7964         estimate D2E/DX2                !
 ! D28   D(4,6,17,22)           -4.592          estimate D2E/DX2                !
 ! D29   D(7,6,17,18)           12.3231         estimate D2E/DX2                !
 ! D30   D(7,6,17,22)          177.5274         estimate D2E/DX2                !
 ! D31   D(6,7,8,19)            21.8606         estimate D2E/DX2                !
 ! D32   D(6,7,8,20)           135.4056         estimate D2E/DX2                !
 ! D33   D(6,7,8,21)           -95.4559         estimate D2E/DX2                !
 ! D34   D(9,7,8,19)          -157.3979         estimate D2E/DX2                !
 ! D35   D(9,7,8,20)           -43.853          estimate D2E/DX2                !
 ! D36   D(9,7,8,21)            85.2855         estimate D2E/DX2                !
 ! D37   D(6,7,9,1)              0.2836         estimate D2E/DX2                !
 ! D38   D(6,7,9,10)          -178.9068         estimate D2E/DX2                !
 ! D39   D(8,7,9,1)            179.5264         estimate D2E/DX2                !
 ! D40   D(8,7,9,10)             0.336          estimate D2E/DX2                !
 ! D41   D(7,8,19,18)          -54.78           estimate D2E/DX2                !
 ! D42   D(7,8,19,23)          178.98           estimate D2E/DX2                !
 ! D43   D(20,8,19,18)        -169.507          estimate D2E/DX2                !
 ! D44   D(20,8,19,23)          64.253          estimate D2E/DX2                !
 ! D45   D(21,8,19,18)          61.7225         estimate D2E/DX2                !
 ! D46   D(21,8,19,23)         -64.5175         estimate D2E/DX2                !
 ! D47   D(1,11,14,15)          58.857          estimate D2E/DX2                !
 ! D48   D(1,11,14,16)         -68.3057         estimate D2E/DX2                !
 ! D49   D(12,11,14,15)        -55.502          estimate D2E/DX2                !
 ! D50   D(12,11,14,16)        177.3353         estimate D2E/DX2                !
 ! D51   D(13,11,14,15)        176.387          estimate D2E/DX2                !
 ! D52   D(13,11,14,16)         49.2244         estimate D2E/DX2                !
 ! D53   D(6,17,18,19)         -47.2539         estimate D2E/DX2                !
 ! D54   D(6,17,18,24)        -167.4597         estimate D2E/DX2                !
 ! D55   D(6,17,18,28)          72.3089         estimate D2E/DX2                !
 ! D56   D(22,17,18,19)        147.5606         estimate D2E/DX2                !
 ! D57   D(22,17,18,24)         27.3548         estimate D2E/DX2                !
 ! D58   D(22,17,18,28)        -92.8766         estimate D2E/DX2                !
 ! D59   D(17,18,19,8)          69.7175         estimate D2E/DX2                !
 ! D60   D(17,18,19,23)       -166.7258         estimate D2E/DX2                !
 ! D61   D(24,18,19,8)        -170.5309         estimate D2E/DX2                !
 ! D62   D(24,18,19,23)        -46.9743         estimate D2E/DX2                !
 ! D63   D(28,18,19,8)         -50.6684         estimate D2E/DX2                !
 ! D64   D(28,18,19,23)         72.8882         estimate D2E/DX2                !
 ! D65   D(17,18,24,25)        -60.2704         estimate D2E/DX2                !
 ! D66   D(17,18,24,32)       -178.7228         estimate D2E/DX2                !
 ! D67   D(17,18,24,33)         59.9673         estimate D2E/DX2                !
 ! D68   D(19,18,24,25)       -179.1212         estimate D2E/DX2                !
 ! D69   D(19,18,24,32)         62.4264         estimate D2E/DX2                !
 ! D70   D(19,18,24,33)        -58.8836         estimate D2E/DX2                !
 ! D71   D(28,18,24,25)         60.8865         estimate D2E/DX2                !
 ! D72   D(28,18,24,32)        -57.5658         estimate D2E/DX2                !
 ! D73   D(28,18,24,33)       -178.8758         estimate D2E/DX2                !
 ! D74   D(8,19,23,29)        -160.7656         estimate D2E/DX2                !
 ! D75   D(8,19,23,30)          77.588          estimate D2E/DX2                !
 ! D76   D(8,19,23,31)         -43.8668         estimate D2E/DX2                !
 ! D77   D(18,19,23,29)         75.5261         estimate D2E/DX2                !
 ! D78   D(18,19,23,30)        -46.1202         estimate D2E/DX2                !
 ! D79   D(18,19,23,31)       -167.5751         estimate D2E/DX2                !
 ! D80   D(18,24,25,26)        -68.6672         estimate D2E/DX2                !
 ! D81   D(32,24,25,26)         50.9774         estimate D2E/DX2                !
 ! D82   D(33,24,25,26)        170.7608         estimate D2E/DX2                !
 ! D83   D(24,25,26,27)        -53.2703         estimate D2E/DX2                !
 ! D84   D(24,25,26,34)       -172.6755         estimate D2E/DX2                !
 ! D85   D(24,25,26,35)         65.7247         estimate D2E/DX2                !
 ! D86   D(25,26,27,36)        -57.8282         estimate D2E/DX2                !
 ! D87   D(25,26,27,37)       -177.5064         estimate D2E/DX2                !
 ! D88   D(25,26,27,38)         62.779          estimate D2E/DX2                !
 ! D89   D(34,26,27,36)         63.2147         estimate D2E/DX2                !
 ! D90   D(34,26,27,37)        -56.4634         estimate D2E/DX2                !
 ! D91   D(34,26,27,38)       -176.178          estimate D2E/DX2                !
 ! D92   D(35,26,27,36)       -178.3551         estimate D2E/DX2                !
 ! D93   D(35,26,27,37)         61.9668         estimate D2E/DX2                !
 ! D94   D(35,26,27,38)        -57.7478         estimate D2E/DX2                !
 --------------------------------------------------------------------------------
 Trust Radius=3.00D-01 FncErr=1.00D-07 GrdErr=1.00D-06 EigMax=2.50D+02 EigMin=1.00D-04
 Number of steps in this run=    213 maximum allowed number of steps=    228.
 GradGradGradGradGradGradGradGradGradGradGradGradGradGradGradGradGradGrad

                          Input orientation:                          
 ---------------------------------------------------------------------
 Center     Atomic      Atomic             Coordinates (Angstroms)
 Number     Number       Type             X           Y           Z
 ---------------------------------------------------------------------
      1          6           0       -1.335108    0.814264   -0.717980
      2          6           0       -2.456034    0.760596   -1.571167
      3         17           0       -4.062946    0.998565   -0.952698
      4          6           0       -2.324427    0.504214   -2.916207
      5          1           0       -3.199374    0.466211   -3.557635
      6          6           0       -1.047630    0.278568   -3.478381
      7          6           0        0.060750    0.334930   -2.612065
      8         16           0        1.686003    0.084688   -3.240524
      9          6           0       -0.075398    0.600646   -1.255755
     10          1           0        0.800237    0.655373   -0.614588
     11         16           0       -1.443229    1.179260    1.019725
     12          8           0       -2.009027    2.522280    1.119744
     13          8           0       -2.112777    0.069391    1.692962
     14          7           0        0.069196    1.269260    1.661937
     15          1           0        0.641510    1.985272    1.209836
     16          1           0        0.548627    0.368200    1.684164
     17          7           0       -0.910354    0.060224   -4.806588
     18          6           0        0.331979   -0.387118   -5.407411
     19          7           0        1.434254    0.450819   -4.866156
     20          8           0        2.590277    1.090073   -2.682177
     21          8           0        2.087703   -1.317618   -3.065231
     22          1           0       -1.757301   -0.005828   -5.364021
     23          6           0        2.712080    0.326776   -5.606465
     24          6           0        0.249342   -0.237695   -6.921350
     25         16           0       -1.129600   -1.258068   -7.551656
     26          6           0       -0.357521   -2.865757   -7.189726
     27          6           0        1.015857   -2.940098   -7.801638
     28          1           0        0.523412   -1.444014   -5.160074
     29          1           0        2.619913    0.880490   -6.540065
     30          1           0        2.968092   -0.718385   -5.810709
     31          1           0        3.504698    0.791892   -5.019158
     32          1           0        1.171282   -0.593170   -7.381941
     33          1           0        0.079190    0.810739   -7.186358
     34          1           0       -0.954657   -3.681718   -7.604679
     35          1           0       -0.248854   -2.999483   -6.110141
     36          9           0        0.999423   -2.751114   -9.135245
     37          9           0        1.570826   -4.145762   -7.584198
     38          9           0        1.860641   -2.023303   -7.294058
 ---------------------------------------------------------------------
                    Distance matrix (angstroms):
                    1          2          3          4          5
     1  C    0.000000
     2  C    1.409710   0.000000
     3  Cl   2.744114   1.738189   0.000000
     4  C    2.430450   1.375567   2.668745   0.000000
     5  H    3.414714   2.141325   2.795506   1.085544   0.000000
     6  C    2.826558   2.419384   3.998700   1.413211   2.161364
     7  C    2.401195   2.756603   4.494305   2.410442   3.397020
     8  S    4.002827   4.516644   6.254577   4.045335   4.910502
     9  C    1.386255   2.406761   4.018796   2.797236   3.882776
    10  H    2.143743   3.395499   4.886988   3.883790   4.969326
    11  S    1.778913   2.813143   3.284208   4.089469   4.954262
    12  O    2.597829   3.247206   3.291703   4.523380   5.246162
    13  O    2.640501   3.354121   3.415559   4.634469   5.376516
    14  N    2.800553   4.133822   4.897366   5.222464   6.210666
    15  H    2.999125   4.339192   5.270868   5.292877   6.307830
    16  H    3.085081   4.447375   5.349487   5.425528   6.444655
    17  N    4.179199   3.653436   5.066733   2.402139   2.639000
    18  C    5.119889   4.879245   6.409364   3.749275   4.076800
    19  N    5.000882   5.107568   6.770110   4.234718   4.814870
    20  O    4.398044   5.177659   6.874943   4.955029   5.888607
    21  O    4.665849   5.215050   6.903476   4.775790   5.601579
    22  H    4.736718   3.932095   5.077851   2.563897   2.359115
    23  C    6.365113   6.571243   8.246807   5.712738   6.257990
    24  C    6.488366   6.077837   7.466524   4.818287   4.868645
    25  S    7.143943   6.449859   7.565921   5.101043   4.817604
    26  C    7.508777   7.008737   8.219713   5.786915   5.689484
    27  C    8.354668   8.035417   9.392299   6.847497   6.883507
    28  H    5.318469   5.159230   6.686022   4.115910   4.480614
    29  H    7.038697   7.104193   8.711671   6.141696   6.552146
    30  H    6.841230   7.041466   8.716862   6.154969   6.672125
    31  H    6.474902   6.886214   8.593489   6.203536   6.869258
    32  H    7.257495   6.982492   8.441915   5.776419   5.903409
    33  H    6.621191   6.161189   7.486727   4.909737   4.902582
    34  H    8.233178   7.641437   8.707202   6.432734   6.214711
    35  H    6.693281   6.293816   7.558499   5.175433   5.218418
    36  F    9.434633   9.027046  10.326749   7.766696   7.687055
    37  F    8.954957   8.743254  10.108426   7.654111   7.761334
    38  F    7.842793   7.689945   9.188766   6.562676   6.764783
                    6          7          8          9         10
     6  C    0.000000
     7  C    1.407901   0.000000
     8  S    2.750803   1.760406   0.000000
     9  C    2.447251   1.388783   2.703341   0.000000
    10  H    3.428980   2.153936   2.829453   1.086659   0.000000
    11  S    4.604422   4.020540   5.398139   2.717272   2.824637
    12  O    5.205889   4.795297   6.213456   3.615881   3.792784
    13  O    5.284040   4.829906   6.226576   3.623269   3.762155
    14  N    5.352723   4.374944   5.296357   2.996811   2.468571
    15  H    5.267391   4.203313   4.950645   2.917239   2.263261
    16  H    5.404437   4.323970   5.062268   3.014392   2.330244
    17  N    1.353016   2.415458   3.032198   3.687495   4.566529
    18  C    2.463253   2.899807   2.598342   4.286943   4.927190
    19  N    2.848743   2.642134   1.685262   3.916183   4.303446
    20  O    3.811410   2.640769   1.462963   3.062685   2.769139
    21  O    3.542431   2.654207   1.469201   3.410710   3.399399
    22  H    2.034736   3.315824   4.046452   4.480453   5.434639
    23  C    4.320473   3.999506   2.590196   5.174332   5.355554
    24  C    3.715198   4.351253   3.964392   5.736483   6.393458
    25  S    4.354255   5.324860   5.321322   6.648649   7.450399
    26  C    4.912953   5.601279   5.336414   6.878049   7.547927
    27  C    5.771338   6.210451   5.513818   7.521721   8.039129
    28  H    2.874640   3.141822   2.715367   4.447799   5.014529
    29  H    4.815298   4.719760   3.520293   5.938598   6.202675
    30  H    4.749704   4.448981   2.982370   5.634739   5.795384
    31  H    4.833341   4.226546   2.640327   5.197775   5.170395
    32  H    4.573978   4.984613   4.227974   6.364712   6.891560
    33  H    3.911780   4.599010   4.321875   5.936336   6.613033
    34  H    5.720039   6.487735   6.340721   7.708474   8.411384
    35  H    4.278998   4.842592   4.635783   6.046162   6.682789
    36  F    6.735689   7.277132   6.577302   8.629942   9.178531
    37  F    6.579418   6.861417   6.064444   8.080076   8.498245
    38  F    5.321282   5.542737   4.572227   6.862540   7.274275
                   11         12         13         14         15
    11  S    0.000000
    12  O    1.460765   0.000000
    13  O    1.460600   2.521112   0.000000
    14  N    1.645590   2.486573   2.490312   0.000000
    15  H    2.243197   2.705890   3.389706   1.022063   0.000000
    16  H    2.250953   3.391198   2.678140   1.020910   1.687761
    17  N    5.956687   6.510777   6.609845   6.653052   6.504725
    18  C    6.849305   7.519884   7.523332   7.265557   7.036477
    19  N    6.591975   7.209586   7.466522   6.719317   6.316698
    20  O    5.475509   6.136727   6.504026   5.025862   4.443742
    21  O    5.948844   7.003001   6.496786   5.754340   5.592562
    22  H    6.500407   6.963757   7.066331   7.370619   7.275601
    23  C    7.867637   8.505938   8.753692   7.791199   7.314358
    24  C    8.242162   8.796413   8.937577   8.716432   8.438694
    25  S    8.916698   9.500400   9.391046   9.628852   9.508934
    26  C    9.216073  10.040205   9.518307   9.779182   9.751061
    27  C   10.041547  10.889378  10.439962  10.400679  10.276481
    28  H    6.995653   7.847347   7.496932   7.355814   7.235309
    29  H    8.587713   9.099189   9.530948   8.598264   8.074378
    30  H    8.349589   9.127146   9.096202   8.258012   7.874693
    31  H    7.816658   8.430986   8.782402   7.527787   6.958618
    32  H    8.975810   9.596825   9.673567   9.299192   8.985970
    33  H    8.354242   8.733920   9.175873   8.860173   8.496576
    34  H    9.912021  10.757176  10.092482  10.556071  10.599915
    35  H    8.350055   9.266030   8.589564   8.872909   8.900707
    36  F   11.159651  11.917393  11.614263  11.558887  11.383416
    37  F   10.557835  11.534155  10.835227  10.819814  10.760494
    38  F    9.502155  10.316430  10.046589   9.708764   9.480040
                   16         17         18         19         20
    16  H    0.000000
    17  N    6.659830   0.000000
    18  C    7.134976   1.450688   0.000000
    19  N    6.610435   2.377667   1.486642   0.000000
    20  O    4.873845   4.222337   3.835219   2.552410   0.000000
    21  O    5.269487   3.730833   3.071515   2.607239   2.489234
    22  H    7.425235   1.016078   2.124231   3.262272   5.224435
    23  C    7.604967   3.719258   2.492819   1.481986   3.024718
    24  C    8.632007   2.430199   1.523538   2.470200   5.021308
    25  S    9.526886   3.053090   2.737253   4.087243   6.562246
    26  C    9.488177   3.813966   3.129810   4.428218   6.682522
    27  C   10.057016   4.656452   3.566191   4.504490   6.702981
    28  H    7.080138   2.107930   1.102203   2.122831   4.102865
    29  H    8.496506   4.017532   2.850329   2.095800   3.863690
    30  H    7.950321   4.081279   2.687281   2.147528   3.633315
    31  H    7.338419   4.480313   3.406898   2.103920   2.527164
    32  H    9.138172   3.375289   2.155378   2.736465   5.189859
    33  H    8.893951   2.684358   2.159494   2.710918   5.164420
    34  H   10.244233   4.672623   4.163869   5.503114   7.718003
    35  H    8.528098   3.390964   2.766884   4.035460   6.044507
    36  F   11.269115   5.503466   4.464382   5.354117   7.676433
    37  F   10.359695   5.617979   4.516697   5.341813   7.244519
    38  F    9.383450   4.266967   2.928028   3.492534   5.612034
                   21         22         23         24         25
    21  O    0.000000
    22  H    4.667899   0.000000
    23  C    3.090590   4.488293   0.000000
    24  C    4.406298   2.550618   2.848268   0.000000
    25  S    5.521104   2.597664   4.588464   1.827547   0.000000
    26  C    5.038583   3.670392   4.703343   2.710538   1.819825
    27  C    5.120044   4.716177   4.285840   2.943711   2.737645
    28  H    2.617508   2.704002   2.850479   2.152304   2.913192
    29  H    4.146010   4.618294   1.089359   2.648645   4.433463
    30  H    2.944794   4.799647   1.095271   2.975935   4.484778
    31  H    3.205579   5.333284   1.090645   3.908417   5.665033
    32  H    4.471984   3.604660   2.524416   1.090174   2.401031
    33  H    5.054475   2.713004   3.108439   1.094712   2.423753
    34  H    5.954117   4.379150   5.788423   3.711852   2.430534
    35  H    4.190423   3.434251   4.481609   2.921255   2.426150
    36  F    6.331219   5.418326   4.985869   3.432379   3.044615
    37  F    5.355989   5.757141   5.021701   4.178358   3.953750
    38  F    4.293312   4.569984   3.015923   2.433843   3.097335
                   26         27         28         29         30
    26  C    0.000000
    27  C    1.505367   0.000000
    28  H    2.629997   3.075489   0.000000
    29  H    4.829238   4.331449   3.420966   0.000000
    30  H    4.191968   3.565253   2.631791   1.791533   0.000000
    31  H    5.745128   5.278662   3.729236   1.761775   1.787578
    32  H    2.745694   2.389220   2.465839   2.231359   2.390183
    33  H    3.702344   3.914677   3.063833   2.622562   3.546320
    34  H    1.092955   2.114644   3.628788   5.892766   5.233319
    35  H    1.093250   2.112861   1.979522   4.844466   3.954973
    36  F    2.374760   1.347031   4.211541   4.748631   4.365797
    37  F    2.347881   1.344952   3.777949   5.239657   4.104209
    38  F    2.375049   1.346035   2.584114   3.094675   2.264858
                   31         32         33         34         35
    31  H    0.000000
    32  H    3.598051   0.000000
    33  H    4.053544   1.789379   0.000000
    34  H    6.825244   3.756109   4.628823   0.000000
    35  H    5.445541   3.069952   3.972864   1.788085   0.000000
    36  F    5.980925   2.785737   4.163146   2.650865   3.281941
    37  F    5.890647   3.580706   5.191354   2.567844   2.607304
    38  F    3.975351   1.590038   3.349173   3.282184   2.608554
                   36         37         38
    36  F    0.000000
    37  F    2.162705   0.000000
    38  F    2.159022   2.161714   0.000000
 Stoichiometry    C11H13ClF3N3O4S3
 Framework group  C1[X(C11H13ClF3N3O4S3)]
 Deg. of freedom   108
 Full point group                 C1      NOp   1
 Largest Abelian subgroup         C1      NOp   1
 Largest concise Abelian subgroup C1      NOp   1
                         Standard orientation:                         
 ---------------------------------------------------------------------
 Center     Atomic      Atomic             Coordinates (Angstroms)
 Number     Number       Type             X           Y           Z
 ---------------------------------------------------------------------
      1          6           0       -3.228793   -0.164068    0.109093
      2          6           0       -2.791779   -1.475454   -0.167621
      3         17           0       -3.905162   -2.810203   -0.156715
      4          6           0       -1.472059   -1.751141   -0.440609
      5          1           0       -1.154012   -2.767525   -0.650886
      6          6           0       -0.511707   -0.714373   -0.442302
      7          6           0       -0.965046    0.588981   -0.163126
      8         16           0        0.167089    1.937050   -0.166427
      9          6           0       -2.299450    0.864529    0.105493
     10          1           0       -2.623106    1.883432    0.300200
     11         16           0       -4.927450    0.255073    0.430677
     12          8           0       -5.670697   -0.101754   -0.775181
     13          8           0       -5.321232   -0.326135    1.711491
     14          7           0       -5.074059    1.885902    0.594597
     15          1           0       -4.762283    2.389870   -0.238123
     16          1           0       -4.624378    2.245227    1.437763
     17          7           0        0.781097   -0.975601   -0.744080
     18          6           0        1.845391   -0.008039   -0.555412
     19          7           0        1.394719    1.290100   -1.122716
     20          8           0       -0.418507    3.070371   -0.882614
     21          8           0        0.639527    2.206514    1.198397
     22          1           0        1.043505   -1.945310   -0.896464
     23          6           0        2.475939    2.290390   -1.286015
     24          6           0        3.103386   -0.487852   -1.268432
     25         16           0        3.615771   -2.095665   -0.566771
     26          6           0        4.108587   -1.445021    1.059747
     27          6           0        5.087089   -0.312344    0.899413
     28          1           0        2.066382    0.120673    0.516711
     29          1           0        3.072516    2.008584   -2.152839
     30          1           0        3.110761    2.357316   -0.395992
     31          1           0        2.026628    3.262682   -1.491621
     32          1           0        3.914693    0.223394   -1.112264
     33          1           0        2.907430   -0.602121   -2.339384
     34          1           0        4.591086   -2.223776    1.655805
     35          1           0        3.236235   -1.058556    1.593452
     36          9           0        6.191383   -0.674597    0.218385
     37          9           0        5.497135    0.137745    2.098654
     38          9           0        4.560525    0.739944    0.245785
 ---------------------------------------------------------------------
 Rotational constants (GHZ):           0.3553275           0.0799384           0.0711390
 General basis read from cards:  (6D, 7F)
 There are   517 symmetry adapted cartesian basis functions of A   symmetry.
 There are   517 symmetry adapted basis functions of A   symmetry.
   517 basis functions,   948 primitive gaussians,   517 cartesian basis functions
   112 alpha electrons      112 beta electrons
       nuclear repulsion energy      3190.6212950151 Hartrees.
 NAtoms=   38 NActive=   38 NUniq=   38 SFac= 1.00D+00 NAtFMM=   60 NAOKFM=F Big=F
 Integral buffers will be    131072 words long.
 Raffenetti 2 integral format.
 Two-electron integral symmetry is turned on.
 ------------------------------------------------------------------------------
 Polarizable Continuum Model (PCM)
 =================================
 Model                : PCM.
 Atomic radii         : SMD-Coulomb.
 Polarization charges : Total charges.
 Charge compensation  : None.
 Solution method      : On-the-fly selection.
 Cavity type          : VdW (van der Waals Surface) (Alpha=1.000).
 Cavity algorithm     : GePol (No added spheres)
                        Default sphere list used, NSphG=   38.
                        Lebedev-Laikov grids with approx.  5.0 points / Ang**2.
                        Smoothing algorithm: York/Karplus (Gamma=1.0000).
                        Polarization charges: spherical gaussians, with
                                              point-specific exponents (IZeta= 3).
                        Self-potential: point-specific (ISelfS= 7).
                        Self-field    : sphere-specific E.n sum rule (ISelfD= 2).
 1st derivatives      : Analytical E(r).r(x)/FMM algorithm (CHGder, D1EAlg=3).
                        Cavity 1st derivative terms included.
 Solvent              : Water, Eps=  78.355300 Eps(inf)=   1.777849
 ------------------------------------------------------------------------------
 ------------------------------------------------------------------------------
 Atomic radii for non-electrostatic terms: SMD-CDS.
 ------------------------------------------------------------------------------
 Nuclear repulsion after PCM non-electrostatic terms =     3190.6284443522 Hartrees.
 One-electron integrals computed using PRISM.
 NBasis=   517 RedAO= T EigKep=  1.89D-06  NBF=   517
 NBsUse=   514 1.00D-06 EigRej=  7.30D-07 NBFU=   514
 ExpMin= 4.05D-02 ExpMax= 2.52D+04 ExpMxC= 3.78D+03 IAcc=3 IRadAn=         5 AccDes= 0.00D+00
 Harris functional with IExCor= 1009 and IRadAn=       5 diagonalized for initial guess.
 HarFok:  IExCor= 1009 AccDes= 0.00D+00 IRadAn=         5 IDoV= 1 UseB2=F ITyADJ=14
 ICtDFT=  3500011 ScaDFX=  1.000000  1.000000  1.000000  1.000000
 FoFCou: FMM=F IPFlag=           0 FMFlag=      100000 FMFlg1=           0
         NFxFlg=           0 DoJE=T BraDBF=F KetDBF=T FulRan=T
         wScrn=  0.000000 ICntrl=       500 IOpCl=  0 I1Cent=   200000004 NGrid=           0
         NMat0=    1 NMatS0=      1 NMatT0=    0 NMatD0=    1 NMtDS0=    0 NMtDT0=    0
 Petite list used in FoFCou.
 Requested convergence on RMS density matrix=1.00D-08 within 128 cycles.
 Requested convergence on MAX density matrix=1.00D-06.
 Requested convergence on             energy=1.00D-06.
 No special actions if energy rises.
 Inv3:  Mode=1 IEnd=    24043683.
 Iteration    1 A*A^-1 deviation from unit magnitude is 6.22D-15 for   2830.
 Iteration    1 A*A^-1 deviation from orthogonality  is 2.42D-15 for   2830   2829.
 Iteration    1 A^-1*A deviation from unit magnitude is 6.22D-15 for   2830.
 Iteration    1 A^-1*A deviation from orthogonality  is 2.21D-15 for   2826   1215.
 Error on total polarization charges =  0.04000
 SCF Done:  E(RM062X) =  -2845.78400635     A.U. after   16 cycles
            NFock= 16  Conv=0.37D-08     -V/T= 2.0052
 SMD-CDS (non-electrostatic) energy       (kcal/mol) =       4.49
 (included in total energy above)

 **********************************************************************

            Population analysis using the SCF Density.

 **********************************************************************

 Orbital symmetries:
       Occupied  (A) (A) (A) (A) (A) (A) (A) (A) (A) (A) (A) (A)
                 (A) (A) (A) (A) (A) (A) (A) (A) (A) (A) (A) (A)
                 (A) (A) (A) (A) (A) (A) (A) (A) (A) (A) (A) (A)
                 (A) (A) (A) (A) (A) (A) (A) (A) (A) (A) (A) (A)
                 (A) (A) (A) (A) (A) (A) (A) (A) (A) (A) (A) (A)
                 (A) (A) (A) (A) (A) (A) (A) (A) (A) (A) (A) (A)
                 (A) (A) (A) (A) (A) (A) (A) (A) (A) (A) (A) (A)
                 (A) (A) (A) (A) (A) (A) (A) (A) (A) (A) (A) (A)
                 (A) (A) (A) (A) (A) (A) (A) (A) (A) (A) (A) (A)
                 (A) (A) (A) (A)
       Virtual   (A) (A) (A) (A) (A) (A) (A) (A) (A) (A) (A) (A)
                 (A) (A) (A) (A) (A) (A) (A) (A) (A) (A) (A) (A)
                 (A) (A) (A) (A) (A) (A) (A) (A) (A) (A) (A) (A)
                 (A) (A) (A) (A) (A) (A) (A) (A) (A) (A) (A) (A)
                 (A) (A) (A) (A) (A) (A) (A) (A) (A) (A) (A) (A)
                 (A) (A) (A) (A) (A) (A) (A) (A) (A) (A) (A) (A)
                 (A) (A) (A) (A) (A) (A) (A) (A) (A) (A) (A) (A)
                 (A) (A) (A) (A) (A) (A) (A) (A) (A) (A) (A) (A)
                 (A) (A) (A) (A) (A) (A) (A) (A) (A) (A) (A) (A)
                 (A) (A) (A) (A) (A) (A) (A) (A) (A) (A) (A) (A)
                 (A) (A) (A) (A) (A) (A) (A) (A) (A) (A) (A) (A)
                 (A) (A) (A) (A) (A) (A) (A) (A) (A) (A) (A) (A)
                 (A) (A) (A) (A) (A) (A) (A) (A) (A) (A) (A) (A)
                 (A) (A) (A) (A) (A) (A) (A) (A) (A) (A) (A) (A)
                 (A) (A) (A) (A) (A) (A) (A) (A) (A) (A) (A) (A)
                 (A) (A) (A) (A) (A) (A) (A) (A) (A) (A) (A) (A)
                 (A) (A) (A) (A) (A) (A) (A) (A) (A) (A) (A) (A)
                 (A) (A) (A) (A) (A) (A) (A) (A) (A) (A) (A) (A)
                 (A) (A) (A) (A) (A) (A) (A) (A) (A) (A) (A) (A)
                 (A) (A) (A) (A) (A) (A) (A) (A) (A) (A) (A) (A)
                 (A) (A) (A) (A) (A) (A) (A) (A) (A) (A) (A) (A)
                 (A) (A) (A) (A) (A) (A) (A) (A) (A) (A) (A) (A)
                 (A) (A) (A) (A) (A) (A) (A) (A) (A) (A) (A) (A)
                 (A) (A) (A) (A) (A) (A) (A) (A) (A) (A) (A) (A)
                 (A) (A) (A) (A) (A) (A) (A) (A) (A) (A) (A) (A)
                 (A) (A) (A) (A) (A) (A) (A) (A) (A) (A) (A) (A)
                 (A) (A) (A) (A) (A) (A) (A) (A) (A) (A) (A) (A)
                 (A) (A) (A) (A) (A) (A) (A) (A) (A) (A) (A) (A)
                 (A) (A) (A) (A) (A) (A) (A) (A) (A) (A) (A) (A)
                 (A) (A) (A) (A) (A) (A) (A) (A) (A) (A) (A) (A)
                 (A) (A) (A) (A) (A) (A) (A) (A) (A) (A) (A) (A)
                 (A) (A) (A) (A) (A) (A) (A) (A) (A) (A) (A) (A)
                 (A) (A) (A) (A) (A) (A) (A) (A) (A) (A) (A) (A)
                 (A) (A) (A) (A) (A) (A)
 The electronic state is 1-A.
 Alpha  occ. eigenvalues -- -102.69504 -90.18997 -90.18432 -89.94401 -25.31927
 Alpha  occ. eigenvalues --  -25.31074 -25.31036 -19.66801 -19.66541 -19.66422
 Alpha  occ. eigenvalues --  -19.66144 -14.82169 -14.81111 -14.80964 -10.82199
 Alpha  occ. eigenvalues --  -10.65865 -10.65286 -10.65045 -10.61348 -10.61109
 Alpha  occ. eigenvalues --  -10.61031 -10.60309 -10.58764 -10.58489 -10.58412
 Alpha  occ. eigenvalues --   -9.84146  -8.49906  -8.49547  -8.28843  -7.56561
 Alpha  occ. eigenvalues --   -7.55882  -7.55851  -6.42112  -6.42083  -6.41993
 Alpha  occ. eigenvalues --   -6.41717  -6.41698  -6.41620  -6.20910  -6.20688
 Alpha  occ. eigenvalues --   -6.20228  -1.48275  -1.39455  -1.38336  -1.26569
 Alpha  occ. eigenvalues --   -1.26551  -1.14877  -1.14665  -1.11678  -1.05341
 Alpha  occ. eigenvalues --   -1.04070  -1.02429  -0.97435  -0.94879  -0.90989
 Alpha  occ. eigenvalues --   -0.88960  -0.87383  -0.82699  -0.81404  -0.77930
 Alpha  occ. eigenvalues --   -0.77042  -0.74518  -0.73640  -0.72174  -0.70715
 Alpha  occ. eigenvalues --   -0.70554  -0.67428  -0.66180  -0.64680  -0.63680
 Alpha  occ. eigenvalues --   -0.62892  -0.62306  -0.61546  -0.60123  -0.59210
 Alpha  occ. eigenvalues --   -0.58800  -0.58237  -0.57419  -0.56431  -0.55349
 Alpha  occ. eigenvalues --   -0.55003  -0.54675  -0.54052  -0.53915  -0.52774
 Alpha  occ. eigenvalues --   -0.52541  -0.51644  -0.50869  -0.49969  -0.49186
 Alpha  occ. eigenvalues --   -0.48813  -0.47787  -0.47447  -0.46368  -0.45261
 Alpha  occ. eigenvalues --   -0.44511  -0.44245  -0.43278  -0.42815  -0.42166
 Alpha  occ. eigenvalues --   -0.41395  -0.41332  -0.40910  -0.40347  -0.39905
 Alpha  occ. eigenvalues --   -0.38960  -0.38834  -0.38369  -0.34780  -0.33338
 Alpha  occ. eigenvalues --   -0.31015  -0.28560
 Alpha virt. eigenvalues --   -0.02885  -0.01411   0.00529   0.01529   0.01711
 Alpha virt. eigenvalues --    0.01885   0.02345   0.03140   0.03640   0.04060
 Alpha virt. eigenvalues --    0.04101   0.04701   0.05067   0.05297   0.05569
 Alpha virt. eigenvalues --    0.05835   0.06235   0.06850   0.07046   0.07303
 Alpha virt. eigenvalues --    0.07709   0.07952   0.08276   0.08735   0.08820
 Alpha virt. eigenvalues --    0.09233   0.09516   0.09876   0.10313   0.10701
 Alpha virt. eigenvalues --    0.10984   0.11477   0.11506   0.11923   0.12111
 Alpha virt. eigenvalues --    0.12246   0.12844   0.12863   0.13623   0.13780
 Alpha virt. eigenvalues --    0.13892   0.14280   0.14646   0.14733   0.15054
 Alpha virt. eigenvalues --    0.15494   0.15907   0.16227   0.16654   0.17003
 Alpha virt. eigenvalues --    0.17247   0.17463   0.17767   0.18323   0.18423
 Alpha virt. eigenvalues --    0.18589   0.18996   0.19734   0.19993   0.20462
 Alpha virt. eigenvalues --    0.20676   0.21003   0.21435   0.21586   0.22397
 Alpha virt. eigenvalues --    0.22542   0.22817   0.23039   0.23109   0.23303
 Alpha virt. eigenvalues --    0.23771   0.23985   0.24632   0.24699   0.25322
 Alpha virt. eigenvalues --    0.25547   0.25755   0.25840   0.25998   0.26421
 Alpha virt. eigenvalues --    0.26744   0.27094   0.27325   0.28053   0.28364
 Alpha virt. eigenvalues --    0.28926   0.29241   0.29370   0.29612   0.30267
 Alpha virt. eigenvalues --    0.30352   0.30740   0.30889   0.31024   0.31294
 Alpha virt. eigenvalues --    0.31629   0.31969   0.32067   0.32697   0.32816
 Alpha virt. eigenvalues --    0.33733   0.33782   0.34167   0.34582   0.34838
 Alpha virt. eigenvalues --    0.35621   0.35958   0.36282   0.36574   0.37352
 Alpha virt. eigenvalues --    0.37595   0.38045   0.38424   0.38655   0.38898
 Alpha virt. eigenvalues --    0.39478   0.39842   0.40034   0.40361   0.41037
 Alpha virt. eigenvalues --    0.41573   0.42229   0.42963   0.43089   0.43374
 Alpha virt. eigenvalues --    0.44192   0.45083   0.45899   0.46599   0.47114
 Alpha virt. eigenvalues --    0.47741   0.48365   0.50915   0.51991   0.52267
 Alpha virt. eigenvalues --    0.52760   0.53438   0.54700   0.55332   0.56678
 Alpha virt. eigenvalues --    0.57232   0.58783   0.60556   0.61054   0.61613
 Alpha virt. eigenvalues --    0.62209   0.62926   0.64710   0.65200   0.66294
 Alpha virt. eigenvalues --    0.66554   0.67048   0.68900   0.69227   0.70285
 Alpha virt. eigenvalues --    0.70817   0.71134   0.71880   0.72699   0.73491
 Alpha virt. eigenvalues --    0.74237   0.75341   0.76214   0.76622   0.77638
 Alpha virt. eigenvalues --    0.77836   0.79474   0.80864   0.81215   0.82187
 Alpha virt. eigenvalues --    0.82952   0.84053   0.84598   0.85910   0.86844
 Alpha virt. eigenvalues --    0.88789   0.89535   0.89755   0.90892   0.91506
 Alpha virt. eigenvalues --    0.92756   0.93717   0.94213   0.95056   0.96524
 Alpha virt. eigenvalues --    0.97208   0.98191   0.98924   0.99073   1.00987
 Alpha virt. eigenvalues --    1.01165   1.01968   1.02815   1.03342   1.03727
 Alpha virt. eigenvalues --    1.04202   1.04500   1.05516   1.05957   1.06469
 Alpha virt. eigenvalues --    1.07842   1.08611   1.09852   1.10940   1.11604
 Alpha virt. eigenvalues --    1.11735   1.12429   1.13230   1.13775   1.14139
 Alpha virt. eigenvalues --    1.14198   1.14966   1.15818   1.16559   1.17949
 Alpha virt. eigenvalues --    1.18681   1.19786   1.19960   1.21072   1.21822
 Alpha virt. eigenvalues --    1.22439   1.23461   1.24882   1.25626   1.26248
 Alpha virt. eigenvalues --    1.26392   1.28075   1.29059   1.30365   1.31388
 Alpha virt. eigenvalues --    1.32505   1.32814   1.33526   1.34124   1.35292
 Alpha virt. eigenvalues --    1.35748   1.36179   1.37142   1.38221   1.39705
 Alpha virt. eigenvalues --    1.39879   1.41331   1.42162   1.43419   1.43815
 Alpha virt. eigenvalues --    1.45566   1.46529   1.47160   1.47901   1.48311
 Alpha virt. eigenvalues --    1.50778   1.51349   1.52204   1.53191   1.54236
 Alpha virt. eigenvalues --    1.55641   1.56961   1.57905   1.58517   1.60766
 Alpha virt. eigenvalues --    1.61917   1.63019   1.63332   1.65834   1.67134
 Alpha virt. eigenvalues --    1.68425   1.70248   1.71320   1.72851   1.73706
 Alpha virt. eigenvalues --    1.74342   1.75444   1.75855   1.76141   1.77752
 Alpha virt. eigenvalues --    1.78583   1.79760   1.80314   1.81565   1.82561
 Alpha virt. eigenvalues --    1.82725   1.83657   1.83970   1.84749   1.85055
 Alpha virt. eigenvalues --    1.85217   1.85809   1.85914   1.86779   1.87103
 Alpha virt. eigenvalues --    1.88778   1.89125   1.90341   1.91059   1.91800
 Alpha virt. eigenvalues --    1.92632   1.93520   1.93730   1.95298   1.96761
 Alpha virt. eigenvalues --    1.96986   1.99088   1.99827   2.00410   2.01045
 Alpha virt. eigenvalues --    2.01661   2.03106   2.03718   2.05106   2.05801
 Alpha virt. eigenvalues --    2.07708   2.08558   2.08612   2.11132   2.11460
 Alpha virt. eigenvalues --    2.12012   2.12668   2.13809   2.14069   2.14629
 Alpha virt. eigenvalues --    2.15764   2.16422   2.17685   2.18284   2.19606
 Alpha virt. eigenvalues --    2.20846   2.21967   2.22510   2.23887   2.24976
 Alpha virt. eigenvalues --    2.25543   2.27092   2.28575   2.28917   2.30254
 Alpha virt. eigenvalues --    2.32122   2.32744   2.35802   2.36707   2.38468
 Alpha virt. eigenvalues --    2.39523   2.41775   2.42728   2.44696   2.46108
 Alpha virt. eigenvalues --    2.47553   2.48255   2.49959   2.50655   2.53692
 Alpha virt. eigenvalues --    2.56015   2.57409   2.59029   2.62166   2.64645
 Alpha virt. eigenvalues --    2.67448   2.73297   2.75808   2.78448   2.79326
 Alpha virt. eigenvalues --    2.80402   2.80926   2.82223   2.84251   2.87720
 Alpha virt. eigenvalues --    2.89554   2.90905   2.91507   2.94601   2.98558
 Alpha virt. eigenvalues --    3.01857   3.04767   3.18037   3.22044   3.23751
 Alpha virt. eigenvalues --    3.26626   3.32393   3.96899   4.01701   4.04645
 Alpha virt. eigenvalues --    4.05533   4.11077   4.22035   4.26999   4.29005
 Alpha virt. eigenvalues --    4.31843   4.33257   4.34504   4.37011   4.40253
 Alpha virt. eigenvalues --    4.41282   4.43965   4.45665   4.49586   4.52991
 Alpha virt. eigenvalues --    4.55345   4.65978   4.69346   4.76036   5.88575
 Alpha virt. eigenvalues --    6.03670   6.95950
          Condensed to atoms (all electrons):
               1          2          3          4          5          6
     1  C   38.280761  -6.725851   0.050932  -5.613566   0.063689   1.213903
     2  C   -6.725851  25.226224  -0.703238  -1.221728   0.044480  -3.593294
     3  Cl   0.050932  -0.703238  17.050633   0.148269  -0.003305   0.212769
     4  C   -5.613566  -1.221728   0.148269   9.713754   0.305102   0.363180
     5  H    0.063689   0.044480  -0.003305   0.305102   0.394496  -0.168368
     6  C    1.213903  -3.593294   0.212769   0.363180  -0.168368  26.706414
     7  C   -5.439552  -3.244933  -0.110322  -0.128857   0.062886 -12.210827
     8  S   -2.600368   0.956596  -0.032075   0.538975   0.005225  -1.933659
     9  C   -8.810881  -5.512390   0.076585   1.274653   0.007622  -5.257853
    10  H   -0.066119  -0.058931  -0.000163  -0.005873   0.000008  -0.050000
    11  S   -1.427625   0.402249   0.081870   0.596693  -0.002211   0.920694
    12  O    0.171011  -0.189759  -0.027516   0.029230  -0.000004   0.036573
    13  O    0.515177  -0.355313  -0.026522   0.018693  -0.000016   0.020824
    14  N    0.118213   0.670165  -0.025362  -0.084821   0.000101   0.123874
    15  H   -0.013498  -0.012640   0.000687   0.002331  -0.000000  -0.002899
    16  H   -0.066183  -0.028887   0.000328   0.002409  -0.000000  -0.008049
    17  N    0.117038  -0.014489  -0.002036  -0.228827  -0.013248  -0.177192
    18  C   -0.451609  -0.217903  -0.012971   0.279837   0.003164  -0.684029
    19  N   -0.466505   0.220255  -0.004003   0.071656   0.000293   0.330767
    20  O   -0.123927   0.022803  -0.000872   0.014178   0.000013  -0.014851
    21  O   -0.042589   0.004980  -0.000288   0.036571   0.000031  -0.297903
    22  H    0.006284   0.010529   0.000481   0.020691   0.004431  -0.057627
    23  C   -0.048720   0.032213  -0.000411  -0.017383   0.000034   0.168191
    24  C   -0.388577   0.097005  -0.004700  -0.102688  -0.001148   0.021960
    25  S    0.034012  -0.066476   0.001577  -0.023422  -0.000520   0.004171
    26  C   -0.007283   0.016309  -0.000314   0.024619  -0.000144  -0.010585
    27  C   -0.006484   0.001692  -0.000090  -0.012063  -0.000015  -0.006096
    28  H    0.013445   0.003101   0.000012   0.017943  -0.000006  -0.062142
    29  H   -0.000223  -0.000057  -0.000000  -0.001626   0.000000   0.008870
    30  H   -0.001050   0.000169  -0.000000   0.002535  -0.000000  -0.002593
    31  H    0.001779   0.000225   0.000001   0.000598  -0.000000   0.002163
    32  H   -0.000055  -0.000362   0.000001  -0.000378   0.000000  -0.002040
    33  H   -0.000049   0.000779  -0.000003   0.003661  -0.000001  -0.014938
    34  H    0.000006   0.000030   0.000000   0.000295   0.000000  -0.000029
    35  H   -0.000202  -0.000100  -0.000007  -0.002466  -0.000000   0.001784
    36  F    0.000022  -0.000039   0.000000  -0.000281   0.000000  -0.000018
    37  F   -0.000045   0.000009  -0.000000  -0.000249  -0.000000   0.000754
    38  F   -0.000364   0.000281  -0.000002  -0.000174  -0.000000   0.004369
               7          8          9         10         11         12
     1  C   -5.439552  -2.600368  -8.810881  -0.066119  -1.427625   0.171011
     2  C   -3.244933   0.956596  -5.512390  -0.058931   0.402249  -0.189759
     3  Cl  -0.110322  -0.032075   0.076585  -0.000163   0.081870  -0.027516
     4  C   -0.128857   0.538975   1.274653  -0.005873   0.596693   0.029230
     5  H    0.062886   0.005225   0.007622   0.000008  -0.002211  -0.000004
     6  C  -12.210827  -1.933659  -5.257853  -0.050000   0.920694   0.036573
     7  C   25.448664  -1.485165   7.511520   0.004814  -1.587609  -0.045362
     8  S   -1.485165  18.644390   0.458288   0.062139  -0.362379  -0.008417
     9  C    7.511520   0.458288  16.606989   0.448312  -0.853809  -0.051645
    10  H    0.004814   0.062139   0.448312   0.399792  -0.042620  -0.000860
    11  S   -1.587609  -0.362379  -0.853809  -0.042620  16.039568   0.302021
    12  O   -0.045362  -0.008417  -0.051645  -0.000860   0.302021   8.643064
    13  O   -0.039749  -0.012430  -0.039348  -0.001090   0.215516  -0.236654
    14  N   -0.319301   0.023098  -0.819166  -0.009993   0.011391  -0.102881
    15  H   -0.007579  -0.003470   0.016070   0.000038   0.044028  -0.004668
    16  H    0.018123  -0.001229   0.079181  -0.000125   0.026780   0.006832
    17  N    0.457786  -0.065707   0.058033  -0.000588   0.009396   0.000096
    18  C    1.004863  -0.378829   0.115473   0.000712  -0.051816  -0.000479
    19  N   -1.266181   0.265725  -0.054130   0.001544  -0.026072  -0.000254
    20  O   -0.181621   0.204240   0.101030   0.005194  -0.015411  -0.000214
    21  O    0.057270   0.685189   0.001868   0.000628  -0.002952   0.000004
    22  H    0.038613   0.003069  -0.000895   0.000001   0.000144   0.000000
    23  C   -0.297687  -0.209433   0.003783  -0.000065  -0.005235  -0.000025
    24  C   -1.441850  -0.378729   0.164076  -0.000133  -0.011641  -0.000010
    25  S    0.198887  -0.056036   0.002330  -0.000031   0.001890   0.000016
    26  C   -0.009354   0.035015  -0.002447   0.000004  -0.000314  -0.000002
    27  C   -0.079634  -0.029425   0.004083   0.000003  -0.000242  -0.000000
    28  H    0.052192   0.035107  -0.005693  -0.000001  -0.000067  -0.000000
    29  H   -0.007697   0.012986  -0.000216   0.000000  -0.000007  -0.000000
    30  H    0.010678   0.006132  -0.006213  -0.000000  -0.000012  -0.000000
    31  H    0.006429  -0.031180   0.009526  -0.000001   0.000029  -0.000000
    32  H    0.007370  -0.012650  -0.000297   0.000000   0.000003   0.000000
    33  H   -0.002748   0.009117   0.000337  -0.000000  -0.000013  -0.000000
    34  H   -0.000077   0.000022  -0.000005  -0.000000   0.000000   0.000000
    35  H   -0.002096   0.001058   0.000281   0.000000  -0.000012   0.000000
    36  F    0.001441  -0.000364   0.000001   0.000000   0.000000   0.000000
    37  F   -0.001247  -0.000226   0.000068   0.000000  -0.000000   0.000000
    38  F   -0.002813  -0.001787   0.000507   0.000000  -0.000008  -0.000000
              13         14         15         16         17         18
     1  C    0.515177   0.118213  -0.013498  -0.066183   0.117038  -0.451609
     2  C   -0.355313   0.670165  -0.012640  -0.028887  -0.014489  -0.217903
     3  Cl  -0.026522  -0.025362   0.000687   0.000328  -0.002036  -0.012971
     4  C    0.018693  -0.084821   0.002331   0.002409  -0.228827   0.279837
     5  H   -0.000016   0.000101  -0.000000  -0.000000  -0.013248   0.003164
     6  C    0.020824   0.123874  -0.002899  -0.008049  -0.177192  -0.684029
     7  C   -0.039749  -0.319301  -0.007579   0.018123   0.457786   1.004863
     8  S   -0.012430   0.023098  -0.003470  -0.001229  -0.065707  -0.378829
     9  C   -0.039348  -0.819166   0.016070   0.079181   0.058033   0.115473
    10  H   -0.001090  -0.009993   0.000038  -0.000125  -0.000588   0.000712
    11  S    0.215516   0.011391   0.044028   0.026780   0.009396  -0.051816
    12  O   -0.236654  -0.102881  -0.004668   0.006832   0.000096  -0.000479
    13  O    8.539541  -0.119221   0.008676  -0.005329  -0.000152  -0.001771
    14  N   -0.119221   8.337825   0.201349   0.203243   0.001069  -0.011354
    15  H    0.008676   0.201349   0.257084  -0.015187  -0.000006   0.000077
    16  H   -0.005329   0.203243  -0.015187   0.249664   0.000001   0.000339
    17  N   -0.000152   0.001069  -0.000006   0.000001   7.948937  -0.764466
    18  C   -0.001771  -0.011354   0.000077   0.000339  -0.764466  17.408026
    19  N   -0.000199  -0.000941   0.000021  -0.000003  -0.425808  -1.015796
    20  O   -0.000105  -0.003796  -0.000020   0.000103  -0.024890   0.128439
    21  O   -0.000151   0.000101  -0.000005   0.000048   0.080717  -0.115850
    22  H    0.000000   0.000002  -0.000000  -0.000000   0.241536  -0.044511
    23  C   -0.000044   0.000149  -0.000003  -0.000020  -0.092035  -0.613462
    24  C   -0.000156  -0.000685   0.000001   0.000010   0.223011  -7.207695
    25  S    0.000011  -0.000007  -0.000000   0.000000   0.084345  -0.299562
    26  C   -0.000003  -0.000011   0.000000   0.000000  -0.011914   0.397404
    27  C   -0.000001  -0.000002  -0.000000  -0.000000   0.011068  -0.803823
    28  H    0.000000  -0.000002   0.000000   0.000000  -0.025260   0.418506
    29  H    0.000000  -0.000000   0.000000   0.000000  -0.008323  -0.026820
    30  H    0.000000  -0.000000  -0.000000  -0.000000   0.007022   0.041168
    31  H   -0.000000   0.000001  -0.000000   0.000000   0.001458   0.038238
    32  H    0.000000  -0.000000   0.000000   0.000000   0.009558  -0.032490
    33  H   -0.000000  -0.000000   0.000000   0.000000   0.015860  -0.090365
    34  H    0.000000  -0.000000   0.000000   0.000000  -0.001053   0.000003
    35  H   -0.000000  -0.000000  -0.000000   0.000000   0.008896  -0.004841
    36  F    0.000000   0.000000   0.000000  -0.000000   0.000051   0.046518
    37  F   -0.000000   0.000000   0.000000  -0.000000   0.000485  -0.033917
    38  F   -0.000000  -0.000000  -0.000000   0.000000   0.006238  -0.055527
              19         20         21         22         23         24
     1  C   -0.466505  -0.123927  -0.042589   0.006284  -0.048720  -0.388577
     2  C    0.220255   0.022803   0.004980   0.010529   0.032213   0.097005
     3  Cl  -0.004003  -0.000872  -0.000288   0.000481  -0.000411  -0.004700
     4  C    0.071656   0.014178   0.036571   0.020691  -0.017383  -0.102688
     5  H    0.000293   0.000013   0.000031   0.004431   0.000034  -0.001148
     6  C    0.330767  -0.014851  -0.297903  -0.057627   0.168191   0.021960
     7  C   -1.266181  -0.181621   0.057270   0.038613  -0.297687  -1.441850
     8  S    0.265725   0.204240   0.685189   0.003069  -0.209433  -0.378729
     9  C   -0.054130   0.101030   0.001868  -0.000895   0.003783   0.164076
    10  H    0.001544   0.005194   0.000628   0.000001  -0.000065  -0.000133
    11  S   -0.026072  -0.015411  -0.002952   0.000144  -0.005235  -0.011641
    12  O   -0.000254  -0.000214   0.000004   0.000000  -0.000025  -0.000010
    13  O   -0.000199  -0.000105  -0.000151   0.000000  -0.000044  -0.000156
    14  N   -0.000941  -0.003796   0.000101   0.000002   0.000149  -0.000685
    15  H    0.000021  -0.000020  -0.000005  -0.000000  -0.000003   0.000001
    16  H   -0.000003   0.000103   0.000048  -0.000000  -0.000020   0.000010
    17  N   -0.425808  -0.024890   0.080717   0.241536  -0.092035   0.223011
    18  C   -1.015796   0.128439  -0.115850  -0.044511  -0.613462  -7.207695
    19  N    8.862764  -0.032100  -0.206691   0.001762   0.493717   1.020277
    20  O   -0.032100   8.700435  -0.204450  -0.000002  -0.042808   0.063251
    21  O   -0.206691  -0.204450   8.583292   0.000293  -0.070902  -0.045226
    22  H    0.001762  -0.000002   0.000293   0.254169  -0.000260  -0.017938
    23  C    0.493717  -0.042808  -0.070902  -0.000260   5.819930   0.341029
    24  C    1.020277   0.063251  -0.045226  -0.017938   0.341029  13.276215
    25  S   -0.167803   0.002358   0.004796   0.051036  -0.089692  -0.179884
    26  C    0.021992  -0.000703   0.002584  -0.005527  -0.001641  -0.441111
    27  C    0.082428   0.000734   0.000832  -0.002665   0.030838   0.686451
    28  H   -0.076094   0.000260   0.016209   0.000988   0.016180  -0.187288
    29  H   -0.024172   0.000914  -0.001445  -0.000010   0.391713   0.007178
    30  H   -0.028515  -0.002465   0.012026   0.000007   0.349099  -0.078199
    31  H   -0.081537   0.016246  -0.004017   0.000001   0.376974   0.002624
    32  H   -0.025162  -0.000002  -0.000590   0.000273  -0.006605   0.375361
    33  H    0.025861   0.000114   0.000060  -0.000646   0.000831   0.392068
    34  H   -0.000069   0.000000   0.000002   0.000024   0.000271   0.017922
    35  H    0.002040  -0.000005   0.000159  -0.000414   0.002959  -0.024250
    36  F   -0.001738  -0.000001  -0.000044   0.000003  -0.002772  -0.065724
    37  F    0.001471   0.000001  -0.000085  -0.000014  -0.000137   0.022743
    38  F    0.017684   0.000081  -0.001808  -0.000125   0.006741  -0.031599
              25         26         27         28         29         30
     1  C    0.034012  -0.007283  -0.006484   0.013445  -0.000223  -0.001050
     2  C   -0.066476   0.016309   0.001692   0.003101  -0.000057   0.000169
     3  Cl   0.001577  -0.000314  -0.000090   0.000012  -0.000000  -0.000000
     4  C   -0.023422   0.024619  -0.012063   0.017943  -0.001626   0.002535
     5  H   -0.000520  -0.000144  -0.000015  -0.000006   0.000000  -0.000000
     6  C    0.004171  -0.010585  -0.006096  -0.062142   0.008870  -0.002593
     7  C    0.198887  -0.009354  -0.079634   0.052192  -0.007697   0.010678
     8  S   -0.056036   0.035015  -0.029425   0.035107   0.012986   0.006132
     9  C    0.002330  -0.002447   0.004083  -0.005693  -0.000216  -0.006213
    10  H   -0.000031   0.000004   0.000003  -0.000001   0.000000  -0.000000
    11  S    0.001890  -0.000314  -0.000242  -0.000067  -0.000007  -0.000012
    12  O    0.000016  -0.000002  -0.000000  -0.000000  -0.000000  -0.000000
    13  O    0.000011  -0.000003  -0.000001   0.000000   0.000000   0.000000
    14  N   -0.000007  -0.000011  -0.000002  -0.000002  -0.000000  -0.000000
    15  H   -0.000000   0.000000  -0.000000   0.000000   0.000000  -0.000000
    16  H    0.000000   0.000000  -0.000000   0.000000   0.000000  -0.000000
    17  N    0.084345  -0.011914   0.011068  -0.025260  -0.008323   0.007022
    18  C   -0.299562   0.397404  -0.803823   0.418506  -0.026820   0.041168
    19  N   -0.167803   0.021992   0.082428  -0.076094  -0.024172  -0.028515
    20  O    0.002358  -0.000703   0.000734   0.000260   0.000914  -0.002465
    21  O    0.004796   0.002584   0.000832   0.016209  -0.001445   0.012026
    22  H    0.051036  -0.005527  -0.002665   0.000988  -0.000010   0.000007
    23  C   -0.089692  -0.001641   0.030838   0.016180   0.391713   0.349099
    24  C   -0.179884  -0.441111   0.686451  -0.187288   0.007178  -0.078199
    25  S   16.686028  -0.345182  -0.035915  -0.030186  -0.006145   0.003762
    26  C   -0.345182   6.590449   0.155551   0.006858   0.001118  -0.001108
    27  C   -0.035915   0.155551   4.606907   0.007529  -0.002438   0.001459
    28  H   -0.030186   0.006858   0.007529   0.479755  -0.000466   0.004792
    29  H   -0.006145   0.001118  -0.002438  -0.000466   0.416734  -0.030318
    30  H    0.003762  -0.001108   0.001459   0.004792  -0.030318   0.436672
    31  H    0.001113   0.000051  -0.000866  -0.000145  -0.015618  -0.023688
    32  H    0.007392  -0.032901   0.009663  -0.004188  -0.001974  -0.002333
    33  H   -0.051331   0.015578  -0.000827   0.002452  -0.000934   0.000239
    34  H   -0.035665   0.358177  -0.030393  -0.000007  -0.000000   0.000002
    35  H   -0.035293   0.328826  -0.025863   0.004103   0.000000  -0.000026
    36  F    0.049641  -0.124748   0.188056  -0.000492   0.000009  -0.000075
    37  F    0.010653  -0.105575   0.209514  -0.000510  -0.000002  -0.000036
    38  F   -0.008395  -0.085192   0.107166   0.007897  -0.001478  -0.000456
              31         32         33         34         35         36
     1  C    0.001779  -0.000055  -0.000049   0.000006  -0.000202   0.000022
     2  C    0.000225  -0.000362   0.000779   0.000030  -0.000100  -0.000039
     3  Cl   0.000001   0.000001  -0.000003   0.000000  -0.000007   0.000000
     4  C    0.000598  -0.000378   0.003661   0.000295  -0.002466  -0.000281
     5  H   -0.000000   0.000000  -0.000001   0.000000  -0.000000   0.000000
     6  C    0.002163  -0.002040  -0.014938  -0.000029   0.001784  -0.000018
     7  C    0.006429   0.007370  -0.002748  -0.000077  -0.002096   0.001441
     8  S   -0.031180  -0.012650   0.009117   0.000022   0.001058  -0.000364
     9  C    0.009526  -0.000297   0.000337  -0.000005   0.000281   0.000001
    10  H   -0.000001   0.000000  -0.000000  -0.000000   0.000000   0.000000
    11  S    0.000029   0.000003  -0.000013   0.000000  -0.000012   0.000000
    12  O   -0.000000   0.000000  -0.000000   0.000000   0.000000   0.000000
    13  O   -0.000000   0.000000  -0.000000   0.000000  -0.000000   0.000000
    14  N    0.000001  -0.000000  -0.000000  -0.000000  -0.000000   0.000000
    15  H   -0.000000   0.000000   0.000000   0.000000  -0.000000   0.000000
    16  H    0.000000   0.000000   0.000000   0.000000   0.000000  -0.000000
    17  N    0.001458   0.009558   0.015860  -0.001053   0.008896   0.000051
    18  C    0.038238  -0.032490  -0.090365   0.000003  -0.004841   0.046518
    19  N   -0.081537  -0.025162   0.025861  -0.000069   0.002040  -0.001738
    20  O    0.016246  -0.000002   0.000114   0.000000  -0.000005  -0.000001
    21  O   -0.004017  -0.000590   0.000060   0.000002   0.000159  -0.000044
    22  H    0.000001   0.000273  -0.000646   0.000024  -0.000414   0.000003
    23  C    0.376974  -0.006605   0.000831   0.000271   0.002959  -0.002772
    24  C    0.002624   0.375361   0.392068   0.017922  -0.024250  -0.065724
    25  S    0.001113   0.007392  -0.051331  -0.035665  -0.035293   0.049641
    26  C    0.000051  -0.032901   0.015578   0.358177   0.328826  -0.124748
    27  C   -0.000866   0.009663  -0.000827  -0.030393  -0.025863   0.188056
    28  H   -0.000145  -0.004188   0.002452  -0.000007   0.004103  -0.000492
    29  H   -0.015618  -0.001974  -0.000934  -0.000000   0.000000   0.000009
    30  H   -0.023688  -0.002333   0.000239   0.000002  -0.000026  -0.000075
    31  H    0.423997   0.000182  -0.000017  -0.000000   0.000000   0.000003
    32  H    0.000182   0.431389  -0.016542  -0.000055  -0.000599   0.004107
    33  H   -0.000017  -0.016542   0.377723  -0.000025  -0.000071  -0.000204
    34  H   -0.000000  -0.000055  -0.000025   0.362616  -0.013963  -0.003963
    35  H    0.000000  -0.000599  -0.000071  -0.013963   0.407104   0.007802
    36  F    0.000003   0.004107  -0.000204  -0.003963   0.007802   9.276148
    37  F    0.000002  -0.000815   0.000044  -0.003727  -0.001569  -0.049726
    38  F    0.000183  -0.042355   0.003721   0.007745   0.001413  -0.034608
              37         38
     1  C   -0.000045  -0.000364
     2  C    0.000009   0.000281
     3  Cl  -0.000000  -0.000002
     4  C   -0.000249  -0.000174
     5  H   -0.000000  -0.000000
     6  C    0.000754   0.004369
     7  C   -0.001247  -0.002813
     8  S   -0.000226  -0.001787
     9  C    0.000068   0.000507
    10  H    0.000000   0.000000
    11  S   -0.000000  -0.000008
    12  O    0.000000  -0.000000
    13  O   -0.000000  -0.000000
    14  N    0.000000  -0.000000
    15  H    0.000000  -0.000000
    16  H   -0.000000   0.000000
    17  N    0.000485   0.006238
    18  C   -0.033917  -0.055527
    19  N    0.001471   0.017684
    20  O    0.000001   0.000081
    21  O   -0.000085  -0.001808
    22  H   -0.000014  -0.000125
    23  C   -0.000137   0.006741
    24  C    0.022743  -0.031599
    25  S    0.010653  -0.008395
    26  C   -0.105575  -0.085192
    27  C    0.209514   0.107166
    28  H   -0.000510   0.007897
    29  H   -0.000002  -0.001478
    30  H   -0.000036  -0.000456
    31  H    0.000002   0.000183
    32  H   -0.000815  -0.042355
    33  H    0.000044   0.003721
    34  H   -0.003727   0.007745
    35  H   -0.001569   0.001413
    36  F   -0.049726  -0.034608
    37  F    9.290264  -0.035855
    38  F   -0.035855   9.433058
 Mulliken charges:
               1
     1  C   -2.284946
     2  C    0.236296
     3  Cl   0.330054
     4  C   -0.021472
     5  H    0.297413
     6  C    0.413733
     7  C   -0.969277
     8  S    1.657190
     9  C    0.474374
    10  H    0.313403
    11  S    1.737783
    12  O   -0.520099
    13  O   -0.480185
    14  N   -1.193037
    15  H    0.529612
    16  H    0.537947
    17  N   -0.426604
    18  C   -0.962881
    19  N   -0.516483
    20  O   -0.612152
    21  O   -0.492667
    22  H    0.496295
    23  C   -0.535312
    24  C   -0.101951
    25  S    0.287528
    26  C   -0.768477
    27  C    0.932866
    28  H    0.305218
    29  H    0.290447
    30  H    0.301323
    31  H    0.275247
    32  H    0.337092
    33  H    0.330271
    34  H    0.341915
    35  H    0.345353
    36  F   -0.289007
    37  F   -0.302272
    38  F   -0.294536
 Sum of Mulliken charges =  -0.00000
 Mulliken charges with hydrogens summed into heavy atoms:
               1
     1  C   -2.284946
     2  C    0.236296
     3  Cl   0.330054
     4  C    0.275940
     6  C    0.413733
     7  C   -0.969277
     8  S    1.657190
     9  C    0.787778
    11  S    1.737783
    12  O   -0.520099
    13  O   -0.480185
    14  N   -0.125478
    17  N    0.069691
    18  C   -0.657664
    19  N   -0.516483
    20  O   -0.612152
    21  O   -0.492667
    23  C    0.331705
    24  C    0.565411
    25  S    0.287528
    26  C   -0.081208
    27  C    0.932866
    36  F   -0.289007
    37  F   -0.302272
    38  F   -0.294536
 Electronic spatial extent (au):  <R**2>=          13859.0917
 Charge=             -0.0000 electrons
 Dipole moment (field-independent basis, Debye):
    X=             11.8229    Y=             -2.0477    Z=             -1.6258  Tot=             12.1086
 Quadrupole moment (field-independent basis, Debye-Ang):
   XX=           -234.3119   YY=           -170.3893   ZZ=           -179.5022
   XY=            -23.5043   XZ=             -1.1606   YZ=             -1.7050
 Traceless Quadrupole moment (field-independent basis, Debye-Ang):
   XX=            -39.5774   YY=             24.3452   ZZ=             15.2323
   XY=            -23.5043   XZ=             -1.1606   YZ=             -1.7050
 Octapole moment (field-independent basis, Debye-Ang**2):
  XXX=            447.5010  YYY=            -27.5820  ZZZ=              4.4402  XYY=              3.1757
  XXY=            107.2629  XXZ=            -14.4634  XZZ=             71.3172  YZZ=             -3.9087
  YYZ=              9.5480  XYZ=            -53.4177
 Hexadecapole moment (field-independent basis, Debye-Ang**3):
 XXXX=         -16847.8592 YYYY=          -2829.3231 ZZZZ=           -922.2840 XXXY=           -366.5352
 XXXZ=            188.3447 YYYX=            -32.4558 YYYZ=              7.1954 ZZZX=             64.1630
 ZZZY=              2.3602 XXYY=          -2470.9702 XXZZ=          -2536.8811 YYZZ=           -611.6777
 XXYZ=            -81.9215 YYXZ=             16.7858 ZZXY=            -65.8054
 N-N= 3.190628444352D+03 E-N=-1.309736330954D+04  KE= 2.831183479782D+03
 D1PCM: PCM CHGder 1st derivatives, ID1Alg=3 FixD1E=F DoIter=F DoCFld=F I1PDM=0.
 Calling FoFJK, ICntrl=      2127 FMM=F ISym2X=0 I1Cent= 0 IOpClX= 0 NMat=1 NMatS=1 NMatT=0.
 ***** Axes restored to original set *****
 -------------------------------------------------------------------
 Center     Atomic                   Forces (Hartrees/Bohr)
 Number     Number              X              Y              Z
 -------------------------------------------------------------------
      1        6           0.009004236   -0.002522686   -0.000403792
      2        6          -0.002096437   -0.000112395    0.001802508
      3       17           0.001166327    0.000158424    0.001385645
      4        6           0.001014903    0.000093871    0.000399649
      5        1          -0.000130131    0.000106788    0.000198777
      6        6           0.000817382    0.000089978   -0.000903317
      7        6           0.001007390   -0.000773524   -0.000897366
      8       16          -0.000882153    0.000291392   -0.001523177
      9        6          -0.002601270    0.000237018   -0.000545105
     10        1           0.001564388   -0.001049327   -0.002853818
     11       16          -0.004441622    0.003683329    0.000148129
     12        8          -0.001804483    0.002903740    0.003009858
     13        8          -0.001228307   -0.001735406    0.001207117
     14        7          -0.003404887   -0.001033181   -0.006444798
[...]
 17,-0.00002307,0.00004668,0.00003898,-0.00028856,0.00236604,-0.0010699
 1,0.00608239,0.00234979,0.00304164,-0.23713961,-0.11523242,-0.06072650
 ,-0.02162849,-0.01539669,-0.00969345,-0.00002975,-0.00006996,0.0000214
 5,-0.00001434,-0.00003171,0.00001700,0.00000124,-0.00000137,-0.0000082
 1,0.00000868,-0.00000906,0.00001775,0.00009273,0.00013062,0.00003924,0
 .00067427,0.00045969,0.00033297,0.25534764,0.00000133,-0.00000946,-0.0
 0004637,-0.00000085,0.00000361,0.00004043,0.00001849,0.00000031,-0.000
 00978,0.00003867,-0.00000990,-0.00007046,0.00000105,-0.00000092,-0.000
 00152,0.00001090,0.00001937,0.00020939,-0.00003879,-0.00000609,-0.0000
 7061,0.00005190,-0.00003740,0.00025780,-0.00000650,0.00000347,0.000023
 36,0.00000014,0.00000011,-0.00000094,-0.00000926,0.00000821,0.00006135
 ,0.00000865,-0.00001201,-0.00001596,0.00000769,0.00000850,-0.00001937,
 -0.00000646,-0.00000148,-0.00001105,0.00000093,0.00000217,0.00000117,0
 .00000124,-0.00000182,0.00000169,-0.00001993,-0.00001260,-0.00027225,0
 .00043654,0.00011719,0.00088710,-0.00010544,0.00001673,-0.00019892,-0.
 00004961,-0.00004561,-0.00008748,-0.00004197,0.00007493,-0.00007405,-0
 .00007012,0.00004877,0.00009220,0.00003909,-0.00005524,-0.00003410,0.0
 0265371,-0.00538812,0.00348792,-0.01940311,-0.01541169,-0.00760529,-0.
 12251731,-0.12115562,-0.04340389,0.00873689,0.00807419,0.00585924,0.00
 003046,0.00015298,-0.00001606,0.00002398,0.00003802,-0.00001986,-0.000
 00221,0.00000207,0.00001037,-0.00000916,0.00001189,-0.00001892,0.00011
 090,0.00007396,0.00013191,-0.00173223,-0.00071877,-0.00104510,0.123329
 09,0.13226345,0.00000061,-0.00000286,-0.00001506,0.00000001,-0.0000004
 3,0.00001424,0.00000460,-0.00000114,-0.00000075,0.00001122,0.00000613,
 -0.00001715,0.00000069,-0.00000184,-0.00000036,-0.00002282,0.00000166,
 0.00008036,-0.00001342,0.00000223,-0.00002029,0.00002532,0.00002207,0.
 00008186,-0.00000281,0.00000081,0.00000839,0.,0.00000002,-0.00000033,-
 0.00000366,-0.00000037,0.00001576,0.00000221,-0.00000224,-0.00000372,0
 .00000255,0.00000374,-0.00000489,-0.00000116,0.00000004,-0.00000240,0.
 00000017,0.00000034,0.00000026,0.00000025,-0.00000062,0.00000014,0.000
 06178,-0.00003476,-0.00000278,-0.00025000,0.00025886,-0.00022487,-0.00
 003219,-0.00020712,0.00000774,-0.00001043,-0.00000797,-0.00000918,-0.0
 0000943,0.00001407,-0.00001921,-0.00002843,0.00000796,-0.00003190,0.00
 002579,0.00002219,-0.00003981,-0.00067051,0.00187197,-0.00119113,0.007
 05059,0.00570834,0.00219712,-0.06402722,-0.04317905,-0.06850115,0.0128
 8817,0.00883288,0.00261580,0.00019857,-0.00008899,0.00022022,-0.000001
 90,-0.00001393,0.00001786,-0.00000245,0.00000297,0.00000398,-0.0000064
 7,0.00000036,0.00000921,-0.00009119,-0.00011785,-0.00007110,0.00054290
 ,0.00031812,0.00041608,0.06632243,0.04299894,0.06930381,-0.00000779,0.
 00000927,0.00004322,0.00000386,-0.00000242,-0.00002672,-0.00001691,0.0
 0000147,0.00000831,-0.00004050,-0.00000048,0.00006992,-0.00000377,0.00
 000562,-0.00000035,-0.00002264,-0.00001878,-0.00018793,0.00004033,-0.0
 0000582,0.00006815,-0.00004462,0.00010218,-0.00042225,-0.00000080,-0.0
 0000014,-0.00003079,0.00000104,-0.00000048,-0.00000048,0.00000895,-0.0
 0000091,-0.00005199,-0.00000757,0.00000757,0.00001335,-0.00000733,-0.0
 0001048,0.00001710,0.00000323,0.00000030,0.00000893,-0.00000053,-0.000
 00149,-0.00000083,-0.00000042,0.00000220,-0.00000139,-0.00019635,0.000
 40547,0.00033300,0.00082576,-0.00106609,-0.00030826,0.00006652,0.00031
 974,0.00043143,0.00006726,0.00005800,0.00014836,0.00004901,-0.00007330
 ,0.00010122,-0.00000821,0.00003921,-0.00003462,-0.00008746,-0.00000703
 ,0.00007475,-0.00057116,-0.00045224,0.00106463,0.00028525,0.00089254,-
 0.00413273,-0.05313673,0.00372237,-0.02988568,0.00402440,-0.00230238,0
 .02714250,-0.00093902,-0.00135527,-0.00104600,-0.00000340,-0.00001722,
 0.00000174,0.00000525,-0.00000351,-0.00001763,0.00001710,-0.00000259,-
 0.00000024,-0.00005965,-0.00007062,-0.00000280,0.00000376,0.00006080,-
 0.00004036,-0.00044101,0.00229272,-0.02521679,0.05319766,0.00000988,0.
 00000492,0.00008668,0.00000120,-0.00000892,-0.00008033,-0.00002063,0.0
 0000102,0.00000885,-0.00007661,-0.00000633,0.00010764,0.00000045,0.000
 00168,0.00000188,0.00005665,0.00002046,-0.00050185,0.00008387,0.000021
 89,0.00009932,-0.00014659,0.00007735,-0.00031283,0.00000228,-0.0000027
 5,-0.00003395,0.00000022,0.00000112,0.00000075,0.00001509,-0.00000549,
 -0.00009029,-0.00001228,0.00001375,0.00002281,-0.00001147,-0.00001476,
 0.00002843,0.00000918,0.00000131,0.00001371,-0.00000123,-0.00000268,-0
 .00000069,-0.00000183,0.00000358,-0.00000131,-0.00035028,0.00022083,0.
 00045711,-0.00092509,-0.00293405,-0.00108564,0.00009673,0.00058429,0.0
 0016337,0.00005293,0.00001312,0.00006139,0.00004573,-0.00006093,0.0000
 5414,0.00022613,-0.00006172,0.00028895,-0.00009528,-0.00002396,0.00009
 448,0.00037308,0.00243171,-0.00024603,0.00556451,-0.01258946,0.0267589
 3,0.00304105,-0.04351111,0.01931874,-0.00607525,0.00142447,-0.01175248
 ,-0.00120865,-0.00144526,-0.00131642,-0.00000212,0.00000763,-0.0000180
 3,0.00000350,-0.00002326,-0.00001786,0.00002076,-0.00000574,-0.0000143
 7,-0.00027330,-0.00026446,-0.00012558,0.00043394,0.00031683,0.00006462
 ,0.00001836,0.00164053,-0.01607225,-0.00486543,0.05512537,0.00000510,0
 .00000185,0.00002247,-0.00000194,-0.00000716,-0.00002241,-0.00000242,0
 .00000054,0.00000062,-0.00002185,0.00001019,0.00001497,0.00000111,0.00
 000458,0.00000198,0.00008650,0.00006307,-0.00020260,0.00000742,-0.0000
 0364,0.00003673,-0.00005787,0.00012864,0.00010391,0.00001137,-0.000004
 31,-0.00000346,-0.00000052,0.00000117,0.00000222,0.00000369,0.00000198
 ,-0.00002190,-0.00000282,0.00000235,0.00000551,-0.00000273,-0.00000457
 ,0.00000644,0.00000244,-0.00000102,0.00000321,-0.00000005,-0.00000019,
 -0.00000075,-0.00000055,0.00000100,0.00000015,-0.00011139,0.00017538,0
 .00045926,-0.00023459,-0.00051644,0.00027376,-0.00011430,-0.00022090,0
 .00016332,0.00001808,-0.00001941,-0.00000002,0.00001045,0.00003443,-0.
 00004429,0.00010894,0.00013958,0.00008234,0.00002141,-0.00004454,-0.00
 002813,0.00002593,-0.00032022,-0.00018566,-0.00143908,0.00412194,-0.00
 156107,-0.02344779,0.01021548,-0.32989700,-0.00351642,0.00060298,-0.01
 490627,-0.00064311,-0.00131779,-0.00063012,0.00000268,-0.00000236,0.00
 000815,0.00000392,0.00000611,0.00000117,-0.00000579,0.00000192,0.00000
 217,0.00002347,0.00005440,-0.00000303,0.00001967,-0.00000288,-0.000031
 51,-0.00001014,0.00023355,-0.00563133,0.02746251,-0.01251441,0.3504368
 1,0.00000584,0.00000789,0.00004404,0.00000077,-0.00000839,-0.00004379,
 -0.00001476,-0.00000081,0.00000698,-0.00004489,0.00001531,0.00005479,0
 .00000117,-0.00000164,0.00000113,0.00006076,-0.00001719,-0.00021179,0.
 00003654,0.00000650,0.00006537,-0.00007063,0.00004650,-0.00015689,0.00
 000977,-0.00000124,-0.00001548,-0.00000066,0.00000003,0.00000198,0.000
 00561,-0.00001202,-0.00006010,-0.00000708,0.00001284,0.00001578,-0.000
 00599,-0.00000548,0.00001869,0.00000811,0.00000246,0.00001154,-0.00000
 126,-0.00000248,-0.00000095,-0.00000149,0.00000155,-0.00000197,0.00004
 308,0.00001686,0.00023260,0.00008320,0.00003379,-0.00006230,0.00006636
 ,0.00005692,0.00014538,0.00004844,0.00003326,0.00006790,0.00004101,-0.
 00005584,0.00003725,0.00006016,-0.00010147,-0.00018736,-0.00006753,0.0
 0004382,0.00004650,-0.00056516,-0.00005255,0.00006551,-0.00027004,0.00
 014414,0.00095129,0.00568247,0.00156921,0.03122217,-0.07536384,0.00543
 825,0.00904133,-0.00007781,-0.00003147,-0.00003011,-0.00000212,-0.0000
 1440,0.00000141,0.00001018,-0.00002279,-0.00000608,0.00001200,-0.00000
 788,0.00000126,0.00009316,0.00024660,0.00005387,0.00020103,0.00002233,
 0.00007256,0.00194583,-0.00027904,-0.00051793,-0.00427569,0.00343946,0
 .00201510,0.07686047,-0.00000595,-0.00001245,-0.00006970,-0.00000374,0
 .00001139,0.00006774,0.00002477,0.00000072,-0.00001179,0.00006857,-0.0
 0002076,-0.00008657,-0.00000081,-0.00000084,-0.00000221,-0.00009310,0.
 00001712,0.00032739,-0.00005606,-0.00000032,-0.00010658,0.00009910,-0.
 00005328,0.00024237,-0.00001538,0.00000424,0.00002721,0.00000090,-0.00
 000028,-0.00000304,-0.00001397,0.00001295,0.00009244,0.00001227,-0.000
 01835,-0.00002415,0.00001126,0.00001171,-0.00002884,-0.00000981,-0.000
 00303,-0.00001710,0.00000143,0.00000330,0.00000183,0.00000196,-0.00000
 282,0.00000260,0.00002531,-0.00009004,-0.00046392,-0.00009833,0.000046
 48,0.00022318,-0.00006230,-0.00006563,-0.00021055,-0.00006563,-0.00005
 065,-0.00009716,-0.00005191,0.00006947,-0.00006369,-0.00010579,0.00012
 263,0.00025932,0.00003032,-0.00001371,-0.00003845,0.00047184,0.0000854
 2,0.00012214,0.00034482,0.00058461,-0.00260804,0.00076501,0.00529079,-
 0.01775265,0.00520445,-0.07118216,-0.01074180,0.00006810,0.00000175,0.
 00004433,0.00000472,0.00001840,-0.00000713,0.00000312,-0.00000626,0.00
 001029,-0.00000926,-0.00000019,-0.00000566,0.00000219,0.00014754,0.000
 03118,-0.00007858,-0.00006183,-0.00009544,0.00069149,-0.00006651,-0.00
 006706,0.00314922,-0.00083766,-0.00094418,0.00110217,0.07902156,-0.000
 00214,-0.00001836,-0.00008480,-0.00000914,0.00001555,0.00007889,0.0000
 3366,0.00000054,-0.00001474,0.00007719,-0.00002691,-0.00011329,-0.0000
 0204,0.00000394,-0.00000353,-0.00003074,0.00005693,0.00038845,-0.00006
 870,-0.00001638,-0.00011139,0.00010676,0.00002526,0.00036940,-0.000010
 41,0.00000602,0.00003960,0.00000061,0.00000210,-0.00000091,-0.00002019
 ,0.00003460,0.00012013,0.00001803,-0.00003166,-0.00003173,0.00001467,0
 .00000756,-0.00003779,-0.00001286,-0.00000862,-0.00002305,0.00000187,0
 .00000573,0.00000242,0.00000242,-0.00000103,0.00000463,0.00006544,-0.0
 0005746,-0.00041484,-0.00013942,0.00047075,0.00043931,-0.00008108,-0.0
 0019109,-0.00022431,-0.00008394,-0.00008915,-0.00013191,-0.00006268,0.
 00005632,-0.00009800,-0.00005943,0.00009844,0.00017196,0.00003245,0.00
 000240,-0.00005424,0.00014910,-0.00050960,0.00051585,-0.00068762,0.001
 24707,0.00010348,-0.00045736,0.00010512,-0.04187029,0.02210303,-0.0207
 6095,-0.27171451,0.00016816,-0.00003077,0.00012063,0.00000863,0.000019
 95,-0.00001262,0.00001425,-0.00002094,0.00000926,-0.00001294,-0.000003
 89,-0.00001027,0.00009761,0.00035626,-0.00020427,-0.00017224,-0.000117
 16,-0.00026930,-0.00049755,0.00001559,0.00074164,0.00668460,-0.0040986
 3,-0.00126905,0.02057717,-0.00023084,0.40900586,0.00000978,0.00002020,
 0.00007285,0.00000116,-0.00001568,-0.00007309,-0.00002545,-0.00000083,
 0.00001270,-0.00007317,0.00002251,0.00009519,0.00000059,-0.00000011,0.
 00000235,0.00010172,-0.00003281,-0.00035308,0.00006115,-0.00000455,0.0
 0011456,-0.00010699,0.00009386,-0.00027613,0.00001527,-0.00000337,-0.0
 0002537,-0.00000120,0.00000046,0.00000342,0.00001138,-0.00001379,-0.00
 009885,-0.00001208,0.00001877,0.00002574,-0.00001079,-0.00001227,0.000
 03091,0.00001268,0.00000321,0.00001802,-0.00000189,-0.00000351,-0.0000
 0165,-0.00000252,0.00000336,-0.00000263,0.00000429,0.00005463,0.000469
 95,0.00010353,0.00011072,-0.00037545,0.00008946,0.00002449,0.00027889,
 0.00007684,0.00005418,0.00011994,0.00006705,-0.00009755,0.00006991,0.0
 0008095,-0.00008317,-0.00037704,-0.00006429,0.00004696,0.00006470,-0.0
 0070423,0.00008679,-0.00036670,-0.00338510,0.00295460,0.00174908,0.000
 12320,0.03100422,-0.00665890,-0.07895572,0.03294605,-0.00315696,-0.000
 05756,-0.00002211,0.00003082,-0.00001082,-0.00003086,0.00000802,0.0000
 0948,-0.00000404,-0.00000769,0.00001379,-0.00000509,0.00000942,0.00023
 926,0.00021239,0.00023459,0.00047414,0.00002913,0.00025338,0.00181176,
 0.00050342,-0.00103391,0.00024254,0.00029319,0.00010289,0.01060606,0.0
 0281851,-0.00538340,0.07524738,-0.00001246,-0.00003281,-0.00016787,-0.
 00000693,0.00003007,0.00015756,0.00006060,0.00000034,-0.00002927,0.000
 16212,-0.00004656,-0.00022177,-0.00000088,-0.00000175,-0.00000411,-0.0
 0016397,0.00007527,0.00078128,-0.00013428,-0.00000351,-0.00025546,0.00
 022157,-0.00016241,0.00066520,-0.00003246,0.00000813,0.00006550,0.0000
 0189,-0.00000114,-0.00000600,-0.00003218,0.00002210,0.00022305,0.00002
 855,-0.00004013,-0.00005777,0.00002693,0.00003239,-0.00007067,-0.00002
 403,-0.00000479,-0.00004095,0.00000353,0.00000737,0.00000430,0.0000046
 1,-0.00000781,0.00000606,0.00006872,-0.00016405,-0.00113015,-0.0001908
 2,0.00006980,0.00095297,-0.00014776,-0.00010707,-0.00055602,-0.0001627
 9,-0.00012531,-0.00026101,-0.00013454,0.00019606,-0.00017749,-0.000158
 14,0.00015424,0.00068274,0.00007053,-0.00003654,-0.00008858,0.00024830
 ,0.00008022,0.00091631,0.00534208,-0.00256482,-0.00262886,0.00737050,-
 0.03809443,0.01189186,0.04295484,-0.25234513,0.03683391,0.00011581,0.0
 0000198,0.00004525,0.00002286,0.00006187,-0.00002453,0.00001153,-0.000
 02598,0.00002696,-0.00002177,-0.00000376,-0.00002728,0.00007656,0.0004
 1725,-0.00051038,-0.00022706,-0.00009004,-0.00047531,-0.00004200,0.000
 22154,0.00061064,-0.00090369,-0.00014312,0.00027177,0.00325484,-0.0165
 3305,0.04465232,-0.01768466,0.37107313,0.00000113,-0.00000055,-0.00000
 429,-0.00000055,-0.00000294,0.00000642,0.00000290,0.00000072,-0.000001
 49,0.00000200,-0.00000027,-0.00000531,-0.00000015,0.00000100,-0.000000
 54,-0.00000424,0.00000689,0.00001507,-0.00000248,-0.00000375,-0.000007
 44,0.00000201,0.00002099,0.00001565,-0.00000099,0.00000257,0.00000166,
 -0.00000010,0.00000073,0.00000046,-0.00000250,0.00000896,0.00000878,0.
 00000188,-0.00000528,-0.00000246,0.00000100,-0.00000213,-0.00000290,-0
 .00000094,-0.00000234,-0.00000156,0.00000015,0.00000088,0.00000011,0.0
 0000020,0.00000102,0.00000059,0.00000751,-0.00001894,-0.00000506,-0.00
 002981,0.00002540,0.00002744,-0.00000961,-0.00000336,-0.00001298,-0.00
 000770,-0.00001285,-0.00000753,-0.00000031,-0.00000723,-0.00000366,0.0
 0000197,-0.00000282,0.00001532,0.00000823,-0.00000671,-0.00000651,-0.0
 0018671,0.00013320,-0.00002133,0.00160505,-0.00083594,0.00071884,0.002
 43366,-0.00669946,0.00815729,-0.00703795,0.04417280,-0.07849947,-0.000
 00128,0.00000156,-0.00002443,0.00000147,0.00000054,-0.00000002,0.00000
 141,0.00000627,0.00000038,-0.00000248,0.00000212,-0.00000164,-0.000033
 48,-0.00013112,-0.00007769,-0.00002373,0.00002818,-0.00000882,0.000678
 88,0.00007580,-0.00010872,-0.00118755,0.00002212,0.00151448,-0.0083832
 1,0.05872512,-0.05064755,0.00896242,-0.09512816,0.10697722,0.00001126,
 0.00000692,0.00005234,-0.00000092,-0.00000573,-0.00005617,-0.00001539,
 -0.00000261,0.00000762,-0.00005422,0.00002356,0.00005921,0.00000166,-0
 .00000405,0.00000149,0.00010042,-0.00001211,-0.00024466,0.00004108,0.0
 0001790,0.00008084,-0.00010356,0.00011327,-0.00013764,0.00001126,-0.00
 000244,-0.00001132,-0.00000140,0.00000149,0.00000273,0.00000083,-0.000
 01283,-0.00006771,-0.00000634,0.00001358,0.00001724,-0.00000480,-0.000
 00573,0.00002092,0.00001211,0.00000071,0.00001350,-0.00000160,-0.00000
 284,-0.00000163,-0.00000275,0.00000255,-0.00000136,0.00008346,-0.00006
 572,0.00027041,0.00010612,0.00020278,-0.00031573,0.00014315,-0.0000262
 1,0.00019691,0.00006392,0.00002700,0.00008192,0.00006573,-0.00008627,0
 .00003284,0.00009717,-0.00014335,-0.00033697,-0.00012057,0.00012002,0.
 00009342,-0.00059375,0.00069451,-0.00076537,0.00030410,-0.00179577,0.0
 0093890,-0.04485420,-0.02628279,-0.01350707,-0.23997720,-0.05339620,-0
 .02354109,-0.00006402,0.00022353,0.00031546,0.00000080,-0.00003809,0.0
 0002130,0.,0.00000609,0.00002094,0.00002011,-0.00002204,0.00001308,0.0
 0026453,0.00152053,0.00052192,0.00051294,0.00004918,0.00024479,-0.0064
 8694,0.00599423,0.00480484,0.00102964,0.00027786,-0.00031933,-0.015113
 11,-0.01423091,-0.04236174,-0.00599164,-0.03996596,0.00320393,0.310522
 13,0.00000342,-0.00003171,-0.00005963,-0.00000719,0.00001136,0.0000499
 0,0.00002365,0.00000232,-0.00001239,0.00005213,-0.00002188,-0.00008442
 ,0.00000030,0.00000103,-0.00000114,0.00001977,0.00004693,0.00024650,-0
 .00004165,0.00001983,-0.00008415,0.00006981,-0.00000579,0.00028229,-0.
 00000777,0.00000969,0.00003640,0.00000009,-0.00000029,-0.00000048,-0.0
 0001357,0.00001127,0.00008081,0.00001282,-0.00001514,-0.00002115,0.000
 01055,0.00001148,-0.00002637,-0.00000838,-0.00000181,-0.00001469,0.000
 00015,0.00000270,0.00000267,0.00000145,-0.00000217,0.00000234,0.000150
 02,-0.00000688,-0.00051389,-0.00004901,0.00024455,0.00077115,-0.000012
 85,-0.00005767,-0.00016223,-0.00004709,-0.00005825,-0.00008464,-0.0000
 3629,0.00005457,-0.00007689,-0.00006048,-0.00003777,0.00002413,-0.0000
 3606,-0.00001142,0.00004010,-0.00070052,-0.00289894,0.00061236,-0.0017
 9854,0.00126147,-0.00048526,0.00435119,0.00727949,0.00035331,-0.065196
 43,-0.09285134,-0.01298188,0.00020185,-0.00039618,-0.00055956,0.000011
 82,0.00002883,-0.00003323,0.00001132,0.00003512,0.00006176,-0.00001190
 ,-0.00001215,-0.00001617,0.00213130,-0.00150303,-0.00070852,0.00090987
 ,-0.00025339,-0.00060874,0.00133587,0.00015125,-0.00088584,0.00009172,
 0.00002980,-0.00014892,-0.01488005,0.00356975,-0.02096903,-0.05328724,
 -0.06191753,-0.00037302,0.12680593,0.14731188,0.00000671,-0.00001154,-
 0.00001599,-0.00000839,0.00000592,0.00001299,0.00000819,0.00000036,-0.
 00000271,0.00001295,-0.00000904,-0.00001344,0.00000047,0.00000203,-0.0
 0000128,-0.00000827,0.00002544,0.00006261,-0.00000451,-0.00000630,-0.0
 0002200,0.00002193,0.00007269,0.00006219,-0.00000090,0.00000588,0.0000
 1193,-0.00000047,0.00000088,0.00000140,-0.00000776,0.00001440,0.000026
 87,0.00000666,-0.00001014,-0.00000652,0.00000395,-0.00000066,-0.000008
 95,-0.00000240,-0.00000119,-0.00000627,-0.00000041,0.00000183,0.000002
 09,0.00000050,0.00000091,0.00000109,0.00007437,-0.00003773,-0.00003814
 ,-0.00012642,0.00017267,0.00028578,0.00001409,-0.00006827,-0.00005413,
 -0.00002027,-0.00003863,-0.00001410,-0.00000819,-0.00001222,-0.0000125
 8,-0.00000038,-0.00001002,-0.00002549,-0.00002608,0.00003294,0.0000238
 7,-0.00040513,-0.00020121,0.00016027,0.00025863,-0.00021926,-0.0003293
 4,0.00911003,0.00304287,0.00942557,-0.03145902,-0.01378993,-0.07393195
 ,0.00024405,-0.00076133,-0.00097748,0.00000173,-0.00000313,-0.00000379
 ,-0.00000991,0.00002637,-0.00001892,-0.00000364,-0.00001100,-0.0000029
 4,0.00033013,-0.00039874,0.00006334,0.00014578,0.00000004,-0.00006021,
 0.00189165,-0.00136580,0.00016166,-0.00107835,0.00062903,0.00129892,-0
 .05507367,-0.02650061,-0.04476912,0.00546109,0.00307395,0.01199170,0.0
 7065124,0.03634854,0.09672308\\-0.00000386,0.00000057,-0.00000201,-0.0
 0000863,0.00000382,-0.00000711,-0.00000537,0.00000634,-0.00001185,-0.0
 0000263,0.00000384,-0.00000265,0.00000003,0.00000449,-0.00000870,0.000
 00259,0.00000223,-0.00000247,-0.00000473,-0.00000041,-0.00000241,-0.00
 000101,-0.00000229,-0.00000081,-0.00000571,0.00000177,0.00000115,-0.00
 000746,-0.00000050,0.00000129,-0.00003379,-0.00000250,-0.00001989,-0.0
 0000691,0.00000197,-0.00000632,-0.00001330,0.00000573,-0.00000660,-0.0
 0000511,0.00000165,0.00002955,-0.00000560,-0.00000063,-0.00000478,-0.0
 0000688,-0.00000002,-0.00000887,0.00000178,0.00000161,0.00000157,0.000
 00167,0.00000012,-0.00000056,0.00000731,-0.00000541,0.00000866,-0.0000
 0137,-0.00000481,0.00000558,-0.00000401,-0.00000245,0.00000622,0.00000
 388,0.00000212,-0.00000566,0.00000410,-0.00000175,0.00000781,0.0000065
 1,-0.00000437,-0.00000044,0.00001137,0.00000941,0.00000029,0.00001114,
 -0.00000371,-0.00000168,-0.00000154,-0.00001214,-0.00000782,0.00000269
 ,-0.00000154,0.00000028,0.00000868,-0.00000475,0.00000647,0.00000498,-
 0.00000463,0.00000741,0.00000469,-0.00000488,0.00000914,0.00001203,-0.
 00000125,0.00000511,0.00000758,-0.00000216,-0.00000132,0.00000470,0.00
 000588,-0.00000480,0.00000032,0.00000029,0.00000154,0.00000744,-0.0000
 0118,0.00000596,0.00000080,0.00000715,0.00000053,0.00001360,0.00000241
 ,0.00000817\\\@
 The archive entry for this job was punched.


 Sacred cows make the best hamburger.
                               -- Mark Twain
 Job cpu time:       0 days  8 hours  0 minutes 42.3 seconds.
 Elapsed time:       0 days  0 hours 30 minutes 30.4 seconds.
 File lengths (MBytes):  RWF=   1326 Int=      0 D2E=      0 Chk=     35 Scr=      1
 Normal termination of Gaussian 16 at Fri Jul  1 19:28:59 2022.
