 Entering Gaussian System, Link 0=g16
 AtFile(1): //home/561/yj5695//Basis/6-31pGd.gbs
 Initial command:
 /apps/gaussian/g16c01/g16/l1.exe "/jobfs/40643999.gadi-pbs/Gau-663285.inp" -scrdir="/jobfs/40643999.gadi-pbs/"
 Entering Link 1 = /apps/gaussian/g16c01/g16/l1.exe PID=    663286.
  
 Copyright (c) 1988-2019, Gaussian, Inc.  All Rights Reserved.
  
 This is part of the Gaussian(R) 16 program.  It is based on
 the Gaussian(R) 09 system (copyright 2009, Gaussian, Inc.),
 the Gaussian(R) 03 system (copyright 2003, Gaussian, Inc.),
 the Gaussian(R) 98 system (copyright 1998, Gaussian, Inc.),
 the Gaussian(R) 94 system (copyright 1995, Gaussian, Inc.),
 the Gaussian 92(TM) system (copyright 1992, Gaussian, Inc.),
 the Gaussian 90(TM) system (copyright 1990, Gaussian, Inc.),
 the Gaussian 88(TM) system (copyright 1988, Gaussian, Inc.),
 the Gaussian 86(TM) system (copyright 1986, Carnegie Mellon
 University), and the Gaussian 82(TM) system (copyright 1983,
 Carnegie Mellon University). Gaussian is a federally registered
 trademark of Gaussian, Inc.
  
 This software contains proprietary and confidential information,
 including trade secrets, belonging to Gaussian, Inc.
  
 This software is provided under written license and may be
 used, copied, transmitted, or stored only in accord with that
 written license.
  
 The following legend is applicable only to US Government
 contracts under FAR:
  
                    RESTRICTED RIGHTS LEGEND
  
 Use, reproduction and disclosure by the US Government is
 subject to restrictions as set forth in subparagraphs (a)
 and (c) of the Commercial Computer Software - Restricted
 Rights clause in FAR 52.227-19.
  
 Gaussian, Inc.
 340 Quinnipiac St., Bldg. 40, Wallingford CT 06492
  
  
 ---------------------------------------------------------------
 Warning -- This program may not be used in any manner that
 competes with the business of Gaussian, Inc. or will provide
 assistance to any competitor of Gaussian, Inc.  The licensee
 of this program is prohibited from giving any competitor of
 Gaussian, Inc. access to this program.  By using this program,
 the user acknowledges that Gaussian, Inc. is engaged in the
 business of creating and licensing software in the field of
 computational chemistry and represents and warrants to the
 licensee that it is not a competitor of Gaussian, Inc. and that
 it will not use this program in any manner prohibited above.
 ---------------------------------------------------------------
  

 Cite this work as:
 Gaussian 16, Revision C.01,
 M. J. Frisch, G. W. Trucks, H. B. Schlegel, G. E. Scuseria, 
 M. A. Robb, J. R. Cheeseman, G. Scalmani, V. Barone, 
 G. A. Petersson, H. Nakatsuji, X. Li, M. Caricato, A. V. Marenich, 
 J. Bloino, B. G. Janesko, R. Gomperts, B. Mennucci, H. P. Hratchian, 
 J. V. Ortiz, A. F. Izmaylov, J. L. Sonnenberg, D. Williams-Young, 
 F. Ding, F. Lipparini, F. Egidi, J. Goings, B. Peng, A. Petrone, 
 T. Henderson, D. Ranasinghe, V. G. Zakrzewski, J. Gao, N. Rega, 
 G. Zheng, W. Liang, M. Hada, M. Ehara, K. Toyota, R. Fukuda, 
 J. Hasegawa, M. Ishida, T. Nakajima, Y. Honda, O. Kitao, H. Nakai, 
 T. Vreven, K. Throssell, J. A. Montgomery, Jr., J. E. Peralta, 
 F. Ogliaro, M. J. Bearpark, J. J. Heyd, E. N. Brothers, K. N. Kudin, 
 V. N. Staroverov, T. A. Keith, R. Kobayashi, J. Normand, 
 K. Raghavachari, A. P. Rendell, J. C. Burant, S. S. Iyengar, 
 J. Tomasi, M. Cossi, J. M. Millam, M. Klene, C. Adamo, R. Cammi, 
 J. W. Ochterski, R. L. Martin, K. Morokuma, O. Farkas, 
 J. B. Foresman, and D. J. Fox, Gaussian, Inc., Wallingford CT, 2019.
 
 ******************************************
 Gaussian 16:  ES64L-G16RevC.01  3-Jul-2019
                19-May-2022 
 ******************************************
 %nproc=16
 Will use up to   16 processors via shared memory.
 %mem=20gb
 -----------------------------------------------------
 #m062X/gen 6D OPT Freq=noraman SCRF=(SMD,Solvent=h2o)
 -----------------------------------------------------
 1/18=20,19=15,26=3,38=1/1,3;
 2/9=110,12=2,17=6,18=5,40=1/2;
 3/5=7,8=2,11=2,25=1,30=1,70=32201,71=1,72=1,74=-55/1,2,3;
 4//1;
 5/5=2,38=5,53=1/2;
 6/7=2,8=2,9=2,10=2,28=1/1;
 7//1,2,3,16;
 1/18=20,19=15,26=3/3(2);
 2/9=110/2;
 99//99;
 2/9=110/2;
 3/5=7,6=1,8=2,11=2,25=1,30=1,70=32205,71=1,72=1,74=-55,82=7/1,2,3;
 4/5=5,16=3,69=1/1;
 5/5=2,38=5,53=1/2;
 7//1,2,3,16;
 1/18=20,19=15,26=3/3(-5);
 2/9=110/2;
 6/7=2,8=2,9=2,10=2,19=2,28=1/1;
 99/9=1/99;
 -----
 a3 b1
 -----
 Symbolic Z-matrix:
 Charge =  0 Multiplicity = 1
 C                    -1.32295   0.70853  -0.91071 
 C                    -2.50966   0.77886  -1.66436 
 Cl                   -4.09544   0.58512  -0.97856 
 C                    -2.48689   0.95083  -3.04395 
 H                    -3.41686   1.01785  -3.59736 
 C                    -1.26292   1.01586  -3.69183 
 Cl                   -1.22414   1.24922  -5.41018 
 C                    -0.07047   0.86142  -3.00162 
 H                     0.88065   0.85884  -3.52216 
 C                    -0.10864   0.69006  -1.62231 
 Cl                    1.43361   0.38062  -0.88187 
 S                    -1.35816   0.61642   0.89826 
 O                    -2.47741   1.4163    1.37063 
 O                    -1.3096   -0.7859    1.28148 
 N                     0.0145    1.32154   1.46067 
 H                     0.06867   2.31509   1.22411 
 H                     0.85827   0.82486   1.16509 
 

 GradGradGradGradGradGradGradGradGradGradGradGradGradGradGradGradGradGrad
 Berny optimization.
 Initialization pass.
                           ----------------------------
                           !    Initial Parameters    !
                           ! (Angstroms and Degrees)  !
 --------------------------                            --------------------------
 ! Name  Definition              Value          Derivative Info.                !
 --------------------------------------------------------------------------------
 ! R1    R(1,2)                  1.4076         estimate D2E/DX2                !
 ! R2    R(1,10)                 1.4076         estimate D2E/DX2                !
 ! R3    R(1,12)                 1.8117         estimate D2E/DX2                !
 ! R4    R(2,3)                  1.7385         estimate D2E/DX2                !
 ! R5    R(2,4)                  1.3905         estimate D2E/DX2                !
 ! R6    R(4,5)                  1.0842         estimate D2E/DX2                !
 ! R7    R(4,6)                  1.3864         estimate D2E/DX2                !
 ! R8    R(6,7)                  1.7346         estimate D2E/DX2                !
 ! R9    R(6,8)                  1.3864         estimate D2E/DX2                !
 ! R10   R(8,9)                  1.0842         estimate D2E/DX2                !
 ! R11   R(8,10)                 1.3904         estimate D2E/DX2                !
 ! R12   R(10,11)                1.7385         estimate D2E/DX2                !
 ! R13   R(12,13)                1.4545         estimate D2E/DX2                !
 ! R14   R(12,14)                1.4545         estimate D2E/DX2                !
 ! R15   R(12,15)                1.6425         estimate D2E/DX2                !
 ! R16   R(15,16)                1.0228         estimate D2E/DX2                !
 ! R17   R(15,17)                1.0227         estimate D2E/DX2                !
 ! A1    A(2,1,10)             117.2136         estimate D2E/DX2                !
 ! A2    A(2,1,12)             121.3853         estimate D2E/DX2                !
 ! A3    A(10,1,12)            121.3927         estimate D2E/DX2                !
 ! A4    A(1,2,3)              123.5206         estimate D2E/DX2                !
 ! A5    A(1,2,4)              121.5754         estimate D2E/DX2                !
 ! A6    A(3,2,4)              114.8412         estimate D2E/DX2                !
 ! A7    A(2,4,5)              120.0012         estimate D2E/DX2                !
 ! A8    A(2,4,6)              118.9416         estimate D2E/DX2                !
 ! A9    A(5,4,6)              121.0515         estimate D2E/DX2                !
 ! A10   A(4,6,7)              119.2743         estimate D2E/DX2                !
 ! A11   A(4,6,8)              121.4301         estimate D2E/DX2                !
 ! A12   A(7,6,8)              119.2711         estimate D2E/DX2                !
 ! A13   A(6,8,9)              121.0473         estimate D2E/DX2                !
 ! A14   A(6,8,10)             118.9447         estimate D2E/DX2                !
 ! A15   A(9,8,10)             120.0024         estimate D2E/DX2                !
 ! A16   A(1,10,8)             121.5722         estimate D2E/DX2                !
 ! A17   A(1,10,11)            123.5259         estimate D2E/DX2                !
 ! A18   A(8,10,11)            114.839          estimate D2E/DX2                !
 ! A19   A(1,12,13)            108.1356         estimate D2E/DX2                !
 ! A20   A(1,12,14)            108.1464         estimate D2E/DX2                !
 ! A21   A(1,12,15)            107.6881         estimate D2E/DX2                !
 ! A22   A(13,12,14)           118.0541         estimate D2E/DX2                !
 ! A23   A(13,12,15)           107.2055         estimate D2E/DX2                !
 ! A24   A(14,12,15)           107.2042         estimate D2E/DX2                !
 ! A25   A(12,15,16)           112.4646         estimate D2E/DX2                !
 ! A26   A(12,15,17)           112.4597         estimate D2E/DX2                !
 ! A27   A(16,15,17)           111.1755         estimate D2E/DX2                !
 ! D1    D(10,1,2,3)           171.0158         estimate D2E/DX2                !
 ! D2    D(10,1,2,4)            -5.9538         estimate D2E/DX2                !
 ! D3    D(12,1,2,3)            -7.9429         estimate D2E/DX2                !
 ! D4    D(12,1,2,4)           175.0875         estimate D2E/DX2                !
 ! D5    D(2,1,10,8)             5.9512         estimate D2E/DX2                !
 ! D6    D(2,1,10,11)         -171.0141         estimate D2E/DX2                !
 ! D7    D(12,1,10,8)         -175.0901         estimate D2E/DX2                !
 ! D8    D(12,1,10,11)           7.9446         estimate D2E/DX2                !
 ! D9    D(2,1,12,13)          -35.0127         estimate D2E/DX2                !
 ! D10   D(2,1,12,14)           93.9005         estimate D2E/DX2                !
 ! D11   D(2,1,12,15)         -150.5542         estimate D2E/DX2                !
 ! D12   D(10,1,12,13)         146.0721         estimate D2E/DX2                !
 ! D13   D(10,1,12,14)         -85.0147         estimate D2E/DX2                !
 ! D14   D(10,1,12,15)          30.5306         estimate D2E/DX2                !
 ! D15   D(1,2,4,5)           -178.9989         estimate D2E/DX2                !
 ! D16   D(1,2,4,6)              1.8572         estimate D2E/DX2                !
 ! D17   D(3,2,4,5)              3.7849         estimate D2E/DX2                !
 ! D18   D(3,2,4,6)           -175.359          estimate D2E/DX2                !
 ! D19   D(2,4,6,7)           -179.2752         estimate D2E/DX2                !
 ! D20   D(2,4,6,8)              2.5382         estimate D2E/DX2                !
 ! D21   D(5,4,6,7)              1.5902         estimate D2E/DX2                !
 ! D22   D(5,4,6,8)           -176.5964         estimate D2E/DX2                !
 ! D23   D(4,6,8,9)            176.5965         estimate D2E/DX2                !
 ! D24   D(4,6,8,10)            -2.5406         estimate D2E/DX2                !
 ! D25   D(7,6,8,9)             -1.5901         estimate D2E/DX2                !
 ! D26   D(7,6,8,10)           179.2728         estimate D2E/DX2                !
 ! D27   D(6,8,10,1)            -1.8524         estimate D2E/DX2                !
 ! D28   D(6,8,10,11)          175.36           estimate D2E/DX2                !
 ! D29   D(9,8,10,1)           179.0013         estimate D2E/DX2                !
 ! D30   D(9,8,10,11)           -3.7863         estimate D2E/DX2                !
 ! D31   D(1,12,15,16)          63.1626         estimate D2E/DX2                !
 ! D32   D(1,12,15,17)         -63.2718         estimate D2E/DX2                !
 ! D33   D(13,12,15,16)        -52.9905         estimate D2E/DX2                !
 ! D34   D(13,12,15,17)       -179.4249         estimate D2E/DX2                !
 ! D35   D(14,12,15,16)        179.3276         estimate D2E/DX2                !
 ! D36   D(14,12,15,17)         52.8931         estimate D2E/DX2                !
 --------------------------------------------------------------------------------
 Trust Radius=3.00D-01 FncErr=1.00D-07 GrdErr=1.00D-06 EigMax=2.50D+02 EigMin=1.00D-04
 Number of steps in this run=     90 maximum allowed number of steps=    102.
 GradGradGradGradGradGradGradGradGradGradGradGradGradGradGradGradGradGrad

                          Input orientation:                          
 ---------------------------------------------------------------------
 Center     Atomic      Atomic             Coordinates (Angstroms)
 Number     Number       Type             X           Y           Z
 ---------------------------------------------------------------------
      1          6           0       -1.322953    0.708534   -0.910713
      2          6           0       -2.509661    0.778857   -1.664359
      3         17           0       -4.095438    0.585124   -0.978556
      4          6           0       -2.486892    0.950830   -3.043952
      5          1           0       -3.416860    1.017850   -3.597359
      6          6           0       -1.262915    1.015862   -3.691831
      7         17           0       -1.224141    1.249217   -5.410178
      8          6           0       -0.070470    0.861416   -3.001624
      9          1           0        0.880652    0.858843   -3.522158
     10          6           0       -0.108643    0.690063   -1.622314
     11         17           0        1.433605    0.380624   -0.881871
     12         16           0       -1.358163    0.616417    0.898262
     13          8           0       -2.477410    1.416299    1.370628
     14          8           0       -1.309604   -0.785897    1.281483
     15          7           0        0.014502    1.321543    1.460668
     16          1           0        0.068673    2.315088    1.224107
     17          1           0        0.858270    0.824859    1.165089
 ---------------------------------------------------------------------
                    Distance matrix (angstroms):
                    1          2          3          4          5
     1  C    0.000000
     2  C    1.407552   0.000000
     3  Cl   2.776059   1.738547   0.000000
     4  C    2.442165   1.390457   2.643298   0.000000
     5  H    3.420262   2.148631   2.739680   1.084247   0.000000
     6  C    2.798691   2.391901   3.945958   1.386397   2.156017
     7  Cl   4.532912   3.988102   5.322090   2.698629   2.854446
     8  C    2.442129   2.782938   4.513259   2.418446   3.402602
     9  H    3.420250   3.866786   5.595204   3.402572   4.301110
    10  C    1.407574   2.403027   4.039798   2.783006   3.866852
    11  Cl   2.776143   4.039830   5.533668   4.513317   5.595261
    12  S    1.811661   2.814136   3.319051   4.114233   4.960846
    13  O    2.652964   3.101374   2.971116   4.439062   5.071708
    14  O    2.653154   3.544937   3.840358   4.807454   5.612230
    15  N    2.790701   4.053603   4.835673   5.165850   6.119650
    16  H    3.012490   4.165459   5.018398   5.158337   6.089195
    17  H    3.013340   4.398960   5.402954   5.377918   6.402725
                    6          7          8          9         10
     6  C    0.000000
     7  Cl   1.734553   0.000000
     8  C    1.386421   2.698607   0.000000
     9  H    2.155997   2.854324   1.084249   0.000000
    10  C    2.391943   3.988095   1.390437   2.148627   0.000000
    11  Cl   3.945963   5.321995   2.643247   2.739629   1.738545
    12  S    4.608425   6.341515   4.114279   4.960965   2.814254
    13  O    5.221479   6.897676   5.021737   5.960427   3.885380
    14  O    5.289836   6.994807   4.753325   5.529680   3.471715
    15  N    5.317281   6.981976   4.486757   5.078667   3.149398
    16  H    5.256193   6.842601   4.470942   5.030605   3.282417
    17  H    5.303356   6.910185   4.269121   4.687424   2.953423
                   11         12         13         14         15
    11  Cl   0.000000
    12  S    3.319404   0.000000
    13  O    4.630595   1.454529   0.000000
    14  O    3.683214   1.454545   2.494270   0.000000
    15  N    2.895975   1.642471   2.495338   2.495329   0.000000
    16  H    3.168649   2.242213   2.704039   3.393972   1.022755
    17  H    2.172188   2.242146   3.393937   2.703287   1.022745
                   16         17
    16  H    0.000000
    17  H    1.687522   0.000000
 Stoichiometry    C6H4Cl3NO2S
 Framework group  C1[X(C6H4Cl3NO2S)]
 Deg. of freedom    45
 Full point group                 C1      NOp   1
 Largest Abelian subgroup         C1      NOp   1
 Largest concise Abelian subgroup C1      NOp   1
                         Standard orientation:                         
 ---------------------------------------------------------------------
 Center     Atomic      Atomic             Coordinates (Angstroms)
 Number     Number       Type             X           Y           Z
 ---------------------------------------------------------------------
      1          6           0        0.368008    0.051987    0.005038
      2          6           0       -0.412408    1.223025    0.033744
      3         17           0        0.256202    2.818326    0.208453
      4          6           0       -1.801114    1.173882   -0.015766
      5          1           0       -2.376718    2.092695   -0.008428
      6          6           0       -2.427688   -0.062195   -0.055966
      7         17           0       -4.158887   -0.133335   -0.136985
      8          6           0       -1.702825   -1.242481    0.004561
      9          1           0       -2.201993   -2.204713    0.027716
     10          6           0       -0.314763   -1.177933    0.053892
     11         17           0        0.480926   -2.710583    0.254888
     12         16           0        2.176924    0.125112   -0.062706
     13          8           0        2.553637    1.274235   -0.870951
     14          8           0        2.684627    0.050049    1.298288
     15          7           0        2.701420   -1.216648   -0.851565
     16          1           0        2.378282   -1.251213   -1.821314
     17          1           0        2.468211   -2.078934   -0.353486
 ---------------------------------------------------------------------
 Rotational constants (GHZ):           0.6973631           0.3835519           0.2621663
 General basis read from cards:  (6D, 7F)
 There are   271 symmetry adapted cartesian basis functions of A   symmetry.
 There are   271 symmetry adapted basis functions of A   symmetry.
   271 basis functions,   528 primitive gaussians,   271 cartesian basis functions
    65 alpha electrons       65 beta electrons
       nuclear repulsion energy      1281.3903003858 Hartrees.
 NAtoms=   17 NActive=   17 NUniq=   17 SFac= 1.00D+00 NAtFMM=   60 NAOKFM=F Big=F
 Integral buffers will be    131072 words long.
 Raffenetti 2 integral format.
 Two-electron integral symmetry is turned on.
 ------------------------------------------------------------------------------
 Polarizable Continuum Model (PCM)
 =================================
 Model                : PCM.
 Atomic radii         : SMD-Coulomb.
 Polarization charges : Total charges.
 Charge compensation  : None.
 Solution method      : On-the-fly selection.
 Cavity type          : VdW (van der Waals Surface) (Alpha=1.000).
 Cavity algorithm     : GePol (No added spheres)
                        Default sphere list used, NSphG=   17.
                        Lebedev-Laikov grids with approx.  5.0 points / Ang**2.
                        Smoothing algorithm: York/Karplus (Gamma=1.0000).
                        Polarization charges: spherical gaussians, with
                                              point-specific exponents (IZeta= 3).
                        Self-potential: point-specific (ISelfS= 7).
                        Self-field    : sphere-specific E.n sum rule (ISelfD= 2).
 1st derivatives      : Analytical E(r).r(x)/FMM algorithm (CHGder, D1EAlg=3).
                        Cavity 1st derivative terms included.
 Solvent              : Water, Eps=  78.355300 Eps(inf)=   1.777849
 ------------------------------------------------------------------------------
 Spheres list:
 ISph  on   Nord     Re0    Alpha      Xe            Ye            Ze
    1   C      1    1.8500  1.000      0.368008      0.051987      0.005038
    2   C      2    1.8500  1.000     -0.412408      1.223025      0.033744
    3  Cl      3    2.3800  1.000      0.256202      2.818326      0.208453
    4   C      4    1.8500  1.000     -1.801114      1.173882     -0.015766
    5   H      5    1.2000  1.000     -2.376718      2.092695     -0.008428
    6   C      6    1.8500  1.000     -2.427688     -0.062195     -0.055966
    7  Cl      7    2.3800  1.000     -4.158887     -0.133335     -0.136985
    8   C      8    1.8500  1.000     -1.702825     -1.242481      0.004561
    9   H      9    1.2000  1.000     -2.201993     -2.204713      0.027716
   10   C     10    1.8500  1.000     -0.314763     -1.177933      0.053892
   11  Cl     11    2.3800  1.000      0.480926     -2.710583      0.254888
   12   S     12    2.4900  1.000      2.176924      0.125112     -0.062706
   13   O     13    1.5200  1.000      2.553637      1.274235     -0.870951
   14   O     14    1.5200  1.000      2.684627      0.050049      1.298288
   15   N     15    1.8900  1.000      2.701420     -1.216648     -0.851565
   16   H     16    1.2000  1.000      2.378282     -1.251213     -1.821314
   17   H     17    1.2000  1.000      2.468211     -2.078934     -0.353486
 ------------------------------------------------------------------------------
 ------------------------------------------------------------------------------
 Atomic radii for non-electrostatic terms: SMD-CDS.
 ------------------------------------------------------------------------------
 Nuclear repulsion after PCM non-electrostatic terms =     1281.3958663234 Hartrees.
 One-electron integrals computed using PRISM.
 NBasis=   271 RedAO= T EigKep=  1.34D-06  NBF=   271
 NBsUse=   270 1.00D-06 EigRej=  9.50D-07 NBFU=   270
 ExpMin= 4.05D-02 ExpMax= 2.52D+04 ExpMxC= 3.78D+03 IAcc=3 IRadAn=         5 AccDes= 0.00D+00
 Harris functional with IExCor= 1009 and IRadAn=       5 diagonalized for initial guess.
 HarFok:  IExCor= 1009 AccDes= 0.00D+00 IRadAn=         5 IDoV= 1 UseB2=F ITyADJ=14
 ICtDFT=  3500011 ScaDFX=  1.000000  1.000000  1.000000  1.000000
 FoFCou: FMM=F IPFlag=           0 FMFlag=      100000 FMFlg1=           0
         NFxFlg=           0 DoJE=T BraDBF=F KetDBF=T FulRan=T
         wScrn=  0.000000 ICntrl=       500 IOpCl=  0 I1Cent=   200000004 NGrid=           0
         NMat0=    1 NMatS0=      1 NMatT0=    0 NMatD0=    1 NMtDS0=    0 NMtDT0=    0
 Petite list used in FoFCou.
 Requested convergence on RMS density matrix=1.00D-08 within 128 cycles.
 Requested convergence on MAX density matrix=1.00D-06.
 Requested convergence on             energy=1.00D-06.
 No special actions if energy rises.
 Inv3:  Mode=1 IEnd=     9806592.
 Iteration    1 A*A^-1 deviation from unit magnitude is 4.88D-15 for   1802.
 Iteration    1 A*A^-1 deviation from orthogonality  is 1.59D-15 for   1803   1727.
 Iteration    1 A^-1*A deviation from unit magnitude is 4.88D-15 for   1802.
 Iteration    1 A^-1*A deviation from orthogonality  is 2.01D-15 for   1791    219.
 Error on total polarization charges =  0.02190
 SCF Done:  E(RM062X) =  -2214.66546083     A.U. after   16 cycles
            NFock= 16  Conv=0.78D-08     -V/T= 2.0040
 SMD-CDS (non-electrostatic) energy       (kcal/mol) =       3.49
 (included in total energy above)

 **********************************************************************

            Population analysis using the SCF Density.

 **********************************************************************

 Orbital symmetries:
       Occupied  (A) (A) (A) (A) (A) (A) (A) (A) (A) (A) (A) (A)
                 (A) (A) (A) (A) (A) (A) (A) (A) (A) (A) (A) (A)
                 (A) (A) (A) (A) (A) (A) (A) (A) (A) (A) (A) (A)
                 (A) (A) (A) (A) (A) (A) (A) (A) (A) (A) (A) (A)
                 (A) (A) (A) (A) (A) (A) (A) (A) (A) (A) (A) (A)
                 (A) (A) (A) (A) (A)
       Virtual   (A) (A) (A) (A) (A) (A) (A) (A) (A) (A) (A) (A)
                 (A) (A) (A) (A) (A) (A) (A) (A) (A) (A) (A) (A)
                 (A) (A) (A) (A) (A) (A) (A) (A) (A) (A) (A) (A)
                 (A) (A) (A) (A) (A) (A) (A) (A) (A) (A) (A) (A)
                 (A) (A) (A) (A) (A) (A) (A) (A) (A) (A) (A) (A)
                 (A) (A) (A) (A) (A) (A) (A) (A) (A) (A) (A) (A)
                 (A) (A) (A) (A) (A) (A) (A) (A) (A) (A) (A) (A)
                 (A) (A) (A) (A) (A) (A) (A) (A) (A) (A) (A) (A)
                 (A) (A) (A) (A) (A) (A) (A) (A) (A) (A) (A) (A)
                 (A) (A) (A) (A) (A) (A) (A) (A) (A) (A) (A) (A)
                 (A) (A) (A) (A) (A) (A) (A) (A) (A) (A) (A) (A)
                 (A) (A) (A) (A) (A) (A) (A) (A) (A) (A) (A) (A)
                 (A) (A) (A) (A) (A) (A) (A) (A) (A) (A) (A) (A)
                 (A) (A) (A) (A) (A) (A) (A) (A) (A) (A) (A) (A)
                 (A) (A) (A) (A) (A) (A) (A) (A) (A) (A) (A) (A)
                 (A) (A) (A) (A) (A) (A) (A) (A) (A) (A) (A) (A)
                 (A) (A) (A) (A) (A) (A) (A) (A) (A) (A) (A) (A)
                 (A)
 The electronic state is 1-A.
 Alpha  occ. eigenvalues -- -102.70695-102.69601-102.69378 -90.19780 -19.67069
 Alpha  occ. eigenvalues --  -19.66931 -14.80973 -10.66697 -10.66407 -10.65230
 Alpha  occ. eigenvalues --  -10.63586 -10.59799 -10.59673  -9.85421  -9.84240
 Alpha  occ. eigenvalues --   -9.84047  -8.50650  -7.57824  -7.57142  -7.57134
 Alpha  occ. eigenvalues --   -7.56666  -7.56459  -7.55972  -7.55932  -7.55786
 Alpha  occ. eigenvalues --   -7.55755  -6.42843  -6.42832  -6.42759  -1.27479
 Alpha  occ. eigenvalues --   -1.15674  -1.05854  -1.04276  -1.00763  -1.00110
 Alpha  occ. eigenvalues --   -0.93676  -0.88243  -0.85991  -0.77243  -0.72484
 Alpha  occ. eigenvalues --   -0.71142  -0.65573  -0.63055  -0.61342  -0.59576
 Alpha  occ. eigenvalues --   -0.58074  -0.55568  -0.55222  -0.53001  -0.52439
 Alpha  occ. eigenvalues --   -0.49239  -0.47448  -0.46243  -0.45807  -0.45143
 Alpha  occ. eigenvalues --   -0.43249  -0.42892  -0.42029  -0.40974  -0.40105
 Alpha  occ. eigenvalues --   -0.39332  -0.38461  -0.38292  -0.33128  -0.32587
 Alpha virt. eigenvalues --   -0.03956  -0.02200   0.00099   0.00916   0.02318
 Alpha virt. eigenvalues --    0.02553   0.03632   0.04018   0.04773   0.05249
 Alpha virt. eigenvalues --    0.06275   0.06453   0.07205   0.07822   0.08175
 Alpha virt. eigenvalues --    0.08585   0.09120   0.09499   0.10079   0.10413
 Alpha virt. eigenvalues --    0.10762   0.11594   0.11826   0.12059   0.13034
 Alpha virt. eigenvalues --    0.13090   0.13516   0.14433   0.14546   0.15314
 Alpha virt. eigenvalues --    0.15802   0.16183   0.16932   0.17565   0.18102
 Alpha virt. eigenvalues --    0.18729   0.19162   0.19504   0.20256   0.20453
 Alpha virt. eigenvalues --    0.21046   0.22164   0.22565   0.23193   0.23509
 Alpha virt. eigenvalues --    0.24125   0.24683   0.24999   0.25171   0.26329
 Alpha virt. eigenvalues --    0.26671   0.27477   0.28311   0.29322   0.29568
 Alpha virt. eigenvalues --    0.29916   0.30410   0.31285   0.31300   0.31545
 Alpha virt. eigenvalues --    0.32815   0.33073   0.33469   0.34460   0.35438
 Alpha virt. eigenvalues --    0.37271   0.38094   0.41454   0.44468   0.47488
 Alpha virt. eigenvalues --    0.50979   0.53490   0.56432   0.58866   0.60653
 Alpha virt. eigenvalues --    0.61959   0.63096   0.63534   0.63937   0.64525
 Alpha virt. eigenvalues --    0.66082   0.66631   0.67244   0.68285   0.68803
 Alpha virt. eigenvalues --    0.69352   0.70676   0.72312   0.73003   0.73995
 Alpha virt. eigenvalues --    0.74287   0.74962   0.76368   0.77736   0.78185
 Alpha virt. eigenvalues --    0.79734   0.82784   0.83069   0.84471   0.87842
 Alpha virt. eigenvalues --    0.90105   0.91146   0.92113   0.92438   0.94535
 Alpha virt. eigenvalues --    0.94971   0.95879   0.96800   0.97164   0.98195
 Alpha virt. eigenvalues --    0.99070   1.00503   1.01388   1.04168   1.04809
 Alpha virt. eigenvalues --    1.05697   1.07270   1.08904   1.09502   1.11386
 Alpha virt. eigenvalues --    1.12562   1.13169   1.14289   1.15239   1.17140
 Alpha virt. eigenvalues --    1.18883   1.21575   1.23269   1.24267   1.24498
 Alpha virt. eigenvalues --    1.25751   1.26665   1.29931   1.32223   1.34055
 Alpha virt. eigenvalues --    1.35628   1.37020   1.39694   1.40255   1.42586
 Alpha virt. eigenvalues --    1.44076   1.44532   1.48107   1.49686   1.50225
 Alpha virt. eigenvalues --    1.51785   1.53468   1.56140   1.59159   1.60839
 Alpha virt. eigenvalues --    1.66339   1.73137   1.75817   1.77538   1.78954
 Alpha virt. eigenvalues --    1.83267   1.83648   1.85384   1.86916   1.90915
 Alpha virt. eigenvalues --    1.94875   1.97582   2.00138   2.00503   2.01487
 Alpha virt. eigenvalues --    2.10374   2.10975   2.13076   2.13252   2.15211
 Alpha virt. eigenvalues --    2.15915   2.18499   2.18777   2.21174   2.26527
 Alpha virt. eigenvalues --    2.28772   2.31391   2.36851   2.44110   2.50310
 Alpha virt. eigenvalues --    2.53171   2.58109   2.60547   2.65897   2.68561
 Alpha virt. eigenvalues --    2.73855   2.76834   2.83655   2.88893   2.95817
 Alpha virt. eigenvalues --    3.02817   3.26318   3.91858   4.03911   4.15233
 Alpha virt. eigenvalues --    4.23779   4.25989   4.27669   4.28205   4.35378
 Alpha virt. eigenvalues --    4.38619   4.43264   4.46164   4.46699   4.65635
          Condensed to atoms (all electrons):
               1          2          3          4          5          6
     1  C   48.917063  -8.389888   0.221028  -8.580745   0.083985  -3.476939
     2  C   -8.389888  44.971654  -0.702610   7.595367   0.054383  -2.014228
     3  Cl   0.221028  -0.702610  17.049909  -0.186553  -0.003012   0.025432
     4  C   -8.580745   7.595367  -0.186553  16.851716   0.067441   0.812615
     5  H    0.083985   0.054383  -0.003012   0.067441   0.386272   0.038489
     6  C   -3.476939  -2.014228   0.025432   0.812615   0.038489  10.463195
     7  Cl   0.079992   0.085537  -0.000736  -0.038340   0.001104  -0.319370
     8  C  -12.093505  -2.255380   0.129058  -5.216822   0.061952   0.074551
     9  H    0.107286   0.006416   0.000292   0.063667  -0.000097   0.009565
    10  C   -7.499222 -36.012412   0.305031  -5.956514   0.003473   0.478930
    11  Cl   0.238349   0.237455  -0.000593   0.136265   0.000330   0.047797
    12  S   -1.120936   1.638268  -0.032352   0.224205   0.000239  -0.069689
    13  O   -0.305025   0.261248  -0.037180  -0.000140   0.000081   0.020708
    14  O   -0.228204  -0.592482  -0.021091  -0.066776   0.000009   0.003069
    15  N    1.272705   1.039866  -0.021449   0.148367   0.000040  -0.032303
    16  H   -0.098853  -0.065775   0.001335  -0.014693   0.000000  -0.000859
    17  H   -0.033292  -0.048897   0.000094   0.002530  -0.000000   0.006134
               7          8          9         10         11         12
     1  C    0.079992 -12.093505   0.107286  -7.499222   0.238349  -1.120936
     2  C    0.085537  -2.255380   0.006416 -36.012412   0.237455   1.638268
     3  Cl  -0.000736   0.129058   0.000292   0.305031  -0.000593  -0.032352
     4  C   -0.038340  -5.216822   0.063667  -5.956514   0.136265   0.224205
     5  H    0.001104   0.061952  -0.000097   0.003473   0.000330   0.000239
     6  C   -0.319370   0.074551   0.009565   0.478930   0.047797  -0.069689
     7  Cl  16.947797  -0.026948   0.002329   0.022057  -0.002560  -0.004025
     8  C   -0.026948  21.015909   0.073881   4.047780  -0.089648   0.332769
     9  H    0.002329   0.073881   0.383730   0.048608  -0.002370  -0.000045
    10  C    0.022057   4.047780   0.048608  52.871872  -0.836777  -1.237085
    11  Cl  -0.002560  -0.089648  -0.002370  -0.836777  17.057592   0.021465
    12  S   -0.004025   0.332769  -0.000045  -1.237085   0.021465  14.476190
    13  O   -0.000022   0.054355   0.000015  -0.193885   0.010728   0.284626
    14  O   -0.000467   0.094500  -0.000002   0.728841  -0.023495   0.314311
    15  N    0.000409  -0.486763   0.000059  -2.047639  -0.098675  -0.113610
    16  H   -0.000014   0.036215  -0.000001   0.130213  -0.010251   0.046264
    17  H   -0.000017  -0.003867  -0.000000   0.037086   0.079589   0.023481
              13         14         15         16         17
     1  C   -0.305025  -0.228204   1.272705  -0.098853  -0.033292
     2  C    0.261248  -0.592482   1.039866  -0.065775  -0.048897
     3  Cl  -0.037180  -0.021091  -0.021449   0.001335   0.000094
     4  C   -0.000140  -0.066776   0.148367  -0.014693   0.002530
     5  H    0.000081   0.000009   0.000040   0.000000  -0.000000
     6  C    0.020708   0.003069  -0.032303  -0.000859   0.006134
     7  Cl  -0.000022  -0.000467   0.000409  -0.000014  -0.000017
     8  C    0.054355   0.094500  -0.486763   0.036215  -0.003867
     9  H    0.000015  -0.000002   0.000059  -0.000001  -0.000000
    10  C   -0.193885   0.728841  -2.047639   0.130213   0.037086
    11  Cl   0.010728  -0.023495  -0.098675  -0.010251   0.079589
    12  S    0.284626   0.314311  -0.113610   0.046264   0.023481
    13  O    8.817525  -0.183957  -0.146573  -0.003184   0.009098
    14  O   -0.183957   8.647643  -0.128275   0.007613  -0.003273
    15  N   -0.146573  -0.128275   8.215380   0.209827   0.188674
    16  H   -0.003184   0.007613   0.209827   0.245122  -0.014182
    17  H    0.009098  -0.003273   0.188674  -0.014182   0.291604
 Mulliken charges:
               1
     1  C   -3.093800
     2  C    0.191478
     3  Cl   0.273395
     4  C    0.158411
     5  H    0.305308
     6  C   -0.067098
     7  Cl   0.253273
     8  C    0.251960
     9  H    0.306667
    10  C    1.109642
    11  Cl   0.234798
    12  S    1.215924
    13  O   -0.588418
    14  O   -0.547963
    15  N   -1.000039
    16  H    0.531223
    17  H    0.465238
 Sum of Mulliken charges =  -0.00000
 Mulliken charges with hydrogens summed into heavy atoms:
               1
     1  C   -3.093800
     2  C    0.191478
     3  Cl   0.273395
     4  C    0.463719
     6  C   -0.067098
     7  Cl   0.253273
     8  C    0.558628
    10  C    1.109642
    11  Cl   0.234798
    12  S    1.215924
    13  O   -0.588418
    14  O   -0.547963
    15  N   -0.003579
 Electronic spatial extent (au):  <R**2>=           3796.7312
 Charge=             -0.0000 electrons
 Dipole moment (field-independent basis, Debye):
    X=             -6.1042    Y=             -5.0032    Z=             -2.7945  Tot=              8.3727
 Quadrupole moment (field-independent basis, Debye-Ang):
   XX=           -117.7842   YY=            -95.2424   ZZ=           -105.3279
   XY=            -11.3002   XZ=             -6.1819   YZ=              4.7466
 Traceless Quadrupole moment (field-independent basis, Debye-Ang):
   XX=            -11.6661   YY=             10.8758   ZZ=              0.7903
   XY=            -11.3002   XZ=             -6.1819   YZ=              4.7466
 Octapole moment (field-independent basis, Debye-Ang**2):
  XXX=            -53.0361  YYY=            -20.6940  ZZZ=            -14.2635  XYY=             -2.8712
  XXY=            -23.6055  XXZ=            -11.6783  XZZ=              0.4193  YZZ=             -8.2233
  YYZ=              0.6557  XYZ=             11.0185
 Hexadecapole moment (field-independent basis, Debye-Ang**3):
 XXXX=          -3201.8448 YYYY=          -1505.2819 ZZZZ=           -233.8979 XXXY=            -48.9929
 XXXZ=            -18.3547 YYYX=            -41.8025 YYYZ=             10.1168 ZZZX=            -33.3930
 ZZZY=             14.5655 XXYY=           -729.2877 XXZZ=           -575.0469 YYZZ=           -311.4405
 XXYZ=             22.0032 YYXZ=              3.1404 ZZXY=            -18.1159
 N-N= 1.281395866323D+03 E-N=-7.802699511767D+03  KE= 2.205911080795D+03
 D1PCM: PCM CHGder 1st derivatives, ID1Alg=3 FixD1E=F DoIter=F DoCFld=F I1PDM=0.
 Calling FoFJK, ICntrl=      2127 FMM=F ISym2X=0 I1Cent= 0 IOpClX= 0 NMat=1 NMatS=1 NMatT=0.
 ***** Axes restored to original set *****
 -------------------------------------------------------------------
 Center     Atomic                   Forces (Hartrees/Bohr)
 Number     Number              X              Y              Z
 -------------------------------------------------------------------
      1        6           0.000851500   -0.000728899   -0.001157489
      2        6           0.000294796    0.000343763    0.000309244
      3       17           0.002353024    0.000429033    0.003137031
      4        6           0.000690491   -0.000143289    0.000075415
      5        1          -0.000134338    0.000012468   -0.000140084
      6        6          -0.000339574    0.000081488   -0.000231413
      7       17           0.000005527   -0.000034080    0.000467132
      8        6           0.001463189   -0.000267031    0.000761547
      9        1           0.000124371   -0.000006354   -0.000186557
     10        6          -0.005482283    0.000573418   -0.003246673
     11       17           0.005996919   -0.004472719   -0.010097941
     12       16          -0.000083861    0.001945453    0.000578669
     13        8           0.001671297    0.005127751   -0.001539391
     14        8           0.003748759   -0.007241855   -0.001533726
     15        7          -0.005780440    0.000363365    0.002797803
     16        1          -0.000038087    0.000539255    0.000636157
     17        1          -0.005341289    0.003478232    0.009370276
 -------------------------------------------------------------------
 Cartesian Forces:  Max     0.010097941 RMS     0.003118672

 GradGradGradGradGradGradGradGradGradGradGradGradGradGradGradGradGradGrad
 Berny optimization.
 FormGI is forming the generalized inverse of G from B-inverse, IUseBI=4.
 Internal  Forces:  Max     0.040926809 RMS     0.009243218
 Search for a local minimum.
 Step number   1 out of a maximum of   90
 All quantities printed in internal units (Hartrees-Bohrs-Radians)
 Mixed Optimization -- RFO/linear search
 Second derivative matrix not updated -- first step.
 ITU=  0
     Eigenvalues ---    0.00230   0.01272   0.02032   0.02057   0.02089
     Eigenvalues ---    0.02117   0.02182   0.02239   0.02243   0.02258
     Eigenvalues ---    0.02270   0.04471   0.09438   0.10251   0.14050
     Eigenvalues ---    0.15998   0.15998   0.16000   0.16000   0.19674
     Eigenvalues ---    0.23460   0.23492   0.24944   0.24965   0.24987
     Eigenvalues ---    0.24988   0.24996   0.25000   0.25219   0.31624
     Eigenvalues ---    0.31624   0.32033   0.35486   0.35486   0.41769
     Eigenvalues ---    0.42254   0.43810   0.43901   0.43903   0.45295
     Eigenvalues ---    0.46728   0.47241   0.47828   0.93938   0.93945
 RFO step:  Lambda=-2.96525261D-02 EMin= 2.30000000D-03
 Linear search not attempted -- first point.
 Iteration  1 RMS(Cart)=  0.22370173 RMS(Int)=  0.01541494
 Iteration  2 RMS(Cart)=  0.02649218 RMS(Int)=  0.00106793
 Iteration  3 RMS(Cart)=  0.00038916 RMS(Int)=  0.00104668
 Iteration  4 RMS(Cart)=  0.00000113 RMS(Int)=  0.00104668
 Iteration  5 RMS(Cart)=  0.00000000 RMS(Int)=  0.00104668
 Variable       Old X    -DE/DX   Delta X   Delta X   Delta X     New X
                                 (Linear)    (Quad)   (Total)
    R1        2.65989  -0.00291   0.00000  -0.00589  -0.00582   2.65406
    R2        2.65993   0.01123   0.00000   0.02454   0.02463   2.68456
    R3        3.42354   0.01021   0.00000   0.03621   0.03621   3.45976
    R4        3.28538  -0.00096   0.00000  -0.00277  -0.00277   3.28260
    R5        2.62758  -0.00148   0.00000  -0.00343  -0.00348   2.62410
    R6        2.04893   0.00018   0.00000   0.00048   0.00048   2.04941
    R7        2.61991  -0.00322   0.00000  -0.00708  -0.00719   2.61272
    R8        3.27783  -0.00047   0.00000  -0.00133  -0.00133   3.27650
    R9        2.61996  -0.00158   0.00000  -0.00339  -0.00344   2.61652
   R10        2.04893   0.00020   0.00000   0.00053   0.00053   2.04946
   R11        2.62755   0.00077   0.00000   0.00204   0.00209   2.62964
   R12        3.28537   0.00182   0.00000   0.00525   0.00525   3.29063
   R13        2.74866   0.00103   0.00000   0.00107   0.00107   2.74973
   R14        2.74869   0.00671   0.00000   0.00693   0.00693   2.75562
   R15        3.10382  -0.00309   0.00000  -0.00660  -0.00660   3.09722
   R16        1.93273   0.00037   0.00000   0.00078   0.00078   1.93351
   R17        1.93271  -0.00881   0.00000  -0.01880  -0.01880   1.91391
    A1        2.04576  -0.00662   0.00000  -0.02220  -0.02208   2.02368
    A2        2.11857  -0.03387   0.00000  -0.12198  -0.12207   1.99651
    A3        2.11870   0.04048   0.00000   0.14393   0.14379   2.26249
    A4        2.15584  -0.00962   0.00000  -0.03373  -0.03390   2.12194
    A5        2.12189   0.00699   0.00000   0.02457   0.02457   2.14646
    A6        2.00436   0.00269   0.00000   0.01032   0.01018   2.01454
    A7        2.09442   0.00054   0.00000   0.00371   0.00375   2.09816
    A8        2.07592  -0.00095   0.00000  -0.00674  -0.00681   2.06911
    A9        2.11275   0.00041   0.00000   0.00305   0.00309   2.11583
   A10        2.08173   0.00053   0.00000   0.00289   0.00288   2.08461
   A11        2.11936  -0.00101   0.00000  -0.00592  -0.00594   2.11341
   A12        2.08167   0.00046   0.00000   0.00266   0.00263   2.08430
   A13        2.11267  -0.00174   0.00000  -0.00718  -0.00724   2.10544
   A14        2.07598   0.00323   0.00000   0.01294   0.01302   2.08900
   A15        2.09444  -0.00150   0.00000  -0.00595  -0.00604   2.08839
   A16        2.12184  -0.00178   0.00000  -0.00526  -0.00560   2.11624
   A17        2.15593   0.01937   0.00000   0.06755   0.06649   2.22242
   A18        2.00432  -0.01774   0.00000  -0.06524  -0.06582   1.93850
   A19        1.88732  -0.01239   0.00000  -0.05747  -0.05445   1.83287
   A20        1.88751  -0.01009   0.00000  -0.02129  -0.02511   1.86240
   A21        1.87951   0.04093   0.00000   0.15388   0.15383   2.03334
   A22        2.06043   0.00888   0.00000   0.01709   0.01543   2.07587
   A23        1.87109  -0.01758   0.00000  -0.07891  -0.07617   1.79491
   A24        1.87107  -0.00505   0.00000   0.00540   0.00288   1.87395
   A25        1.96288  -0.00001   0.00000   0.00929   0.00845   1.97133
   A26        1.96279   0.00697   0.00000   0.04606   0.04524   2.00803
   A27        1.94038  -0.00093   0.00000   0.01054   0.00927   1.94965
    D1        2.98479   0.00051   0.00000   0.00257   0.00277   2.98756
    D2       -0.10391  -0.00114   0.00000  -0.02575  -0.02509  -0.12901
    D3       -0.13863   0.00070   0.00000   0.01674   0.01555  -0.12308
    D4        3.05585  -0.00095   0.00000  -0.01159  -0.01231   3.04354
    D5        0.10387   0.00078   0.00000   0.02017   0.01979   0.12366
    D6       -2.98476   0.00497   0.00000   0.09318   0.09543  -2.88933
    D7       -3.05590  -0.00023   0.00000   0.00306   0.00136  -3.05454
    D8        0.13866   0.00395   0.00000   0.07607   0.07700   0.21566
    D9       -0.61109   0.00338   0.00000   0.12157   0.12019  -0.49090
   D10        1.63887  -0.00088   0.00000   0.08903   0.08900   1.72788
   D11       -2.62767   0.00917   0.00000   0.16384   0.16439  -2.46327
   D12        2.54944   0.00411   0.00000   0.13821   0.13740   2.68684
   D13       -1.48379  -0.00015   0.00000   0.10567   0.10621  -1.37758
   D14        0.53286   0.00990   0.00000   0.18048   0.18160   0.71446
   D15       -3.12412   0.00072   0.00000   0.01313   0.01308  -3.11104
   D16        0.03241   0.00059   0.00000   0.01184   0.01142   0.04384
   D17        0.06606  -0.00043   0.00000  -0.01157  -0.01190   0.05416
   D18       -3.06059  -0.00056   0.00000  -0.01285  -0.01356  -3.07415
   D19       -3.12894  -0.00009   0.00000  -0.00463  -0.00419  -3.13314
   D20        0.04430   0.00065   0.00000   0.00917   0.00912   0.05342
   D21        0.02775  -0.00022   0.00000  -0.00593  -0.00587   0.02188
   D22       -3.08219   0.00052   0.00000   0.00787   0.00744  -3.07475
   D23        3.08219  -0.00134   0.00000  -0.02707  -0.02626   3.05593
   D24       -0.04434  -0.00056   0.00000  -0.01321  -0.01253  -0.05687
   D25       -0.02775  -0.00061   0.00000  -0.01327  -0.01296  -0.04071
   D26        3.12890   0.00018   0.00000   0.00059   0.00077   3.12967
   D27       -0.03233  -0.00037   0.00000  -0.00278  -0.00338  -0.03571
   D28        3.06061  -0.00319   0.00000  -0.06619  -0.06422   2.99639
   D29        3.12416   0.00041   0.00000   0.01094   0.01023   3.13439
   D30       -0.06608  -0.00240   0.00000  -0.05246  -0.05062  -0.11670
   D31        1.10240  -0.00237   0.00000  -0.02979  -0.03178   1.07062
   D32       -1.10430  -0.00680   0.00000  -0.08944  -0.09201  -1.19632
   D33       -0.92486   0.00044   0.00000  -0.00008   0.00158  -0.92328
   D34       -3.13156  -0.00399   0.00000  -0.05973  -0.05866   3.09297
   D35        3.12986   0.00386   0.00000   0.02538   0.02659  -3.12674
   D36        0.92316  -0.00058   0.00000  -0.03427  -0.03365   0.88951
         Item               Value     Threshold  Converged?
 Maximum Force            0.040927     0.000450     NO 
 RMS     Force            0.009243     0.000300     NO 
 Maximum Displacement     0.978277     0.001800     NO 
 RMS     Displacement     0.235860     0.001200     NO 
 Predicted change in Energy=-1.841583D-02
 GradGradGradGradGradGradGradGradGradGradGradGradGradGradGradGradGradGrad

                          Input orientation:                          
 ---------------------------------------------------------------------
 Center     Atomic      Atomic             Coordinates (Angstroms)
 Number     Number       Type             X           Y           Z
 ---------------------------------------------------------------------
      1          6           0       -1.163333    0.687553   -0.962489
      2          6           0       -2.384628    0.802997   -1.646337
      3         17           0       -3.906333    0.681108   -0.817481
      4          6           0       -2.467198    0.991090   -3.019675
      5          1           0       -3.434032    1.102826   -3.498099
      6          6           0       -1.296527    1.015640   -3.754853
      7         17           0       -1.372024    1.261658   -5.469498
      8          6           0       -0.069415    0.794557   -3.152826
      9          1           0        0.835563    0.736858   -3.747708
     10          6           0       -0.000703    0.610631   -1.775204
     11         17           0        1.598012    0.121887   -1.287914
     12         16           0       -1.321731    0.607687    0.859721
     13          8           0       -2.542328    1.338839    1.164439
     14          8           0       -1.232563   -0.800706    1.226948
     15          7           0       -0.188559    1.412501    1.728312
     16          1           0       -0.186153    2.419152    1.545213
     17          1           0        0.744503    1.021252    1.682771
 ---------------------------------------------------------------------
                    Distance matrix (angstroms):
                    1          2          3          4          5
     1  C    0.000000
     2  C    1.404470   0.000000
     3  Cl   2.746838   1.737079   0.000000
     4  C    2.454427   1.388616   2.648935   0.000000
     5  H    3.428971   2.149458   2.754383   1.084502   0.000000
     6  C    2.814726   2.382230   3.943495   1.382592   2.154635
     7  Cl   4.548217   3.981495   5.329261   2.697081   2.857188
     8  C    2.450650   2.762208   4.493178   2.409506   3.396306
     9  H    3.428624   3.845747   5.574488   3.391592   4.292515
    10  C    1.420610   2.395143   4.021958   2.788737   3.872773
    11  Cl   2.837411   4.056328   5.552643   4.503381   5.582887
    12  S    1.830824   2.729143   3.081974   4.063102   4.868015
    13  O    2.617179   2.865739   2.494219   4.199212   4.752904
    14  O    2.648272   3.486385   3.677569   4.771652   5.549412
    15  N    2.952311   4.072157   4.564848   5.283290   6.159899
    16  H    3.200294   4.198957   4.737389   5.299125   6.141370
    17  H    3.278505   4.574063   5.291241   5.694640   6.656442
                    6          7          8          9         10
     6  C    0.000000
     7  Cl   1.733849   0.000000
     8  C    1.384601   2.698508   0.000000
     9  H    2.150252   2.848406   1.084527   0.000000
    10  C    2.400459   3.994016   1.391543   2.146170   0.000000
    11  Cl   3.906781   5.254126   2.590500   2.647660   1.741324
    12  S    4.632640   6.363114   4.207582   5.089106   2.947533
    13  O    5.084871   6.736816   5.005030   5.991804   3.953688
    14  O    5.302976   7.008223   4.804186   5.602540   3.538682
    15  N    5.608047   7.296013   4.921540   5.611783   3.599015
    16  H    5.594058   7.207791   4.972375   5.647037   3.785539
    17  H    5.808063   7.462736   4.908854   5.438683   3.561114
                   11         12         13         14         15
    11  Cl   0.000000
    12  S    3.656943   0.000000
    13  O    4.963610   1.455093   0.000000
    14  O    3.897161   1.458210   2.509391   0.000000
    15  N    3.735657   1.638980   2.421489   2.497918   0.000000
    16  H    4.060453   2.245182   2.619852   3.400551   1.023170
    17  H    3.219053   2.262249   3.342572   2.726921   1.012795
                   16         17
    16  H    0.000000
    17  H    1.684982   0.000000
 Stoichiometry    C6H4Cl3NO2S
 Framework group  C1[X(C6H4Cl3NO2S)]
 Deg. of freedom    45
 Full point group                 C1      NOp   1
 Largest Abelian subgroup         C1      NOp   1
 Largest concise Abelian subgroup C1      NOp   1
                         Standard orientation:                         
 ---------------------------------------------------------------------
 Center     Atomic      Atomic             Coordinates (Angstroms)
 Number     Number       Type             X           Y           Z
 ---------------------------------------------------------------------
      1          6           0        0.373009   -0.087900   -0.006262
      2          6           0       -0.289634    1.148304    0.066137
      3         17           0        0.581112    2.635916    0.281207
      4          6           0       -1.671381    1.270267    0.001688
      5          1           0       -2.134874    2.250214    0.033658
      6          6           0       -2.432884    0.119709   -0.087148
      7         17           0       -4.159561    0.245765   -0.181639
      8          6           0       -1.843421   -1.132560   -0.048755
      9          1           0       -2.452398   -2.029920   -0.039266
     10          6           0       -0.457421   -1.240357    0.012691
     11         17           0        0.030667   -2.889374    0.286052
     12         16           0        2.198904    0.035012   -0.060277
     13          8           0        2.471882    1.323190   -0.679451
     14          8           0        2.675957   -0.211433    1.295475
     15          7           0        2.973731   -1.016513   -1.050323
     16          1           0        2.710336   -0.907237   -2.032952
     17          1           0        2.938327   -1.985731   -0.758576
 ---------------------------------------------------------------------
 Rotational constants (GHZ):           0.6972084           0.3753832           0.2593795
 Basis read from rwf:  (6D, 7F)
 There are   271 symmetry adapted cartesian basis functions of A   symmetry.
 There are   271 symmetry adapted basis functions of A   symmetry.
   271 basis functions,   528 primitive gaussians,   271 cartesian basis functions
    65 alpha electrons       65 beta electrons
       nuclear repulsion energy      1276.1136135547 Hartrees.
 NAtoms=   17 NActive=   17 NUniq=   17 SFac= 1.00D+00 NAtFMM=   60 NAOKFM=F Big=F
 Integral buffers will be    131072 words long.
 Raffenetti 2 integral format.
 Two-electron integral symmetry is turned on.
 ------------------------------------------------------------------------------
 Polarizable Continuum Model (PCM)
 =================================
 Model                : PCM.
 Atomic radii         : SMD-Coulomb.
 Polarization charges : Total charges.
 Charge compensation  : None.
 Solution method      : On-the-fly selection.
 Cavity type          : VdW (van der Waals Surface) (Alpha=1.000).
 Cavity algorithm     : GePol (No added spheres)
                        Default sphere list used, NSphG=   17.
                        Lebedev-Laikov grids with approx.  5.0 points / Ang**2.
                        Smoothing algorithm: York/Karplus (Gamma=1.0000).
                        Polarization charges: spherical gaussians, with
                                              point-specific exponents (IZeta= 3).
                        Self-potential: point-specific (ISelfS= 7).
                        Self-field    : sphere-specific E.n sum rule (ISelfD= 2).
 1st derivatives      : Analytical E(r).r(x)/FMM algorithm (CHGder, D1EAlg=3).
                        Cavity 1st derivative terms included.
 Solvent              : Water, Eps=  78.355300 Eps(inf)=   1.777849
 ------------------------------------------------------------------------------
 Spheres list:
 ISph  on   Nord     Re0    Alpha      Xe            Ye            Ze
    1   C      1    1.8500  1.000      0.373009     -0.087900     -0.006262
    2   C      2    1.8500  1.000     -0.289634      1.148304      0.066137
    3  Cl      3    2.3800  1.000      0.581112      2.635916      0.281207
    4   C      4    1.8500  1.000     -1.671381      1.270267      0.001688
    5   H      5    1.2000  1.000     -2.134874      2.250214      0.033658
    6   C      6    1.8500  1.000     -2.432884      0.119709     -0.087148
    7  Cl      7    2.3800  1.000     -4.159561      0.245765     -0.181639
    8   C      8    1.8500  1.000     -1.843421     -1.132560     -0.048755
    9   H      9    1.2000  1.000     -2.452398     -2.029920     -0.039266
   10   C     10    1.8500  1.000     -0.457421     -1.240357      0.012691
   11  Cl     11    2.3800  1.000      0.030667     -2.889374      0.286052
   12   S     12    2.4900  1.000      2.198904      0.035012     -0.060277
   13   O     13    1.5200  1.000      2.471882      1.323190     -0.679451
   14   O     14    1.5200  1.000      2.675957     -0.211433      1.295475
   15   N     15    1.8900  1.000      2.973731     -1.016513     -1.050323
   16   H     16    1.2000  1.000      2.710336     -0.907237     -2.032952
   17   H     17    1.2000  1.000      2.938327     -1.985731     -0.758576
 ------------------------------------------------------------------------------
 ------------------------------------------------------------------------------
 Atomic radii for non-electrostatic terms: SMD-CDS.
 ------------------------------------------------------------------------------
 Nuclear repulsion after PCM non-electrostatic terms =     1276.1196311866 Hartrees.
 One-electron integrals computed using PRISM.
 NBasis=   271 RedAO= T EigKep=  1.02D-06  NBF=   271
 NBsUse=   271 1.00D-06 EigRej= -1.00D+00 NBFU=   271
 Initial guess from the checkpoint file:  "/jobfs/40643999.gadi-pbs/Gau-663286.chk"
 B after Tr=     0.000000   -0.000000   -0.000000
         Rot=    0.999029   -0.021223    0.004528    0.038335 Ang=  -5.05 deg.
 ExpMin= 4.05D-02 ExpMax= 2.52D+04 ExpMxC= 3.78D+03 IAcc=3 IRadAn=         5 AccDes= 0.00D+00
 Harris functional with IExCor= 1009 and IRadAn=       5 diagonalized for initial guess.
 HarFok:  IExCor= 1009 AccDes= 0.00D+00 IRadAn=         5 IDoV= 1 UseB2=F ITyADJ=14
 ICtDFT=  3500011 ScaDFX=  1.000000  1.000000  1.000000  1.000000
 FoFCou: FMM=F IPFlag=           0 FMFlag=      100000 FMFlg1=           0
         NFxFlg=           0 DoJE=T BraDBF=F KetDBF=T FulRan=T
         wScrn=  0.000000 ICntrl=       500 IOpCl=  0 I1Cent=   200000004 NGrid=           0
         NMat0=    1 NMatS0=      1 NMatT0=    0 NMatD0=    1 NMtDS0=    0 NMtDT0=    0
 Petite list used in FoFCou.
 Requested convergence on RMS density matrix=1.00D-08 within 128 cycles.
 Requested convergence on MAX density matrix=1.00D-06.
 Requested convergence on             energy=1.00D-06.
 No special actions if energy rises.
 Inv3:  Mode=1 IEnd=    10145763.
 Iteration    1 A*A^-1 deviation from unit magnitude is 5.66D-15 for   1825.
 Iteration    1 A*A^-1 deviation from orthogonality  is 2.14D-15 for   1825   1751.
 Iteration    1 A^-1*A deviation from unit magnitude is 5.66D-15 for   1825.
 Iteration    1 A^-1*A deviation from orthogonality  is 2.11D-15 for   1839    689.
 Error on total polarization charges =  0.02166
 SCF Done:  E(RM062X) =  -2214.64859087     A.U. after   17 cycles
            NFock= 17  Conv=0.60D-08     -V/T= 2.0040
 SMD-CDS (non-electrostatic) energy       (kcal/mol) =       3.78
 (included in total energy above)
 D1PCM: PCM CHGder 1st derivatives, ID1Alg=3 FixD1E=F DoIter=F DoCFld=F I1PDM=0.
 Calling FoFJK, ICntrl=      2127 FMM=F ISym2X=0 I1Cent= 0 IOpClX= 0 NMat=1 NMatS=1 NMatT=0.
 ***** Axes restored to original set *****
 -------------------------------------------------------------------
 Center     Atomic                   Forces (Hartrees/Bohr)
 Number     Number              X              Y              Z
 -------------------------------------------------------------------
      1        6           0.008653646    0.001525611   -0.003690487
      2        6          -0.004620306    0.003699826    0.003966606
      3       17          -0.017181924   -0.006688526   -0.024198442
      4        6          -0.001305269   -0.000567652   -0.001429822
      5        1          -0.000053324   -0.000234113    0.000447184
      6        6          -0.000950207    0.000370471   -0.001305807
      7       17           0.000149853    0.000234780   -0.000126272
      8        6          -0.001735047    0.001422721    0.000006657
      9        1          -0.000197082    0.000161629    0.000050373
     10        6          -0.005175567   -0.003470020   -0.001119124
     11       17          -0.004915560    0.004005765    0.019439148
     12       16          -0.002031962    0.000417396    0.007866368
     13        8           0.012916683    0.006617318    0.014288584
     14        8           0.005137393   -0.003526042   -0.001418955
     15        7           0.003936498    0.000374764   -0.011647492
     16        1          -0.000471005   -0.000749658    0.000023856
     17        1           0.007843178   -0.003594270   -0.001152376
 -------------------------------------------------------------------
 Cartesian Forces:  Max     0.024198442 RMS     0.006696828

 GradGradGradGradGradGradGradGradGradGradGradGradGradGradGradGradGradGrad
 Berny optimization.
 Using GEDIIS/GDIIS optimizer.
 FormGI is forming the generalized inverse of G from B-inverse, IUseBI=4.
 Internal  Forces:  Max     0.094520875 RMS     0.019662197
 Search for a local minimum.
 Step number   2 out of a maximum of   90
 All quantities printed in internal units (Hartrees-Bohrs-Radians)
 Mixed Optimization -- RFO/linear search
 Update second derivatives using D2CorX and points    2    1
 DE=  1.69D-02 DEPred=-1.84D-02 R=-9.16D-01
 Trust test=-9.16D-01 RLast= 4.87D-01 DXMaxT set to 1.50D-01
 ITU= -1  0
 Use linear search instead of GDIIS.
     Eigenvalues ---    0.00288   0.01256   0.02006   0.02054   0.02123
     Eigenvalues ---    0.02188   0.02233   0.02240   0.02247   0.02260
     Eigenvalues ---    0.02272   0.04073   0.08109   0.10208   0.15616
     Eigenvalues ---    0.15994   0.15999   0.16000   0.16057   0.19922
     Eigenvalues ---    0.22363   0.23479   0.23531   0.24812   0.24959
     Eigenvalues ---    0.24976   0.24992   0.25196   0.31617   0.31620
     Eigenvalues ---    0.32033   0.35486   0.35486   0.40797   0.41696
     Eigenvalues ---    0.43742   0.43818   0.43901   0.44982   0.46724
     Eigenvalues ---    0.47238   0.47823   0.83448   0.93799   0.94199
 RFO step:  Lambda=-1.09373126D-02 EMin= 2.87900424D-03
 Quartic linear search produced a step of -0.72712.
 Maximum step size (   0.150) exceeded in Quadratic search.
    -- Step size scaled by   0.741
 Iteration  1 RMS(Cart)=  0.16296084 RMS(Int)=  0.02930787
 Iteration  2 RMS(Cart)=  0.06753799 RMS(Int)=  0.00180406
 Iteration  3 RMS(Cart)=  0.00235883 RMS(Int)=  0.00067280
 Iteration  4 RMS(Cart)=  0.00000269 RMS(Int)=  0.00067280
 Iteration  5 RMS(Cart)=  0.00000001 RMS(Int)=  0.00067280
 Variable       Old X    -DE/DX   Delta X   Delta X   Delta X     New X
                                 (Linear)    (Quad)   (Total)
    R1        2.65406   0.03475   0.00424   0.01224   0.01652   2.67059
    R2        2.68456  -0.02113  -0.01791   0.01036  -0.00750   2.67706
    R3        3.45976   0.00558  -0.02633   0.03415   0.00781   3.46757
    R4        3.28260   0.00397   0.00202   0.00036   0.00238   3.28498
    R5        2.62410   0.00583   0.00253   0.00032   0.00288   2.62698
    R6        2.04941  -0.00017  -0.00035   0.00030  -0.00005   2.04936
    R7        2.61272   0.00040   0.00523  -0.00570  -0.00050   2.61222
    R8        3.27650   0.00015   0.00097  -0.00100  -0.00004   3.27646
    R9        2.61652  -0.00283   0.00250  -0.00456  -0.00212   2.61440
   R10        2.04946  -0.00020  -0.00038   0.00032  -0.00006   2.04940
   R11        2.62964  -0.00309  -0.00152  -0.00025  -0.00180   2.62784
   R12        3.29063  -0.00020  -0.00382   0.00422   0.00040   3.29103
   R13        2.74973  -0.00451  -0.00077  -0.00012  -0.00089   2.74883
   R14        2.75562   0.00336  -0.00504   0.00676   0.00172   2.75734
   R15        3.09722  -0.00090   0.00480  -0.00600  -0.00120   3.09602
   R16        1.93351  -0.00074  -0.00057   0.00030  -0.00027   1.93324
   R17        1.91391   0.00867   0.01367  -0.01164   0.00203   1.91594
    A1        2.02368  -0.00356   0.01606  -0.02082  -0.00452   2.01915
    A2        1.99651   0.09452   0.08876  -0.02023   0.06842   2.06493
    A3        2.26249  -0.09100  -0.10455   0.04070  -0.06392   2.19857
    A4        2.12194   0.05432   0.02465   0.01665   0.04060   2.16254
    A5        2.14646  -0.01562  -0.01786   0.00803  -0.01011   2.13635
    A6        2.01454  -0.03886  -0.00740  -0.02561  -0.03356   1.98097
    A7        2.09816  -0.00482  -0.00272  -0.00242  -0.00523   2.09293
    A8        2.06911   0.00879   0.00495   0.00421   0.00930   2.07841
    A9        2.11583  -0.00399  -0.00224  -0.00187  -0.00419   2.11164
   A10        2.08461   0.00063  -0.00209   0.00322   0.00111   2.08572
   A11        2.11341  -0.00080   0.00432  -0.00613  -0.00173   2.11168
   A12        2.08430   0.00012  -0.00191   0.00255   0.00064   2.08494
   A13        2.10544   0.00210   0.00526  -0.00257   0.00267   2.10811
   A14        2.08900  -0.00435  -0.00947   0.00400  -0.00541   2.08359
   A15        2.08839   0.00227   0.00439  -0.00146   0.00292   2.09132
   A16        2.11624   0.01526   0.00407   0.00835   0.01235   2.12859
   A17        2.22242  -0.03918  -0.04835   0.02391  -0.02469   2.19773
   A18        1.93850   0.02462   0.04786  -0.03021   0.01733   1.95582
   A19        1.83287   0.03117   0.03959  -0.00479   0.03245   1.86532
   A20        1.86240   0.00599   0.01826  -0.02298  -0.00251   1.85989
   A21        2.03334  -0.04385  -0.11185   0.08051  -0.03154   2.00180
   A22        2.07587   0.00100  -0.01122   0.02989   0.01963   2.09549
   A23        1.79491  -0.00408   0.05539  -0.06397  -0.01028   1.78464
   A24        1.87395   0.00565  -0.00210  -0.00970  -0.01030   1.86365
   A25        1.97133  -0.00041  -0.00614   0.00258  -0.00297   1.96835
   A26        2.00803  -0.00093  -0.03289   0.03050  -0.00182   2.00622
   A27        1.94965   0.00061  -0.00674   0.00196  -0.00389   1.94576
    D1        2.98756  -0.00982  -0.00202  -0.05988  -0.06320   2.92436
    D2       -0.12901  -0.00096   0.01824  -0.01302   0.00498  -0.12403
    D3       -0.12308  -0.00690  -0.01131  -0.04995  -0.06129  -0.18436
    D4        3.04354   0.00197   0.00895  -0.00309   0.00689   3.05043
    D5        0.12366   0.00259  -0.01439   0.02042   0.00604   0.12970
    D6       -2.88933  -0.00679  -0.06939   0.00066  -0.06967  -2.95900
    D7       -3.05454   0.00346  -0.00099   0.00711   0.00689  -3.04765
    D8        0.21566  -0.00592  -0.05599  -0.01265  -0.06881   0.14684
    D9       -0.49090  -0.01847  -0.08739  -0.22777  -0.31454  -0.80543
   D10        1.72788   0.00415  -0.06472  -0.20803  -0.27271   1.45516
   D11       -2.46327  -0.01185  -0.11953  -0.18674  -0.30662  -2.76989
   D12        2.68684  -0.01772  -0.09990  -0.21459  -0.31408   2.37275
   D13       -1.37758   0.00491  -0.07723  -0.19486  -0.27226  -1.64984
   D14        0.71446  -0.01110  -0.13204  -0.17357  -0.30617   0.40829
   D15       -3.11104  -0.00171  -0.00951  -0.00834  -0.01751  -3.12855
   D16        0.04384  -0.00007  -0.00831  -0.00189  -0.00983   0.03400
   D17        0.05416   0.00543   0.00865   0.03534   0.04321   0.09737
   D18       -3.07415   0.00707   0.00986   0.04178   0.05089  -3.02326
   D19       -3.13314  -0.00028   0.00305   0.00289   0.00570  -3.12743
   D20        0.05342   0.00087  -0.00663   0.01217   0.00526   0.05868
   D21        0.02188   0.00139   0.00427   0.00940   0.01348   0.03536
   D22       -3.07475   0.00253  -0.00541   0.01868   0.01303  -3.06172
   D23        3.05593  -0.00054   0.01909  -0.00605   0.01291   3.06884
   D24       -0.05687  -0.00124   0.00911  -0.00480   0.00410  -0.05278
   D25       -0.04071   0.00059   0.00942   0.00321   0.01245  -0.02826
   D26        3.12967  -0.00010  -0.00056   0.00445   0.00364   3.13331
   D27       -0.03571  -0.00120   0.00246  -0.01309  -0.01019  -0.04590
   D28        2.99639   0.00245   0.04669   0.00699   0.05309   3.04948
   D29        3.13439  -0.00188  -0.00744  -0.01183  -0.01891   3.11548
   D30       -0.11670   0.00176   0.03680   0.00824   0.04437  -0.07233
   D31        1.07062   0.01018   0.02311   0.00057   0.02511   1.09572
   D32       -1.19632   0.01058   0.06691  -0.03350   0.03525  -1.16106
   D33       -0.92328  -0.00420  -0.00115   0.00973   0.00725  -0.91604
   D34        3.09297  -0.00381   0.04265  -0.02434   0.01740   3.11036
   D35       -3.12674  -0.00600  -0.01933   0.01533  -0.00472  -3.13146
   D36        0.88951  -0.00561   0.02447  -0.01873   0.00543   0.89494
         Item               Value     Threshold  Converged?
 Maximum Force            0.094521     0.000450     NO 
 RMS     Force            0.019662     0.000300     NO 
 Maximum Displacement     0.688779     0.001800     NO 
 RMS     Displacement     0.221228     0.001200     NO 
 Predicted change in Energy=-1.613457D-03
 GradGradGradGradGradGradGradGradGradGradGradGradGradGradGradGradGradGrad

                          Input orientation:                          
 ---------------------------------------------------------------------
 Center     Atomic      Atomic             Coordinates (Angstroms)
 Number     Number       Type             X           Y           Z
 ---------------------------------------------------------------------
      1          6           0       -1.261892    0.751505   -0.942482
      2          6           0       -2.466523    0.751569   -1.681424
      3         17           0       -4.030646    0.448560   -0.986069
      4          6           0       -2.492120    0.890269   -3.064388
      5          1           0       -3.440775    0.896933   -3.589832
      6          6           0       -1.297139    0.992925   -3.751641
      7         17           0       -1.316926    1.187528   -5.474401
      8          6           0       -0.085161    0.890387   -3.092390
      9          1           0        0.849095    0.904157   -3.642937
     10          6           0       -0.070924    0.744326   -1.709564
     11         17           0        1.538259    0.486373   -1.095611
     12         16           0       -1.364455    0.707432    0.889079
     13          8           0       -2.365087    1.688290    1.279686
     14          8           0       -1.529052   -0.693354    1.262901
     15          7           0       -0.025844    1.249289    1.662822
     16          1           0        0.171167    2.234599    1.470636
     17          1           0        0.800575    0.674740    1.540936
 ---------------------------------------------------------------------
                    Distance matrix (angstroms):
                    1          2          3          4          5
     1  C    0.000000
     2  C    1.413213   0.000000
     3  Cl   2.785619   1.738336   0.000000
     4  C    2.456665   1.390138   2.623277   0.000000
     5  H    3.431784   2.147631   2.707132   1.084473   0.000000
     6  C    2.819734   2.389876   3.926421   1.382329   2.151877
     7  Cl   4.553179   3.987268   5.296742   2.697704   2.854257
     8  C    2.454810   2.771458   4.494290   2.407121   3.392290
     9  H    3.431039   3.855404   5.574799   3.390962   4.290205
    10  C    1.416641   2.395775   4.036127   2.778315   3.861941
    11  Cl   2.816840   4.056080   5.570110   4.503684   5.583948
    12  S    1.834959   2.797139   3.269828   4.115211   4.940411
    13  O    2.651911   3.107396   3.073217   4.418592   5.049312
    14  O    2.650038   3.411114   3.552437   4.707525   5.452771
    15  N    2.926296   4.169967   4.867877   5.343962   6.275052
    16  H    3.174329   4.369470   5.184648   5.428330   6.359545
    17  H    3.229090   4.589492   5.456886   5.665448   6.660570
                    6          7          8          9         10
     6  C    0.000000
     7  Cl   1.733830   0.000000
     8  C    1.383479   2.698058   0.000000
     9  H    2.150817   2.850651   1.084494   0.000000
    10  C    2.394886   3.990357   1.390591   2.147070   0.000000
    11  Cl   3.917980   5.274231   2.604966   2.671771   1.741536
    12  S    4.649980   6.381742   4.185948   5.047541   2.903021
    13  O    5.190211   6.853255   4.994973   5.931108   3.884568
    14  O    5.295559   6.998139   4.854030   5.681097   3.609516
    15  N    5.567613   7.253321   4.769106   5.388480   3.410280
    16  H    5.565056   7.179438   4.763803   5.327128   3.520397
    17  H    5.702018   7.345864   4.722154   5.189173   3.366022
                   11         12         13         14         15
    11  Cl   0.000000
    12  S    3.523295   0.000000
    13  O    4.724695   1.454620   0.000000
    14  O    4.045086   1.459122   2.524176   0.000000
    15  N    3.261504   1.638342   2.410720   2.488661   0.000000
    16  H    3.392765   2.242450   2.601442   3.392168   1.023027
    17  H    2.744273   2.261269   3.334209   2.715906   1.013870
                   16         17
    16  H    0.000000
    17  H    1.683525   0.000000
 Stoichiometry    C6H4Cl3NO2S
 Framework group  C1[X(C6H4Cl3NO2S)]
 Deg. of freedom    45
 Full point group                 C1      NOp   1
 Largest Abelian subgroup         C1      NOp   1
 Largest concise Abelian subgroup C1      NOp   1
                         Standard orientation:                         
 ---------------------------------------------------------------------
 Center     Atomic      Atomic             Coordinates (Angstroms)
 Number     Number       Type             X           Y           Z
 ---------------------------------------------------------------------
      1          6           0        0.379940   -0.008242   -0.013996
      2          6           0       -0.369335    1.189444    0.022144
      3         17           0        0.328168    2.762529    0.268533
      4          6           0       -1.758432    1.201014   -0.030389
      5          1           0       -2.292535    2.144667   -0.012045
      6          6           0       -2.439005   -0.001133   -0.080329
      7         17           0       -4.170643    0.000992   -0.167450
      8          6           0       -1.762820   -1.206009   -0.009175
      9          1           0       -2.303984   -2.145411    0.018963
     10          6           0       -0.373515   -1.206158    0.050619
     11         17           0        0.271015   -2.807270    0.282934
     12         16           0        2.209605    0.111667   -0.084877
     13          8           0        2.528651    1.107273   -1.096262
     14          8           0        2.668174    0.291945    1.288531
     15          7           0        2.961227   -1.224398   -0.662945
     16          1           0        2.710085   -1.431777   -1.632742
     17          1           0        2.883398   -2.046862   -0.075216
 ---------------------------------------------------------------------
 Rotational constants (GHZ):           0.6917127           0.3748509           0.2583258
 Basis read from rwf:  (6D, 7F)
 There are   271 symmetry adapted cartesian basis functions of A   symmetry.
 There are   271 symmetry adapted basis functions of A   symmetry.
   271 basis functions,   528 primitive gaussians,   271 cartesian basis functions
    65 alpha electrons       65 beta electrons
       nuclear repulsion energy      1271.3244270788 Hartrees.
 NAtoms=   17 NActive=   17 NUniq=   17 SFac= 1.00D+00 NAtFMM=   60 NAOKFM=F Big=F
 Integral buffers will be    131072 words long.
 Raffenetti 2 integral format.
 Two-electron integral symmetry is turned on.
 ------------------------------------------------------------------------------
 Polarizable Continuum Model (PCM)
 =================================
 Model                : PCM.
 Atomic radii         : SMD-Coulomb.
 Polarization charges : Total charges.
 Charge compensation  : None.
 Solution method      : On-the-fly selection.
 Cavity type          : VdW (van der Waals Surface) (Alpha=1.000).
 Cavity algorithm     : GePol (No added spheres)
                        Default sphere list used, NSphG=   17.
                        Lebedev-Laikov grids with approx.  5.0 points / Ang**2.
                        Smoothing algorithm: York/Karplus (Gamma=1.0000).
                        Polarization charges: spherical gaussians, with
                                              point-specific exponents (IZeta= 3).
                        Self-potential: point-specific (ISelfS= 7).
                        Self-field    : sphere-specific E.n sum rule (ISelfD= 2).
 1st derivatives      : Analytical E(r).r(x)/FMM algorithm (CHGder, D1EAlg=3).
                        Cavity 1st derivative terms included.
 Solvent              : Water, Eps=  78.355300 Eps(inf)=   1.777849
 ------------------------------------------------------------------------------
 Spheres list:
 ISph  on   Nord     Re0    Alpha      Xe            Ye            Ze
    1   C      1    1.8500  1.000      0.379940     -0.008242     -0.013996
    2   C      2    1.8500  1.000     -0.369335      1.189444      0.022144
    3  Cl      3    2.3800  1.000      0.328168      2.762529      0.268533
    4   C      4    1.8500  1.000     -1.758432      1.201014     -0.030389
    5   H      5    1.2000  1.000     -2.292535      2.144667     -0.012045
    6   C      6    1.8500  1.000     -2.439005     -0.001133     -0.080329
    7  Cl      7    2.3800  1.000     -4.170643      0.000992     -0.167450
    8   C      8    1.8500  1.000     -1.762820     -1.206009     -0.009175
    9   H      9    1.2000  1.000     -2.303984     -2.145411      0.018963
   10   C     10    1.8500  1.000     -0.373515     -1.206158      0.050619
   11  Cl     11    2.3800  1.000      0.271015     -2.807270      0.282934
   12   S     12    2.4900  1.000      2.209605      0.111667     -0.084877
   13   O     13    1.5200  1.000      2.528651      1.107273     -1.096262
   14   O     14    1.5200  1.000      2.668174      0.291945      1.288531
   15   N     15    1.8900  1.000      2.961227     -1.224398     -0.662945
   16   H     16    1.2000  1.000      2.710085     -1.431777     -1.632742
   17   H     17    1.2000  1.000      2.883398     -2.046862     -0.075216
 ------------------------------------------------------------------------------
 ------------------------------------------------------------------------------
 Atomic radii for non-electrostatic terms: SMD-CDS.
 ------------------------------------------------------------------------------
 Nuclear repulsion after PCM non-electrostatic terms =     1271.3302646465 Hartrees.
 One-electron integrals computed using PRISM.
 NBasis=   271 RedAO= T EigKep=  1.01D-06  NBF=   271
 NBsUse=   271 1.00D-06 EigRej= -1.00D+00 NBFU=   271
 Lowest energy guess from the checkpoint file:  "/jobfs/40643999.gadi-pbs/Gau-663286.chk"
 B after Tr=     0.000000   -0.000000   -0.000000
         Rot=    0.999886    0.008552    0.004032    0.011741 Ang=   1.73 deg.
 B after Tr=    -0.000000   -0.000000    0.000000
         Rot=    0.999226    0.029447    0.000585   -0.026091 Ang=   4.51 deg.
 Requested convergence on RMS density matrix=1.00D-08 within 128 cycles.
 Requested convergence on MAX density matrix=1.00D-06.
 Requested convergence on             energy=1.00D-06.
 No special actions if energy rises.
 Inv3:  Mode=1 IEnd=    10101675.
 Iteration    1 A*A^-1 deviation from unit magnitude is 5.77D-15 for   1834.
 Iteration    1 A*A^-1 deviation from orthogonality  is 2.04D-15 for   1816    243.
 Iteration    1 A^-1*A deviation from unit magnitude is 5.55D-15 for   1834.
 Iteration    1 A^-1*A deviation from orthogonality  is 1.85D-15 for   1830    672.
 Error on total polarization charges =  0.02203
 SCF Done:  E(RM062X) =  -2214.66581031     A.U. after   15 cycles
            NFock= 15  Conv=0.79D-08     -V/T= 2.0040
 SMD-CDS (non-electrostatic) energy       (kcal/mol) =       3.66
 (included in total energy above)
 D1PCM: PCM CHGder 1st derivatives, ID1Alg=3 FixD1E=F DoIter=F DoCFld=F I1PDM=0.
 Calling FoFJK, ICntrl=      2127 FMM=F ISym2X=0 I1Cent= 0 IOpClX= 0 NMat=1 NMatS=1 NMatT=0.
 ***** Axes restored to original set *****
 -------------------------------------------------------------------
 Center     Atomic                   Forces (Hartrees/Bohr)
 Number     Number              X              Y              Z
 -------------------------------------------------------------------
      1        6           0.005744989   -0.000535114   -0.004282380
      2        6           0.000845232   -0.001221592    0.000626143
      3       17           0.001989293    0.002092539    0.007550335
      4        6          -0.000978457    0.000517342    0.000646883
      5        1           0.000035436   -0.000029409    0.000284762
      6        6           0.000865522    0.000244672   -0.001729916
      7       17           0.000015810    0.000116009   -0.000095402
      8        6          -0.001058756    0.000215263   -0.001255080
      9        1          -0.000161002   -0.000027883    0.000187892
     10        6          -0.003688363    0.001501681    0.001587535
     11       17          -0.003784784    0.001266620    0.011955021
     12       16           0.001967800   -0.000913781    0.003574492
     13        8          -0.009243681    0.002177527   -0.006454264
     14        8           0.000814479   -0.001687205   -0.002456384
     15        7           0.002685718    0.000215231   -0.010662178
     16        1          -0.000455477    0.000038818    0.000438184
     17        1           0.004406240   -0.003970717    0.000084358
 -------------------------------------------------------------------
[...]
 7928596\C,-2.4483261346,1.1187238397,-3.020281718\H,-3.364545368,1.360
 9114793,-3.5475704136\C,-1.2552242164,0.9635083501,-3.7059570948\Cl,-1
 .2336819531,1.1706887749,-5.4275640117\C,-0.0774629384,0.6407063167,-3
 .0469116892\H,0.8535555032,0.5124338973,-3.5880603299\C,-0.1147260549,
 0.480872679,-1.6695628169\Cl,1.4064814507,0.0725695951,-0.9265358941\S
 ,-1.2296869341,0.4242061009,0.8740823923\O,-2.5311372441,0.7410642736,
 1.4380561363\O,-0.6493444897,-0.8904533285,1.1175940679\N,-0.197880977
 3,1.5395597966,1.4906988879\H,-0.5182964814,2.498697309,1.3453230997\H
 ,0.7769308519,1.4143786037,1.2192474601\\Version=ES64L-G16RevC.01\Stat
 e=1-A\HF=-2214.6719664\RMSD=3.117e-09\RMSF=1.064e-05\ZeroPoint=0.09963
 69\Thermal=0.1119894\ETot=-2214.559977\HTot=-2214.5590328\GTot=-2214.6
 123477\Dipole=1.3403098,1.9432978,-2.0734175\DipoleDeriv=-0.6898087,0.
 0385481,-0.0004413,0.046397,-0.3311803,0.0188272,-0.003848,0.0398849,-
 0.8163863,1.250133,-0.1851237,-0.1053562,-0.1351395,0.0597543,-0.07287
 32,-0.7243818,0.0607814,0.5023669,-0.8885841,0.1115182,0.3387734,0.111
 3573,-0.0658752,-0.0420239,0.2891247,-0.0359714,-0.1337907,-0.4016425,
 0.0320524,0.1861597,0.0067331,-0.1104217,0.0396453,0.4326344,-0.018269
 2,-0.674169,0.1219769,0.0158927,0.0052754,0.0118887,0.199815,0.0153126
 ,-0.0023907,0.0105056,0.1095288,0.5175363,-0.0951498,-0.0106123,-0.097
 0824,0.0821971,-0.2189845,-0.027025,-0.2038999,1.7837769,-0.1407823,0.
 0133801,0.0149627,0.017224,-0.0808202,0.1253841,0.0103012,0.1244127,-1
 .1589879,-0.3644047,0.072244,-0.1783681,0.0990335,-0.1451155,0.1103956
 ,-0.3939692,0.1482741,-0.6715049,0.1242444,0.0164347,-0.0011921,0.0158
 627,0.2004015,0.0156861,0.0033505,0.009309,0.1141109,1.0788756,-0.2475
 088,0.1092387,-0.2939842,0.1119267,-0.0885789,0.6351656,-0.2009439,0.5
 29402,-0.8122333,0.2150085,-0.3304941,0.1727451,-0.0822614,0.0350827,-
 0.3101357,0.0452959,-0.2708178,2.9359111,-0.0779993,0.026338,-0.038211
 3,3.0153091,0.0266625,-0.0863541,-0.0968956,3.6560171,-1.4091807,0.075
 1142,0.4517887,0.193259,-0.8188468,-0.0983062,0.3453269,-0.0215423,-1.
 3239392,-0.9045593,0.3323901,-0.1628341,0.2529445,-1.5614531,0.4412072
 ,-0.0658287,0.2314399,-1.207542,-1.0185192,-0.2640536,-0.3757246,-0.35
 14992,-1.0841407,-0.4124971,-0.1773661,-0.1397213,-1.3330464,0.2271911
 ,-0.0748052,-0.0528021,0.0267722,0.374531,0.1011396,-0.0193947,0.04898
 5,0.4282992,0.3738464,0.0220574,0.0852882,-0.0383004,0.2361802,0.00392
 1,0.0947908,-0.001645,0.4666823\Polar=211.411918,-19.9371527,122.02163
 47,-0.2550568,-10.6885173,233.7716753\Quadrupole=5.804155,1.2874959,-7
 .0916509,2.6338201,5.9612229,8.5496674\PG=C01 [X(C6H4Cl3N1O2S1)]\NImag
 =0\\0.60672804,-0.09944062,0.15678108,0.00054238,-0.04366980,0.5217461
 7,-0.23612640,0.04851993,-0.10575137,0.52563795,0.04177476,-0.06651609
 ,0.03288932,-0.08057433,0.14824010,-0.05517405,0.02208857,-0.16573748,
 0.03490595,-0.06269594,0.59707355,-0.02947878,0.00464248,0.01203447,-0
 .14983075,0.01633109,0.05389734,0.20881028,0.00680804,0.00153059,-0.00
 302508,0.01649854,-0.02725198,-0.00556384,-0.02660172,0.01393414,-0.00
 451164,0.00035624,0.00889619,0.05154332,-0.00466159,-0.06384083,-0.076
 94596,0.00470009,0.09896070,0.03520443,-0.00352298,-0.02102577,-0.1075
 9252,0.01447459,-0.04909348,-0.02415844,0.00069461,0.04170223,0.749915
 84,0.00368606,0.00599156,0.00785566,0.00564235,-0.06962487,0.04147035,
 0.00316900,0.00688464,-0.00419382,-0.12445123,0.15803428,-0.07755780,0
 .01957638,-0.02301711,0.02677276,0.02581150,-0.32758890,0.02045906,0.0
 0010635,-0.02368387,0.01485968,-0.07135804,0.69121469,0.00083988,0.000
 69092,0.00078751,0.00436134,-0.00067215,0.00377589,0.00101043,-0.00099
 807,0.00207365,-0.27234616,0.06106427,-0.12497174,0.28423700,0.0007926
 7,0.00456536,0.00098023,0.00250121,0.00269928,0.00082891,-0.00052520,-
 0.00245231,-0.00070264,0.06062973,-0.05241730,0.03548160,-0.06605712,0
 .04233146,0.00118537,0.00076228,-0.00438135,-0.02387232,0.00659757,-0.
 01263561,-0.00167409,0.00000535,-0.00107243,-0.12383386,0.03500001,-0.
 12549633,0.12775598,-0.03793493,0.13378556,-0.07809918,0.01545479,0.00
 237630,0.03418214,-0.01782723,0.09734338,0.00648077,0.00054752,-0.0051
 2519,-0.30678802,0.04145577,0.05807041,-0.01630970,0.00244700,0.015414
 73,0.67213434,0.01512441,-0.00570816,-0.00149062,-0.00886304,0.0089445
 2,-0.01520433,-0.00027108,0.00474592,0.00191255,0.03308170,-0.06768209
 ,0.00048099,0.00543091,0.00300609,-0.00382990,-0.10944978,0.15239216,0
 .00070527,-0.00086984,0.00411963,0.02510533,-0.00069852,-0.02962726,-0
 .00130706,0.00103353,-0.00202966,0.13272610,-0.01417987,-0.16172821,-0
 .01263313,0.00156372,0.01063520,-0.01385129,-0.04787740,0.53162510,0.0
 0169961,-0.00049034,0.00004631,-0.00301292,0.00176782,-0.00124136,-0.0
 0063306,-0.00003847,0.00085017,0.00317910,-0.00291791,0.02750292,0.000
 41867,-0.00061976,0.00109973,-0.03865847,0.00254453,0.00204127,0.03580
 929,-0.00052511,-0.00058277,0.00063188,0.00125041,0.00479139,0.0001665
 2,-0.00006746,-0.00022505,-0.00004036,0.00001940,0.00516787,0.00014708
 ,-0.00043888,-0.00266144,-0.00065422,0.00250664,-0.02818908,0.01840038
 ,-0.00480349,0.01664085,0.00013591,0.00053776,-0.00608647,0.00271998,-
 0.00068181,0.00560817,0.00162062,-0.00016726,-0.00145040,0.00320549,0.
 00501717,-0.04018153,-0.00077261,-0.00022884,0.00079751,0.00199910,0.0
 1840357,-0.17630211,-0.00370387,-0.02893509,0.24961615,0.03365337,-0.0
 0769251,0.01966543,-0.01582339,0.00700359,-0.03253537,-0.00364677,0.00
 010435,0.00242602,-0.05097263,0.00890944,0.02479170,-0.00227081,0.0011
 1416,0.00335397,-0.29843795,0.06353270,-0.12208186,0.00377493,0.000563
 86,-0.00171389,0.74587743,-0.01429399,0.01065362,-0.00034831,0.0068819
 0,-0.00470445,0.01399590,0.00068758,-0.00087245,-0.00089324,0.01515637
 ,0.00653387,-0.01251407,0.00117366,0.00552959,0.00020998,0.05486124,-0
 .07691338,0.03653196,0.00346698,0.00338977,0.00589498,-0.12261140,0.15
 663091,0.07770477,-0.01176678,-0.02733678,-0.03293480,0.01391366,-0.06
 302078,-0.00069657,-0.00034585,0.00199470,-0.02610888,-0.00220845,0.07
 257045,0.00328744,0.00010650,-0.00172156,-0.04745862,0.02119854,-0.155
 38957,-0.02617941,0.01085618,-0.03926504,-0.04997583,-0.06022249,0.704
 11957,0.00096191,0.00100508,-0.00060069,0.00009937,-0.00013431,-0.0009
 4000,0.00008241,-0.00008331,0.00006915,-0.00201696,0.00195387,-0.00295
 733,-0.00051247,0.00002676,0.00064913,-0.01600945,0.00251254,0.0127654
 4,0.00088561,-0.00069151,0.00091183,-0.27884148,0.03454093,0.13109282,
 0.28951636,0.00092554,0.00505041,0.00128585,-0.00011527,-0.00097576,0.
 00024754,-0.00005013,-0.00027650,-0.00005920,0.00195288,0.00499975,0.0
 0150079,0.00020555,0.00004727,-0.00023295,0.00578199,0.00276382,-0.003
 61043,-0.00043930,-0.00208154,-0.00067711,0.03475596,-0.04178660,-0.01
 572898,-0.03873299,0.03077740,-0.00103556,0.00131566,-0.00429016,-0.00
 067796,0.00015064,-0.00083801,-0.00006424,-0.00004519,0.00016678,-0.00
 298863,0.00146166,-0.00162728,-0.00066642,0.00003863,0.00071648,-0.015
 06363,0.00227574,0.01077661,-0.00089385,-0.00027293,0.00134319,0.13003
 222,-0.01561273,-0.13032746,-0.13558406,0.01458841,0.13630907,-0.23324
 668,0.02336754,0.11247732,-0.05670309,0.01713945,-0.03537487,0.0000292
 2,0.00064035,0.00036360,-0.01935153,-0.00062229,0.03514510,0.00011380,
 -0.00038527,0.00062678,0.03850105,-0.00376633,-0.02458420,-0.00311018,
 0.00204567,-0.00271793,-0.10952881,0.01127197,-0.01419493,0.00394515,-
 0.00310539,0.02449669,0.51018379,0.03081643,-0.06256335,-0.01018772,0.
 00842534,0.00462510,-0.00148880,0.00073171,0.00358791,0.00079257,-0.00
 065990,-0.00144191,0.00046250,-0.00036374,-0.00107473,-0.00015041,0.00
 469233,0.00204422,0.00896486,0.00150149,0.00449508,0.00052597,0.002621
 04,-0.06516080,0.03736746,0.00021506,0.00356213,-0.00316336,-0.0743868
 6,0.14146591,0.05777713,0.00059747,-0.16496959,0.03268555,-0.01537041,
 0.07671422,-0.00233497,0.00150198,-0.00374937,0.03453362,0.00053997,-0
 .06403625,0.00101164,-0.00000758,-0.00086411,-0.09727076,0.02372208,-0
 .02818290,0.00132354,-0.00032214,0.00529766,0.06219298,0.02195878,-0.3
 4394746,-0.00326761,0.00244059,-0.01257850,-0.05939999,-0.04675320,0.6
 2462546,-0.03065069,0.00881710,-0.01337785,-0.00054294,0.00059424,0.00
 266568,-0.00210683,0.00047340,-0.00036801,-0.00316664,0.00030895,0.000
 81064,0.00006797,-0.00006525,0.00005511,0.00619369,-0.00040565,0.00120
 869,-0.00055268,0.00023941,-0.00150692,-0.02003771,0.00765925,-0.01767
 659,0.00146845,-0.00099043,0.00138552,-0.13692091,0.02989456,-0.048226
 56,0.19430037,0.00602925,0.00084077,0.00202232,0.00099399,0.00346123,0
 .00030986,0.00039920,0.00017609,0.00009084,0.00063560,-0.00118572,-0.0
 0067022,-0.00003931,-0.00016733,-0.00005102,-0.00088046,0.00538633,0.0
 0076838,0.00015116,-0.00027343,0.00035320,0.01004304,0.00275121,0.0070
 7487,-0.00069090,-0.00251325,-0.00056060,0.03104872,-0.03166264,0.0148
 3143,-0.04688837,0.02821586,0.00421476,-0.00173689,0.00821883,0.000157
 40,0.00097225,-0.00345915,0.00018856,-0.00003608,0.00028904,-0.0025101
 8,0.00014570,0.00186462,-0.00008283,-0.00005024,0.00018175,0.00558674,
 -0.00021527,-0.00227435,-0.00088307,0.00034825,-0.00157431,-0.04035934
 ,0.01178522,-0.02288064,-0.00185180,0.00012323,0.00046464,-0.04666814,
 0.01407141,-0.06264511,0.06920723,-0.02250054,0.09567638,-0.07309547,0
 .00405548,-0.00348241,0.00893868,0.00038316,-0.02256327,-0.00177509,0.
 00010519,0.00266969,-0.00345119,0.00214571,-0.00183438,0.00017540,0.00
 019146,-0.00085627,-0.00277513,0.00048562,-0.00057491,0.00004811,-0.00
 016630,0.00030909,-0.00445388,0.00178830,0.00339193,0.00029228,-0.0001
 2800,0.00126409,0.01183046,-0.00571687,0.02570561,-0.00369694,0.000450
 91,-0.00056479,0.85576215,0.00388342,-0.05287220,0.01145649,0.00121207
 ,-0.00269527,0.00531378,-0.00044444,-0.00148548,-0.00048299,0.00150241
 ,0.00527179,0.00031915,0.00011583,0.00047034,0.00004900,0.00048844,-0.
 00087494,0.00086299,-0.00008388,-0.00038464,-0.00093937,0.00187010,0.0
 0434065,-0.00098646,0.00006186,0.00058073,-0.00032386,-0.00599545,0.00
 083330,-0.00390243,-0.00006738,-0.00360894,0.00250063,-0.19923697,0.78
 474148,-0.00379931,0.00805601,-0.13375736,-0.02916672,0.00680905,-0.00
 904958,0.00566882,-0.00080423,-0.00769915,0.00037902,-0.00008984,0.006
 29397,0.00005358,-0.00014345,0.00121296,-0.00079810,0.00096381,-0.0066
 6413,-0.00010482,-0.00087735,0.00722425,0.00086524,-0.00036752,0.00778
 391,0.00002465,-0.00010980,0.00106666,0.02745169,-0.00437039,-0.017782
 05,-0.00522031,0.00189767,-0.00592295,-0.10118771,0.00269298,0.4728597
 7,-0.00679535,0.00347462,-0.00101205,-0.00714508,0.00071101,0.00441458
 ,-0.00347220,0.00156861,-0.01306797,0.00144233,-0.00032169,-0.00016397
 ,0.00006699,-0.00006984,0.00038372,-0.00047300,0.00023082,-0.00090168,
 0.00006576,-0.00010808,0.00090567,-0.00079814,-0.00007845,0.00093795,0
 .00018282,-0.00013254,0.00040504,0.00349532,-0.00075254,0.00265818,-0.
 00032769,-0.00026830,0.00052783,-0.47270952,0.10261053,0.17060239,0.54
 011531,0.00035036,0.00666844,0.00140738,0.00151485,-0.00023031,-0.0012
 9475,0.00118244,0.00191443,0.00308274,-0.00047516,-0.00055328,-0.00009
 695,-0.00001509,-0.00000080,-0.00009792,0.00004237,0.00012018,0.000154
 84,-0.00000062,0.00007257,-0.00011883,-0.00009893,-0.00064322,-0.00016
 973,-0.00005861,-0.00015699,-0.00006303,-0.00010070,0.00150210,0.00015
 614,0.00042628,0.00061426,-0.00055856,0.09631456,-0.09772115,-0.041208
 92,-0.10951028,0.08534237,0.03066297,-0.00615294,-0.00312489,0.0032040
 1,-0.00070175,0.00293338,-0.00810141,0.00222682,-0.00909760,-0.0002739
 3,-0.00004422,-0.00093289,0.00010780,-0.00000160,-0.00016296,0.0003562
 6,-0.00030194,0.00197396,-0.00001201,0.00020487,-0.00172331,0.00293113
 ,-0.00045424,-0.00165060,-0.00024521,0.00017789,-0.00081532,-0.0086234
 5,0.00257974,-0.00772864,0.00115412,-0.00019444,0.00096159,0.18260928,
 -0.04414502,-0.15185231,-0.19087375,0.04667107,0.14720461,0.00646740,0
 .00801438,-0.00087839,0.00192859,-0.00000858,0.00017463,-0.00054794,0.
 00008603,-0.00069071,0.00003374,-0.00059985,-0.00056519,0.00006702,-0.
 00002893,-0.00016016,-0.00000156,-0.00002892,0.00069206,0.00006514,0.0
 0015908,-0.00068074,0.00086326,-0.00080099,-0.00056216,-0.00001260,-0.
 00002730,-0.00034927,-0.00557848,0.00246173,-0.00402260,-0.00401149,-0
 .00312468,0.00761428,-0.15261638,0.17366626,-0.03104831,-0.00981513,0.
 03717233,-0.00224741,0.15103809,0.00905218,-0.00788837,-0.00197823,-0.
 00570362,-0.00038976,0.00388781,0.00110897,-0.00032360,0.00045632,0.00
 169913,0.00007051,0.00107453,-0.00018870,0.00008247,0.00052021,-0.0000
 0970,0.00007718,-0.00146920,-0.00007018,-0.00019263,0.00131264,-0.0007
 0986,0.00037044,0.00109675,0.00007308,-0.00002720,0.00029955,0.0045497
 6,-0.00084137,0.00103460,-0.00208258,0.00058939,-0.00048631,0.17740511
 ,-0.46287545,0.06599051,0.00449018,-0.00624208,0.00582810,-0.19940852,
 0.51892893,-0.01292943,0.02456520,-0.00367913,0.00875223,0.00099765,-0
 .00327628,-0.00148582,0.00070405,0.00139693,-0.00133919,-0.00114775,-0
 .00210263,0.00009811,-0.00019389,-0.00056230,-0.00062875,0.00016496,0.
 00176467,0.00008367,0.00028377,-0.00184931,-0.00016436,-0.00064103,-0.
 00080659,-0.00008147,-0.00001520,-0.00019437,-0.00389578,0.00058667,0.
 00109737,0.00564624,0.00188048,-0.00361055,-0.03677643,0.08221108,-0.0
 8660318,0.01227213,-0.01202188,0.01453262,0.03228528,-0.08132874,0.075
 06259,0.00095987,-0.00803655,-0.00190373,0.00217619,-0.00121628,-0.000
 36889,-0.00091704,0.00013167,-0.00093308,0.00010560,0.00081395,-0.0005
 5403,0.00009899,0.00006646,-0.00017344,-0.00009077,-0.00027847,0.00085
 426,0.00004221,0.00004177,-0.00090548,0.00083692,0.00038372,-0.0006643
 2,-0.00005394,0.00010489,-0.00027238,-0.00383743,0.00093975,-0.0023397
 3,0.00078788,0.00011295,0.00197747,-0.15236189,-0.05482547,-0.04241638
 ,-0.04353175,-0.02775621,-0.00988942,0.01211312,0.01501455,0.00053193,
 0.68564419,-0.00638269,0.00322289,0.00136668,0.00261533,-0.00076525,-0
 .00217538,-0.00063322,0.00011117,-0.00015827,-0.00083394,0.00015769,-0
 .00048354,0.00010482,0.00005164,-0.00023552,-0.00000461,-0.00012216,0.
 00071101,0.,0.00005534,-0.00070041,0.00008693,0.00021833,-0.00055951,-
 0.00001964,0.00002200,-0.00005179,-0.00096217,0.00003638,0.00052800,0.
 00122884,-0.00095938,-0.00240990,-0.05964315,-0.15607461,-0.05335013,0
 .00414994,0.00864920,-0.00319231,-0.01886602,-0.04100302,-0.01401375,-
 0.08089664,0.64151445,-0.01870891,-0.01425099,-0.00609986,0.00711869,-
 0.00381456,-0.00317656,-0.00161352,-0.00024586,0.00089801,-0.00029320,
 0.00189300,-0.00180704,0.00019606,0.00028211,-0.00043631,-0.00089990,-
 0.00023704,0.00166075,0.00004418,0.00012416,-0.00189335,-0.00003291,0.
 00083064,-0.00047829,-0.00000658,0.00004662,-0.00011714,-0.00345050,0.
 00076814,0.00051246,0.00206931,-0.00243711,-0.00271801,-0.02548957,-0.
 03151228,-0.06772071,0.01382798,0.00537684,0.00700259,0.00051220,0.005
 10273,0.00708239,-0.04993275,0.01545856,0.12363774,-0.00070430,0.00061
 213,0.00011243,0.00027211,-0.00012674,-0.00031990,-0.00003982,0.000050
 99,0.00002687,-0.00006761,0.00001512,-0.00003035,0.00000481,-0.0000035
 1,-0.00002611,-0.00001808,-0.00002585,0.00003514,-0.00000339,0.0000038
 3,-0.00005269,0.00008240,0.00005339,0.00003088,0.00000632,0.00000722,-
 0.00001557,-0.00038174,-0.00012056,-0.00007487,-0.00011088,0.00021453,
 0.00040631,0.01079897,-0.02023177,0.00506397,-0.00124112,0.00192628,-0
 .00033370,-0.00172882,-0.00799635,-0.00210385,-0.10305570,0.10995123,-
 0.01926306,0.09956963,0.00066592,0.00169463,0.00075192,-0.00083980,0.0
 0038229,0.00004008,0.00028819,-0.00001899,-0.00000144,-0.00004587,-0.0
 0022931,0.00020818,-0.00001692,-0.00001432,0.00004987,0.00005074,0.000
 02480,-0.00025583,0.00000211,-0.00002300,0.00033254,-0.00000268,-0.000
 15738,0.00013973,0.00001376,-0.00001311,0.00003734,0.00064593,0.000088
 12,-0.00005779,-0.00014829,-0.00010276,0.00000712,0.00223650,-0.025512
 24,0.00335576,0.00201515,0.00333191,-0.00073249,-0.00136282,0.00000303
 ,-0.00105737,0.11507099,-0.38658971,0.04340497,-0.11664310,0.40483103,
 -0.00049949,0.00135561,0.00019517,-0.00036284,0.00029408,-0.00022431,0
 .00016187,0.00003187,-0.00000725,-0.00022552,-0.00013069,0.00010870,0.
 00000033,-0.00001047,-0.00000363,0.00005352,0.00005652,-0.00012275,-0.
 00001014,-0.00002562,0.00020383,0.00001658,-0.00007210,0.00005400,0.00
 000560,-0.00000314,0.00002835,0.00063401,-0.00000042,0.00026516,0.0002
 1574,-0.00033410,-0.00062271,-0.00235353,-0.02058176,-0.00675809,0.001
 53639,0.00073618,-0.00103058,-0.00114794,-0.00338493,0.00334373,-0.024
 77444,0.08012351,-0.01608275,0.02365566,-0.04839553,0.02245337,0.00168
 234,0.00052857,-0.00000990,-0.00081927,0.00037990,0.00043375,0.0001936
 1,0.00001229,-0.00008215,0.00003067,-0.00025152,0.00022251,-0.00002317
 ,-0.00001457,0.00007174,0.00016932,0.00014587,-0.00019943,-0.00001772,
 -0.00002925,0.00024645,-0.00027673,-0.00014045,0.00000633,0.00000621,-
 0.00001268,0.00002802,0.00056005,-0.00029894,-0.00095117,-0.00069296,0
 .00181264,0.00303956,-0.02091054,-0.00452558,0.00363228,0.00094046,-0.
 00091387,-0.00042528,0.00173604,0.00277655,-0.00026451,-0.39891644,0.0
 5010501,0.09592248,-0.00338278,-0.00192982,0.00309422,0.41972093,0.000
 73335,-0.00086840,0.00005205,0.00004014,0.00000982,0.00007372,0.000052
 57,0.00002146,-0.00019781,0.00014266,0.00002254,-0.00004625,0.00000404
 ,0.00000472,-0.00000740,-0.00015706,-0.00001542,-0.00003057,0.00002987
 ,0.00000072,0.00007090,0.00051020,-0.00018011,0.00023458,0.00000833,0.
 00002743,-0.00007414,-0.00138492,0.00050456,-0.00089748,0.00100590,-0.
 00156169,-0.00196001,-0.02067071,0.00786663,0.01155584,-0.00800913,-0.
 00266764,-0.00176755,0.00269682,-0.00033847,-0.00097427,0.04032892,-0.
 06852496,-0.02078992,0.03231316,0.00230502,-0.00965900,-0.04764414,0.0
 6339380,0.00128762,-0.00076394,-0.00069580,-0.00019919,0.00018887,0.00
 014544,0.00019292,-0.00007665,0.00002824,0.00028650,-0.00003084,0.0001
 4961,-0.00002127,-0.00000806,0.00000714,-0.00010421,-0.00002226,-0.000
 23498,0.00003672,-0.00003537,0.00023508,0.00058830,-0.00008172,0.00030
 217,0.00001615,0.00002588,-0.00008352,-0.00228540,-0.00000500,-0.00202
 833,0.00195794,-0.00248103,-0.00194905,-0.02026641,-0.00253192,-0.0026
 3201,-0.00245243,-0.00195463,0.00351036,0.00107443,0.00204369,-0.00159
 598,0.13176440,-0.02085724,-0.04026390,-0.00711116,0.00217293,-0.00180
 022,-0.10476491,0.02441728,0.04690578\\-0.00001656,0.00000557,-0.00000
 392,0.00001653,-0.00001018,-0.00000345,-0.00000660,-0.00000903,-0.0000
 1250,0.00001159,-0.00000093,-0.00001684,0.00000968,-0.00000210,-0.0000
 0877,0.00000281,0.00000904,-0.00000478,0.00002189,0.00000456,0.0000019
 7,0.00001314,0.00000373,0.00001594,0.00001193,0.00000799,0.00000753,0.
 00000997,0.00000035,-0.00000041,0.00000223,0.00000688,0.00000927,-0.00
 000483,-0.00002756,0.00000198,-0.00001462,-0.00000891,-0.00000892,-0.0
 0001697,0.00001353,-0.00000509,-0.00000803,0.00000687,0.00001568,-0.00
 001734,-0.00000224,0.00000401,-0.00001485,0.00000242,0.00000832\\\@
 The archive entry for this job was punched.


 THE ENLIGHTENED ONE, BECAUSE HE SAW MANKIND DROWNING  
 IN THE GREAT SEA OF BIRTH, DEATH, AND SORROW, LONGED TO SAVE 
 THEM, FOR THIS HE WAS MOVED TO PITY.                         
 BECAUSE HE SAW MEN OF THE WORLD STRAYING IN FALSE PATHS, AND 
 NONE TO GUIDE THEM, FOR THIS HE WAS MOVED TO PITY.           
                     ..................                       
 BECAUSE HE SAW THE MEN OF THE WORLD PLOUGHING THEIR FIELDS,  
 SOWING THE SEED, TRAFFICKING, HUCKSTERING, BUYING, SELLING,  
 AND AT THE END WINNOWING NOTHING BUT BITTERNESS,             
 FOR THIS HE WAS MOVED TO PITY......                   
                   BUDAH'S PITY - UPSAKA SILA SUTRA           
 Job cpu time:       0 days  1 hours  4 minutes 17.2 seconds.
 Elapsed time:       0 days  0 hours  4 minutes 12.7 seconds.
 File lengths (MBytes):  RWF=    228 Int=      0 D2E=      0 Chk=     13 Scr=      1
 Normal termination of Gaussian 16 at Thu May 19 14:52:49 2022.
