 Entering Gaussian System, Link 0=g16
 AtFile(1): /home/561/yj5695/Basis/6-31pGd.gbs
 Initial command:
 /apps/gaussian/g16c01/g16/l1.exe "/jobfs/50071383.gadi-pbs/Gau-50067.inp" -scrdir="/jobfs/50071383.gadi-pbs/"
 Entering Link 1 = /apps/gaussian/g16c01/g16/l1.exe PID=     50072.
  
 Copyright (c) 1988-2019, Gaussian, Inc.  All Rights Reserved.
  
 This is part of the Gaussian(R) 16 program.  It is based on
 the Gaussian(R) 09 system (copyright 2009, Gaussian, Inc.),
 the Gaussian(R) 03 system (copyright 2003, Gaussian, Inc.),
 the Gaussian(R) 98 system (copyright 1998, Gaussian, Inc.),
 the Gaussian(R) 94 system (copyright 1995, Gaussian, Inc.),
 the Gaussian 92(TM) system (copyright 1992, Gaussian, Inc.),
 the Gaussian 90(TM) system (copyright 1990, Gaussian, Inc.),
 the Gaussian 88(TM) system (copyright 1988, Gaussian, Inc.),
 the Gaussian 86(TM) system (copyright 1986, Carnegie Mellon
 University), and the Gaussian 82(TM) system (copyright 1983,
 Carnegie Mellon University). Gaussian is a federally registered
 trademark of Gaussian, Inc.
  
 This software contains proprietary and confidential information,
 including trade secrets, belonging to Gaussian, Inc.
  
 This software is provided under written license and may be
 used, copied, transmitted, or stored only in accord with that
 written license.
  
 The following legend is applicable only to US Government
 contracts under FAR:
  
                    RESTRICTED RIGHTS LEGEND
  
 Use, reproduction and disclosure by the US Government is
 subject to restrictions as set forth in subparagraphs (a)
 and (c) of the Commercial Computer Software - Restricted
 Rights clause in FAR 52.227-19.
  
 Gaussian, Inc.
 340 Quinnipiac St., Bldg. 40, Wallingford CT 06492
  
  
 ---------------------------------------------------------------
 Warning -- This program may not be used in any manner that
 competes with the business of Gaussian, Inc. or will provide
 assistance to any competitor of Gaussian, Inc.  The licensee
 of this program is prohibited from giving any competitor of
 Gaussian, Inc. access to this program.  By using this program,
 the user acknowledges that Gaussian, Inc. is engaged in the
 business of creating and licensing software in the field of
 computational chemistry and represents and warrants to the
 licensee that it is not a competitor of Gaussian, Inc. and that
 it will not use this program in any manner prohibited above.
 ---------------------------------------------------------------
  

 Cite this work as:
 Gaussian 16, Revision C.01,
 M. J. Frisch, G. W. Trucks, H. B. Schlegel, G. E. Scuseria, 
 M. A. Robb, J. R. Cheeseman, G. Scalmani, V. Barone, 
 G. A. Petersson, H. Nakatsuji, X. Li, M. Caricato, A. V. Marenich, 
 J. Bloino, B. G. Janesko, R. Gomperts, B. Mennucci, H. P. Hratchian, 
 J. V. Ortiz, A. F. Izmaylov, J. L. Sonnenberg, D. Williams-Young, 
 F. Ding, F. Lipparini, F. Egidi, J. Goings, B. Peng, A. Petrone, 
 T. Henderson, D. Ranasinghe, V. G. Zakrzewski, J. Gao, N. Rega, 
 G. Zheng, W. Liang, M. Hada, M. Ehara, K. Toyota, R. Fukuda, 
 J. Hasegawa, M. Ishida, T. Nakajima, Y. Honda, O. Kitao, H. Nakai, 
 T. Vreven, K. Throssell, J. A. Montgomery, Jr., J. E. Peralta, 
 F. Ogliaro, M. J. Bearpark, J. J. Heyd, E. N. Brothers, K. N. Kudin, 
 V. N. Staroverov, T. A. Keith, R. Kobayashi, J. Normand, 
 K. Raghavachari, A. P. Rendell, J. C. Burant, S. S. Iyengar, 
 J. Tomasi, M. Cossi, J. M. Millam, M. Klene, C. Adamo, R. Cammi, 
 J. W. Ochterski, R. L. Martin, K. Morokuma, O. Farkas, 
 J. B. Foresman, and D. J. Fox, Gaussian, Inc., Wallingford CT, 2019.
 
 ******************************************
 Gaussian 16:  ES64L-G16RevC.01  3-Jul-2019
                 2-Jul-2022 
 ******************************************
 %nproc=16
 Will use up to   16 processors via shared memory.
 %mem=50gb
 -----------------------------------------------------
 #m062X/gen 6D OPT Freq=noraman SCRF=(SMD,Solvent=h2o)
 -----------------------------------------------------
 1/18=20,19=15,26=3,38=1/1,3;
 2/9=110,12=2,17=6,18=5,40=1/2;
 3/5=7,8=2,11=2,25=1,30=1,70=32201,71=1,72=1,74=-55/1,2,3;
 4//1;
 5/5=2,38=5,53=1/2;
 6/7=2,8=2,9=2,10=2,28=1/1;
 7//1,2,3,16;
 1/18=20,19=15,26=3/3(2);
 2/9=110/2;
 99//99;
 2/9=110/2;
 3/5=7,6=1,8=2,11=2,25=1,30=1,70=32205,71=1,72=1,74=-55,82=7/1,2,3;
 4/5=5,16=3,69=1/1;
 5/5=2,38=5,53=1/2;
 7//1,2,3,16;
 1/18=20,19=15,26=3/3(-5);
 2/9=110/2;
 6/7=2,8=2,9=2,10=2,19=2,28=1/1;
 99/9=1/99;
 --------------------
 HA.37.smd.a3c2d2.smd
 --------------------
 Symbolic Z-matrix:
 Charge =  0 Multiplicity = 1
 C                    -1.72771   0.91692  -1.10953 
 C                    -2.53324   1.56828  -2.05065 
 Cl                   -3.7487    2.71765  -1.57931 
 C                    -2.38716   1.28818  -3.40349 
 H                    -3.02443   1.78429  -4.12786 
 C                    -1.43139   0.36614  -3.82059 
 C                    -0.62466  -0.28539  -2.88674 
 C                    -0.78422  -0.014    -1.52783 
 S                    -1.8483    1.23218   0.6504 
 O                    -1.51577   2.64081   0.83961 
 O                    -3.13513   0.73095   1.12361 
 N                    -0.68524   0.37593   1.43428 
 H                     0.25823   0.62366   1.1286 
 H                    -0.83779  -0.63319   1.40758 
 H                    -0.16799  -0.52639  -0.79647 
 H                    -1.35458   0.14731  -4.88134 
 C                     0.3979   -1.31946  -3.25969 
 N                     0.61107  -2.28583  -2.34112 
 O                     0.97847  -1.27008  -4.34626 
 N                    -0.14263  -2.35594  -1.18186 
 C                    -1.08722  -3.50883  -1.14586 
 C                    -1.37596  -3.64745   0.35731 
 C                    -0.08886  -3.15669   0.97661 
 C                     0.60617  -2.40915   0.01998 
 C                    -2.29339  -3.27304  -2.0288 
 C                     1.82975  -1.8114    0.28966 
 C                     2.35805  -1.97499   1.57622 
 C                     1.67609  -2.71047   2.54665 
 C                     0.44197  -3.30631   2.24888 
 H                     1.30739  -3.01582  -2.49267 
 H                    -0.53429  -4.39947  -1.48615 
 H                    -1.63694  -4.67167   0.63363 
 H                    -2.21144  -2.99199   0.63893 
 H                    -1.99423  -3.12811  -3.07287 
 H                    -2.84565  -2.38847  -1.69493 
 H                    -2.96066  -4.13982  -1.98668 
 H                     2.35748  -1.24057  -0.46921 
 H                     3.31628  -1.52366   1.81729 
 H                     2.10691  -2.82827   3.53645 
 H                    -0.08579  -3.88642   3.00165 
 

 GradGradGradGradGradGradGradGradGradGradGradGradGradGradGradGradGradGrad
 Berny optimization.
 Initialization pass.
                           ----------------------------
                           !    Initial Parameters    !
                           ! (Angstroms and Degrees)  !
 --------------------------                            --------------------------
 ! Name  Definition              Value          Derivative Info.                !
 --------------------------------------------------------------------------------
 ! R1    R(1,2)                  1.3996         estimate D2E/DX2                !
 ! R2    R(1,8)                  1.3899         estimate D2E/DX2                !
 ! R3    R(1,9)                  1.792          estimate D2E/DX2                !
 ! R4    R(2,3)                  1.738          estimate D2E/DX2                !
 ! R5    R(2,4)                  1.3892         estimate D2E/DX2                !
 ! R6    R(4,5)                  1.0849         estimate D2E/DX2                !
 ! R7    R(4,6)                  1.392          estimate D2E/DX2                !
 ! R8    R(6,7)                  1.3955         estimate D2E/DX2                !
 ! R9    R(6,16)                 1.0858         estimate D2E/DX2                !
 ! R10   R(7,8)                  1.3949         estimate D2E/DX2                !
 ! R11   R(7,17)                 1.5013         estimate D2E/DX2                !
 ! R12   R(8,15)                 1.085          estimate D2E/DX2                !
 ! R13   R(9,10)                 1.4597         estimate D2E/DX2                !
 ! R14   R(9,11)                 1.4598         estimate D2E/DX2                !
 ! R15   R(9,12)                 1.6433         estimate D2E/DX2                !
 ! R16   R(12,13)                1.0222         estimate D2E/DX2                !
 ! R17   R(12,14)                1.0209         estimate D2E/DX2                !
 ! R18   R(17,18)                1.3502         estimate D2E/DX2                !
 ! R19   R(17,19)                1.2329         estimate D2E/DX2                !
 ! R20   R(18,20)                1.3845         estimate D2E/DX2                !
 ! R21   R(18,30)                1.0201         estimate D2E/DX2                !
 ! R22   R(20,21)                1.4909         estimate D2E/DX2                !
 ! R23   R(20,24)                1.417          estimate D2E/DX2                !
 ! R24   R(21,22)                1.5369         estimate D2E/DX2                !
 ! R25   R(21,25)                1.5133         estimate D2E/DX2                !
 ! R26   R(21,31)                1.1022         estimate D2E/DX2                !
 ! R27   R(22,23)                1.5103         estimate D2E/DX2                !
 ! R28   R(22,32)                1.0925         estimate D2E/DX2                !
 ! R29   R(22,33)                1.0986         estimate D2E/DX2                !
 ! R30   R(23,24)                1.3989         estimate D2E/DX2                !
 ! R31   R(23,29)                1.3867         estimate D2E/DX2                !
 ! R32   R(24,26)                1.3882         estimate D2E/DX2                !
 ! R33   R(25,34)                1.0957         estimate D2E/DX2                !
 ! R34   R(25,35)                1.095          estimate D2E/DX2                !
 ! R35   R(25,36)                1.0947         estimate D2E/DX2                !
 ! R36   R(26,27)                1.4004         estimate D2E/DX2                !
 ! R37   R(26,37)                1.0864         estimate D2E/DX2                !
 ! R38   R(27,28)                1.3956         estimate D2E/DX2                !
 ! R39   R(27,38)                1.0863         estimate D2E/DX2                !
 ! R40   R(28,29)                1.4024         estimate D2E/DX2                !
 ! R41   R(28,39)                1.0859         estimate D2E/DX2                !
 ! R42   R(29,40)                1.0871         estimate D2E/DX2                !
 ! A1    A(2,1,8)              120.0026         estimate D2E/DX2                !
 ! A2    A(2,1,9)              122.6688         estimate D2E/DX2                !
 ! A3    A(8,1,9)              117.3282         estimate D2E/DX2                !
 ! A4    A(1,2,3)              121.8654         estimate D2E/DX2                !
 ! A5    A(1,2,4)              120.0301         estimate D2E/DX2                !
 ! A6    A(3,2,4)              118.0975         estimate D2E/DX2                !
 ! A7    A(2,4,5)              119.7514         estimate D2E/DX2                !
 ! A8    A(2,4,6)              119.8377         estimate D2E/DX2                !
 ! A9    A(5,4,6)              120.4092         estimate D2E/DX2                !
 ! A10   A(4,6,7)              120.3763         estimate D2E/DX2                !
 ! A11   A(4,6,16)             118.3458         estimate D2E/DX2                !
 ! A12   A(7,6,16)             121.2495         estimate D2E/DX2                !
 ! A13   A(6,7,8)              119.6677         estimate D2E/DX2                !
 ! A14   A(6,7,17)             123.3038         estimate D2E/DX2                !
 ! A15   A(8,7,17)             116.9951         estimate D2E/DX2                !
 ! A16   A(1,8,7)              120.0764         estimate D2E/DX2                !
 ! A17   A(1,8,15)             119.9335         estimate D2E/DX2                !
 ! A18   A(7,8,15)             119.9894         estimate D2E/DX2                !
 ! A19   A(1,9,10)             106.3646         estimate D2E/DX2                !
 ! A20   A(1,9,11)             108.4977         estimate D2E/DX2                !
 ! A21   A(1,9,12)             109.2192         estimate D2E/DX2                !
 ! A22   A(10,9,11)            119.3497         estimate D2E/DX2                !
 ! A23   A(10,9,12)            106.2466         estimate D2E/DX2                !
 ! A24   A(11,9,12)            106.8802         estimate D2E/DX2                !
 ! A25   A(9,12,13)            112.6021         estimate D2E/DX2                !
 ! A26   A(9,12,14)            113.3785         estimate D2E/DX2                !
 ! A27   A(13,12,14)           111.6928         estimate D2E/DX2                !
 ! A28   A(7,17,18)            115.5626         estimate D2E/DX2                !
 ! A29   A(7,17,19)            120.8008         estimate D2E/DX2                !
 ! A30   A(18,17,19)           123.6328         estimate D2E/DX2                !
 ! A31   A(17,18,20)           121.327          estimate D2E/DX2                !
 ! A32   A(17,18,30)           121.2546         estimate D2E/DX2                !
 ! A33   A(20,18,30)           117.3698         estimate D2E/DX2                !
 ! A34   A(18,20,21)           113.8464         estimate D2E/DX2                !
 ! A35   A(18,20,24)           115.1121         estimate D2E/DX2                !
 ! A36   A(21,20,24)           106.576          estimate D2E/DX2                !
 ! A37   A(20,21,22)           102.2625         estimate D2E/DX2                !
 ! A38   A(20,21,25)           111.7414         estimate D2E/DX2                !
 ! A39   A(20,21,31)           107.4325         estimate D2E/DX2                !
 ! A40   A(22,21,25)           115.7825         estimate D2E/DX2                !
 ! A41   A(22,21,31)           108.8652         estimate D2E/DX2                !
 ! A42   A(25,21,31)           110.2203         estimate D2E/DX2                !
 ! A43   A(21,22,23)           102.2179         estimate D2E/DX2                !
 ! A44   A(21,22,32)           112.1359         estimate D2E/DX2                !
 ! A45   A(21,22,33)           109.863          estimate D2E/DX2                !
 ! A46   A(23,22,32)           113.8607         estimate D2E/DX2                !
 ! A47   A(23,22,33)           110.4334         estimate D2E/DX2                !
 ! A48   A(32,22,33)           108.2311         estimate D2E/DX2                !
 ! A49   A(22,23,24)           108.4596         estimate D2E/DX2                !
 ! A50   A(22,23,29)           131.8666         estimate D2E/DX2                !
 ! A51   A(24,23,29)           119.6619         estimate D2E/DX2                !
 ! A52   A(20,24,23)           109.7255         estimate D2E/DX2                !
 ! A53   A(20,24,26)           127.9046         estimate D2E/DX2                !
 ! A54   A(23,24,26)           122.354          estimate D2E/DX2                !
 ! A55   A(21,25,34)           111.0359         estimate D2E/DX2                !
 ! A56   A(21,25,35)           110.4856         estimate D2E/DX2                !
 ! A57   A(21,25,36)           109.8778         estimate D2E/DX2                !
 ! A58   A(34,25,35)           108.7476         estimate D2E/DX2                !
 ! A59   A(34,25,36)           107.9286         estimate D2E/DX2                !
 ! A60   A(35,25,36)           108.6932         estimate D2E/DX2                !
 ! A61   A(24,26,27)           117.4305         estimate D2E/DX2                !
 ! A62   A(24,26,37)           121.2451         estimate D2E/DX2                !
 ! A63   A(27,26,37)           121.3243         estimate D2E/DX2                !
 ! A64   A(26,27,28)           121.0674         estimate D2E/DX2                !
 ! A65   A(26,27,38)           119.2172         estimate D2E/DX2                !
 ! A66   A(28,27,38)           119.715          estimate D2E/DX2                !
 ! A67   A(27,28,29)           120.4157         estimate D2E/DX2                !
 ! A68   A(27,28,39)           119.8088         estimate D2E/DX2                !
 ! A69   A(29,28,39)           119.774          estimate D2E/DX2                !
 ! A70   A(23,29,28)           119.0679         estimate D2E/DX2                !
 ! A71   A(23,29,40)           120.4693         estimate D2E/DX2                !
 ! A72   A(28,29,40)           120.4595         estimate D2E/DX2                !
 ! D1    D(8,1,2,3)            178.802          estimate D2E/DX2                !
 ! D2    D(8,1,2,4)             -0.2202         estimate D2E/DX2                !
 ! D3    D(9,1,2,3)             -1.4115         estimate D2E/DX2                !
 ! D4    D(9,1,2,4)            179.5663         estimate D2E/DX2                !
 ! D5    D(2,1,8,7)              0.9791         estimate D2E/DX2                !
 ! D6    D(2,1,8,15)          -179.3193         estimate D2E/DX2                !
 ! D7    D(9,1,8,7)           -178.8186         estimate D2E/DX2                !
 ! D8    D(9,1,8,15)             0.883          estimate D2E/DX2                !
 ! D9    D(2,1,9,10)           -61.6996         estimate D2E/DX2                !
 ! D10   D(2,1,9,11)            67.8616         estimate D2E/DX2                !
 ! D11   D(2,1,9,12)          -175.9776         estimate D2E/DX2                !
 ! D12   D(8,1,9,10)           118.0923         estimate D2E/DX2                !
 ! D13   D(8,1,9,11)          -112.3465         estimate D2E/DX2                !
 ! D14   D(8,1,9,12)             3.8143         estimate D2E/DX2                !
 ! D15   D(1,2,4,5)            179.0534         estimate D2E/DX2                !
 ! D16   D(1,2,4,6)             -0.4795         estimate D2E/DX2                !
 ! D17   D(3,2,4,5)             -0.0052         estimate D2E/DX2                !
 ! D18   D(3,2,4,6)           -179.5381         estimate D2E/DX2                !
 ! D19   D(2,4,6,7)              0.4229         estimate D2E/DX2                !
 ! D20   D(2,4,6,16)           178.5095         estimate D2E/DX2                !
 ! D21   D(5,4,6,7)           -179.1069         estimate D2E/DX2                !
 ! D22   D(5,4,6,16)            -1.0203         estimate D2E/DX2                !
 ! D23   D(4,6,7,8)              0.3326         estimate D2E/DX2                !
 ! D24   D(4,6,7,17)           178.1642         estimate D2E/DX2                !
 ! D25   D(16,6,7,8)          -177.6976         estimate D2E/DX2                !
 ! D26   D(16,6,7,17)            0.134          estimate D2E/DX2                !
 ! D27   D(6,7,8,1)             -1.0335         estimate D2E/DX2                !
 ! D28   D(6,7,8,15)           179.265          estimate D2E/DX2                !
 ! D29   D(17,7,8,1)          -178.9997         estimate D2E/DX2                !
 ! D30   D(17,7,8,15)            1.2989         estimate D2E/DX2                !
 ! D31   D(6,7,17,18)         -148.6322         estimate D2E/DX2                !
 ! D32   D(6,7,17,19)           30.6814         estimate D2E/DX2                !
 ! D33   D(8,7,17,18)           29.2533         estimate D2E/DX2                !
 ! D34   D(8,7,17,19)         -151.4331         estimate D2E/DX2                !
 ! D35   D(1,9,12,13)           59.7114         estimate D2E/DX2                !
 ! D36   D(1,9,12,14)          -68.3245         estimate D2E/DX2                !
 ! D37   D(10,9,12,13)         -54.643          estimate D2E/DX2                !
 ! D38   D(10,9,12,14)         177.3211         estimate D2E/DX2                !
 ! D39   D(11,9,12,13)         176.8991         estimate D2E/DX2                !
 ! D40   D(11,9,12,14)          48.8632         estimate D2E/DX2                !
 ! D41   D(7,17,18,20)           4.481          estimate D2E/DX2                !
 ! D42   D(7,17,18,30)        -178.1209         estimate D2E/DX2                !
 ! D43   D(19,17,18,20)       -174.8109         estimate D2E/DX2                !
 ! D44   D(19,17,18,30)          2.5872         estimate D2E/DX2                !
 ! D45   D(17,18,20,21)        109.4115         estimate D2E/DX2                !
 ! D46   D(17,18,20,24)       -127.1086         estimate D2E/DX2                !
 ! D47   D(30,18,20,21)        -68.0839         estimate D2E/DX2                !
 ! D48   D(30,18,20,24)         55.3961         estimate D2E/DX2                !
 ! D49   D(18,20,21,22)        160.0063         estimate D2E/DX2                !
 ! D50   D(18,20,21,25)        -75.5306         estimate D2E/DX2                !
 ! D51   D(18,20,21,31)         45.4825         estimate D2E/DX2                !
 ! D52   D(24,20,21,22)         32.0042         estimate D2E/DX2                !
 ! D53   D(24,20,21,25)        156.4673         estimate D2E/DX2                !
 ! D54   D(24,20,21,31)        -82.5196         estimate D2E/DX2                !
 ! D55   D(18,20,24,23)       -148.5149         estimate D2E/DX2                !
 ! D56   D(18,20,24,26)         32.9266         estimate D2E/DX2                !
 ! D57   D(21,20,24,23)        -21.2603         estimate D2E/DX2                !
 ! D58   D(21,20,24,26)        160.1812         estimate D2E/DX2                !
 ! D59   D(20,21,22,23)        -30.099          estimate D2E/DX2                !
 ! D60   D(20,21,22,32)       -152.4366         estimate D2E/DX2                !
 ! D61   D(20,21,22,33)         87.1612         estimate D2E/DX2                !
 ! D62   D(25,21,22,23)       -151.832          estimate D2E/DX2                !
 ! D63   D(25,21,22,32)         85.8304         estimate D2E/DX2                !
 ! D64   D(25,21,22,33)        -34.5719         estimate D2E/DX2                !
 ! D65   D(31,21,22,23)         83.3698         estimate D2E/DX2                !
 ! D66   D(31,21,22,32)        -38.9678         estimate D2E/DX2                !
 ! D67   D(31,21,22,33)       -159.37           estimate D2E/DX2                !
 ! D68   D(20,21,25,34)         60.1707         estimate D2E/DX2                !
 ! D69   D(20,21,25,35)        -60.5781         estimate D2E/DX2                !
 ! D70   D(20,21,25,36)        179.4952         estimate D2E/DX2                !
 ! D71   D(22,21,25,34)        176.6943         estimate D2E/DX2                !
 ! D72   D(22,21,25,35)         55.9455         estimate D2E/DX2                !
 ! D73   D(22,21,25,36)        -63.9812         estimate D2E/DX2                !
 ! D74   D(31,21,25,34)        -59.2088         estimate D2E/DX2                !
 ! D75   D(31,21,25,35)       -179.9576         estimate D2E/DX2                !
 ! D76   D(31,21,25,36)         60.1156         estimate D2E/DX2                !
 ! D77   D(21,22,23,24)         18.8468         estimate D2E/DX2                !
 ! D78   D(21,22,23,29)       -162.4427         estimate D2E/DX2                !
 ! D79   D(32,22,23,24)        140.0011         estimate D2E/DX2                !
 ! D80   D(32,22,23,29)        -41.2883         estimate D2E/DX2                !
 ! D81   D(33,22,23,24)        -98.0037         estimate D2E/DX2                !
 ! D82   D(33,22,23,29)         80.7069         estimate D2E/DX2                !
 ! D83   D(22,23,24,20)          0.8616         estimate D2E/DX2                !
 ! D84   D(22,23,24,26)        179.5152         estimate D2E/DX2                !
 ! D85   D(29,23,24,20)       -178.0334         estimate D2E/DX2                !
 ! D86   D(29,23,24,26)          0.6203         estimate D2E/DX2                !
 ! D87   D(22,23,29,28)       -179.1056         estimate D2E/DX2                !
 ! D88   D(22,23,29,40)          1.5588         estimate D2E/DX2                !
 ! D89   D(24,23,29,28)         -0.5132         estimate D2E/DX2                !
 ! D90   D(24,23,29,40)       -179.8488         estimate D2E/DX2                !
 ! D91   D(20,24,26,27)        178.0699         estimate D2E/DX2                !
 ! D92   D(20,24,26,37)         -2.0516         estimate D2E/DX2                !
 ! D93   D(23,24,26,27)         -0.3239         estimate D2E/DX2                !
 ! D94   D(23,24,26,37)        179.5547         estimate D2E/DX2                !
 ! D95   D(24,26,27,28)         -0.0618         estimate D2E/DX2                !
 ! D96   D(24,26,27,38)        179.6976         estimate D2E/DX2                !
 ! D97   D(37,26,27,28)       -179.9403         estimate D2E/DX2                !
 ! D98   D(37,26,27,38)         -0.1809         estimate D2E/DX2                !
 ! D99   D(26,27,28,29)          0.1505         estimate D2E/DX2                !
 ! D100  D(26,27,28,39)        179.7091         estimate D2E/DX2                !
 ! D101  D(38,27,28,29)       -179.6077         estimate D2E/DX2                !
 ! D102  D(38,27,28,39)         -0.0491         estimate D2E/DX2                !
 ! D103  D(27,28,29,23)          0.1417         estimate D2E/DX2                !
 ! D104  D(27,28,29,40)        179.4774         estimate D2E/DX2                !
 ! D105  D(39,28,29,23)       -179.417          estimate D2E/DX2                !
 ! D106  D(39,28,29,40)         -0.0813         estimate D2E/DX2                !
 --------------------------------------------------------------------------------
 Trust Radius=3.00D-01 FncErr=1.00D-07 GrdErr=1.00D-06 EigMax=2.50D+02 EigMin=1.00D-04
 Number of steps in this run=    230 maximum allowed number of steps=    240.
 GradGradGradGradGradGradGradGradGradGradGradGradGradGradGradGradGradGrad

                          Input orientation:                          
 ---------------------------------------------------------------------
 Center     Atomic      Atomic             Coordinates (Angstroms)
 Number     Number       Type             X           Y           Z
 ---------------------------------------------------------------------
      1          6           0       -1.727707    0.916918   -1.109528
      2          6           0       -2.533241    1.568281   -2.050652
      3         17           0       -3.748703    2.717647   -1.579312
      4          6           0       -2.387156    1.288183   -3.403493
      5          1           0       -3.024429    1.784289   -4.127862
      6          6           0       -1.431385    0.366138   -3.820590
      7          6           0       -0.624662   -0.285393   -2.886737
      8          6           0       -0.784217   -0.014004   -1.527825
      9         16           0       -1.848301    1.232178    0.650404
     10          8           0       -1.515774    2.640806    0.839613
     11          8           0       -3.135134    0.730953    1.123609
     12          7           0       -0.685237    0.375933    1.434275
     13          1           0        0.258231    0.623659    1.128601
     14          1           0       -0.837789   -0.633193    1.407583
     15          1           0       -0.167992   -0.526392   -0.796469
     16          1           0       -1.354582    0.147305   -4.881338
     17          6           0        0.397897   -1.319457   -3.259686
     18          7           0        0.611074   -2.285834   -2.341118
     19          8           0        0.978467   -1.270079   -4.346264
     20          7           0       -0.142632   -2.355944   -1.181857
     21          6           0       -1.087216   -3.508834   -1.145859
     22          6           0       -1.375962   -3.647447    0.357314
     23          6           0       -0.088859   -3.156686    0.976611
     24          6           0        0.606165   -2.409153    0.019983
     25          6           0       -2.293392   -3.273040   -2.028804
     26          6           0        1.829753   -1.811395    0.289662
     27          6           0        2.358046   -1.974987    1.576223
     28          6           0        1.676086   -2.710469    2.546653
     29          6           0        0.441974   -3.306307    2.248881
     30          1           0        1.307387   -3.015820   -2.492674
     31          1           0       -0.534286   -4.399472   -1.486153
     32          1           0       -1.636937   -4.671674    0.633626
     33          1           0       -2.211445   -2.991986    0.638929
     34          1           0       -1.994233   -3.128107   -3.072870
     35          1           0       -2.845648   -2.388471   -1.694927
     36          1           0       -2.960658   -4.139822   -1.986676
     37          1           0        2.357479   -1.240567   -0.469213
     38          1           0        3.316279   -1.523659    1.817293
     39          1           0        2.106907   -2.828271    3.536447
     40          1           0       -0.085788   -3.886419    3.001650
 ---------------------------------------------------------------------
                    Distance matrix (angstroms):
                    1          2          3          4          5
     1  C    0.000000
     2  C    1.399598   0.000000
     3  Cl   2.747316   1.737973   0.000000
     4  C    2.415572   1.389235   2.687901   0.000000
     5  H    3.397670   2.145397   2.809063   1.084873   0.000000
     6  C    2.782269   2.406640   3.990349   1.391990   2.154845
     7  C    2.412619   2.788874   4.526283   2.418587   3.403360
     8  C    1.389878   2.415794   4.031469   2.789845   3.874610
     9  S    1.792008   2.806744   3.284780   4.089937   4.951760
    10  O    2.610719   3.246410   3.292882   4.537934   5.261698
    11  O    2.646192   3.337563   3.410162   4.622189   5.357212
    12  N    2.801846   4.120865   4.893890   5.208908   6.196181
    13  H    3.006522   4.335006   5.270019   5.289569   6.305024
    14  H    3.087174   4.436264   5.350055   5.407280   6.423921
    15  H    2.147990   3.399269   4.894704   3.874783   4.959502
    16  H    3.867567   3.379526   4.820980   2.133504   2.456793
    17  C    3.760684   4.288632   6.026289   3.817982   4.700988
    18  N    4.152629   4.982498   6.680032   4.784519   5.742407
    19  O    4.752136   5.065394   6.775258   4.331390   5.039845
    20  N    3.637213   4.676469   6.237230   4.822159   5.841680
    21  C    4.472005   5.356000   6.785312   5.458766   6.376699
    22  C    4.807159   5.860155   7.063628   6.287020   7.234501
    23  C    4.861281   6.120836   7.378007   6.650138   7.686771
    24  C    4.217286   5.473882   6.914239   5.860926   6.926095
    25  C    4.326756   4.847308   6.181287   4.764800   5.524223
    26  C    4.696482   5.994581   7.424585   6.405396   7.483752
    27  C    5.680647   7.045116   8.322896   7.613330   8.697113
    28  C    6.173443   7.560512   8.713000   8.240351   9.319165
    29  C    5.815673   7.148391   8.276766   7.814259   8.865268
    30  H    5.156677   5.996648   7.698761   5.744883   6.669297
    31  H    5.461694   6.318905   7.809900   6.281619   7.170658
    32  H    5.854843   6.851697   7.997419   7.237476   8.141029
    33  H    4.309366   5.304096   6.315351   5.889983   6.796767
    34  H    4.504217   4.836478   6.283448   4.446045   5.128932
    35  H    3.538090   3.984975   5.186648   4.080098   4.833535
    36  H    5.278274   5.724440   6.914611   5.639106   6.299511
    37  H    4.664064   5.857450   7.361062   6.125042   7.176378
    38  H    6.321748   7.664070   8.912888   8.227529   9.300106
    39  H    7.093362   8.489777   9.550726   9.236047  10.312514
    40  H    6.532207   7.827486   8.832658   8.549775   9.571963
                    6          7          8          9         10
     6  C    0.000000
     7  C    1.395484   0.000000
     8  C    2.412490   1.394902   0.000000
     9  S    4.573142   4.038772   2.725789   0.000000
    10  O    5.186398   4.821038   3.631522   1.459660   0.000000
    11  O    5.242228   4.839246   3.621032   1.459825   2.520024
    12  N    5.307583   4.371746   2.989295   1.643267   2.484565
    13  H    5.235992   4.210560   2.924023   2.244202   2.701757
    14  H    5.355820   4.313650   3.000481   2.252568   3.391360
    15  H    3.396775   2.153102   1.084968   2.830097   3.811092
    16  H    1.085805   2.167589   3.405494   5.658699   6.242821
    17  C    2.549925   1.501335   2.470009   5.181221   6.012493
    18  N    3.659704   2.413816   2.787381   5.232030   6.237974
    19  O    2.959886   2.381144   3.553643   6.262475   6.957699
    20  N    4.004189   2.725096   2.452755   4.375055   5.562317
    21  C    4.721022   3.692585   3.528674   5.126695   6.476406
    22  C    5.793688   4.731990   4.135918   4.911186   6.308271
    23  C    6.101295   4.843229   4.078256   4.739639   5.972082
    24  C    5.157892   3.804512   3.172635   4.436341   5.538637
    25  C    4.146947   3.527994   3.626280   5.260537   6.618616
    26  C    5.680743   4.294455   3.656051   4.787646   5.596168
    27  C    6.997588   5.627547   4.832637   5.369954   6.070801
    28  C    7.724226   6.379354   5.470410   5.617965   6.460503
    29  C    7.337220   6.052950   5.158131   5.329009   6.417707
    30  H    4.549931   3.367986   3.783734   6.154900   7.146453
    31  H    5.381953   4.346890   4.392782   6.164981   7.479172
    32  H    6.727692   5.714641   5.205083   5.907658   7.316384
    33  H    5.636737   4.719518   3.949706   4.239760   5.679135
    34  H    3.617407   3.160916   3.680889   5.735517   6.986902
    35  H    3.755856   3.282701   3.148891   4.427683   5.786716
    36  H    5.099568   4.596043   4.687197   6.086864   7.486823
    37  H    5.307421   3.956001   3.534879   5.005656   5.637390
    38  H    7.609032   6.260369   5.502994   5.969016   6.453477
    39  H    8.766399   7.428660   6.474994   6.360830   7.092780
    40  H    8.150940   6.923213   5.999962   5.902105   7.023100
                   11         12         13         14         15
    11  O    0.000000
    12  N    2.494904   0.000000
    13  H    3.395064   1.022221   0.000000
    14  H    2.686881   1.020941   1.690789   0.000000
    15  H    3.751206   2.461291   2.282581   2.306053   0.000000
    16  H    6.290501   6.355097   6.240789   6.358206   4.306741
    17  C    5.991641   5.106936   4.801278   4.876605   2.648890
    18  N    5.927850   4.797814   4.541872   4.345479   2.467493
    19  O    7.130593   6.236337   5.837733   6.067221   3.803746
    20  N    4.878440   3.821220   3.791694   3.186897   1.869874
    21  C    5.226877   4.680822   4.905191   3.853776   3.140383
    22  C    4.780406   4.221911   4.637652   3.237039   3.539970
    23  C    4.941168   3.611720   3.799287   2.667330   3.173093
    24  C    5.007552   3.380036   3.247775   2.676653   2.193331
    25  C    5.165094   5.281485   5.627100   4.571250   3.685112
    26  C    5.639956   3.524162   3.017116   3.123089   2.611876
    27  C    6.140195   3.848187   3.370838   3.470189   3.756190
    28  C    6.084100   4.042166   3.890706   3.454291   4.398554
    29  C    5.510119   3.936125   4.090651   3.080765   4.168230
    30  H    6.844838   5.558369   5.240245   5.048831   3.354267
    31  H    6.316370   5.599659   5.718117   4.759273   3.951023
    32  H    5.627882   5.198568   5.645991   4.188911   4.624536
    33  H    3.866315   3.782164   4.405901   2.835783   3.509305
    34  H    5.814158   5.857143   6.066441   5.257035   3.909742
    35  H    4.214114   4.701192   5.165201   4.091218   3.382958
    36  H    5.781761   6.105120   6.538880   5.322031   4.719370
    37  H    6.049196   3.936300   3.230355   3.755130   2.644834
    38  H    6.869149   4.446041   3.799596   4.268146   4.468382
    39  H    6.780034   4.741531   4.596863   4.245193   5.408140
    40  H    5.843430   4.580791   4.895658   3.700005   5.071710
                   16         17         18         19         20
    16  H    0.000000
    17  C    2.802201   0.000000
    18  N    4.029477   1.350221   0.000000
    19  O    2.781798   1.232944   2.277575   0.000000
    20  N    4.628308   2.384083   1.384512   3.528376   0.000000
    21  C    5.233798   3.386325   2.410096   4.418333   1.490869
    22  C    6.468700   4.652827   3.617159   5.772249   2.357569
    23  C    6.843535   4.643119   3.500802   5.747301   2.302838
    24  C    5.865403   3.462231   2.364324   4.527716   1.417021
    25  C    4.551601   3.546067   3.083511   4.481912   2.486796
    26  C    6.380888   3.858767   2.937903   4.744420   2.520358
    27  C    7.745181   5.259080   4.300476   6.121763   3.742395
    28  C    8.516271   6.105920   5.020445   7.076277   4.163557
    29  C    8.123735   5.856093   4.705109   6.923149   3.607619
    30  H    4.774637   2.071986   1.020147   2.567410   2.063064
    31  H    5.733528   3.674354   2.551525   4.501306   2.102854
    32  H    7.329196   5.525920   4.426611   6.573469   3.300232
    33  H    6.408019   4.980484   4.164846   6.163818   2.828391
    34  H    3.795792   3.004730   2.834168   3.729711   2.756917
    35  H    4.336664   3.756574   3.518100   4.785838   2.751471
    36  H    5.416457   4.566717   4.039823   5.414775   3.430922
    37  H    5.930635   3.410707   2.765238   4.115103   2.828866
    38  H    8.335510   5.859554   5.019106   6.596901   4.653135
    39  H    9.575754   7.168309   6.089132   8.114091   5.248420
    40  H    8.945517   6.784362   5.620735   7.872084   4.455033
                   21         22         23         24         25
    21  C    0.000000
    22  C    1.536918   0.000000
    23  C    2.371836   1.510301   0.000000
    24  C    2.331528   2.361354   1.398929   0.000000
    25  C    1.513292   2.583683   3.729078   3.653938   0.000000
    26  C    3.667523   3.694898   2.441880   1.388240   4.950961
    27  C    4.651048   4.269154   2.782677   2.383164   6.026362
    28  C    4.680584   3.871192   2.403991   2.760359   6.083424
    29  C    3.728766   2.645618   1.386665   2.408284   5.077590
    30  H    2.791254   3.965066   3.742363   2.678283   3.639636
    31  H    1.102165   2.161557   2.794303   2.744165   2.158187
    32  H    2.195668   1.092473   2.193028   3.244544   3.078253
    33  H    2.171748   1.098621   2.155580   2.943079   2.683749
    34  H    2.163563   3.523937   4.475440   4.104230   1.095708
    35  H    2.156101   2.820761   3.914991   3.854395   1.094953
    36  H    2.148233   2.871930   4.242034   4.443436   1.094682
    37  H    4.179570   4.518274   3.427315   2.161483   5.309790
    38  H    5.666741   5.353423   3.868913   3.370332   7.022906
    39  H    5.708728   4.786263   3.388511   3.846220   7.108619
    40  H    4.283370   2.951977   2.152511   3.398743   5.527677
                   26         27         28         29         30
    26  C    0.000000
    27  C    1.400391   0.000000
    28  C    2.434329   1.395614   0.000000
    29  C    2.828291   2.428212   1.402399   0.000000
    30  H    3.076508   4.329335   5.062015   4.828630   0.000000
    31  H    3.929420   4.860232   4.899184   4.012303   2.513829
    32  H    4.507488   4.911262   4.299083   2.965661   4.602678
    33  H    4.224579   4.774207   4.339535   3.119515   4.710593
    34  H    5.259584   6.471946   6.724931   5.855587   3.354092
    35  H    5.111847   6.160343   6.208121   5.215794   4.275239
    36  H    5.792351   6.757912   6.640295   5.496598   4.442479
    37  H    1.086384   2.173288   3.423501   3.914649   2.889396
    38  H    2.150862   1.086288   2.151910   3.409653   4.983774
    39  H    3.413571   2.152590   1.085899   2.158320   6.084793
    40  H    3.915342   3.414343   2.166583   1.087071   5.734673
                   31         32         33         34         35
    31  H    0.000000
    32  H    2.404869   0.000000
    33  H    3.051205   1.775229   0.000000
    34  H    2.503095   4.030927   3.720640   0.000000
    35  H    3.070848   3.477953   2.492655   1.780645   0.000000
    36  H    2.491028   2.983469   2.961866   1.771260   1.779206
    37  H    4.401722   5.379973   5.017022   5.411029   5.467412
    38  H    5.831801   5.987104   5.839543   7.395234   7.145134
    39  H    5.888216   5.083392   5.202939   7.784107   7.217236
    40  H    4.539245   2.937725   3.301648   6.412253   5.649647
                   36         37         38         39         40
    36  H    0.000000
    37  H    6.244274   0.000000
    38  H    7.791946   2.495506   0.000000
    39  H    7.609551   4.316121   2.473880   0.000000
    40  H    5.763028   5.001697   4.308062   2.492709   0.000000
 Stoichiometry    C16H16ClN3O3S
 Framework group  C1[X(C16H16ClN3O3S)]
 Deg. of freedom   114
 Full point group                 C1      NOp   1
 Largest Abelian subgroup         C1      NOp   1
 Largest concise Abelian subgroup C1      NOp   1
                         Standard orientation:                         
 ---------------------------------------------------------------------
 Center     Atomic      Atomic             Coordinates (Angstroms)
 Number     Number       Type             X           Y           Z
 ---------------------------------------------------------------------
      1          6           0        1.756627   -0.237462   -0.221107
      2          6           0        3.011326    0.342842   -0.002355
      3         17           0        4.403535   -0.610978    0.413017
      4          6           0        3.165997    1.720304   -0.095351
      5          1           0        4.137189    2.166736    0.090212
      6          6           0        2.072696    2.519900   -0.416246
      7          6           0        0.819632    1.946608   -0.636572
      8          6           0        0.663666    0.564787   -0.527039
      9         16           0        1.479599   -2.005606   -0.130483
     10          8           0        2.313922   -2.606244   -1.166701
     11          8           0        1.645009   -2.429839    1.256511
     12          7           0       -0.076316   -2.331403   -0.546791
     13          1           0       -0.303115   -2.019965   -1.493630
     14          1           0       -0.757260   -1.993690    0.134814
     15          1           0       -0.310767    0.114765   -0.685517
     16          1           0        2.215311    3.595475   -0.458348
     17          6           0       -0.410911    2.748843   -0.946714
     18          7           0       -1.574188    2.226389   -0.502952
     19          8           0       -0.330848    3.817362   -1.556639
     20          7           0       -1.599188    1.077070    0.268614
     21          6           0       -1.976065    1.314347    1.691412
     22          6           0       -2.423325   -0.083342    2.148075
     23          6           0       -2.960031   -0.680944    0.869080
     24          6           0       -2.450813    0.050304   -0.209334
     25          6           0       -0.839190    1.931029    2.477078
     26          6           0       -2.754393   -0.261254   -1.527658
     27          6           0       -3.597662   -1.356122   -1.754058
     28          6           0       -4.109405   -2.102799   -0.691830
     29          6           0       -3.789234   -1.766681    0.631514
     30          1           0       -2.465974    2.685011   -0.690260
     31          1           0       -2.849508    1.986551    1.693936
     32          1           0       -3.156994   -0.037181    2.956218
     33          1           0       -1.555445   -0.655235    2.504012
     34          1           0       -0.545403    2.896957    2.051348
     35          1           0        0.031364    1.266905    2.476749
     36          1           0       -1.151115    2.100083    3.512671
     37          1           0       -2.354463    0.323435   -2.351324
     38          1           0       -3.858212   -1.622663   -2.774397
     39          1           0       -4.765383   -2.945022   -0.890653
     40          1           0       -4.194233   -2.342610    1.459769
 ---------------------------------------------------------------------
 Rotational constants (GHZ):           0.3012992           0.1837942           0.1417627
 General basis read from cards:  (6D, 7F)
 There are   496 symmetry adapted cartesian basis functions of A   symmetry.
 There are   496 symmetry adapted basis functions of A   symmetry.
   496 basis functions,   880 primitive gaussians,   496 cartesian basis functions
    95 alpha electrons       95 beta electrons
       nuclear repulsion energy      2528.3680823045 Hartrees.
 NAtoms=   40 NActive=   40 NUniq=   40 SFac= 1.00D+00 NAtFMM=   60 NAOKFM=F Big=F
 Integral buffers will be    131072 words long.
 Raffenetti 2 integral format.
 Two-electron integral symmetry is turned on.
 ------------------------------------------------------------------------------
 Polarizable Continuum Model (PCM)
 =================================
 Model                : PCM.
 Atomic radii         : SMD-Coulomb.
 Polarization charges : Total charges.
 Charge compensation  : None.
 Solution method      : On-the-fly selection.
 Cavity type          : VdW (van der Waals Surface) (Alpha=1.000).
 Cavity algorithm     : GePol (No added spheres)
                        Default sphere list used, NSphG=   40.
                        Lebedev-Laikov grids with approx.  5.0 points / Ang**2.
                        Smoothing algorithm: York/Karplus (Gamma=1.0000).
                        Polarization charges: spherical gaussians, with
                                              point-specific exponents (IZeta= 3).
                        Self-potential: point-specific (ISelfS= 7).
                        Self-field    : sphere-specific E.n sum rule (ISelfD= 2).
 1st derivatives      : Analytical E(r).r(x)/FMM algorithm (CHGder, D1EAlg=3).
                        Cavity 1st derivative terms included.
 Solvent              : Water, Eps=  78.355300 Eps(inf)=   1.777849
 ------------------------------------------------------------------------------
 ------------------------------------------------------------------------------
 Atomic radii for non-electrostatic terms: SMD-CDS.
 ------------------------------------------------------------------------------
 Nuclear repulsion after PCM non-electrostatic terms =     2528.3796422584 Hartrees.
 One-electron integrals computed using PRISM.
 NBasis=   496 RedAO= T EigKep=  1.04D-06  NBF=   496
 NBsUse=   493 1.00D-06 EigRej=  7.52D-07 NBFU=   493
 ExpMin= 4.05D-02 ExpMax= 2.52D+04 ExpMxC= 3.78D+03 IAcc=3 IRadAn=         5 AccDes= 0.00D+00
 Harris functional with IExCor= 1009 and IRadAn=       5 diagonalized for initial guess.
 HarFok:  IExCor= 1009 AccDes= 0.00D+00 IRadAn=         5 IDoV= 1 UseB2=F ITyADJ=14
 ICtDFT=  3500011 ScaDFX=  1.000000  1.000000  1.000000  1.000000
 FoFCou: FMM=F IPFlag=           0 FMFlag=      100000 FMFlg1=           0
         NFxFlg=           0 DoJE=T BraDBF=F KetDBF=T FulRan=T
         wScrn=  0.000000 ICntrl=       500 IOpCl=  0 I1Cent=   200000004 NGrid=           0
         NMat0=    1 NMatS0=      1 NMatT0=    0 NMatD0=    1 NMtDS0=    0 NMtDT0=    0
 Petite list used in FoFCou.
 Requested convergence on RMS density matrix=1.00D-08 within 128 cycles.
 Requested convergence on MAX density matrix=1.00D-06.
 Requested convergence on             energy=1.00D-06.
 No special actions if energy rises.
 Inv3:  Mode=1 IEnd=    27415587.
 Iteration    1 A*A^-1 deviation from unit magnitude is 6.44D-15 for   2993.
 Iteration    1 A*A^-1 deviation from orthogonality  is 3.57D-15 for   2986   2702.
 Iteration    1 A^-1*A deviation from unit magnitude is 6.44D-15 for   2993.
 Iteration    1 A^-1*A deviation from orthogonality  is 4.67D-15 for    962    932.
 Error on total polarization charges =  0.05929
 SCF Done:  E(RM062X) =  -1867.14556242     A.U. after   17 cycles
            NFock= 17  Conv=0.30D-08     -V/T= 2.0060
 SMD-CDS (non-electrostatic) energy       (kcal/mol) =       7.25
 (included in total energy above)

 **********************************************************************

            Population analysis using the SCF Density.

 **********************************************************************

 Orbital symmetries:
       Occupied  (A) (A) (A) (A) (A) (A) (A) (A) (A) (A) (A) (A)
                 (A) (A) (A) (A) (A) (A) (A) (A) (A) (A) (A) (A)
                 (A) (A) (A) (A) (A) (A) (A) (A) (A) (A) (A) (A)
                 (A) (A) (A) (A) (A) (A) (A) (A) (A) (A) (A) (A)
                 (A) (A) (A) (A) (A) (A) (A) (A) (A) (A) (A) (A)
                 (A) (A) (A) (A) (A) (A) (A) (A) (A) (A) (A) (A)
                 (A) (A) (A) (A) (A) (A) (A) (A) (A) (A) (A) (A)
                 (A) (A) (A) (A) (A) (A) (A) (A) (A) (A) (A)
       Virtual   (A) (A) (A) (A) (A) (A) (A) (A) (A) (A) (A) (A)
                 (A) (A) (A) (A) (A) (A) (A) (A) (A) (A) (A) (A)
                 (A) (A) (A) (A) (A) (A) (A) (A) (A) (A) (A) (A)
                 (A) (A) (A) (A) (A) (A) (A) (A) (A) (A) (A) (A)
                 (A) (A) (A) (A) (A) (A) (A) (A) (A) (A) (A) (A)
                 (A) (A) (A) (A) (A) (A) (A) (A) (A) (A) (A) (A)
                 (A) (A) (A) (A) (A) (A) (A) (A) (A) (A) (A) (A)
                 (A) (A) (A) (A) (A) (A) (A) (A) (A) (A) (A) (A)
                 (A) (A) (A) (A) (A) (A) (A) (A) (A) (A) (A) (A)
                 (A) (A) (A) (A) (A) (A) (A) (A) (A) (A) (A) (A)
                 (A) (A) (A) (A) (A) (A) (A) (A) (A) (A) (A) (A)
                 (A) (A) (A) (A) (A) (A) (A) (A) (A) (A) (A) (A)
                 (A) (A) (A) (A) (A) (A) (A) (A) (A) (A) (A) (A)
                 (A) (A) (A) (A) (A) (A) (A) (A) (A) (A) (A) (A)
                 (A) (A) (A) (A) (A) (A) (A) (A) (A) (A) (A) (A)
                 (A) (A) (A) (A) (A) (A) (A) (A) (A) (A) (A) (A)
                 (A) (A) (A) (A) (A) (A) (A) (A) (A) (A) (A) (A)
                 (A) (A) (A) (A) (A) (A) (A) (A) (A) (A) (A) (A)
                 (A) (A) (A) (A) (A) (A) (A) (A) (A) (A) (A) (A)
                 (A) (A) (A) (A) (A) (A) (A) (A) (A) (A) (A) (A)
                 (A) (A) (A) (A) (A) (A) (A) (A) (A) (A) (A) (A)
                 (A) (A) (A) (A) (A) (A) (A) (A) (A) (A) (A) (A)
                 (A) (A) (A) (A) (A) (A) (A) (A) (A) (A) (A) (A)
                 (A) (A) (A) (A) (A) (A) (A) (A) (A) (A) (A) (A)
                 (A) (A) (A) (A) (A) (A) (A) (A) (A) (A) (A) (A)
                 (A) (A) (A) (A) (A) (A) (A) (A) (A) (A) (A) (A)
                 (A) (A) (A) (A) (A) (A) (A) (A) (A) (A) (A) (A)
                 (A) (A) (A) (A) (A) (A) (A) (A) (A) (A) (A) (A)
                 (A) (A) (A) (A) (A) (A) (A) (A) (A) (A) (A) (A)
                 (A) (A) (A) (A) (A) (A) (A) (A) (A) (A) (A) (A)
                 (A) (A) (A) (A) (A) (A) (A) (A) (A) (A) (A) (A)
                 (A) (A) (A) (A) (A) (A) (A) (A) (A) (A) (A) (A)
                 (A) (A) (A) (A) (A) (A) (A) (A) (A) (A) (A) (A)
                 (A) (A)
 The electronic state is 1-A.
 Alpha  occ. eigenvalues -- -102.69198 -90.18901 -19.66523 -19.66197 -19.64111
 Alpha  occ. eigenvalues --  -14.83480 -14.81747 -14.81049 -10.68548 -10.65027
 Alpha  occ. eigenvalues --  -10.61318 -10.59309 -10.58876 -10.58875 -10.58778
 Alpha  occ. eigenvalues --  -10.58627 -10.58186 -10.56374 -10.56020 -10.55887
 Alpha  occ. eigenvalues --  -10.55865 -10.55379 -10.55275 -10.53446  -9.83844
 Alpha  occ. eigenvalues --   -8.49816  -7.56254  -7.55584  -7.55554  -6.42019
 Alpha  occ. eigenvalues --   -6.41998  -6.41895  -1.26606  -1.19338  -1.14962
 Alpha  occ. eigenvalues --   -1.14324  -1.04115  -1.02525  -1.00736  -0.96529
 Alpha  occ. eigenvalues --   -0.94592  -0.89480  -0.88604  -0.86812  -0.85456
 Alpha  occ. eigenvalues --   -0.82937  -0.77841  -0.77481  -0.74539  -0.72596
 Alpha  occ. eigenvalues --   -0.70575  -0.68860  -0.68286  -0.67445  -0.63892
 Alpha  occ. eigenvalues --   -0.62451  -0.62076  -0.61110  -0.58526  -0.58223
 Alpha  occ. eigenvalues --   -0.57495  -0.55986  -0.55956  -0.54994  -0.53594
 Alpha  occ. eigenvalues --   -0.52909  -0.52240  -0.51657  -0.50528  -0.50002
 Alpha  occ. eigenvalues --   -0.49086  -0.48174  -0.47057  -0.46850  -0.46347
 Alpha  occ. eigenvalues --   -0.44598  -0.44509  -0.43507  -0.43222  -0.42755
 Alpha  occ. eigenvalues --   -0.42248  -0.41938  -0.41006  -0.40675  -0.40430
 Alpha  occ. eigenvalues --   -0.39740  -0.39470  -0.38591  -0.36981  -0.35436
 Alpha  occ. eigenvalues --   -0.34449  -0.33685  -0.32157  -0.30962  -0.26923
 Alpha virt. eigenvalues --   -0.03648  -0.00990   0.00896   0.01116   0.01886
 Alpha virt. eigenvalues --    0.02209   0.02435   0.02595   0.03243   0.03852
 Alpha virt. eigenvalues --    0.04022   0.04363   0.04615   0.04910   0.05726
 Alpha virt. eigenvalues --    0.06012   0.06277   0.06446   0.06969   0.07090
 Alpha virt. eigenvalues --    0.07657   0.07843   0.08271   0.08570   0.08881
 Alpha virt. eigenvalues --    0.09278   0.09829   0.10017   0.10319   0.11045
 Alpha virt. eigenvalues --    0.11235   0.11787   0.11920   0.12483   0.12707
 Alpha virt. eigenvalues --    0.13033   0.13190   0.13291   0.13877   0.14328
 Alpha virt. eigenvalues --    0.14702   0.14782   0.15115   0.15575   0.16042
 Alpha virt. eigenvalues --    0.16120   0.16521   0.16725   0.17350   0.17726
 Alpha virt. eigenvalues --    0.17980   0.18340   0.18659   0.18729   0.19337
 Alpha virt. eigenvalues --    0.19522   0.19760   0.20257   0.20510   0.20590
 Alpha virt. eigenvalues --    0.21013   0.21137   0.21335   0.21826   0.22103
 Alpha virt. eigenvalues --    0.22389   0.22566   0.22768   0.23500   0.23530
 Alpha virt. eigenvalues --    0.23876   0.23969   0.24139   0.24223   0.24884
 Alpha virt. eigenvalues --    0.25160   0.25533   0.25819   0.26091   0.26264
 Alpha virt. eigenvalues --    0.26632   0.26843   0.27144   0.27628   0.27943
 Alpha virt. eigenvalues --    0.28266   0.28576   0.29140   0.29336   0.29686
 Alpha virt. eigenvalues --    0.29947   0.30064   0.30479   0.30816   0.30913
 Alpha virt. eigenvalues --    0.31155   0.31838   0.32042   0.32457   0.32836
 Alpha virt. eigenvalues --    0.33061   0.33542   0.33752   0.34351   0.34803
 Alpha virt. eigenvalues --    0.35146   0.35790   0.35931   0.36086   0.36543
 Alpha virt. eigenvalues --    0.37119   0.37238   0.37513   0.37781   0.38169
 Alpha virt. eigenvalues --    0.38794   0.39316   0.40001   0.40402   0.40840
 Alpha virt. eigenvalues --    0.41091   0.42035   0.43670   0.43916   0.44142
 Alpha virt. eigenvalues --    0.44623   0.45606   0.46153   0.47603   0.47981
 Alpha virt. eigenvalues --    0.48377   0.48954   0.49633   0.51225   0.51924
 Alpha virt. eigenvalues --    0.52842   0.54453   0.55384   0.57001   0.59573
 Alpha virt. eigenvalues --    0.60594   0.63362   0.65142   0.65734   0.66237
 Alpha virt. eigenvalues --    0.67135   0.67665   0.67825   0.69584   0.71518
 Alpha virt. eigenvalues --    0.71813   0.72920   0.73548   0.73724   0.75098
 Alpha virt. eigenvalues --    0.75447   0.75617   0.76348   0.76729   0.78145
 Alpha virt. eigenvalues --    0.79120   0.79719   0.79838   0.80236   0.81202
 Alpha virt. eigenvalues --    0.81523   0.82085   0.82470   0.82973   0.84150
 Alpha virt. eigenvalues --    0.84965   0.86237   0.86697   0.87547   0.87638
 Alpha virt. eigenvalues --    0.88987   0.89781   0.90828   0.92090   0.93243
 Alpha virt. eigenvalues --    0.94121   0.94615   0.94775   0.95869   0.96689
 Alpha virt. eigenvalues --    0.96905   0.97697   0.98366   0.99064   1.00232
 Alpha virt. eigenvalues --    1.00425   1.00849   1.02163   1.02829   1.03415
 Alpha virt. eigenvalues --    1.04304   1.05021   1.05872   1.06033   1.06944
 Alpha virt. eigenvalues --    1.07298   1.08428   1.09128   1.09738   1.10272
 Alpha virt. eigenvalues --    1.11660   1.12311   1.12733   1.13514   1.14313
 Alpha virt. eigenvalues --    1.14965   1.15902   1.16584   1.17124   1.17552
 Alpha virt. eigenvalues --    1.18424   1.19058   1.19805   1.21138   1.21899
 Alpha virt. eigenvalues --    1.23159   1.23231   1.23966   1.24655   1.25601
 Alpha virt. eigenvalues --    1.27020   1.27374   1.29135   1.29945   1.30547
 Alpha virt. eigenvalues --    1.31899   1.32236   1.32882   1.33475   1.34442
 Alpha virt. eigenvalues --    1.35163   1.35882   1.36802   1.37308   1.38496
 Alpha virt. eigenvalues --    1.39916   1.40484   1.41611   1.42420   1.42864
 Alpha virt. eigenvalues --    1.44015   1.44539   1.45912   1.46351   1.47139
 Alpha virt. eigenvalues --    1.48192   1.48388   1.49461   1.50147   1.51328
 Alpha virt. eigenvalues --    1.51986   1.52945   1.53202   1.54000   1.55082
 Alpha virt. eigenvalues --    1.55778   1.56485   1.57371   1.57716   1.58281
 Alpha virt. eigenvalues --    1.60758   1.65180   1.66771   1.67975   1.71196
 Alpha virt. eigenvalues --    1.73321   1.76639   1.78085   1.80100   1.80316
 Alpha virt. eigenvalues --    1.81844   1.82952   1.83794   1.84518   1.84991
 Alpha virt. eigenvalues --    1.85336   1.86284   1.86744   1.88385   1.89086
 Alpha virt. eigenvalues --    1.89451   1.90737   1.92338   1.93376   1.93793
 Alpha virt. eigenvalues --    1.95029   1.95516   1.97719   1.98674   1.99288
 Alpha virt. eigenvalues --    2.00515   2.01211   2.02003   2.03980   2.04495
 Alpha virt. eigenvalues --    2.04650   2.06158   2.06872   2.07630   2.09722
 Alpha virt. eigenvalues --    2.10652   2.12816   2.13452   2.14512   2.15184
 Alpha virt. eigenvalues --    2.16423   2.16825   2.17997   2.19177   2.20346
 Alpha virt. eigenvalues --    2.21104   2.21672   2.22290   2.23980   2.24701
 Alpha virt. eigenvalues --    2.25755   2.26698   2.27878   2.29683   2.29856
 Alpha virt. eigenvalues --    2.30949   2.32488   2.33073   2.34056   2.35553
 Alpha virt. eigenvalues --    2.37889   2.39042   2.40575   2.40779   2.42537
 Alpha virt. eigenvalues --    2.46152   2.47005   2.48804   2.49908   2.52017
 Alpha virt. eigenvalues --    2.53584   2.58417   2.60080   2.61070   2.63131
 Alpha virt. eigenvalues --    2.63798   2.65638   2.67437   2.68716   2.69531
 Alpha virt. eigenvalues --    2.71093   2.72889   2.74638   2.76476   2.76785
 Alpha virt. eigenvalues --    2.78958   2.80345   2.81952   2.84479   2.86343
 Alpha virt. eigenvalues --    2.88849   2.90946   2.92760   2.93562   2.95676
 Alpha virt. eigenvalues --    2.99638   3.01490   3.03392   3.18231   3.20082
 Alpha virt. eigenvalues --    3.22760   3.28449   3.38963   3.44169   4.02433
 Alpha virt. eigenvalues --    4.07342   4.19556   4.24332   4.28645   4.33904
 Alpha virt. eigenvalues --    4.35011   4.36857   4.38473   4.39674   4.42762
 Alpha virt. eigenvalues --    4.43812   4.45870   4.47182   4.48683   4.51260
 Alpha virt. eigenvalues --    4.53590   4.56099   4.57837   4.59217   4.71052
 Alpha virt. eigenvalues --    4.78709   4.81889   4.84617
          Condensed to atoms (all electrons):
               1          2          3          4          5          6
     1  C   28.336908 -10.559702   0.190523  -7.588068   0.127153  -1.224872
     2  C  -10.559702  27.179166  -0.575846  -3.756075   0.046095   3.812936
     3  Cl   0.190523  -0.575846  17.022589   0.019440  -0.006308  -0.051202
     4  C   -7.588068  -3.756075   0.019440  15.451876   0.206353  -1.003610
     5  H    0.127153   0.046095  -0.006308   0.206353   0.402229  -0.129273
     6  C   -1.224872   3.812936  -0.051202  -1.003610  -0.129273  16.226785
     7  C   -2.149865   1.845929   0.040718   0.912679   0.024597  -3.177353
     8  C    2.601289 -11.994708   0.098699   1.719320   0.044414  -7.520242
     9  S   -1.288047  -0.807564   0.061271   0.739856  -0.003784   0.087885
    10  O    0.194123  -0.370463  -0.031020   0.094187  -0.000018  -0.006435
    11  O    0.206927  -0.195844  -0.017866  -0.007096  -0.000034   0.009711
    12  N    0.230579   0.278106  -0.032444  -0.190780   0.000114   0.134868
    13  H   -0.035741  -0.009920   0.000763   0.005146  -0.000000  -0.004355
    14  H    0.006541  -0.020020   0.000628  -0.000482  -0.000000  -0.001323
    15  H   -0.098386  -0.090858   0.000386  -0.027910   0.000011  -0.044712
    16  H    0.035966  -0.025758   0.001104  -0.027927  -0.002612   0.310846
    17  C   -1.303085   0.145601  -0.005471  -0.463419   0.004103  -1.325943
    18  N   -0.160000  -0.393030  -0.001427   0.218767   0.000197  -0.562924
    19  O    0.010291  -0.016363  -0.000026   0.051818   0.000037  -0.174597
    20  N    0.249749   0.678589   0.000507  -0.123797  -0.000185   0.475257
    21  C   -0.174781  -0.116019   0.005616   0.124676   0.000181  -0.215502
    22  C    0.369510   0.183358  -0.003198  -0.120949  -0.000034   0.123171
    23  C    0.628724   0.082127   0.000512  -0.009686   0.000115   0.011707
    24  C   -0.898292  -0.509993   0.001080  -0.319577  -0.000209   0.183070
    25  C    0.101654  -0.055234  -0.002349  -0.032438  -0.000149   0.038070
    26  C    0.389455   0.439445  -0.001852   0.114151  -0.000021   0.196599
    27  C   -0.073926  -0.034240   0.000284   0.034058  -0.000005   0.008056
    28  C    0.174331   0.044996  -0.000236  -0.006356  -0.000000   0.016810
    29  C   -0.410595  -0.052962  -0.000378   0.044237   0.000009  -0.037687
    30  H    0.007511   0.003425  -0.000000   0.000075  -0.000000   0.008094
    31  H    0.003534   0.000563  -0.000004   0.000421  -0.000000  -0.000184
    32  H   -0.000633  -0.000221   0.000002  -0.000027  -0.000000  -0.000300
    33  H    0.001520  -0.004869   0.000025  -0.000622  -0.000000  -0.000960
    34  H   -0.008081   0.006009  -0.000022   0.000692  -0.000000  -0.008336
    35  H    0.016466   0.001024  -0.000139  -0.011167  -0.000001   0.009165
    36  H   -0.000922  -0.001259  -0.000006   0.001276  -0.000000  -0.001639
    37  H   -0.007362   0.001242  -0.000002   0.000338  -0.000000  -0.008451
    38  H   -0.000433  -0.000054  -0.000000   0.000001  -0.000000  -0.000052
    39  H    0.000127  -0.000004   0.000000  -0.000001   0.000000   0.000010
    40  H   -0.000493   0.000003  -0.000000   0.000004   0.000000  -0.000026
               7          8          9         10         11         12
     1  C   -2.149865   2.601289  -1.288047   0.194123   0.206927   0.230579
     2  C    1.845929 -11.994708  -0.807564  -0.370463  -0.195844   0.278106
     3  Cl   0.040718   0.098699   0.061271  -0.031020  -0.017866  -0.032444
     4  C    0.912679   1.719320   0.739856   0.094187  -0.007096  -0.190780
     5  H    0.024597   0.044414  -0.003784  -0.000018  -0.000034   0.000114
     6  C   -3.177353  -7.520242   0.087885  -0.006435   0.009711   0.134868
     7  C   16.653241  -5.032931  -0.996333  -0.059350  -0.014392   0.054306
     8  C   -5.032931  26.360897   1.032166   0.125911  -0.024776  -0.548769
     9  S   -0.996333   1.032166  15.800321   0.294633   0.400026  -0.473063
    10  O   -0.059350   0.125911   0.294633   8.628704  -0.220139  -0.104823
    11  O   -0.014392  -0.024776   0.400026  -0.220139   8.527542  -0.145764
    12  N    0.054306  -0.548769  -0.473063  -0.104823  -0.145764   8.827723
    13  H   -0.022863   0.036294   0.078293  -0.000814   0.008236   0.159730
    14  H   -0.005014   0.001097   0.037113   0.005222  -0.000468   0.132281
    15  H   -0.108270   0.663303  -0.040918  -0.000578  -0.000841  -0.007584
    16  H    0.012448   0.044986   0.002263   0.000004   0.000006  -0.000001
    17  C   -2.358798   0.050048  -0.401808  -0.014549  -0.009205  -0.034546
    18  N   -0.222012   2.163435   0.106056   0.002334  -0.000306   0.009850
    19  O    0.164736   0.068855   0.000571  -0.000002  -0.000014  -0.000293
    20  N    0.606485  -2.688915  -0.191871  -0.006579  -0.004655   0.025612
    21  C   -0.119251   0.574545   0.104518  -0.003300   0.009854  -0.129902
    22  C    0.229375  -1.047268  -0.219990  -0.001180  -0.016482   0.115291
    23  C   -0.153988  -0.821618  -0.161240  -0.022835  -0.002101   0.056645
    24  C   -1.102924   1.522416   0.578547   0.037346   0.036364  -0.474344
    25  C   -0.195978   0.175326   0.015420  -0.000567   0.003304  -0.019079
    26  C    0.862822  -1.625911  -0.287354  -0.011491  -0.011555   0.240880
    27  C    0.044735   0.161930   0.094196   0.007042   0.000805  -0.042963
    28  C    0.064657  -0.295123  -0.040514  -0.002121   0.000013   0.048664
    29  C    0.085317   0.490312  -0.082137   0.008927  -0.010876   0.165566
    30  H    0.070912  -0.049097  -0.000736  -0.000001  -0.000000   0.000157
    31  H    0.003320  -0.000541   0.000107   0.000000   0.000005   0.000150
    32  H   -0.001036   0.000612   0.000069   0.000000   0.000001  -0.000094
    33  H   -0.008938   0.016970   0.003537  -0.000004   0.000520   0.000754
    34  H    0.058852  -0.017844  -0.001547  -0.000000  -0.000021   0.000024
    35  H   -0.022229   0.008560   0.005253  -0.000018   0.000363   0.000194
    36  H   -0.000982   0.000552  -0.000293   0.000000  -0.000010   0.000047
    37  H   -0.011063   0.024090  -0.000771   0.000017   0.000001  -0.001562
    38  H   -0.000643   0.000225   0.000014  -0.000000   0.000001   0.000176
    39  H    0.000105  -0.000318  -0.000048   0.000000   0.000000   0.000063
    40  H   -0.000095   0.001192   0.000045   0.000000   0.000005   0.000026
              13         14         15         16         17         18
     1  C   -0.035741   0.006541  -0.098386   0.035966  -1.303085  -0.160000
     2  C   -0.009920  -0.020020  -0.090858  -0.025758   0.145601  -0.393030
     3  Cl   0.000763   0.000628   0.000386   0.001104  -0.005471  -0.001427
     4  C    0.005146  -0.000482  -0.027910  -0.027927  -0.463419   0.218767
     5  H   -0.000000  -0.000000   0.000011  -0.002612   0.004103   0.000197
     6  C   -0.004355  -0.001323  -0.044712   0.310846  -1.325943  -0.562924
     7  C   -0.022863  -0.005014  -0.108270   0.012448  -2.358798  -0.222012
     8  C    0.036294   0.001097   0.663303   0.044986   0.050048   2.163435
     9  S    0.078293   0.037113  -0.040918   0.002263  -0.401808   0.106056
    10  O   -0.000814   0.005222  -0.000578   0.000004  -0.014549   0.002334
    11  O    0.008236  -0.000468  -0.000841   0.000006  -0.009205  -0.000306
    12  N    0.159730   0.132281  -0.007584  -0.000001  -0.034546   0.009850
    13  H    0.249901  -0.011906   0.000427   0.000000  -0.002168  -0.001695
    14  H   -0.011906   0.250549  -0.001477   0.000000   0.001197   0.001257
    15  H    0.000427  -0.001477   0.509582  -0.000137   0.050337   0.062599
    16  H    0.000000   0.000000  -0.000137   0.407946  -0.052937  -0.001668
    17  C   -0.002168   0.001197   0.050337  -0.052937  11.084403  -0.946992
    18  N   -0.001695   0.001257   0.062599  -0.001668  -0.946992   9.694051
    19  O   -0.000001   0.000010  -0.000644   0.004602   0.141148  -0.032011
    20  N   -0.003765   0.003447  -0.090037   0.001975   0.688264  -1.566183
    21  C    0.007783   0.002420   0.021897   0.001313  -0.029598  -0.215114
    22  C   -0.006705  -0.017641  -0.010673  -0.000175   0.051962  -0.207557
    23  C    0.012645  -0.008693  -0.015369   0.000256   0.193184  -0.827242
    24  C    0.029487   0.092835  -0.008195  -0.000220   0.519489   0.123821
    25  C   -0.000175   0.004911  -0.004290  -0.000618  -0.096681   0.028942
    26  C   -0.014735  -0.036423  -0.021274  -0.000073  -0.249081  -0.423127
    27  C   -0.007851   0.010505  -0.025577  -0.000005  -0.268473   0.256680
    28  C    0.003922  -0.008207  -0.009918   0.000000  -0.031217  -0.102766
    29  C   -0.019878   0.004007   0.024448   0.000021   0.082753   0.365645
    30  H   -0.000000  -0.000001  -0.000576  -0.000001  -0.068002   0.207232
    31  H   -0.000000  -0.000001  -0.000109   0.000000  -0.010267   0.015290
    32  H    0.000000   0.000030  -0.000003   0.000000   0.000829  -0.001383
    33  H    0.000018  -0.000617  -0.000001  -0.000000  -0.003144   0.008347
    34  H   -0.000000  -0.000000   0.000100   0.000004  -0.040567   0.017882
    35  H   -0.000001   0.000015  -0.000092  -0.000001   0.001817  -0.006630
    36  H   -0.000000  -0.000000  -0.000004   0.000000   0.006983  -0.002073
    37  H    0.000041   0.000039  -0.001954   0.000000   0.009844   0.011160
    38  H   -0.000001  -0.000006  -0.000017   0.000000   0.000162  -0.000773
    39  H    0.000001   0.000002   0.000000  -0.000000  -0.000003   0.000103
    40  H    0.000001   0.000031  -0.000002  -0.000000  -0.000014   0.000340
              19         20         21         22         23         24
     1  C    0.010291   0.249749  -0.174781   0.369510   0.628724  -0.898292
     2  C   -0.016363   0.678589  -0.116019   0.183358   0.082127  -0.509993
     3  Cl  -0.000026   0.000507   0.005616  -0.003198   0.000512   0.001080
     4  C    0.051818  -0.123797   0.124676  -0.120949  -0.009686  -0.319577
     5  H    0.000037  -0.000185   0.000181  -0.000034   0.000115  -0.000209
     6  C   -0.174597   0.475257  -0.215502   0.123171   0.011707   0.183070
     7  C    0.164736   0.606485  -0.119251   0.229375  -0.153988  -1.102924
     8  C    0.068855  -2.688915   0.574545  -1.047268  -0.821618   1.522416
     9  S    0.000571  -0.191871   0.104518  -0.219990  -0.161240   0.578547
    10  O   -0.000002  -0.006579  -0.003300  -0.001180  -0.022835   0.037346
    11  O   -0.000014  -0.004655   0.009854  -0.016482  -0.002101   0.036364
    12  N   -0.000293   0.025612  -0.129902   0.115291   0.056645  -0.474344
    13  H   -0.000001  -0.003765   0.007783  -0.006705   0.012645   0.029487
    14  H    0.000010   0.003447   0.002420  -0.017641  -0.008693   0.092835
    15  H   -0.000644  -0.090037   0.021897  -0.010673  -0.015369  -0.008195
    16  H    0.004602   0.001975   0.001313  -0.000175   0.000256  -0.000220
    17  C    0.141148   0.688264  -0.029598   0.051962   0.193184   0.519489
    18  N   -0.032011  -1.566183  -0.215114  -0.207557  -0.827242   0.123821
    19  O    8.414884  -0.052420   0.015660  -0.003957  -0.002674   0.007705
    20  N   -0.052420  10.102240  -0.186644   0.439631   2.407447  -3.841161
    21  C    0.015660  -0.186644   9.987831  -3.004758   1.815227  -0.736233
    22  C   -0.003957   0.439631  -3.004758  12.476786   0.371175  -3.956602
    23  C   -0.002674   2.407447   1.815227   0.371175  34.700359 -15.565786
    24  C    0.007705  -3.841161  -0.736233  -3.956602 -15.565786  39.086211
    25  C   -0.002709   0.137759  -0.465606   0.083702   0.202601  -0.244493
    26  C   -0.003334   1.130477   0.075866   0.366893   2.233550 -10.681069
    27  C   -0.000495  -0.171623   0.160267  -0.401349  -3.113178   0.193546
    28  C    0.000083   0.302379  -0.063688   0.566927   2.830323  -3.333473
    29  C    0.002157  -1.283434  -1.610080  -0.745709 -20.270459   5.929034
    30  H    0.011158   0.031228  -0.004759   0.011962   0.026030  -0.106511
    31  H    0.000299   0.024092   0.399662   0.003539   0.150172  -0.326021
    32  H   -0.000002   0.014355  -0.099058   0.519721  -0.120573   0.045877
    33  H    0.000007   0.065390  -0.174994   0.583398   0.052002  -0.271046
    34  H   -0.000713  -0.009487  -0.102057   0.024308  -0.007014   0.026822
    35  H    0.000070   0.028967  -0.055387  -0.013043   0.006140  -0.060850
    36  H    0.000013   0.002120  -0.051200  -0.008960   0.009197  -0.013421
    37  H   -0.000152   0.019368   0.010255  -0.001908   0.028840  -0.108908
    38  H   -0.000000   0.000580  -0.000093   0.002320   0.006789  -0.020547
    39  H   -0.000000   0.000338   0.000524  -0.005442   0.035157   0.011771
    40  H   -0.000000   0.000781   0.008716  -0.067544   0.016165   0.156911
              25         26         27         28         29         30
     1  C    0.101654   0.389455  -0.073926   0.174331  -0.410595   0.007511
     2  C   -0.055234   0.439445  -0.034240   0.044996  -0.052962   0.003425
     3  Cl  -0.002349  -0.001852   0.000284  -0.000236  -0.000378  -0.000000
     4  C   -0.032438   0.114151   0.034058  -0.006356   0.044237   0.000075
     5  H   -0.000149  -0.000021  -0.000005  -0.000000   0.000009  -0.000000
     6  C    0.038070   0.196599   0.008056   0.016810  -0.037687   0.008094
     7  C   -0.195978   0.862822   0.044735   0.064657   0.085317   0.070912
     8  C    0.175326  -1.625911   0.161930  -0.295123   0.490312  -0.049097
     9  S    0.015420  -0.287354   0.094196  -0.040514  -0.082137  -0.000736
    10  O   -0.000567  -0.011491   0.007042  -0.002121   0.008927  -0.000001
    11  O    0.003304  -0.011555   0.000805   0.000013  -0.010876  -0.000000
    12  N   -0.019079   0.240880  -0.042963   0.048664   0.165566   0.000157
    13  H   -0.000175  -0.014735  -0.007851   0.003922  -0.019878  -0.000000
    14  H    0.004911  -0.036423   0.010505  -0.008207   0.004007  -0.000001
    15  H   -0.004290  -0.021274  -0.025577  -0.009918   0.024448  -0.000576
    16  H   -0.000618  -0.000073  -0.000005   0.000000   0.000021  -0.000001
    17  C   -0.096681  -0.249081  -0.268473  -0.031217   0.082753  -0.068002
    18  N    0.028942  -0.423127   0.256680  -0.102766   0.365645   0.207232
    19  O   -0.002709  -0.003334  -0.000495   0.000083   0.002157   0.011158
    20  N    0.137759   1.130477  -0.171623   0.302379  -1.283434   0.031228
    21  C   -0.465606   0.075866   0.160267  -0.063688  -1.610080  -0.004759
    22  C    0.083702   0.366893  -0.401349   0.566927  -0.745709   0.011962
    23  C    0.202601   2.233550  -3.113178   2.830323 -20.270459   0.026030
    24  C   -0.244493 -10.681069   0.193546  -3.333473   5.929034  -0.106511
    25  C    6.610522  -0.178711  -0.047082   0.021665  -0.483537  -0.011307
    26  C   -0.178711  12.471034  -0.367859   0.435713   0.965852   0.066184
    27  C   -0.047082  -0.367859   7.575557   0.011282   2.069975   0.006250
    28  C    0.021665   0.435713   0.011282   6.734837  -1.579701   0.001209
    29  C   -0.483537   0.965852   2.069975  -1.579701  23.552426   0.007688
    30  H   -0.011307   0.066184   0.006250   0.001209   0.007688   0.252942
    31  H   -0.025710   0.064720  -0.001528   0.008418  -0.041527   0.004418
    32  H    0.002950  -0.024113   0.002611  -0.002128  -0.014287  -0.000008
    33  H    0.034743   0.023191  -0.006571   0.014861  -0.040286   0.000008
    34  H    0.399177  -0.000905   0.000231  -0.000181   0.005754   0.000020
    35  H    0.442539   0.003461  -0.000426   0.000460  -0.018957   0.000022
    36  H    0.385447   0.002168  -0.000001   0.000083   0.009781   0.000008
    37  H   -0.000525   0.363496  -0.015746   0.000602  -0.013868   0.000052
    38  H   -0.000102  -0.015130   0.353236  -0.021263   0.008749   0.000000
    39  H    0.000048   0.006484  -0.032620   0.341323  -0.043346   0.000000
    40  H   -0.000769  -0.047855   0.010152  -0.090246   0.314958   0.000000
              31         32         33         34         35         36
     1  C    0.003534  -0.000633   0.001520  -0.008081   0.016466  -0.000922
     2  C    0.000563  -0.000221  -0.004869   0.006009   0.001024  -0.001259
     3  Cl  -0.000004   0.000002   0.000025  -0.000022  -0.000139  -0.000006
     4  C    0.000421  -0.000027  -0.000622   0.000692  -0.011167   0.001276
     5  H   -0.000000  -0.000000  -0.000000  -0.000000  -0.000001  -0.000000
     6  C   -0.000184  -0.000300  -0.000960  -0.008336   0.009165  -0.001639
     7  C    0.003320  -0.001036  -0.008938   0.058852  -0.022229  -0.000982
     8  C   -0.000541   0.000612   0.016970  -0.017844   0.008560   0.000552
     9  S    0.000107   0.000069   0.003537  -0.001547   0.005253  -0.000293
    10  O    0.000000   0.000000  -0.000004  -0.000000  -0.000018   0.000000
    11  O    0.000005   0.000001   0.000520  -0.000021   0.000363  -0.000010
    12  N    0.000150  -0.000094   0.000754   0.000024   0.000194   0.000047
    13  H   -0.000000   0.000000   0.000018  -0.000000  -0.000001  -0.000000
    14  H   -0.000001   0.000030  -0.000617  -0.000000   0.000015  -0.000000
    15  H   -0.000109  -0.000003  -0.000001   0.000100  -0.000092  -0.000004
    16  H    0.000000   0.000000  -0.000000   0.000004  -0.000001   0.000000
    17  C   -0.010267   0.000829  -0.003144  -0.040567   0.001817   0.006983
    18  N    0.015290  -0.001383   0.008347   0.017882  -0.006630  -0.002073
    19  O    0.000299  -0.000002   0.000007  -0.000713   0.000070   0.000013
    20  N    0.024092   0.014355   0.065390  -0.009487   0.028967   0.002120
    21  C    0.399662  -0.099058  -0.174994  -0.102057  -0.055387  -0.051200
    22  C    0.003539   0.519721   0.583398   0.024308  -0.013043  -0.008960
    23  C    0.150172  -0.120573   0.052002  -0.007014   0.006140   0.009197
    24  C   -0.326021   0.045877  -0.271046   0.026822  -0.060850  -0.013421
    25  C   -0.025710   0.002950   0.034743   0.399177   0.442539   0.385447
    26  C    0.064720  -0.024113   0.023191  -0.000905   0.003461   0.002168
    27  C   -0.001528   0.002611  -0.006571   0.000231  -0.000426  -0.000001
    28  C    0.008418  -0.002128   0.014861  -0.000181   0.000460   0.000083
    29  C   -0.041527  -0.014287  -0.040286   0.005754  -0.018957   0.009781
    30  H    0.004418  -0.000008   0.000008   0.000020   0.000022   0.000008
    31  H    0.471024  -0.004901   0.003457  -0.002634   0.003284  -0.001196
    32  H   -0.004901   0.434357  -0.025161  -0.000086   0.000098   0.000478
    33  H    0.003457  -0.025161   0.442585   0.000015   0.003084  -0.000216
    34  H   -0.002634  -0.000086   0.000015   0.455976  -0.026478  -0.022100
    35  H    0.003284   0.000098   0.003084  -0.026478   0.449863  -0.023851
    36  H   -0.001196   0.000478  -0.000216  -0.022100  -0.023851   0.461381
    37  H    0.000005   0.000002   0.000001   0.000000   0.000000   0.000000
    38  H    0.000000   0.000000   0.000000  -0.000000   0.000000   0.000000
    39  H   -0.000000   0.000000   0.000001   0.000000  -0.000000  -0.000000
    40  H    0.000001   0.000817   0.000284   0.000000   0.000000   0.000000
              37         38         39         40
     1  C   -0.007362  -0.000433   0.000127  -0.000493
     2  C    0.001242  -0.000054  -0.000004   0.000003
     3  Cl  -0.000002  -0.000000   0.000000  -0.000000
     4  C    0.000338   0.000001  -0.000001   0.000004
     5  H   -0.000000  -0.000000   0.000000   0.000000
     6  C   -0.008451  -0.000052   0.000010  -0.000026
     7  C   -0.011063  -0.000643   0.000105  -0.000095
     8  C    0.024090   0.000225  -0.000318   0.001192
     9  S   -0.000771   0.000014  -0.000048   0.000045
    10  O    0.000017  -0.000000   0.000000   0.000000
    11  O    0.000001   0.000001   0.000000   0.000005
    12  N   -0.001562   0.000176   0.000063   0.000026
    13  H    0.000041  -0.000001   0.000001   0.000001
    14  H    0.000039  -0.000006   0.000002   0.000031
    15  H   -0.001954  -0.000017   0.000000  -0.000002
    16  H    0.000000   0.000000  -0.000000  -0.000000
    17  C    0.009844   0.000162  -0.000003  -0.000014
    18  N    0.011160  -0.000773   0.000103   0.000340
    19  O   -0.000152  -0.000000  -0.000000  -0.000000
    20  N    0.019368   0.000580   0.000338   0.000781
    21  C    0.010255  -0.000093   0.000524   0.008716
    22  C   -0.001908   0.002320  -0.005442  -0.067544
    23  C    0.028840   0.006789   0.035157   0.016165
    24  C   -0.108908  -0.020547   0.011771   0.156911
    25  C   -0.000525  -0.000102   0.000048  -0.000769
    26  C    0.363496  -0.015130   0.006484  -0.047855
    27  C   -0.015746   0.353236  -0.032620   0.010152
    28  C    0.000602  -0.021263   0.341323  -0.090246
    29  C   -0.013868   0.008749  -0.043346   0.314958
    30  H    0.000052   0.000000   0.000000   0.000000
    31  H    0.000005   0.000000  -0.000000   0.000001
    32  H    0.000002   0.000000   0.000000   0.000817
    33  H    0.000001   0.000000   0.000001   0.000284
    34  H    0.000000  -0.000000   0.000000   0.000000
    35  H    0.000000   0.000000  -0.000000   0.000000
    36  H    0.000000   0.000000  -0.000000   0.000000
    37  H    0.426220  -0.002758  -0.000105   0.000014
    38  H   -0.002758   0.443710  -0.002872  -0.000110
    39  H   -0.000105  -0.002872   0.446202  -0.002600
    40  H    0.000014  -0.000110  -0.002600   0.443203
 Mulliken charges:
               1
     1  C   -1.899595
     2  C    0.842388
     3  Cl   0.285649
     4  C   -0.049385
     5  H    0.287025
     6  C   -0.153059
     7  C    0.029075
     8  C   -0.319382
     9  S    1.555858
    10  O   -0.542162
[...]
 0.00009692,-0.00002669,-0.00024391,0.00022008,0.00051793,0.00035631,-0
 .12746983,-0.23985826,-0.00406376,-0.00000015,0.00000381,0.00006645,0.
 00004323,-0.00000768,-0.00003598,-0.00005323,-0.00002100,-0.00002849,0
 .00003418,-0.00003912,0.00005391,0.00000182,-0.00001151,0.00003408,-0.
 00045139,0.00032123,-0.00049920,-0.00005180,-0.00005228,-0.00016311,-0
 .00009714,-0.00000684,-0.00016298,-0.00196259,-0.00432563,-0.00014690,
 -0.01357683,-0.01790726,0.00060075,0.13878010,0.25624546,-0.00002129,0
 .00002415,-0.00000690,0.00001859,0.00000416,0.00003620,0.00000035,-0.0
 0000298,0.00000020,0.00002244,-0.00002296,-0.00002056,0.00000049,-0.00
 000003,-0.00000079,-0.00001069,0.00002123,0.00000762,0.00004672,-0.000
 01461,0.00003255,0.00000312,0.00000299,-0.00005863,-0.00000922,0.00001
 036,0.00001061,0.00000027,-0.00000648,-0.00000111,0.00000519,-0.000000
 02,-0.00000443,0.00000212,-0.00000227,-0.00000408,0.00000158,0.0000026
 0,0.00000154,-0.00000348,0.00000110,0.00000527,-0.00000750,0.00001777,
 0.00000907,-0.00000308,-0.00001736,0.00000223,-0.00036193,0.00002735,-
 0.00030994,0.00017739,-0.00003469,0.00052421,-0.00003398,-0.00005229,0
 .00027025,-0.00395086,0.00055319,-0.00401616,-0.00910411,-0.01848959,-
 0.00056882,0.00042982,-0.00003178,0.00080658,0.00005136,-0.00003843,0.
 00019279,-0.00096546,-0.00077664,0.00086206,-0.00203780,-0.00266448,-0
 .04652439,-0.00007144,0.00003450,-0.00040636,-0.00007199,-0.00008583,0
 .00001720,-0.00004369,-0.00002439,-0.00005357,0.00011663,0.00006983,0.
 00005501,-0.00011450,-0.00005583,0.00008432,0.00051021,0.00028580,0.00
 057319,-0.00003246,0.00005136,-0.00005515,0.00027057,-0.00005726,-0.00
 001904,0.01685417,0.02589719,0.00218212,-0.00668869,-0.00832586,-0.001
 03353,0.00504918,0.00369191,0.04745892,0.00005675,-0.00002948,0.000079
 32,-0.00000706,0.00001258,-0.00000441,0.00003312,-0.00003407,0.0000012
 5,0.00002124,-0.00001637,0.00000133,0.00000239,-0.00000326,-0.00000108
 ,-0.00002284,0.00001160,0.00002205,0.00007110,-0.00005273,0.00002587,0
 .00006611,-0.00003231,0.00005011,-0.00006696,0.00010024,0.00007405,0.0
 0000167,-0.00006000,-0.00002020,0.00005994,-0.00000875,-0.00004530,0.0
 0001033,-0.00000154,-0.00002384,0.00000383,0.00007472,0.00004183,-0.00
 005721,-0.00003915,0.00005429,-0.00108520,0.00069286,-0.00017853,0.000
 01157,-0.00000206,0.00000843,0.00002812,0.00032912,-0.00066882,0.00006
 730,0.00040573,0.00024068,-0.00013789,-0.00003333,0.00027199,0.0002266
 4,0.00159426,0.00131318,-0.00021585,-0.00009589,0.00036971,-0.00044423
 ,-0.00054741,0.00069596,-0.00057384,-0.00424322,-0.00321408,-0.0070862
 4,-0.01318171,0.01757559,0.00004632,-0.00000217,-0.00002579,-0.1215089
 0,-0.09333604,0.09118724,0.00884774,0.00694549,-0.00686718,0.00245382,
 -0.00239931,-0.00331357,-0.00085891,0.00015875,-0.00091268,0.00000188,
 -0.00020683,-0.00002645,0.00006559,0.00000234,-0.00004902,-0.00024700,
 -0.00010572,-0.00012920,-0.00017414,-0.00009886,-0.00008516,-0.0000183
 1,0.00000881,-0.00003071,0.00000139,0.00000350,0.00000413,-0.00000548,
 -0.00000968,-0.00000989,0.12131865,0.00005852,-0.00001810,0.00005379,-
 0.00001844,-0.00002632,-0.00002438,0.00001889,-0.00000989,-0.00000142,
 0.00000099,0.00000908,-0.00000298,0.00000347,-0.00000048,-0.00000152,0
 .00000338,-0.00000844,-0.00000004,-0.00000723,0.00001692,-0.00000535,-
 0.00009163,-0.00005240,-0.00025919,0.00005988,-0.00002044,0.00011983,-
 0.00001627,0.00000270,-0.00002071,-0.00002067,0.00000787,-0.00002231,-
 0.00011003,0.00006814,-0.00000992,-0.00007802,-0.00001686,0.00003782,0
 .00002589,0.00004918,-0.00001930,0.00054823,-0.00019291,0.00028986,-0.
 00000538,-0.00000820,0.00000419,-0.00016966,0.00039640,-0.00077197,0.0
 0117591,-0.00038226,-0.00017089,-0.00011207,-0.00003094,0.00030672,0.0
 0156869,-0.00189817,0.00113112,-0.00002785,-0.00011515,-0.00008470,0.0
 0001612,-0.00064363,0.00062503,-0.00478157,0.00358591,-0.00075050,-0.0
 0743464,-0.00507202,0.01117692,0.00004958,0.00004361,-0.00002853,-0.09
 183888,-0.13748182,0.11197097,-0.00017206,0.00258158,-0.00053713,-0.00
 242221,0.00505025,0.00091396,0.00016254,-0.00047527,-0.00066827,-0.000
 09981,0.00003525,-0.00021136,-0.00005121,0.00002118,0.00000214,-0.0002
 2519,-0.00007285,-0.00013877,-0.00004966,0.00001137,-0.00003463,-0.000
 01930,0.00000304,-0.00003371,-0.00001448,0.00000130,-0.00000234,0.0000
 0457,0.00001328,-0.00000398,0.10149176,0.13744505,-0.00005804,0.000016
 97,-0.00008832,0.00003022,0.00002195,0.00001982,-0.00001921,0.00000980
 ,-0.00000485,-0.00000313,-0.00000832,-0.00001214,-0.00000128,-0.000002
 24,-0.00000026,0.00000452,-0.00000660,-0.00004908,-0.00006180,0.000089
 58,0.00002604,-0.00010774,-0.00001896,0.00006398,0.00003570,-0.0000474
 4,-0.00005212,-0.00000267,0.00003069,0.00001398,-0.00003148,0.00000290
 ,0.00002827,0.00001659,-0.00001381,-0.00001347,0.00001603,-0.00005588,
 -0.00003493,0.00003567,0.00000169,-0.00005317,0.00008660,-0.00012521,0
 .00007911,-0.00000897,0.00000615,-0.00000765,0.00023676,0.00027285,0.0
 0003724,-0.00085016,-0.00060283,-0.00044530,-0.00004389,-0.00007274,0.
 00007645,0.00112249,0.00001578,-0.00037917,0.00008105,-0.00024472,0.00
 009362,-0.00019054,-0.00045364,0.00027774,-0.00279661,0.00000894,0.000
 13586,-0.00391165,-0.00495191,0.01039209,0.00002445,0.00007736,-0.0000
 1446,0.09056565,0.11184926,-0.18129501,0.01577188,0.01655472,-0.013252
 57,-0.00375881,0.00035210,-0.00361613,-0.00038255,-0.00042306,-0.00029
 927,0.00008355,0.00002263,-0.00001277,-0.00001521,0.00002822,0.0000107
 8,-0.00009365,-0.00003507,-0.00006226,0.00001715,0.00002915,0.00001152
 ,-0.00000496,-0.00000661,0.00000232,-0.00000429,0.00000083,0.00000146,
 0.00002305,0.00000291,0.00002059,-0.09745770,-0.12195253,0.18790566,0.
 00000821,0.00000116,-0.00000432,-0.00000615,-0.00000431,-0.00000986,-0
 .00000749,0.00000817,0.00000232,-0.00000718,0.00001058,0.00000854,-0.0
 0000124,0.00000157,0.00000086,0.00001357,-0.00000522,0.00000831,-0.000
 01152,0.00000382,-0.00001224,-0.00000113,0.00000694,0.00000708,-0.0000
 1468,-0.00001711,-0.00002874,0.00000700,0.00000745,0.00000925,0.000004
 22,0.00000342,0.00000947,0.00001447,-0.00001434,0.00001429,-0.00002045
 ,0.00001400,-0.00001537,-0.00000368,-0.00001587,-0.00001936,0.00002255
 ,-0.00004707,0.00001129,-0.00000137,-0.00000014,-0.00000086,0.00004325
 ,-0.00016971,0.00017733,-0.00011596,0.00000311,-0.00000154,0.00004027,
 0.00004819,-0.00014355,-0.00030916,-0.00033942,-0.00016439,-0.00003905
 ,0.00023366,-0.00012834,-0.00026722,0.00027220,0.00005555,0.00004859,0
 .00065959,0.00040864,0.00335919,-0.00213276,-0.00181988,0.00000135,-0.
 00008451,0.00000266,-0.00299702,-0.00470175,-0.00094529,-0.24035615,-0
 .13008561,-0.07142512,-0.00736853,-0.00664031,-0.00618228,0.00230566,-
 0.00414616,0.00159601,0.00002230,0.00001717,-0.00001817,0.00001583,-0.
 00004797,-0.00001578,0.00001700,0.00001710,-0.00001876,-0.00011529,-0.
 00004043,-0.00003590,-0.00000075,0.00000518,-0.00001033,-0.00000452,0.
 00000506,0.00000383,-0.00002926,0.00000225,-0.00001856,-0.00098304,0.0
 0220771,0.00063153,0.24816759,-0.00000745,0.00000232,-0.00000304,0.000
 00139,-0.00000679,-0.00000569,-0.00000561,0.00000579,0.00000031,-0.000
 00498,0.00000707,0.00000368,-0.00000047,0.00000053,-0.00000013,0.00000
 696,-0.00000387,0.00000363,-0.00000189,-0.00000058,-0.00000811,0.00000
 508,0.00001588,0.00000059,0.00002763,-0.00002054,-0.00000309,-0.000004
 38,0.00001783,-0.00000192,-0.00001845,-0.00000022,0.00000592,-0.000044
 95,0.00003722,-0.00002744,-0.00003957,-0.00001184,0.00000924,0.0000067
 3,0.00001836,0.00000152,-0.00000223,-0.00002332,-0.00000206,-0.0000011
 0,-0.00000048,-0.00000047,0.00001203,-0.00007722,0.00010144,-0.0000155
 6,0.00002533,-0.00005963,0.00002333,0.00001609,-0.00007263,-0.00027776
 ,0.00030287,0.00006532,0.00015996,0.00001414,0.00004973,0.00045756,-0.
 00033073,-0.00021434,0.00054872,-0.00055814,0.00009919,-0.00215894,0.0
 0458699,0.00200432,0.00001073,0.00000881,-0.00001787,0.00232649,0.0049
 4690,0.00182509,-0.12980881,-0.12356550,-0.04043765,-0.01409847,-0.004
 62408,-0.00641177,-0.00392345,0.00296839,0.00417412,0.00001838,0.00000
 630,-0.00001570,-0.00001808,-0.00002698,0.00000155,-0.00006534,-0.0000
 5789,0.00002835,0.00008895,0.00004286,0.00002338,-0.00001019,0.0000088
 0,-0.00000640,0.00000394,0.00000038,-0.00000469,-0.00000067,-0.0000040
 4,-0.00000053,0.00200882,-0.00230293,-0.00113294,0.14283855,0.12115266
 ,-0.00000168,0.00000070,-0.00000439,0.00000017,-0.00000522,-0.00001361
 ,-0.00001188,0.00001111,0.00000278,-0.00001333,0.00001227,0.00000964,-
 0.00000170,0.00000202,0.00000094,0.00001544,-0.00000606,0.00001390,-0.
 00000599,-0.00000025,-0.00001889,0.00001692,0.00002578,0.00001495,0.00
 000994,-0.00002331,-0.00002575,0.00000340,0.00002392,0.00000462,-0.000
 01357,0.00000214,0.00001203,-0.00001396,-0.00000198,0.00000417,-0.0000
 1254,-0.00000360,-0.00000768,0.00002018,-0.00000210,-0.00002016,0.0000
 1698,-0.00007319,0.00000958,-0.00000083,-0.00000003,-0.00000115,0.0000
 5213,-0.00027901,0.00028597,-0.00011823,0.00011594,0.00000596,0.000073
 93,0.00007694,-0.00023482,-0.00139791,-0.00122272,0.00029958,0.0000441
 8,0.00040447,-0.00035399,0.00010867,-0.00019167,0.00008011,0.00030849,
 0.00024841,-0.00111905,-0.00202096,0.00234484,-0.00481839,-0.00007018,
 -0.00019957,0.00003402,-0.02406682,-0.01554846,-0.00449011,-0.07135622
 ,-0.04038178,-0.08295149,0.01746787,0.01119699,0.01035685,0.00113276,0
 .00366996,-0.00200573,0.00001833,0.00003623,-0.00003168,-0.00001417,-0
 .00007712,-0.00001187,-0.00006466,-0.00003918,0.00000802,0.00000196,0.
 00001151,0.00001271,0.00000747,0.00001106,-0.00000265,0.00000082,0.000
 00765,0.00000004,-0.00006526,0.00000306,-0.00004628,0.00122012,-0.0007
 2866,0.00124298,0.07769998,0.04142476,0.08272003,0.00000671,-0.0000027
 7,0.00000888,-0.00000014,-0.00000023,-0.00000504,-0.00000232,0.0000011
 6,0.00000139,-0.00000340,0.00000252,0.00000524,-0.00000036,0.00000063,
 0.00000032,0.00000355,-0.00000100,0.00000817,0.00000078,-0.00000889,-0
 .00000254,0.00001598,0.00001348,0.00000110,-0.00000232,0.00000481,-0.0
 0000933,-0.00000077,-0.00000178,0.00000354,-0.00000081,-0.00000092,0.0
 0000486,0.00000854,-0.00000572,0.00000040,-0.00000148,0.00000418,0.000
 00132,-0.00000327,-0.00000481,-0.00000301,-0.00002808,0.00001605,-0.00
 000003,0.00000123,-0.00000027,0.00000023,0.00003490,-0.00007686,0.0000
 6448,-0.00008553,0.00007691,-0.00000349,0.00001274,0.00002194,-0.00006
 575,-0.00013312,0.00036174,-0.00012396,-0.00039158,0.00000816,-0.00003
 777,0.00052059,0.00020235,-0.00093791,-0.00146664,-0.00553250,-0.00131
 565,-0.00084633,-0.00035884,0.00052786,0.00009188,0.00001353,-0.000114
 59,0.00095835,-0.00481097,0.00103281,0.00829615,-0.00082458,0.01631854
 ,-0.07945082,-0.00574730,-0.09080259,-0.00383849,0.00241468,-0.0240444
 4,-0.00000017,-0.00002616,-0.00001747,0.00004970,-0.00000937,-0.000056
 74,-0.00002790,-0.00002919,-0.00001524,-0.00006713,0.00000345,-0.00003
 453,-0.00005155,0.00001714,-0.00004151,-0.00000526,0.00000773,0.000001
 69,0.00000045,-0.00000763,0.00000197,0.00041794,-0.00016544,0.00072623
 ,-0.00093585,0.00263999,0.00014584,0.07733619,-0.00000422,0.00000317,-
 0.00000093,-0.00000240,-0.00000300,0.00000096,0.00000272,-0.00000058,-
 0.00000079,0.00000282,0.00000126,-0.00000325,0.00000022,-0.00000028,-0
 .00000009,-0.00000230,0.00000029,-0.00000258,0.00000191,0.00000357,-0.
 00000096,-0.00001306,-0.00000632,-0.00000734,-0.00000038,-0.00000826,0
 .00000876,0.00000094,-0.00000091,-0.00000324,0.00000269,0.00000199,-0.
 00000519,-0.00000859,0.00000840,-0.00001111,0.00000135,0.00000258,0.00
 000709,-0.00001364,0.00000401,0.00000806,-0.00000229,0.00000778,-0.000
 00771,-0.00000105,-0.00000033,0.00000043,-0.00002317,0.00003310,-0.000
 06220,0.00018925,-0.00000934,-0.00008408,-0.00000581,-0.00000188,0.000
 02749,0.00038955,-0.00020247,0.00008853,-0.00022926,-0.00026158,0.0000
 8038,0.00003994,0.00050268,-0.00064045,-0.00562430,0.00214707,0.000379
 96,-0.00044496,-0.00097980,-0.00008846,0.00009181,0.00004675,-0.000100
 39,-0.00480782,0.00230491,0.00316962,0.00663609,0.00258425,0.01721631,
 -0.00583528,-0.04545171,0.01831495,-0.00490467,0.00405828,-0.01641936,
 -0.00000787,0.00002871,-0.00001242,-0.00000634,0.00000301,0.00000906,0
 .00002612,-0.00002428,0.00005261,-0.00008387,-0.00000599,-0.00002420,-
 0.00002411,0.00001026,-0.00003882,-0.00000214,-0.00000646,0.00000359,0
 .00000114,0.00000278,0.00000799,0.00018898,0.00019403,0.00087910,0.002
 44624,-0.00218894,-0.00144606,0.00943666,0.03909003,-0.00000770,0.0000
 0212,-0.00001149,0.00000135,-0.00000350,-0.00000556,-0.00000834,0.0000
 0829,0.00000108,-0.00000673,0.00000707,0.00000391,-0.00000108,0.000001
 00,0.00000042,0.00000845,-0.00000369,0.00000379,-0.00000951,0.00000440
 ,-0.00001163,0.00000074,0.00000931,0.00001451,0.00001671,-0.00002456,-
 0.00002011,0.00000021,0.00001893,0.00000439,-0.00001302,0.00000159,0.0
 0001085,-0.00000421,0.00000264,0.00000168,-0.00000384,-0.00001089,-0.0
 0000705,0.00001858,-0.00000486,-0.00001822,0.00003093,-0.00005170,0.00
 000939,-0.00000163,0.00000026,-0.00000125,0.00003015,-0.00014205,0.000
 16261,-0.00007846,0.00004916,-0.00012379,0.00003755,0.00003708,-0.0001
 2325,-0.00003748,-0.00016018,-0.00000632,-0.00012320,-0.00001031,0.000
 01547,0.00020064,0.00028896,-0.00009617,-0.00177188,0.00015350,0.00150
 038,0.00047021,0.00003654,0.00052547,0.00005220,-0.00001498,-0.0000653
 0,0.00174578,0.00351973,-0.00022454,-0.00771185,-0.00058358,-0.0142083
 8,-0.09055486,0.01824676,-0.31895557,-0.00051416,0.00151589,-0.0034023
 7,0.00001053,0.00002741,-0.00000647,0.00000581,-0.00002642,-0.00001187
 ,-0.00003014,-0.00004093,-0.00001838,-0.00009128,-0.00003461,-0.000068
 41,-0.00002306,0.00000940,-0.00002417,-0.00000358,0.00000078,0.0000013
 8,-0.00001591,-0.00000138,-0.00000442,-0.00047284,-0.00002403,-0.00074
 258,0.00069948,-0.00104531,0.00066509,0.09761214,-0.02082741,0.3349019
 5,-0.00000333,0.00000337,0.00000054,-0.00000236,-0.00000217,0.00000625
 ,0.00000165,-0.00000022,-0.00000043,0.00000311,-0.00000112,-0.00000377
 ,0.00000005,0.00000008,0.00000006,-0.00000499,0.00000253,0.00000051,0.
 00001026,-0.00000349,0.00000299,-0.00000422,-0.00000199,-0.00000045,-0
 .00000139,0.00000808,0.00000133,-0.00000054,-0.00000525,-0.00000030,0.
 00000140,-0.00000290,-0.00000058,-0.00000374,-0.00000142,0.00000365,-0
 .00000013,-0.00000143,-0.00000132,0.00000219,0.00000047,-0.00000402,-0
 .00000168,0.00001525,-0.00000524,0.00000038,0.00000024,0.00000036,0.00
 001337,-0.00005717,-0.00003445,-0.00022538,0.00030481,-0.00027336,0.00
 001582,0.00003065,-0.00003539,0.00055372,0.00015969,-0.00018491,0.0002
 2945,0.00012389,0.00001748,-0.00106852,0.00199785,0.00145270,0.0091881
 1,0.00594850,-0.00691416,0.00249419,-0.00341012,-0.00354223,-0.0000421
 0,-0.00001545,0.00002349,-0.00049114,0.00037506,-0.00033234,-0.0008329
 9,-0.00495082,-0.00349386,-0.00686594,-0.01359437,0.01760794,-0.120142
 64,-0.08935942,0.08829686,0.00000264,-0.00000093,0.00004693,-0.0000060
 5,0.00000116,0.00002430,0.00039169,0.00007579,0.00031600,-0.00037703,-
 0.00004558,-0.00010803,0.00001909,-0.00001230,0.00001589,0.00000843,-0
 .00000689,0.00000305,-0.00000176,0.00000219,-0.00000155,-0.00032036,0.
 00053556,0.00029517,-0.00049439,-0.00067690,0.00088432,-0.00041237,0.0
 0258909,0.00054333,0.11836750,0.00000534,0.00000205,-0.00000191,0.0000
 0031,0.00000003,0.00000885,0.00000639,-0.00000647,-0.00000134,0.000007
 35,-0.00000446,-0.00000771,0.00000082,-0.00000099,-0.00000038,-0.00001
 172,0.00000080,-0.00000356,-0.00000140,0.00000229,0.00000469,-0.000002
 23,-0.00001264,-0.00000976,-0.00001993,0.00000086,0.00002261,0.0000023
 9,-0.00000620,-0.00000379,0.00001216,0.00000495,-0.00001217,0.00000859
 ,0.00000184,-0.00000727,-0.00000156,0.00001130,0.00000236,-0.00001946,
 0.00000385,0.00001351,-0.00000460,0.00001559,-0.00000249,0.00000071,0.
 00000030,0.00000025,0.00000081,0.00014529,-0.00012865,0.00015871,-0.00
 019773,0.00003060,-0.00004161,-0.00003390,0.00010810,0.00034977,0.0000
 2336,0.00024074,-0.00017199,-0.00024572,-0.00003560,0.00209091,-0.0019
 5327,-0.00083243,-0.00125606,0.00337018,0.00009452,-0.00343963,0.00572
 622,0.00068152,-0.00001352,0.00003733,0.00000453,0.00049998,-0.0004102
 4,-0.00041667,-0.00518564,0.00325434,-0.00074915,-0.00632462,-0.004530
 76,0.01158246,-0.08962930,-0.14352461,0.11200734,-0.00003799,-0.000001
 89,-0.00002555,-0.00002901,0.00003472,0.00001494,-0.00008990,-0.000410
 75,0.00024235,0.00058861,0.00027061,0.00037312,0.00000133,0.00000165,0
 .00001293,-0.00000290,0.00000410,-0.00000014,0.00001516,0.00000359,0.0
 0000480,0.00051033,-0.00070705,-0.00011908,-0.00032042,-0.00038143,0.0
 0060021,0.00236813,-0.00188675,-0.00093042,0.09997568,0.14139960,-0.00
 000136,0.00000196,-0.00000050,-0.00000100,-0.00000757,-0.00001474,-0.0
 0001257,0.00001331,0.00000328,-0.00001290,0.00001438,0.00000965,-0.000
 00204,0.00000268,0.00000115,0.00001497,-0.00000551,0.00001840,-0.00000
 922,0.00000649,-0.00002408,0.00000772,0.00000512,0.00000626,0.00001428
 ,-0.00002154,-0.00003732,0.00000100,0.00001578,0.00000853,-0.00001313,
 -0.00000067,0.00001629,0.00000203,0.00000440,0.00001165,-0.00000380,-0
 .00000398,-0.00000167,0.00000652,-0.00000869,-0.00001249,0.00001208,-0
 .00004706,0.00000031,-0.00000073,0.00000002,-0.00000113,0.00011359,-0.
 00041622,0.00026656,-0.00039852,0.00027279,-0.00060694,0.00009593,0.00
 014270,-0.00031493,0.00100894,0.00070252,-0.00048211,0.00023412,0.0001
 8683,0.00005524,0.00111392,-0.00080150,0.00135247,0.01530557,0.0178463
 0,-0.01432012,-0.00385605,0.00082888,-0.00322489,0.00000534,-0.0000658
 2,0.00001112,-0.00056967,-0.00049919,-0.00067854,-0.00285402,-0.000246
 95,0.00087206,-0.00547636,-0.00615607,0.01032466,0.08921805,0.11228787
 ,-0.18247143,0.00000711,0.00004161,-0.00004694,-0.00001823,-0.00007332
 ,-0.00002216,-0.00043125,-0.00032606,-0.00016656,0.00001362,-0.0000082
 4,-0.00007106,-0.00000677,0.00001349,-0.00001191,-0.00000632,0.0000105
 5,-0.00000013,-0.00003017,-0.00000517,-0.00001837,0.00029932,-0.000123
 21,-0.00000401,-0.00032775,-0.00035069,0.00037372,0.00116458,-0.000467
 89,0.00033492,-0.09460678,-0.12276234,0.18886574\\0.00000320,-0.000002
 88,0.00000043,0.00000211,0.00000684,0.00000010,0.00000701,-0.00000018,
 -0.00000636,0.00001095,0.00000035,-0.00000457,0.00000936,0.00000406,-0
 .00000473,0.00000609,0.00000283,-0.00000343,0.00000753,0.00000334,-0.0
 0000163,0.00000528,0.00000122,0.00000087,0.00000537,-0.00000174,0.0000
 0413,-0.00000078,0.00000469,-0.00000445,-0.00000578,0.00000215,-0.0000
 0469,-0.00000701,-0.00000582,-0.00000172,-0.00000281,0.00000080,0.0000
 0506,-0.00000305,-0.00000144,-0.00000113,0.00000267,-0.00000340,0.0000
 0481,0.00001129,0.00000109,-0.00000185,0.00000236,0.00000523,-0.000004
 86,-0.00000275,-0.00001053,0.00001417,0.00000785,0.00000060,0.00000453
 ,0.00000888,-0.00000290,0.00000075,-0.00000052,0.00000327,-0.00000298,
 -0.00000505,0.00000128,-0.00000030,-0.00000316,-0.00000318,0.00000067,
 -0.00000861,0.00000241,-0.00000442,0.00000171,0.00000267,-0.00000451,-
 0.00000367,-0.00000100,0.00000593,-0.00000581,-0.00000331,0.00000502,-
 0.00000878,-0.00000365,0.00000603,-0.00000856,-0.00000230,0.00000098,0
 .00000796,0.00000287,0.00000360,-0.00000039,0.00000031,-0.00000128,-0.
 00000566,0.00000082,-0.00000351,-0.00000517,0.00000091,-0.00000484,0.0
 0000399,0.00000133,-0.00000442,0.00000174,0.00000227,-0.00000586,0.000
 00164,0.00000174,-0.00000605,-0.00000065,-0.00000261,0.00000688,-0.000
 00635,-0.00000364,0.00000867,-0.00001147,-0.00000282,0.00000515,-0.000
 01097,-0.00000170,-0.00000017\\\@
 The archive entry for this job was punched.


 LAW OF COMPENSATION:
      NO CALCULATION IS EVER A COMPLETE FAILURE; IT 
      CAN ALWAYS SERVE AS A BAD EXAMPLE.

                                           -- ANON
 Job cpu time:       0 days  9 hours 40 minutes 49.9 seconds.
 Elapsed time:       0 days  0 hours 36 minutes 46.6 seconds.
 File lengths (MBytes):  RWF=   1231 Int=      0 D2E=      0 Chk=     35 Scr=      1
 Normal termination of Gaussian 16 at Sat Jul  2 14:39:38 2022.
