 Entering Gaussian System, Link 0=g16
 AtFile(1): /home/561/yj5695/Basis/6-31pGd.gbs
 Initial command:
 /apps/gaussian/g16c01/g16/l1.exe "/jobfs/48970333.gadi-pbs/Gau-1597627.inp" -scrdir="/jobfs/48970333.gadi-pbs/"
 Entering Link 1 = /apps/gaussian/g16c01/g16/l1.exe PID=   1597628.
  
 Copyright (c) 1988-2019, Gaussian, Inc.  All Rights Reserved.
  
 This is part of the Gaussian(R) 16 program.  It is based on
 the Gaussian(R) 09 system (copyright 2009, Gaussian, Inc.),
 the Gaussian(R) 03 system (copyright 2003, Gaussian, Inc.),
 the Gaussian(R) 98 system (copyright 1998, Gaussian, Inc.),
 the Gaussian(R) 94 system (copyright 1995, Gaussian, Inc.),
 the Gaussian 92(TM) system (copyright 1992, Gaussian, Inc.),
 the Gaussian 90(TM) system (copyright 1990, Gaussian, Inc.),
 the Gaussian 88(TM) system (copyright 1988, Gaussian, Inc.),
 the Gaussian 86(TM) system (copyright 1986, Carnegie Mellon
 University), and the Gaussian 82(TM) system (copyright 1983,
 Carnegie Mellon University). Gaussian is a federally registered
 trademark of Gaussian, Inc.
  
 This software contains proprietary and confidential information,
 including trade secrets, belonging to Gaussian, Inc.
  
 This software is provided under written license and may be
 used, copied, transmitted, or stored only in accord with that
 written license.
  
 The following legend is applicable only to US Government
 contracts under FAR:
  
                    RESTRICTED RIGHTS LEGEND
  
 Use, reproduction and disclosure by the US Government is
 subject to restrictions as set forth in subparagraphs (a)
 and (c) of the Commercial Computer Software - Restricted
 Rights clause in FAR 52.227-19.
  
 Gaussian, Inc.
 340 Quinnipiac St., Bldg. 40, Wallingford CT 06492
  
  
 ---------------------------------------------------------------
 Warning -- This program may not be used in any manner that
 competes with the business of Gaussian, Inc. or will provide
 assistance to any competitor of Gaussian, Inc.  The licensee
 of this program is prohibited from giving any competitor of
 Gaussian, Inc. access to this program.  By using this program,
 the user acknowledges that Gaussian, Inc. is engaged in the
 business of creating and licensing software in the field of
 computational chemistry and represents and warrants to the
 licensee that it is not a competitor of Gaussian, Inc. and that
 it will not use this program in any manner prohibited above.
 ---------------------------------------------------------------
  

 Cite this work as:
 Gaussian 16, Revision C.01,
 M. J. Frisch, G. W. Trucks, H. B. Schlegel, G. E. Scuseria, 
 M. A. Robb, J. R. Cheeseman, G. Scalmani, V. Barone, 
 G. A. Petersson, H. Nakatsuji, X. Li, M. Caricato, A. V. Marenich, 
 J. Bloino, B. G. Janesko, R. Gomperts, B. Mennucci, H. P. Hratchian, 
 J. V. Ortiz, A. F. Izmaylov, J. L. Sonnenberg, D. Williams-Young, 
 F. Ding, F. Lipparini, F. Egidi, J. Goings, B. Peng, A. Petrone, 
 T. Henderson, D. Ranasinghe, V. G. Zakrzewski, J. Gao, N. Rega, 
 G. Zheng, W. Liang, M. Hada, M. Ehara, K. Toyota, R. Fukuda, 
 J. Hasegawa, M. Ishida, T. Nakajima, Y. Honda, O. Kitao, H. Nakai, 
 T. Vreven, K. Throssell, J. A. Montgomery, Jr., J. E. Peralta, 
 F. Ogliaro, M. J. Bearpark, J. J. Heyd, E. N. Brothers, K. N. Kudin, 
 V. N. Staroverov, T. A. Keith, R. Kobayashi, J. Normand, 
 K. Raghavachari, A. P. Rendell, J. C. Burant, S. S. Iyengar, 
 J. Tomasi, M. Cossi, J. M. Millam, M. Klene, C. Adamo, R. Cammi, 
 J. W. Ochterski, R. L. Martin, K. Morokuma, O. Farkas, 
 J. B. Foresman, and D. J. Fox, Gaussian, Inc., Wallingford CT, 2019.
 
 ******************************************
 Gaussian 16:  ES64L-G16RevC.01  3-Jul-2019
                 1-Jul-2022 
 ******************************************
 %nproc=16
 Will use up to   16 processors via shared memory.
 %mem=50gb
 -----------------------------------------------------
 #m062X/gen 6D OPT Freq=noraman SCRF=(SMD,Solvent=h2o)
 -----------------------------------------------------
 1/18=20,19=15,26=3,38=1/1,3;
 2/9=110,12=2,17=6,18=5,40=1/2;
 3/5=7,8=2,11=2,25=1,30=1,70=32201,71=1,72=1,74=-55/1,2,3;
 4//1;
 5/5=2,38=5,53=1/2;
 6/7=2,8=2,9=2,10=2,28=1/1;
 7//1,2,3,16;
 1/18=20,19=15,26=3/3(2);
 2/9=110/2;
 99//99;
 2/9=110/2;
 3/5=7,6=1,8=2,11=2,25=1,30=1,70=32205,71=1,72=1,74=-55,82=7/1,2,3;
 4/5=5,16=3,69=1/1;
 5/5=2,38=5,53=1/2;
 7//1,2,3,16;
 1/18=20,19=15,26=3/3(-5);
 2/9=110/2;
 6/7=2,8=2,9=2,10=2,19=2,28=1/1;
 99/9=1/99;
 ----------------
 HA.31.smd.a1.smd
 ----------------
 Symbolic Z-matrix:
 Charge =  0 Multiplicity = 1
 C                    -1.38871   0.63675  -0.82246 
 C                    -2.51958   0.53354  -1.65087 
 Cl                   -4.12504   0.5355   -0.99099 
 C                    -2.38686   0.41885  -3.02167 
 H                    -3.26437   0.35377  -3.6563 
 C                    -1.11693   0.39857  -3.61844 
 C                    -0.00366   0.4751   -2.7643 
 S                     1.59553   0.26096  -3.44742 
 C                    -0.12236   0.59725  -1.38394 
 H                     0.75794   0.66363  -0.75059 
 S                    -1.49357   0.83363   0.95464 
 O                    -0.11767   0.85699   1.439 
 O                    -2.37688   1.95958   1.23658 
 N                    -2.1935   -0.49898   1.60608 
 H                    -1.66738  -1.3549    1.41851 
 H                    -3.18077  -0.59817   1.36652 
 N                    -1.06013   0.34955  -5.00743 
 C                     0.06091   0.58921  -5.59292 
 N                     1.26567   0.84003  -4.97967 
 O                     2.58192   1.1393   -2.83259 
 O                     1.91235  -1.16197  -3.51621 
 H                     0.09745   0.65492  -6.67648 
 H                     2.08096   1.01137  -5.57362 
 

 GradGradGradGradGradGradGradGradGradGradGradGradGradGradGradGradGradGrad
 Berny optimization.
 Initialization pass.
                           ----------------------------
                           !    Initial Parameters    !
                           ! (Angstroms and Degrees)  !
 --------------------------                            --------------------------
 ! Name  Definition              Value          Derivative Info.                !
 --------------------------------------------------------------------------------
 ! R1    R(1,2)                  1.4056         estimate D2E/DX2                !
 ! R2    R(1,9)                  1.3858         estimate D2E/DX2                !
 ! R3    R(1,11)                 1.791          estimate D2E/DX2                !
 ! R4    R(2,3)                  1.7358         estimate D2E/DX2                !
 ! R5    R(2,4)                  1.382          estimate D2E/DX2                !
 ! R6    R(4,5)                  1.0849         estimate D2E/DX2                !
 ! R7    R(4,6)                  1.4033         estimate D2E/DX2                !
 ! R8    R(6,7)                  1.4053         estimate D2E/DX2                !
 ! R9    R(6,17)                 1.391          estimate D2E/DX2                !
 ! R10   R(7,8)                  1.7521         estimate D2E/DX2                !
 ! R11   R(7,9)                  1.3908         estimate D2E/DX2                !
 ! R12   R(8,19)                 1.6709         estimate D2E/DX2                !
 ! R13   R(8,20)                 1.4569         estimate D2E/DX2                !
 ! R14   R(8,21)                 1.4594         estimate D2E/DX2                !
 ! R15   R(9,10)                 1.0865         estimate D2E/DX2                !
 ! R16   R(11,12)                1.4589         estimate D2E/DX2                !
 ! R17   R(11,13)                1.4586         estimate D2E/DX2                !
 ! R18   R(11,14)                1.6402         estimate D2E/DX2                !
 ! R19   R(14,15)                1.0221         estimate D2E/DX2                !
 ! R20   R(14,16)                1.0208         estimate D2E/DX2                !
 ! R21   R(17,18)                1.2872         estimate D2E/DX2                !
 ! R22   R(18,19)                1.3749         estimate D2E/DX2                !
 ! R23   R(18,22)                1.0862         estimate D2E/DX2                !
 ! R24   R(19,23)                1.0231         estimate D2E/DX2                !
 ! A1    A(2,1,9)              119.624          estimate D2E/DX2                !
 ! A2    A(2,1,11)             123.0748         estimate D2E/DX2                !
 ! A3    A(9,1,11)             117.2994         estimate D2E/DX2                !
 ! A4    A(1,2,3)              121.3319         estimate D2E/DX2                !
 ! A5    A(1,2,4)              120.8917         estimate D2E/DX2                !
 ! A6    A(3,2,4)              117.7753         estimate D2E/DX2                !
 ! A7    A(2,4,5)              120.4998         estimate D2E/DX2                !
 ! A8    A(2,4,6)              120.659          estimate D2E/DX2                !
 ! A9    A(5,4,6)              118.8379         estimate D2E/DX2                !
 ! A10   A(4,6,7)              117.2358         estimate D2E/DX2                !
 ! A11   A(4,6,17)             117.5231         estimate D2E/DX2                !
 ! A12   A(7,6,17)             125.2043         estimate D2E/DX2                !
 ! A13   A(6,7,8)              118.6486         estimate D2E/DX2                !
 ! A14   A(6,7,9)              122.7116         estimate D2E/DX2                !
 ! A15   A(8,7,9)              118.3967         estimate D2E/DX2                !
 ! A16   A(7,8,19)              97.7579         estimate D2E/DX2                !
 ! A17   A(7,8,20)             112.3173         estimate D2E/DX2                !
 ! A18   A(7,8,21)             109.6143         estimate D2E/DX2                !
 ! A19   A(19,8,20)            108.1633         estimate D2E/DX2                !
 ! A20   A(19,8,21)            109.7268         estimate D2E/DX2                !
 ! A21   A(20,8,21)            117.435          estimate D2E/DX2                !
 ! A22   A(1,9,7)              118.8553         estimate D2E/DX2                !
 ! A23   A(1,9,10)             120.1625         estimate D2E/DX2                !
 ! A24   A(7,9,10)             120.9821         estimate D2E/DX2                !
 ! A25   A(1,11,12)            106.02           estimate D2E/DX2                !
 ! A26   A(1,11,13)            108.1859         estimate D2E/DX2                !
 ! A27   A(1,11,14)            109.2548         estimate D2E/DX2                !
 ! A28   A(12,11,13)           119.6443         estimate D2E/DX2                !
 ! A29   A(12,11,14)           106.4762         estimate D2E/DX2                !
 ! A30   A(13,11,14)           106.9769         estimate D2E/DX2                !
 ! A31   A(11,14,15)           112.8213         estimate D2E/DX2                !
 ! A32   A(11,14,16)           113.4833         estimate D2E/DX2                !
 ! A33   A(15,14,16)           111.9268         estimate D2E/DX2                !
 ! A34   A(6,17,18)            118.8938         estimate D2E/DX2                !
 ! A35   A(17,18,19)           126.4551         estimate D2E/DX2                !
 ! A36   A(17,18,22)           119.6251         estimate D2E/DX2                !
 ! A37   A(19,18,22)           113.8558         estimate D2E/DX2                !
 ! A38   A(8,19,18)            121.25           estimate D2E/DX2                !
 ! A39   A(8,19,23)            115.6627         estimate D2E/DX2                !
 ! A40   A(18,19,23)           118.0244         estimate D2E/DX2                !
 ! D1    D(9,1,2,3)            178.3585         estimate D2E/DX2                !
 ! D2    D(9,1,2,4)             -1.2529         estimate D2E/DX2                !
 ! D3    D(11,1,2,3)            -2.1496         estimate D2E/DX2                !
 ! D4    D(11,1,2,4)           178.2391         estimate D2E/DX2                !
 ! D5    D(2,1,9,7)              0.9273         estimate D2E/DX2                !
 ! D6    D(2,1,9,10)          -179.2256         estimate D2E/DX2                !
 ! D7    D(11,1,9,7)          -178.5937         estimate D2E/DX2                !
 ! D8    D(11,1,9,10)            1.2535         estimate D2E/DX2                !
 ! D9    D(2,1,11,12)          178.2166         estimate D2E/DX2                !
 ! D10   D(2,1,11,13)          -52.2909         estimate D2E/DX2                !
 ! D11   D(2,1,11,14)           63.8323         estimate D2E/DX2                !
 ! D12   D(9,1,11,12)           -2.2804         estimate D2E/DX2                !
 ! D13   D(9,1,11,13)          127.2122         estimate D2E/DX2                !
 ! D14   D(9,1,11,14)         -116.6647         estimate D2E/DX2                !
 ! D15   D(1,2,4,5)           -179.1272         estimate D2E/DX2                !
 ! D16   D(1,2,4,6)              0.2022         estimate D2E/DX2                !
 ! D17   D(3,2,4,5)              1.248          estimate D2E/DX2                !
 ! D18   D(3,2,4,6)           -179.4226         estimate D2E/DX2                !
 ! D19   D(2,4,6,7)              1.1049         estimate D2E/DX2                !
 ! D20   D(2,4,6,17)          -176.8023         estimate D2E/DX2                !
 ! D21   D(5,4,6,7)           -179.5547         estimate D2E/DX2                !
 ! D22   D(5,4,6,17)             2.5382         estimate D2E/DX2                !
 ! D23   D(4,6,7,8)            172.7961         estimate D2E/DX2                !
 ! D24   D(4,6,7,9)             -1.4437         estimate D2E/DX2                !
 ! D25   D(17,6,7,8)            -9.4754         estimate D2E/DX2                !
 ! D26   D(17,6,7,9)           176.2849         estimate D2E/DX2                !
 ! D27   D(4,6,17,18)          166.6888         estimate D2E/DX2                !
 ! D28   D(7,6,17,18)          -11.0338         estimate D2E/DX2                !
 ! D29   D(6,7,8,19)            29.1234         estimate D2E/DX2                !
 ! D30   D(6,7,8,20)           142.4519         estimate D2E/DX2                !
 ! D31   D(6,7,8,21)           -85.0932         estimate D2E/DX2                !
 ! D32   D(9,7,8,19)          -156.3854         estimate D2E/DX2                !
 ! D33   D(9,7,8,20)           -43.0569         estimate D2E/DX2                !
 ! D34   D(9,7,8,21)            89.398          estimate D2E/DX2                !
 ! D35   D(6,7,9,1)              0.4332         estimate D2E/DX2                !
 ! D36   D(6,7,9,10)          -179.4127         estimate D2E/DX2                !
 ! D37   D(8,7,9,1)           -173.8204         estimate D2E/DX2                !
 ! D38   D(8,7,9,10)             6.3338         estimate D2E/DX2                !
 ! D39   D(7,8,19,18)          -37.3273         estimate D2E/DX2                !
 ! D40   D(7,8,19,23)          168.3453         estimate D2E/DX2                !
 ! D41   D(20,8,19,18)        -153.945          estimate D2E/DX2                !
 ! D42   D(20,8,19,23)          51.7276         estimate D2E/DX2                !
 ! D43   D(21,8,19,18)          76.7998         estimate D2E/DX2                !
 ! D44   D(21,8,19,23)         -77.5277         estimate D2E/DX2                !
 ! D45   D(1,11,14,15)          60.2193         estimate D2E/DX2                !
 ! D46   D(1,11,14,16)         -68.4295         estimate D2E/DX2                !
 ! D47   D(12,11,14,15)        -53.8697         estimate D2E/DX2                !
 ! D48   D(12,11,14,16)        177.4815         estimate D2E/DX2                !
 ! D49   D(13,11,14,15)        177.1105         estimate D2E/DX2                !
 ! D50   D(13,11,14,16)         48.4617         estimate D2E/DX2                !
 ! D51   D(6,17,18,19)           3.1577         estimate D2E/DX2                !
 ! D52   D(6,17,18,22)        -173.7472         estimate D2E/DX2                !
 ! D53   D(17,18,19,8)          26.0145         estimate D2E/DX2                !
 ! D54   D(17,18,19,23)        179.7599         estimate D2E/DX2                !
 ! D55   D(22,18,19,8)        -156.9271         estimate D2E/DX2                !
 ! D56   D(22,18,19,23)         -3.1818         estimate D2E/DX2                !
 --------------------------------------------------------------------------------
 Trust Radius=3.00D-01 FncErr=1.00D-07 GrdErr=1.00D-06 EigMax=2.50D+02 EigMin=1.00D-04
 Number of steps in this run=    130 maximum allowed number of steps=    138.
 GradGradGradGradGradGradGradGradGradGradGradGradGradGradGradGradGradGrad

                          Input orientation:                          
 ---------------------------------------------------------------------
 Center     Atomic      Atomic             Coordinates (Angstroms)
 Number     Number       Type             X           Y           Z
 ---------------------------------------------------------------------
      1          6           0       -1.388714    0.636752   -0.822463
      2          6           0       -2.519577    0.533541   -1.650867
      3         17           0       -4.125040    0.535501   -0.990988
      4          6           0       -2.386859    0.418849   -3.021669
      5          1           0       -3.264368    0.353765   -3.656297
      6          6           0       -1.116931    0.398572   -3.618439
      7          6           0       -0.003661    0.475103   -2.764304
      8         16           0        1.595532    0.260955   -3.447425
      9          6           0       -0.122355    0.597252   -1.383942
     10          1           0        0.757935    0.663630   -0.750591
     11         16           0       -1.493574    0.833627    0.954636
     12          8           0       -0.117671    0.856991    1.438998
     13          8           0       -2.376884    1.959578    1.236579
     14          7           0       -2.193496   -0.498975    1.606084
     15          1           0       -1.667380   -1.354902    1.418512
     16          1           0       -3.180768   -0.598171    1.366515
     17          7           0       -1.060127    0.349545   -5.007427
     18          6           0        0.060907    0.589213   -5.592922
     19          7           0        1.265674    0.840026   -4.979667
     20          8           0        2.581916    1.139295   -2.832586
     21          8           0        1.912350   -1.161965   -3.516214
     22          1           0        0.097453    0.654916   -6.676478
     23          1           0        2.080957    1.011373   -5.573615
 ---------------------------------------------------------------------
                    Distance matrix (angstroms):
                    1          2          3          4          5
     1  C    0.000000
     2  C    1.405616   0.000000
     3  Cl   2.743380   1.735787   0.000000
     4  C    2.424929   1.381979   2.675546   0.000000
     5  H    3.410099   2.146808   2.806716   1.084901   0.000000
     6  C    2.819233   2.420118   3.996369   1.403304   2.148238
     7  C    2.390659   2.751907   4.487100   2.397714   3.382689
     8  S    3.992164   4.498449   6.231725   4.008196   4.865272
     9  C    1.385815   2.412878   4.022401   2.800349   3.885245
    10  H    2.148020   3.401397   4.890568   3.886829   4.971727
    11  S    1.791043   2.816271   3.286175   4.096462   4.962528
    12  O    2.603509   3.926963   4.697573   5.023817   6.009740
    13  O    2.639319   3.223552   3.169558   4.528424   5.225562
    14  N    2.799177   3.432222   3.397909   4.721852   5.437517
    15  H    3.011031   3.703180   3.926755   4.835189   5.587808
    16  H    3.086765   3.289763   2.781130   4.573924   5.112906
    17  N    4.207657   3.664743   5.055695   2.389196   2.585391
    18  C    4.986075   4.711878   6.221160   3.554142   3.855309
    19  N    4.936541   5.050046   6.712830   4.165590   4.744369
    20  O    4.478733   5.271492   6.981354   5.024293   5.956055
    21  O    4.624792   5.098651   6.760787   4.607249   5.395875
    22  H    6.039745   5.667481   7.082973   4.425513   4.529241
    23  H    5.895117   6.064750   7.729251   5.179275   5.716735
                    6          7          8          9         10
     6  C    0.000000
     7  C    1.405266   0.000000
     8  S    2.721331   1.752122   0.000000
     9  C    2.453901   1.390830   2.705955   0.000000
    10  H    3.436558   2.161160   2.852478   1.086485   0.000000
    11  S    4.609137   4.022300   5.408204   2.721224   2.829486
    12  O    5.175552   4.222154   5.212241   2.834868   2.366088
    13  O    5.253134   4.882921   6.372229   3.715638   3.931338
    14  N    5.409272   4.984425   6.361775   3.798894   3.951773
    15  H    5.361767   4.859303   6.077412   3.748567   3.829051
    16  H    5.486591   5.320676   6.835580   4.283450   4.646252
    17  N    1.391013   2.482637   3.081230   3.751056   4.639467
    18  C    2.306996   2.831655   2.658192   4.212975   4.892806
    19  N    2.779322   2.579189   1.670896   3.861969   4.263097
    20  O    3.853272   2.670397   1.456867   3.115359   2.808535
    21  O    3.409145   2.629916   1.459386   3.432412   3.509151
    22  H    3.300310   3.917609   3.581373   5.297412   5.962587
    23  H    3.797990   3.539131   2.306393   4.751783   5.013270
                   11         12         13         14         15
    11  S    0.000000
    12  O    1.458856   0.000000
    13  O    1.458593   2.522046   0.000000
    14  N    1.640153   2.485078   2.492920   0.000000
    15  H    2.243891   2.700831   3.394447   1.022053   0.000000
    16  H    2.250847   3.391948   2.684249   1.020754   1.692835
    17  N    5.997367   6.534686   6.581312   6.763360   6.675821
    18  C    6.733993   7.039282   7.379892   7.621822   7.478420
    19  N    6.544421   6.566064   7.291319   7.558498   7.372734
    20  O    5.571903   5.061017   6.466890   6.722372   6.507639
    21  O    5.964160   5.722875   7.122542   6.598141   6.099444
    22  H    7.797256   8.120841   8.392911   8.670683   8.525425
    23  H    7.444926   7.350819   8.194521   8.491182   8.278836
                   16         17         18         19         20
    16  H    0.000000
    17  N    6.783983   0.000000
    18  C    7.768661   1.287231   0.000000
    19  N    7.881198   2.377119   1.374937   0.000000
    20  O    7.338921   4.314871   3.778562   2.536141   0.000000
    21  O    7.078048   3.652944   3.287428   2.562782   2.492281
    22  H    8.775346   2.054014   1.086161   2.068375   4.602465
    23  H    8.856737   3.259600   2.063781   1.023142   2.789366
                   21         22         23
    21  O    0.000000
    22  H    4.072122   0.000000
    23  H    2.997453   2.297315   0.000000
 Stoichiometry    C7H6ClN3O4S2
 Framework group  C1[X(C7H6ClN3O4S2)]
 Deg. of freedom    63
 Full point group                 C1      NOp   1
 Largest Abelian subgroup         C1      NOp   1
 Largest concise Abelian subgroup C1      NOp   1
                         Standard orientation:                         
 ---------------------------------------------------------------------
 Center     Atomic      Atomic             Coordinates (Angstroms)
 Number     Number       Type             X           Y           Z
 ---------------------------------------------------------------------
      1          6           0        1.165008   -0.094914   -0.062476
      2          6           0        1.163311    1.308321    0.019297
      3         17           0        2.644824    2.210459    0.084259
      4          6           0       -0.023474    2.015329    0.058646
      5          1           0       -0.017396    3.099110    0.107552
      6          6           0       -1.256507    1.346338    0.022001
      7          6           0       -1.225157   -0.057563   -0.031423
      8         16           0       -2.733188   -0.937634    0.114360
      9          6           0       -0.038589   -0.781644   -0.077990
     10          1           0       -0.047270   -1.866929   -0.128311
     11         16           0        2.666369   -1.066334   -0.162939
     12          8           0        2.242016   -2.461882   -0.188077
     13          8           0        3.477494   -0.539144   -1.254562
     14          7           0        3.532102   -0.868144    1.215949
     15          1           0        3.023109   -1.167676    2.050094
     16          1           0        3.918911    0.070510    1.321999
     17          7           0       -2.409372    2.124260   -0.003659
     18          6           0       -3.531001    1.564538   -0.296268
     19          7           0       -3.737996    0.226986   -0.538261
     20          8           0       -2.775405   -2.109831   -0.749719
     21          8           0       -3.053580   -1.130282    1.525049
     22          1           0       -4.420099    2.176064   -0.419913
     23          1           0       -4.689035   -0.080415   -0.757010
 ---------------------------------------------------------------------
 Rotational constants (GHZ):           0.6684219           0.2405875           0.1911004
 General basis read from cards:  (6D, 7F)
 There are   347 symmetry adapted cartesian basis functions of A   symmetry.
 There are   347 symmetry adapted basis functions of A   symmetry.
   347 basis functions,   640 primitive gaussians,   347 cartesian basis functions
    75 alpha electrons       75 beta electrons
       nuclear repulsion energy      1704.2910545664 Hartrees.
 NAtoms=   23 NActive=   23 NUniq=   23 SFac= 1.00D+00 NAtFMM=   60 NAOKFM=F Big=F
 Integral buffers will be    131072 words long.
 Raffenetti 2 integral format.
 Two-electron integral symmetry is turned on.
 ------------------------------------------------------------------------------
 Polarizable Continuum Model (PCM)
 =================================
 Model                : PCM.
 Atomic radii         : SMD-Coulomb.
 Polarization charges : Total charges.
 Charge compensation  : None.
 Solution method      : On-the-fly selection.
 Cavity type          : VdW (van der Waals Surface) (Alpha=1.000).
 Cavity algorithm     : GePol (No added spheres)
                        Default sphere list used, NSphG=   23.
                        Lebedev-Laikov grids with approx.  5.0 points / Ang**2.
                        Smoothing algorithm: York/Karplus (Gamma=1.0000).
                        Polarization charges: spherical gaussians, with
                                              point-specific exponents (IZeta= 3).
                        Self-potential: point-specific (ISelfS= 7).
                        Self-field    : sphere-specific E.n sum rule (ISelfD= 2).
 1st derivatives      : Analytical E(r).r(x)/FMM algorithm (CHGder, D1EAlg=3).
                        Cavity 1st derivative terms included.
 Solvent              : Water, Eps=  78.355300 Eps(inf)=   1.777849
 ------------------------------------------------------------------------------
 ------------------------------------------------------------------------------
 Atomic radii for non-electrostatic terms: SMD-CDS.
 ------------------------------------------------------------------------------
 Nuclear repulsion after PCM non-electrostatic terms =     1704.2956572541 Hartrees.
 One-electron integrals computed using PRISM.
 NBasis=   347 RedAO= T EigKep=  1.98D-06  NBF=   347
 NBsUse=   345 1.00D-06 EigRej=  7.99D-07 NBFU=   345
 ExpMin= 4.05D-02 ExpMax= 2.52D+04 ExpMxC= 3.78D+03 IAcc=3 IRadAn=         5 AccDes= 0.00D+00
 Harris functional with IExCor= 1009 and IRadAn=       5 diagonalized for initial guess.
 HarFok:  IExCor= 1009 AccDes= 0.00D+00 IRadAn=         5 IDoV= 1 UseB2=F ITyADJ=14
 ICtDFT=  3500011 ScaDFX=  1.000000  1.000000  1.000000  1.000000
 FoFCou: FMM=F IPFlag=           0 FMFlag=      100000 FMFlg1=           0
         NFxFlg=           0 DoJE=T BraDBF=F KetDBF=T FulRan=T
         wScrn=  0.000000 ICntrl=       500 IOpCl=  0 I1Cent=   200000004 NGrid=           0
         NMat0=    1 NMatS0=      1 NMatT0=    0 NMatD0=    1 NMtDS0=    0 NMtDT0=    0
 Petite list used in FoFCou.
 Requested convergence on RMS density matrix=1.00D-08 within 128 cycles.
 Requested convergence on MAX density matrix=1.00D-06.
 Requested convergence on             energy=1.00D-06.
 No special actions if energy rises.
 Inv3:  Mode=1 IEnd=    11808768.
 Iteration    1 A*A^-1 deviation from unit magnitude is 5.55D-15 for   1980.
 Iteration    1 A*A^-1 deviation from orthogonality  is 1.71D-15 for   1704    925.
 Iteration    1 A^-1*A deviation from unit magnitude is 5.77D-15 for   1980.
 Iteration    1 A^-1*A deviation from orthogonality  is 3.09D-15 for   1741   1670.
 Error on total polarization charges =  0.03664
 SCF Done:  E(RM062X) =  -1991.61397697     A.U. after   16 cycles
            NFock= 16  Conv=0.67D-08     -V/T= 2.0052
 SMD-CDS (non-electrostatic) energy       (kcal/mol) =       2.89
 (included in total energy above)

 **********************************************************************

            Population analysis using the SCF Density.

 **********************************************************************

 Orbital symmetries:
       Occupied  (A) (A) (A) (A) (A) (A) (A) (A) (A) (A) (A) (A)
                 (A) (A) (A) (A) (A) (A) (A) (A) (A) (A) (A) (A)
                 (A) (A) (A) (A) (A) (A) (A) (A) (A) (A) (A) (A)
                 (A) (A) (A) (A) (A) (A) (A) (A) (A) (A) (A) (A)
                 (A) (A) (A) (A) (A) (A) (A) (A) (A) (A) (A) (A)
                 (A) (A) (A) (A) (A) (A) (A) (A) (A) (A) (A) (A)
                 (A) (A) (A)
       Virtual   (A) (A) (A) (A) (A) (A) (A) (A) (A) (A) (A) (A)
                 (A) (A) (A) (A) (A) (A) (A) (A) (A) (A) (A) (A)
                 (A) (A) (A) (A) (A) (A) (A) (A) (A) (A) (A) (A)
                 (A) (A) (A) (A) (A) (A) (A) (A) (A) (A) (A) (A)
                 (A) (A) (A) (A) (A) (A) (A) (A) (A) (A) (A) (A)
                 (A) (A) (A) (A) (A) (A) (A) (A) (A) (A) (A) (A)
                 (A) (A) (A) (A) (A) (A) (A) (A) (A) (A) (A) (A)
                 (A) (A) (A) (A) (A) (A) (A) (A) (A) (A) (A) (A)
                 (A) (A) (A) (A) (A) (A) (A) (A) (A) (A) (A) (A)
                 (A) (A) (A) (A) (A) (A) (A) (A) (A) (A) (A) (A)
                 (A) (A) (A) (A) (A) (A) (A) (A) (A) (A) (A) (A)
                 (A) (A) (A) (A) (A) (A) (A) (A) (A) (A) (A) (A)
                 (A) (A) (A) (A) (A) (A) (A) (A) (A) (A) (A) (A)
                 (A) (A) (A) (A) (A) (A) (A) (A) (A) (A) (A) (A)
                 (A) (A) (A) (A) (A) (A) (A) (A) (A) (A) (A) (A)
                 (A) (A) (A) (A) (A) (A) (A) (A) (A) (A) (A) (A)
                 (A) (A) (A) (A) (A) (A) (A) (A) (A) (A) (A) (A)
                 (A) (A) (A) (A) (A) (A) (A) (A) (A) (A) (A) (A)
                 (A) (A) (A) (A) (A) (A) (A) (A) (A) (A) (A) (A)
                 (A) (A) (A) (A) (A) (A) (A) (A) (A) (A) (A) (A)
                 (A) (A) (A) (A) (A) (A) (A) (A) (A) (A) (A) (A)
                 (A) (A) (A) (A) (A) (A) (A) (A) (A) (A) (A) (A)
                 (A) (A) (A) (A) (A) (A)
 The electronic state is 1-A.
 Alpha  occ. eigenvalues -- -102.70222 -90.20589 -90.19461 -19.68054 -19.67805
 Alpha  occ. eigenvalues --  -19.66942 -19.66888 -14.84564 -14.81020 -14.79013
 Alpha  occ. eigenvalues --  -10.66971 -10.66369 -10.64487 -10.62633 -10.62441
 Alpha  occ. eigenvalues --  -10.61559 -10.59446  -9.84868  -8.51560  -8.50359
 Alpha  occ. eigenvalues --   -7.57280  -7.56605  -7.56571  -6.43815  -6.43700
 Alpha  occ. eigenvalues --   -6.43617  -6.42556  -6.42548  -6.42457  -1.28247
 Alpha  occ. eigenvalues --   -1.27173  -1.16222  -1.15597  -1.12912  -1.05309
 Alpha  occ. eigenvalues --   -1.04122  -1.02627  -0.98078  -0.91154  -0.89333
 Alpha  occ. eigenvalues --   -0.81978  -0.78873  -0.75940  -0.73192  -0.68782
 Alpha  occ. eigenvalues --   -0.66793  -0.65694  -0.63885  -0.62655  -0.60585
 Alpha  occ. eigenvalues --   -0.59591  -0.58464  -0.58291  -0.56119  -0.54899
 Alpha  occ. eigenvalues --   -0.54260  -0.52776  -0.51443  -0.49794  -0.48741
 Alpha  occ. eigenvalues --   -0.46090  -0.45696  -0.44921  -0.43125  -0.42617
 Alpha  occ. eigenvalues --   -0.42165  -0.41931  -0.41664  -0.41354  -0.40354
 Alpha  occ. eigenvalues --   -0.39065  -0.38501  -0.37188  -0.33865  -0.31827
 Alpha virt. eigenvalues --   -0.05518  -0.03090   0.00495   0.01554   0.02151
 Alpha virt. eigenvalues --    0.02939   0.03091   0.03288   0.03629   0.04275
 Alpha virt. eigenvalues --    0.04816   0.05191   0.05940   0.06575   0.06832
 Alpha virt. eigenvalues --    0.07014   0.07666   0.08094   0.08664   0.08831
 Alpha virt. eigenvalues --    0.09400   0.10175   0.10451   0.10904   0.11168
 Alpha virt. eigenvalues --    0.11785   0.11993   0.12623   0.12829   0.13225
 Alpha virt. eigenvalues --    0.13766   0.13924   0.14973   0.15165   0.15361
 Alpha virt. eigenvalues --    0.16129   0.16579   0.17816   0.18183   0.18726
 Alpha virt. eigenvalues --    0.19208   0.19560   0.20083   0.20291   0.20914
 Alpha virt. eigenvalues --    0.21161   0.21537   0.21918   0.22518   0.22894
 Alpha virt. eigenvalues --    0.23686   0.23885   0.24005   0.24925   0.25010
 Alpha virt. eigenvalues --    0.25520   0.26014   0.26310   0.26804   0.27143
 Alpha virt. eigenvalues --    0.27349   0.28043   0.28460   0.28627   0.29098
 Alpha virt. eigenvalues --    0.29827   0.29918   0.30719   0.31149   0.31359
 Alpha virt. eigenvalues --    0.31769   0.32108   0.32809   0.33262   0.33886
 Alpha virt. eigenvalues --    0.34138   0.35026   0.35152   0.35578   0.35681
 Alpha virt. eigenvalues --    0.36693   0.37486   0.38154   0.39148   0.40037
 Alpha virt. eigenvalues --    0.41822   0.42008   0.43034   0.45035   0.46470
 Alpha virt. eigenvalues --    0.47738   0.49823   0.50947   0.54272   0.55318
 Alpha virt. eigenvalues --    0.58088   0.58967   0.59979   0.63255   0.64482
 Alpha virt. eigenvalues --    0.65509   0.65643   0.66624   0.67254   0.68230
 Alpha virt. eigenvalues --    0.69952   0.70033   0.71350   0.72370   0.73719
 Alpha virt. eigenvalues --    0.74355   0.75912   0.76741   0.77772   0.79506
 Alpha virt. eigenvalues --    0.81116   0.82504   0.85052   0.85774   0.88018
 Alpha virt. eigenvalues --    0.89088   0.92004   0.92394   0.94016   0.94305
 Alpha virt. eigenvalues --    0.95969   0.96885   0.97515   0.97936   0.99929
 Alpha virt. eigenvalues --    1.01466   1.01826   1.02827   1.03962   1.04205
 Alpha virt. eigenvalues --    1.05820   1.06383   1.07295   1.07939   1.08801
 Alpha virt. eigenvalues --    1.09350   1.10301   1.12135   1.13214   1.14242
 Alpha virt. eigenvalues --    1.14725   1.15630   1.15841   1.16749   1.17196
 Alpha virt. eigenvalues --    1.18300   1.19373   1.22050   1.23639   1.25021
 Alpha virt. eigenvalues --    1.26428   1.27225   1.28758   1.31741   1.32147
 Alpha virt. eigenvalues --    1.32997   1.33601   1.34433   1.35637   1.36293
 Alpha virt. eigenvalues --    1.36890   1.37712   1.38143   1.39281   1.40434
 Alpha virt. eigenvalues --    1.41494   1.42958   1.43451   1.44819   1.47232
 Alpha virt. eigenvalues --    1.47961   1.49777   1.50865   1.52544   1.53196
 Alpha virt. eigenvalues --    1.54515   1.56211   1.56596   1.59277   1.61142
 Alpha virt. eigenvalues --    1.63079   1.68173   1.72487   1.76120   1.77179
 Alpha virt. eigenvalues --    1.78722   1.80172   1.80938   1.81349   1.83314
 Alpha virt. eigenvalues --    1.83721   1.83991   1.84910   1.85694   1.86381
 Alpha virt. eigenvalues --    1.88572   1.89668   1.91079   1.91917   1.93791
 Alpha virt. eigenvalues --    1.94388   1.98465   2.00071   2.01825   2.05271
 Alpha virt. eigenvalues --    2.06553   2.07024   2.09726   2.12627   2.14115
 Alpha virt. eigenvalues --    2.14586   2.16323   2.17374   2.18677   2.19756
 Alpha virt. eigenvalues --    2.20417   2.21453   2.21939   2.25280   2.26128
 Alpha virt. eigenvalues --    2.28697   2.29710   2.33842   2.34925   2.39973
 Alpha virt. eigenvalues --    2.41180   2.42937   2.45148   2.49607   2.52558
 Alpha virt. eigenvalues --    2.58512   2.62815   2.66777   2.67219   2.67893
 Alpha virt. eigenvalues --    2.73527   2.76427   2.79078   2.79932   2.85399
 Alpha virt. eigenvalues --    2.88351   2.90617   2.94407   2.96962   2.97898
 Alpha virt. eigenvalues --    3.05107   3.26933   3.32545   3.90141   4.00789
 Alpha virt. eigenvalues --    4.04625   4.12394   4.18595   4.21446   4.24687
 Alpha virt. eigenvalues --    4.28443   4.29445   4.31678   4.34958   4.37224
 Alpha virt. eigenvalues --    4.39625   4.42717   4.46323   4.50993   4.73015
          Condensed to atoms (all electrons):
               1          2          3          4          5          6
     1  C   39.163574  -7.838618   0.354732  -1.900969   0.047190   0.217858
     2  C   -7.838618  30.405985  -1.134205  -7.445710  -0.052879   4.239563
     3  Cl   0.354732  -1.134205  17.102221   0.356051  -0.002744  -0.371180
     4  C   -1.900969  -7.445710   0.356051  25.644077   0.344615 -15.137041
     5  H    0.047190  -0.052879  -0.002744   0.344615   0.388453  -0.082354
     6  C    0.217858   4.239563  -0.371180 -15.137041  -0.082354  34.202591
     7  C  -10.234285  -1.023235   0.075227  -4.354307   0.049282  -7.995861
     8  S   -3.277792  -0.224518   0.009573   2.070084   0.001138  -1.502199
     9  C   -7.383339 -12.175821   0.426785   8.453973   0.002976  -8.816568
    10  H   -0.093598  -0.023522  -0.000307  -0.002169   0.000007  -0.039104
    11  S    0.124529  -0.015945  -0.004578   0.453863  -0.000211   0.751932
    12  O   -0.410297  -0.237261   0.008181   0.066976   0.000026   0.000464
    13  O   -0.220310   0.250138  -0.111216  -0.031450   0.000021   0.161475
    14  N   -0.511466  -0.265424   0.019158   0.064588  -0.000138  -0.024942
    15  H   -0.022552   0.079808  -0.003113  -0.006877   0.000000   0.012363
    16  H    0.017593  -0.051777   0.012374   0.009799   0.000000   0.003044
    17  N    0.002376   0.139149  -0.001963  -0.269171  -0.002069  -0.212905
    18  C    0.379573   0.079898  -0.009054  -1.284480   0.001867   0.225854
    19  N   -0.355693   0.106596  -0.000647  -0.026107   0.000055  -0.066601
    20  O   -0.029858  -0.012822   0.000141   0.147560   0.000015   0.176010
    21  O   -0.165763   0.026316  -0.000164   0.104736   0.000015  -0.186778
    22  H    0.000998  -0.003254   0.000029   0.004778   0.000005   0.035358
    23  H    0.002201  -0.001039   0.000005   0.001099  -0.000000  -0.010894
               7          8          9         10         11         12
     1  C  -10.234285  -3.277792  -7.383339  -0.093598   0.124529  -0.410297
     2  C   -1.023235  -0.224518 -12.175821  -0.023522  -0.015945  -0.237261
     3  Cl   0.075227   0.009573   0.426785  -0.000307  -0.004578   0.008181
     4  C   -4.354307   2.070084   8.453973  -0.002169   0.453863   0.066976
     5  H    0.049282   0.001138   0.002976   0.000007  -0.000211   0.000026
     6  C   -7.995861  -1.502199  -8.816568  -0.039104   0.751932   0.000464
     7  C   30.047167  -1.710401   2.380045   0.017161  -2.057420  -0.028772
     8  S   -1.710401  17.686753   1.391437   0.036504  -0.234079  -0.003242
     9  C    2.380045   1.391437  22.529941   0.413958  -0.946470   0.333715
    10  H    0.017161   0.036504   0.413958   0.370885  -0.016578   0.002806
    11  S   -2.057420  -0.234079  -0.946470  -0.016578  15.704084   0.312177
    12  O   -0.028772  -0.003242   0.333715   0.002806   0.312177   8.825331
    13  O   -0.204063  -0.015962  -0.252976  -0.000527   0.452117  -0.141420
    14  N    0.098567   0.003551   0.348480  -0.001127  -0.058362  -0.083411
    15  H   -0.035297  -0.001719  -0.100696  -0.000015   0.084563  -0.007493
    16  H   -0.003450  -0.000302   0.004982  -0.000005   0.034449   0.010270
    17  N    0.528046  -0.142013  -0.080292  -0.000047  -0.006704  -0.000158
    18  C    1.145630  -0.797873  -0.425003  -0.001031  -0.000551  -0.000107
    19  N    0.149400  -0.001358   0.009613   0.001369  -0.012784  -0.000335
    20  O   -0.724855   0.275313   0.323116   0.004822   0.003486   0.000391
    21  O   -0.081088   0.700732  -0.064572   0.000509  -0.007696  -0.000402
    22  H   -0.014172  -0.011383   0.003147  -0.000000   0.000012   0.000000
    23  H    0.051060  -0.035157   0.001409  -0.000001   0.000011   0.000000
              13         14         15         16         17         18
     1  C   -0.220310  -0.511466  -0.022552   0.017593   0.002376   0.379573
     2  C    0.250138  -0.265424   0.079808  -0.051777   0.139149   0.079898
     3  Cl  -0.111216   0.019158  -0.003113   0.012374  -0.001963  -0.009054
     4  C   -0.031450   0.064588  -0.006877   0.009799  -0.269171  -1.284480
     5  H    0.000021  -0.000138   0.000000   0.000000  -0.002069   0.001867
     6  C    0.161475  -0.024942   0.012363   0.003044  -0.212905   0.225854
     7  C   -0.204063   0.098567  -0.035297  -0.003450   0.528046   1.145630
     8  S   -0.015962   0.003551  -0.001719  -0.000302  -0.142013  -0.797873
     9  C   -0.252976   0.348480  -0.100696   0.004982  -0.080292  -0.425003
    10  H   -0.000527  -0.001127  -0.000015  -0.000005  -0.000047  -0.001031
    11  S    0.452117  -0.058362   0.084563   0.034449  -0.006704  -0.000551
    12  O   -0.141420  -0.083411  -0.007493   0.010270  -0.000158  -0.000107
    13  O    8.743240  -0.112481   0.009346  -0.007158  -0.000209   0.001130
    14  N   -0.112481   8.016292   0.247583   0.226150  -0.000033   0.000110
    15  H    0.009346   0.247583   0.243977  -0.012962  -0.000006   0.000019
    16  H   -0.007158   0.226150  -0.012962   0.261982   0.000001   0.000022
    17  N   -0.000209  -0.000033  -0.000006   0.000001   6.995073   0.455419
    18  C    0.001130   0.000110   0.000019   0.000022   0.455419   5.887852
    19  N   -0.000317  -0.000318  -0.000002  -0.000000  -0.093782  -0.161514
    20  O   -0.000205   0.000003  -0.000004  -0.000000  -0.018136  -0.022265
    21  O   -0.000029   0.000043  -0.000007  -0.000001   0.031427  -0.073635
    22  H    0.000000  -0.000000   0.000000   0.000000  -0.065074   0.423219
    23  H    0.000000   0.000000  -0.000000  -0.000000   0.004112   0.004126
              19         20         21         22         23
     1  C   -0.355693  -0.029858  -0.165763   0.000998   0.002201
     2  C    0.106596  -0.012822   0.026316  -0.003254  -0.001039
     3  Cl  -0.000647   0.000141  -0.000164   0.000029   0.000005
     4  C   -0.026107   0.147560   0.104736   0.004778   0.001099
     5  H    0.000055   0.000015   0.000015   0.000005  -0.000000
     6  C   -0.066601   0.176010  -0.186778   0.035358  -0.010894
     7  C    0.149400  -0.724855  -0.081088  -0.014172   0.051060
     8  S   -0.001358   0.275313   0.700732  -0.011383  -0.035157
     9  C    0.009613   0.323116  -0.064572   0.003147   0.001409
    10  H    0.001369   0.004822   0.000509  -0.000000  -0.000001
    11  S   -0.012784   0.003486  -0.007696   0.000012   0.000011
    12  O   -0.000335   0.000391  -0.000402   0.000000   0.000000
    13  O   -0.000317  -0.000205  -0.000029   0.000000   0.000000
    14  N   -0.000318   0.000003   0.000043  -0.000000   0.000000
    15  H   -0.000002  -0.000004  -0.000007   0.000000  -0.000000
    16  H   -0.000000  -0.000000  -0.000001   0.000000  -0.000000
    17  N   -0.093782  -0.018136   0.031427  -0.065074   0.004112
    18  C   -0.161514  -0.022265  -0.073635   0.423219   0.004126
    19  N    8.265157  -0.059540  -0.173215  -0.078205   0.220636
    20  O   -0.059540   8.712765  -0.191671  -0.000566  -0.004769
    21  O   -0.173215  -0.191671   8.582722  -0.000096  -0.000286
    22  H   -0.078205  -0.000566  -0.000096   0.407991  -0.000921
    23  H    0.220636  -0.004769  -0.000286  -0.000921   0.195310
 Mulliken charges:
               1
     1  C   -1.866083
     2  C    1.178579
     3  Cl   0.274695
     4  C   -1.263919
     5  H    0.304728
     6  C    0.419916
     7  C   -0.074378
     8  S    1.782914
     9  C   -0.377841
    10  H    0.330008
    11  S    1.440157
    12  O   -0.647437
    13  O   -0.519141
    14  N   -0.966824
    15  H    0.513084
    16  H    0.494992
    17  N   -0.263041
    18  C    0.170797
    19  N   -0.722408
    20  O   -0.578931
    21  O   -0.501099
    22  H    0.298134
    23  H    0.573097
 Sum of Mulliken charges =  -0.00000
 Mulliken charges with hydrogens summed into heavy atoms:
               1
     1  C   -1.866083
     2  C    1.178579
     3  Cl   0.274695
     4  C   -0.959191
     6  C    0.419916
     7  C   -0.074378
     8  S    1.782914
     9  C   -0.047833
    11  S    1.440157
    12  O   -0.647437
    13  O   -0.519141
    14  N    0.041252
    17  N   -0.263041
    18  C    0.468931
    19  N   -0.149310
    20  O   -0.578931
    21  O   -0.501099
 Electronic spatial extent (au):  <R**2>=           5322.1389
 Charge=              0.0000 electrons
 Dipole moment (field-independent basis, Debye):
    X=             -5.4998    Y=              7.5812    Z=              2.7967  Tot=              9.7747
 Quadrupole moment (field-independent basis, Debye-Ang):
   XX=           -102.8665   YY=           -134.2274   ZZ=           -122.3435
   XY=             -3.3190   XZ=             28.4263   YZ=             -4.0649
 Traceless Quadrupole moment (field-independent basis, Debye-Ang):
   XX=             16.9460   YY=            -14.4149   ZZ=             -2.5311
   XY=             -3.3190   XZ=             28.4263   YZ=             -4.0649
 Octapole moment (field-independent basis, Debye-Ang**2):
  XXX=           -206.4885  YYY=             34.7811  ZZZ=             12.9401  XYY=              4.0715
  XXY=             91.8614  XXZ=             10.9569  XZZ=             25.9662  YZZ=             -1.1670
  YYZ=              5.9374  XYZ=             -3.0264
 Hexadecapole moment (field-independent basis, Debye-Ang**3):
 XXXX=          -3998.1656 YYYY=          -1766.7224 ZZZZ=           -359.6969 XXXY=            -60.9650
 XXXZ=            401.9628 YYYX=             62.6053 YYYZ=            -22.9909 ZZZX=             84.4764
 ZZZY=             -9.8973 XXYY=          -1166.5259 XXZZ=           -892.4127 YYZZ=           -350.3141
 XXYZ=            -21.7837 YYXZ=             13.5246 ZZXY=            -23.9828
 N-N= 1.704295657254D+03 E-N=-8.105273809116D+03  KE= 1.981405876275D+03
 D1PCM: PCM CHGder 1st derivatives, ID1Alg=3 FixD1E=F DoIter=F DoCFld=F I1PDM=0.
 Calling FoFJK, ICntrl=      2127 FMM=F ISym2X=0 I1Cent= 0 IOpClX= 0 NMat=1 NMatS=1 NMatT=0.
 ***** Axes restored to original set *****
 -------------------------------------------------------------------
 Center     Atomic                   Forces (Hartrees/Bohr)
 Number     Number              X              Y              Z
 -------------------------------------------------------------------
      1        6          -0.000005263   -0.000001227   -0.000001609
      2        6           0.000000093   -0.000001427    0.000011886
      3       17           0.000003611   -0.000008566   -0.000001576
      4        6           0.000009919   -0.000005124   -0.000010858
      5        1          -0.000001535   -0.000008797    0.000002848
      6        6          -0.000016111   -0.000007255   -0.000000843
      7        6           0.000009416    0.000002530    0.000007137
      8       16          -0.000001582    0.000004409   -0.000003930
      9        6           0.000002683    0.000003470   -0.000008650
     10        1          -0.000000730    0.000005335   -0.000000213
     11       16           0.000000961    0.000003849    0.000001369
     12        8           0.000000230    0.000009063   -0.000000054
     13        8           0.000001942   -0.000007737   -0.000000012
     14        7           0.000001881   -0.000006793   -0.000000048
     15        1           0.000006142    0.000003020    0.000002616
     16        1           0.000001749   -0.000004360    0.000003642
     17        7          -0.000001287   -0.000004118    0.000000390
     18        6           0.000000336    0.000005235    0.000001574
     19        7          -0.000008716   -0.000000059   -0.000002903
     20        8          -0.000002757    0.000009373    0.000001502
     21        8           0.000004907    0.000006718   -0.000000033
     22        1          -0.000002396   -0.000003071   -0.000000587
     23        1          -0.000003495    0.000005531   -0.000001647
 -------------------------------------------------------------------
 Cartesian Forces:  Max     0.000016111 RMS     0.000005216

 GradGradGradGradGradGradGradGradGradGradGradGradGradGradGradGradGradGrad
 Berny optimization.
 FormGI is forming the generalized inverse of G from B-inverse, IUseBI=4.
 Internal  Forces:  Max     0.000010392 RMS     0.000002207
 Search for a local minimum.
 Step number   1 out of a maximum of  130
 All quantities printed in internal units (Hartrees-Bohrs-Radians)
 Mixed Optimization -- En-DIIS/RFO-DIIS
 Second derivative matrix not updated -- first step.
 ITU=  0
     Eigenvalues ---    0.00489   0.01476   0.01528   0.01761   0.01974
     Eigenvalues ---    0.02029   0.02088   0.02113   0.02152   0.02175
     Eigenvalues ---    0.02205   0.02235   0.02244   0.02382   0.02547
     Eigenvalues ---    0.04284   0.09326   0.09815   0.10473   0.11446
     Eigenvalues ---    0.12443   0.12554   0.14356   0.15127   0.15990
     Eigenvalues ---    0.15999   0.16000   0.16000   0.16000   0.19907
     Eigenvalues ---    0.21632   0.23032   0.23789   0.24089   0.24707
     Eigenvalues ---    0.24960   0.24999   0.25000   0.25000   0.26835
     Eigenvalues ---    0.29734   0.31906   0.35222   0.35260   0.35409
     Eigenvalues ---    0.37809   0.40107   0.42532   0.43840   0.43979
     Eigenvalues ---    0.44012   0.44176   0.44218   0.45792   0.46117
     Eigenvalues ---    0.47424   0.48256   0.48670   0.68374   0.91868
     Eigenvalues ---    0.92091   0.92203   0.92937
 RFO step:  Lambda= 0.00000000D+00 EMin= 4.88780950D-03
 Linear search not attempted -- first point.
 Iteration  1 RMS(Cart)=  0.00003954 RMS(Int)=  0.00000000
 Iteration  2 RMS(Cart)=  0.00000000 RMS(Int)=  0.00000000
 Variable       Old X    -DE/DX   Delta X   Delta X   Delta X     New X
                                 (Linear)    (Quad)   (Total)
    R1        2.65623  -0.00000   0.00000  -0.00001  -0.00001   2.65622
    R2        2.61881   0.00000   0.00000   0.00001   0.00001   2.61882
    R3        3.38458   0.00000   0.00000   0.00001   0.00001   3.38459
    R4        3.28016  -0.00000   0.00000  -0.00001  -0.00001   3.28015
    R5        2.61156   0.00001   0.00000   0.00001   0.00001   2.61157
    R6        2.05017  -0.00000   0.00000  -0.00000  -0.00000   2.05017
    R7        2.65186  -0.00001   0.00000  -0.00002  -0.00002   2.65184
    R8        2.65557   0.00001   0.00000   0.00002   0.00002   2.65559
    R9        2.62863  -0.00000   0.00000  -0.00000  -0.00000   2.62863
   R10        3.31103  -0.00000   0.00000  -0.00001  -0.00001   3.31102
   R11        2.62829  -0.00000   0.00000  -0.00001  -0.00001   2.62828
   R12        3.15754   0.00000   0.00000   0.00000   0.00000   3.15754
   R13        2.75308   0.00000   0.00000   0.00000   0.00000   2.75308
   R14        2.75784  -0.00000   0.00000  -0.00000  -0.00000   2.75784
   R15        2.05316  -0.00000   0.00000  -0.00000  -0.00000   2.05316
   R16        2.75684   0.00000   0.00000   0.00000   0.00000   2.75684
   R17        2.75634  -0.00001   0.00000  -0.00001  -0.00001   2.75633
   R18        3.09944   0.00001   0.00000   0.00001   0.00001   3.09945
   R19        1.93140  -0.00000   0.00000  -0.00001  -0.00001   1.93139
   R20        1.92895   0.00000   0.00000   0.00001   0.00001   1.92895
   R21        2.43251  -0.00000   0.00000  -0.00000  -0.00000   2.43251
   R22        2.59825  -0.00000   0.00000  -0.00001  -0.00001   2.59825
   R23        2.05255  -0.00000   0.00000  -0.00000  -0.00000   2.05255
   R24        1.93346  -0.00000   0.00000  -0.00000  -0.00000   1.93346
    A1        2.08783  -0.00000   0.00000  -0.00001  -0.00001   2.08783
    A2        2.14806  -0.00000   0.00000  -0.00000  -0.00000   2.14806
    A3        2.04726   0.00000   0.00000   0.00001   0.00001   2.04727
    A4        2.11764   0.00000   0.00000   0.00001   0.00001   2.11765
    A5        2.10996   0.00000   0.00000   0.00000   0.00000   2.10996
    A6        2.05557  -0.00000   0.00000  -0.00001  -0.00001   2.05555
    A7        2.10312  -0.00000   0.00000  -0.00001  -0.00001   2.10310
    A8        2.10590   0.00000   0.00000   0.00000   0.00000   2.10590
    A9        2.07411   0.00000   0.00000   0.00001   0.00001   2.07412
   A10        2.04615  -0.00000   0.00000  -0.00000  -0.00000   2.04615
   A11        2.05116   0.00000   0.00000   0.00000   0.00000   2.05117
   A12        2.18523  -0.00000   0.00000  -0.00000  -0.00000   2.18523
   A13        2.07081  -0.00000   0.00000   0.00000   0.00000   2.07081
   A14        2.14172  -0.00000   0.00000  -0.00000  -0.00000   2.14172
   A15        2.06641   0.00000   0.00000   0.00000   0.00000   2.06641
   A16        1.70620  -0.00000   0.00000  -0.00001  -0.00001   1.70619
   A17        1.96031  -0.00000   0.00000  -0.00002  -0.00002   1.96028
   A18        1.91313   0.00000   0.00000   0.00001   0.00001   1.91314
   A19        1.88781   0.00000   0.00000   0.00002   0.00002   1.88783
   A20        1.91509   0.00000   0.00000   0.00000   0.00000   1.91510
   A21        2.04963  -0.00000   0.00000  -0.00000  -0.00000   2.04962
   A22        2.07442   0.00000   0.00000   0.00000   0.00000   2.07442
   A23        2.09723  -0.00000   0.00000  -0.00001  -0.00001   2.09722
   A24        2.11154   0.00000   0.00000   0.00000   0.00000   2.11154
   A25        1.85040   0.00000   0.00000   0.00001   0.00001   1.85041
   A26        1.88820   0.00000   0.00000   0.00000   0.00000   1.88821
   A27        1.90686  -0.00000   0.00000  -0.00000  -0.00000   1.90685
   A28        2.08819  -0.00000   0.00000  -0.00002  -0.00002   2.08817
   A29        1.85836   0.00000   0.00000   0.00003   0.00003   1.85839
   A30        1.86710  -0.00000   0.00000  -0.00002  -0.00002   1.86708
   A31        1.96910  -0.00000   0.00000  -0.00000  -0.00000   1.96910
   A32        1.98066   0.00000   0.00000   0.00002   0.00002   1.98068
   A33        1.95349   0.00000   0.00000   0.00001   0.00001   1.95350
   A34        2.07509  -0.00000   0.00000  -0.00001  -0.00001   2.07508
   A35        2.20706   0.00000   0.00000   0.00000   0.00000   2.20706
   A36        2.08785  -0.00000   0.00000   0.00000   0.00000   2.08785
   A37        1.98716  -0.00000   0.00000  -0.00000  -0.00000   1.98716
   A38        2.11621   0.00000   0.00000   0.00001   0.00001   2.11622
   A39        2.01870  -0.00000   0.00000  -0.00000  -0.00000   2.01869
   A40        2.05991  -0.00000   0.00000  -0.00000  -0.00000   2.05991
    D1        3.11294   0.00000   0.00000   0.00003   0.00003   3.11297
    D2       -0.02187   0.00000   0.00000   0.00005   0.00005  -0.02181
    D3       -0.03752   0.00000   0.00000   0.00004   0.00004  -0.03747
    D4        3.11086   0.00000   0.00000   0.00007   0.00007   3.11093
    D5        0.01618  -0.00000   0.00000  -0.00004  -0.00004   0.01614
    D6       -3.12808  -0.00000   0.00000  -0.00003  -0.00003  -3.12810
    D7       -3.11705  -0.00000   0.00000  -0.00006  -0.00006  -3.11710
    D8        0.02188  -0.00000   0.00000  -0.00004  -0.00004   0.02184
    D9        3.11047   0.00000   0.00000   0.00006   0.00006   3.11052
   D10       -0.91265   0.00000   0.00000   0.00004   0.00004  -0.91261
   D11        1.11408  -0.00000   0.00000   0.00002   0.00002   1.11411
   D12       -0.03980   0.00000   0.00000   0.00008   0.00008  -0.03973
   D13        2.22027   0.00000   0.00000   0.00006   0.00006   2.22033
   D14       -2.03618  -0.00000   0.00000   0.00004   0.00004  -2.03614
   D15       -3.12636  -0.00000   0.00000  -0.00002  -0.00002  -3.12638
   D16        0.00353  -0.00000   0.00000  -0.00002  -0.00002   0.00351
   D17        0.02178   0.00000   0.00000   0.00001   0.00001   0.02179
   D18       -3.13152   0.00000   0.00000   0.00001   0.00001  -3.13151
   D19        0.01928  -0.00000   0.00000  -0.00003  -0.00003   0.01925
   D20       -3.08578   0.00000   0.00000   0.00004   0.00004  -3.08574
   D21       -3.13382  -0.00000   0.00000  -0.00003  -0.00003  -3.13385
   D22        0.04430   0.00000   0.00000   0.00005   0.00005   0.04434
   D23        3.01586   0.00000   0.00000   0.00007   0.00007   3.01593
   D24       -0.02520   0.00000   0.00000   0.00004   0.00004  -0.02515
   D25       -0.16538  -0.00000   0.00000  -0.00001  -0.00001  -0.16539
   D26        3.07675  -0.00000   0.00000  -0.00004  -0.00004   3.07671
   D27        2.90927  -0.00000   0.00000  -0.00009  -0.00009   2.90917
   D28       -0.19258  -0.00000   0.00000  -0.00001  -0.00001  -0.19259
   D29        0.50830  -0.00000   0.00000   0.00001   0.00001   0.50831
   D30        2.48625   0.00000   0.00000   0.00002   0.00002   2.48628
   D31       -1.48516  -0.00000   0.00000   0.00001   0.00001  -1.48515
   D32       -2.72944  -0.00000   0.00000   0.00004   0.00004  -2.72940
   D33       -0.75149   0.00000   0.00000   0.00005   0.00005  -0.75144
   D34        1.56029  -0.00000   0.00000   0.00003   0.00003   1.56032
   D35        0.00756  -0.00000   0.00000  -0.00001  -0.00001   0.00755
   D36       -3.13134  -0.00000   0.00000  -0.00002  -0.00002  -3.13136
   D37       -3.03374  -0.00000   0.00000  -0.00003  -0.00003  -3.03377
   D38        0.11055  -0.00000   0.00000  -0.00005  -0.00005   0.11050
   D39       -0.65148  -0.00000   0.00000  -0.00000  -0.00000  -0.65149
   D40        2.93818  -0.00000   0.00000  -0.00001  -0.00001   2.93817
   D41       -2.68685   0.00000   0.00000   0.00002   0.00002  -2.68683
   D42        0.90282   0.00000   0.00000   0.00001   0.00001   0.90283
   D43        1.34041   0.00000   0.00000   0.00001   0.00001   1.34041
   D44       -1.35311   0.00000   0.00000  -0.00000  -0.00000  -1.35312
   D45        1.05102   0.00000   0.00000   0.00001   0.00001   1.05103
   D46       -1.19432  -0.00000   0.00000  -0.00003  -0.00003  -1.19435
   D47       -0.94020  -0.00000   0.00000  -0.00002  -0.00002  -0.94022
   D48        3.09764  -0.00000   0.00000  -0.00005  -0.00005   3.09759
   D49        3.09116   0.00000   0.00000   0.00000   0.00000   3.09117
   D50        0.84582  -0.00000   0.00000  -0.00003  -0.00003   0.84579
   D51        0.05511   0.00000   0.00000   0.00003   0.00003   0.05514
   D52       -3.03246  -0.00000   0.00000  -0.00004  -0.00004  -3.03250
   D53        0.45404   0.00000   0.00000  -0.00002  -0.00002   0.45402
   D54        3.13740   0.00000   0.00000  -0.00001  -0.00001   3.13739
   D55       -2.73890   0.00000   0.00000   0.00004   0.00004  -2.73885
   D56       -0.05553   0.00000   0.00000   0.00005   0.00005  -0.05548
         Item               Value     Threshold  Converged?
 Maximum Force            0.000010     0.000450     YES
 RMS     Force            0.000002     0.000300     YES
 Maximum Displacement     0.000243     0.001800     YES
 RMS     Displacement     0.000040     0.001200     YES
 Predicted change in Energy=-1.593152D-09
 Optimization completed.
    -- Stationary point found.
                           ----------------------------
                           !   Optimized Parameters   !
                           ! (Angstroms and Degrees)  !
 --------------------------                            --------------------------
 ! Name  Definition              Value          Derivative Info.                !
 --------------------------------------------------------------------------------
 ! R1    R(1,2)                  1.4056         -DE/DX =    0.0                 !
 ! R2    R(1,9)                  1.3858         -DE/DX =    0.0                 !
 ! R3    R(1,11)                 1.791          -DE/DX =    0.0                 !
 ! R4    R(2,3)                  1.7358         -DE/DX =    0.0                 !
 ! R5    R(2,4)                  1.382          -DE/DX =    0.0                 !
 ! R6    R(4,5)                  1.0849         -DE/DX =    0.0                 !
 ! R7    R(4,6)                  1.4033         -DE/DX =    0.0                 !
 ! R8    R(6,7)                  1.4053         -DE/DX =    0.0                 !
 ! R9    R(6,17)                 1.391          -DE/DX =    0.0                 !
 ! R10   R(7,8)                  1.7521         -DE/DX =    0.0                 !
 ! R11   R(7,9)                  1.3908         -DE/DX =    0.0                 !
 ! R12   R(8,19)                 1.6709         -DE/DX =    0.0                 !
 ! R13   R(8,20)                 1.4569         -DE/DX =    0.0                 !
 ! R14   R(8,21)                 1.4594         -DE/DX =    0.0                 !
 ! R15   R(9,10)                 1.0865         -DE/DX =    0.0                 !
 ! R16   R(11,12)                1.4589         -DE/DX =    0.0                 !
 ! R17   R(11,13)                1.4586         -DE/DX =    0.0                 !
 ! R18   R(11,14)                1.6402         -DE/DX =    0.0                 !
 ! R19   R(14,15)                1.0221         -DE/DX =    0.0                 !
 ! R20   R(14,16)                1.0208         -DE/DX =    0.0                 !
 ! R21   R(17,18)                1.2872         -DE/DX =    0.0                 !
 ! R22   R(18,19)                1.3749         -DE/DX =    0.0                 !
 ! R23   R(18,22)                1.0862         -DE/DX =    0.0                 !
 ! R24   R(19,23)                1.0231         -DE/DX =    0.0                 !
 ! A1    A(2,1,9)              119.624          -DE/DX =    0.0                 !
 ! A2    A(2,1,11)             123.0748         -DE/DX =    0.0                 !
 ! A3    A(9,1,11)             117.2994         -DE/DX =    0.0                 !
 ! A4    A(1,2,3)              121.3319         -DE/DX =    0.0                 !
 ! A5    A(1,2,4)              120.8917         -DE/DX =    0.0                 !
 ! A6    A(3,2,4)              117.7753         -DE/DX =    0.0                 !
 ! A7    A(2,4,5)              120.4998         -DE/DX =    0.0                 !
 ! A8    A(2,4,6)              120.659          -DE/DX =    0.0                 !
 ! A9    A(5,4,6)              118.8379         -DE/DX =    0.0                 !
 ! A10   A(4,6,7)              117.2358         -DE/DX =    0.0                 !
 ! A11   A(4,6,17)             117.5231         -DE/DX =    0.0                 !
 ! A12   A(7,6,17)             125.2043         -DE/DX =    0.0                 !
 ! A13   A(6,7,8)              118.6486         -DE/DX =    0.0                 !
 ! A14   A(6,7,9)              122.7116         -DE/DX =    0.0                 !
 ! A15   A(8,7,9)              118.3967         -DE/DX =    0.0                 !
 ! A16   A(7,8,19)              97.7579         -DE/DX =    0.0                 !
 ! A17   A(7,8,20)             112.3173         -DE/DX =    0.0                 !
 ! A18   A(7,8,21)             109.6143         -DE/DX =    0.0                 !
 ! A19   A(19,8,20)            108.1633         -DE/DX =    0.0                 !
 ! A20   A(19,8,21)            109.7268         -DE/DX =    0.0                 !
 ! A21   A(20,8,21)            117.435          -DE/DX =    0.0                 !
 ! A22   A(1,9,7)              118.8553         -DE/DX =    0.0                 !
 ! A23   A(1,9,10)             120.1625         -DE/DX =    0.0                 !
 ! A24   A(7,9,10)             120.9821         -DE/DX =    0.0                 !
 ! A25   A(1,11,12)            106.02           -DE/DX =    0.0                 !
 ! A26   A(1,11,13)            108.1859         -DE/DX =    0.0                 !
 ! A27   A(1,11,14)            109.2548         -DE/DX =    0.0                 !
 ! A28   A(12,11,13)           119.6443         -DE/DX =    0.0                 !
 ! A29   A(12,11,14)           106.4762         -DE/DX =    0.0                 !
 ! A30   A(13,11,14)           106.9769         -DE/DX =    0.0                 !
 ! A31   A(11,14,15)           112.8213         -DE/DX =    0.0                 !
 ! A32   A(11,14,16)           113.4833         -DE/DX =    0.0                 !
 ! A33   A(15,14,16)           111.9268         -DE/DX =    0.0                 !
 ! A34   A(6,17,18)            118.8938         -DE/DX =    0.0                 !
 ! A35   A(17,18,19)           126.4551         -DE/DX =    0.0                 !
 ! A36   A(17,18,22)           119.6251         -DE/DX =    0.0                 !
 ! A37   A(19,18,22)           113.8558         -DE/DX =    0.0                 !
 ! A38   A(8,19,18)            121.25           -DE/DX =    0.0                 !
 ! A39   A(8,19,23)            115.6627         -DE/DX =    0.0                 !
 ! A40   A(18,19,23)           118.0244         -DE/DX =    0.0                 !
 ! D1    D(9,1,2,3)            178.3585         -DE/DX =    0.0                 !
 ! D2    D(9,1,2,4)             -1.2529         -DE/DX =    0.0                 !
 ! D3    D(11,1,2,3)            -2.1496         -DE/DX =    0.0                 !
 ! D4    D(11,1,2,4)           178.2391         -DE/DX =    0.0                 !
 ! D5    D(2,1,9,7)              0.9273         -DE/DX =    0.0                 !
 ! D6    D(2,1,9,10)          -179.2256         -DE/DX =    0.0                 !
 ! D7    D(11,1,9,7)          -178.5937         -DE/DX =    0.0                 !
 ! D8    D(11,1,9,10)            1.2535         -DE/DX =    0.0                 !
 ! D9    D(2,1,11,12)          178.2166         -DE/DX =    0.0                 !
 ! D10   D(2,1,11,13)          -52.2909         -DE/DX =    0.0                 !
 ! D11   D(2,1,11,14)           63.8323         -DE/DX =    0.0                 !
 ! D12   D(9,1,11,12)           -2.2804         -DE/DX =    0.0                 !
 ! D13   D(9,1,11,13)          127.2122         -DE/DX =    0.0                 !
 ! D14   D(9,1,11,14)         -116.6647         -DE/DX =    0.0                 !
 ! D15   D(1,2,4,5)           -179.1272         -DE/DX =    0.0                 !
 ! D16   D(1,2,4,6)              0.2022         -DE/DX =    0.0                 !
 ! D17   D(3,2,4,5)              1.248          -DE/DX =    0.0                 !
 ! D18   D(3,2,4,6)           -179.4226         -DE/DX =    0.0                 !
 ! D19   D(2,4,6,7)              1.1049         -DE/DX =    0.0                 !
 ! D20   D(2,4,6,17)          -176.8023         -DE/DX =    0.0                 !
 ! D21   D(5,4,6,7)           -179.5547         -DE/DX =    0.0                 !
 ! D22   D(5,4,6,17)             2.5382         -DE/DX =    0.0                 !
 ! D23   D(4,6,7,8)            172.7961         -DE/DX =    0.0                 !
 ! D24   D(4,6,7,9)             -1.4437         -DE/DX =    0.0                 !
 ! D25   D(17,6,7,8)            -9.4754         -DE/DX =    0.0                 !
 ! D26   D(17,6,7,9)           176.2849         -DE/DX =    0.0                 !
 ! D27   D(4,6,17,18)          166.6888         -DE/DX =    0.0                 !
 ! D28   D(7,6,17,18)          -11.0338         -DE/DX =    0.0                 !
 ! D29   D(6,7,8,19)            29.1234         -DE/DX =    0.0                 !
 ! D30   D(6,7,8,20)           142.4519         -DE/DX =    0.0                 !
 ! D31   D(6,7,8,21)           -85.0932         -DE/DX =    0.0                 !
 ! D32   D(9,7,8,19)          -156.3854         -DE/DX =    0.0                 !
 ! D33   D(9,7,8,20)           -43.0569         -DE/DX =    0.0                 !
 ! D34   D(9,7,8,21)            89.398          -DE/DX =    0.0                 !
 ! D35   D(6,7,9,1)              0.4332         -DE/DX =    0.0                 !
 ! D36   D(6,7,9,10)          -179.4127         -DE/DX =    0.0                 !
 ! D37   D(8,7,9,1)           -173.8204         -DE/DX =    0.0                 !
 ! D38   D(8,7,9,10)             6.3338         -DE/DX =    0.0                 !
 ! D39   D(7,8,19,18)          -37.3273         -DE/DX =    0.0                 !
 ! D40   D(7,8,19,23)          168.3453         -DE/DX =    0.0                 !
 ! D41   D(20,8,19,18)        -153.945          -DE/DX =    0.0                 !
 ! D42   D(20,8,19,23)          51.7276         -DE/DX =    0.0                 !
 ! D43   D(21,8,19,18)          76.7998         -DE/DX =    0.0                 !
 ! D44   D(21,8,19,23)         -77.5277         -DE/DX =    0.0                 !
 ! D45   D(1,11,14,15)          60.2193         -DE/DX =    0.0                 !
 ! D46   D(1,11,14,16)         -68.4295         -DE/DX =    0.0                 !
 ! D47   D(12,11,14,15)        -53.8697         -DE/DX =    0.0                 !
 ! D48   D(12,11,14,16)        177.4815         -DE/DX =    0.0                 !
 ! D49   D(13,11,14,15)        177.1105         -DE/DX =    0.0                 !
 ! D50   D(13,11,14,16)         48.4617         -DE/DX =    0.0                 !
 ! D51   D(6,17,18,19)           3.1577         -DE/DX =    0.0                 !
 ! D52   D(6,17,18,22)        -173.7472         -DE/DX =    0.0                 !
 ! D53   D(17,18,19,8)          26.0145         -DE/DX =    0.0                 !
 ! D54   D(17,18,19,23)        179.7599         -DE/DX =    0.0                 !
 ! D55   D(22,18,19,8)        -156.9271         -DE/DX =    0.0                 !
 ! D56   D(22,18,19,23)         -3.1818         -DE/DX =    0.0                 !
 --------------------------------------------------------------------------------
 GradGradGradGradGradGradGradGradGradGradGradGradGradGradGradGradGradGrad

                          Input orientation:                          
 ---------------------------------------------------------------------
 Center     Atomic      Atomic             Coordinates (Angstroms)
 Number     Number       Type             X           Y           Z
 ---------------------------------------------------------------------
      1          6           0       -1.388714    0.636752   -0.822463
      2          6           0       -2.519577    0.533541   -1.650867
      3         17           0       -4.125040    0.535501   -0.990988
      4          6           0       -2.386859    0.418849   -3.021669
      5          1           0       -3.264368    0.353765   -3.656297
      6          6           0       -1.116931    0.398572   -3.618439
      7          6           0       -0.003661    0.475103   -2.764304
      8         16           0        1.595532    0.260955   -3.447425
      9          6           0       -0.122355    0.597252   -1.383942
     10          1           0        0.757935    0.663630   -0.750591
     11         16           0       -1.493574    0.833627    0.954636
     12          8           0       -0.117671    0.856991    1.438998
     13          8           0       -2.376884    1.959578    1.236579
     14          7           0       -2.193496   -0.498975    1.606084
     15          1           0       -1.667380   -1.354902    1.418512
     16          1           0       -3.180768   -0.598171    1.366515
     17          7           0       -1.060127    0.349545   -5.007427
     18          6           0        0.060907    0.589213   -5.592922
     19          7           0        1.265674    0.840026   -4.979667
     20          8           0        2.581916    1.139295   -2.832586
     21          8           0        1.912350   -1.161965   -3.516214
     22          1           0        0.097453    0.654916   -6.676478
     23          1           0        2.080957    1.011373   -5.573615
 ---------------------------------------------------------------------
                    Distance matrix (angstroms):
                    1          2          3          4          5
     1  C    0.000000
     2  C    1.405616   0.000000
     3  Cl   2.743380   1.735787   0.000000
     4  C    2.424929   1.381979   2.675546   0.000000
     5  H    3.410099   2.146808   2.806716   1.084901   0.000000
     6  C    2.819233   2.420118   3.996369   1.403304   2.148238
     7  C    2.390659   2.751907   4.487100   2.397714   3.382689
     8  S    3.992164   4.498449   6.231725   4.008196   4.865272
     9  C    1.385815   2.412878   4.022401   2.800349   3.885245
    10  H    2.148020   3.401397   4.890568   3.886829   4.971727
    11  S    1.791043   2.816271   3.286175   4.096462   4.962528
    12  O    2.603509   3.926963   4.697573   5.023817   6.009740
    13  O    2.639319   3.223552   3.169558   4.528424   5.225562
    14  N    2.799177   3.432222   3.397909   4.721852   5.437517
    15  H    3.011031   3.703180   3.926755   4.835189   5.587808
    16  H    3.086765   3.289763   2.781130   4.573924   5.112906
    17  N    4.207657   3.664743   5.055695   2.389196   2.585391
    18  C    4.986075   4.711878   6.221160   3.554142   3.855309
    19  N    4.936541   5.050046   6.712830   4.165590   4.744369
    20  O    4.478733   5.271492   6.981354   5.024293   5.956055
    21  O    4.624792   5.098651   6.760787   4.607249   5.395875
    22  H    6.039745   5.667481   7.082973   4.425513   4.529241
    23  H    5.895117   6.064750   7.729251   5.179275   5.716735
                    6          7          8          9         10
     6  C    0.000000
     7  C    1.405266   0.000000
     8  S    2.721331   1.752122   0.000000
     9  C    2.453901   1.390830   2.705955   0.000000
    10  H    3.436558   2.161160   2.852478   1.086485   0.000000
    11  S    4.609137   4.022300   5.408204   2.721224   2.829486
    12  O    5.175552   4.222154   5.212241   2.834868   2.366088
    13  O    5.253134   4.882921   6.372229   3.715638   3.931338
    14  N    5.409272   4.984425   6.361775   3.798894   3.951773
    15  H    5.361767   4.859303   6.077412   3.748567   3.829051
    16  H    5.486591   5.320676   6.835580   4.283450   4.646252
    17  N    1.391013   2.482637   3.081230   3.751056   4.639467
    18  C    2.306996   2.831655   2.658192   4.212975   4.892806
    19  N    2.779322   2.579189   1.670896   3.861969   4.263097
    20  O    3.853272   2.670397   1.456867   3.115359   2.808535
    21  O    3.409145   2.629916   1.459386   3.432412   3.509151
    22  H    3.300310   3.917609   3.581373   5.297412   5.962587
    23  H    3.797990   3.539131   2.306393   4.751783   5.013270
                   11         12         13         14         15
    11  S    0.000000
    12  O    1.458856   0.000000
    13  O    1.458593   2.522046   0.000000
    14  N    1.640153   2.485078   2.492920   0.000000
    15  H    2.243891   2.700831   3.394447   1.022053   0.000000
    16  H    2.250847   3.391948   2.684249   1.020754   1.692835
    17  N    5.997367   6.534686   6.581312   6.763360   6.675821
    18  C    6.733993   7.039282   7.379892   7.621822   7.478420
    19  N    6.544421   6.566064   7.291319   7.558498   7.372734
    20  O    5.571903   5.061017   6.466890   6.722372   6.507639
    21  O    5.964160   5.722875   7.122542   6.598141   6.099444
    22  H    7.797256   8.120841   8.392911   8.670683   8.525425
    23  H    7.444926   7.350819   8.194521   8.491182   8.278836
                   16         17         18         19         20
    16  H    0.000000
    17  N    6.783983   0.000000
    18  C    7.768661   1.287231   0.000000
    19  N    7.881198   2.377119   1.374937   0.000000
    20  O    7.338921   4.314871   3.778562   2.536141   0.000000
    21  O    7.078048   3.652944   3.287428   2.562782   2.492281
    22  H    8.775346   2.054014   1.086161   2.068375   4.602465
    23  H    8.856737   3.259600   2.063781   1.023142   2.789366
                   21         22         23
    21  O    0.000000
    22  H    4.072122   0.000000
    23  H    2.997453   2.297315   0.000000
 Stoichiometry    C7H6ClN3O4S2
 Framework group  C1[X(C7H6ClN3O4S2)]
 Deg. of freedom    63
 Full point group                 C1      NOp   1
 Largest Abelian subgroup         C1      NOp   1
 Largest concise Abelian subgroup C1      NOp   1
                         Standard orientation:                         
 ---------------------------------------------------------------------
 Center     Atomic      Atomic             Coordinates (Angstroms)
 Number     Number       Type             X           Y           Z
 ---------------------------------------------------------------------
      1          6           0        1.165008   -0.094914   -0.062476
      2          6           0        1.163311    1.308321    0.019297
      3         17           0        2.644824    2.210459    0.084259
      4          6           0       -0.023474    2.015329    0.058646
      5          1           0       -0.017396    3.099110    0.107552
      6          6           0       -1.256507    1.346338    0.022001
      7          6           0       -1.225157   -0.057563   -0.031423
      8         16           0       -2.733188   -0.937634    0.114360
      9          6           0       -0.038589   -0.781644   -0.077990
     10          1           0       -0.047270   -1.866929   -0.128311
     11         16           0        2.666369   -1.066334   -0.162939
     12          8           0        2.242016   -2.461882   -0.188077
     13          8           0        3.477494   -0.539144   -1.254562
     14          7           0        3.532102   -0.868144    1.215949
     15          1           0        3.023109   -1.167676    2.050094
     16          1           0        3.918911    0.070510    1.321999
     17          7           0       -2.409372    2.124260   -0.003659
     18          6           0       -3.531001    1.564538   -0.296268
     19          7           0       -3.737996    0.226986   -0.538261
     20          8           0       -2.775405   -2.109831   -0.749719
     21          8           0       -3.053580   -1.130282    1.525049
     22          1           0       -4.420099    2.176064   -0.419913
     23          1           0       -4.689035   -0.080415   -0.757010
 ---------------------------------------------------------------------
 Rotational constants (GHZ):           0.6684219           0.2405875           0.1911004
 Unable to Open any file for archive entry.
 1\1\GINC-GADI-CPU-CLX-2639\FOpt\RM062X\Gen\C7H6Cl1N3O4S2\YJ5695\01-Jul
 -2022\0\\#m062X/gen 6D OPT Freq=noraman SCRF=(SMD,Solvent=h2o)\\HA.31.
 smd.a1.smd\\0,1\C,-1.388714,0.636752,-0.822463\C,-2.519577,0.533541,-1
 .650867\Cl,-4.12504,0.535501,-0.990988\C,-2.386859,0.418849,-3.021669\
 H,-3.264368,0.353765,-3.656297\C,-1.116931,0.398572,-3.618439\C,-0.003
 661,0.475103,-2.764304\S,1.595532,0.260955,-3.447425\C,-0.122355,0.597
 252,-1.383942\H,0.757935,0.66363,-0.750591\S,-1.493574,0.833627,0.9546
 36\O,-0.117671,0.856991,1.438998\O,-2.376884,1.959578,1.236579\N,-2.19
 3496,-0.498975,1.606084\H,-1.66738,-1.354902,1.418512\H,-3.180768,-0.5
 98171,1.366515\N,-1.060127,0.349545,-5.007427\C,0.060907,0.589213,-5.5
 92922\N,1.265674,0.840026,-4.979667\O,2.581916,1.139295,-2.832586\O,1.
 91235,-1.161965,-3.516214\H,0.097453,0.654916,-6.676478\H,2.080957,1.0
 11373,-5.573615\\Version=ES64L-G16RevC.01\State=1-A\HF=-1991.613977\RM
 SD=6.731e-09\RMSF=5.216e-06\Dipole=-1.142667,-1.261936,-3.4483138\Quad
 rupole=-4.4856043,-4.2258102,8.7114145,9.5543218,-11.2873011,-18.02287
 57\PG=C01 [X(C7H6Cl1N3O4S2)]\\@
 The archive entry for this job was punched.


 IBM COMPATIBILITY IS LIKE PREGNANCY. YOU ARE OR
 OR YOU ARE NOT. -- ADAM OSBORNE
 Job cpu time:       0 days  0 hours 26 minutes 12.5 seconds.
 Elapsed time:       0 days  0 hours  1 minutes 56.5 seconds.
 File lengths (MBytes):  RWF=    134 Int=      0 D2E=      0 Chk=     11 Scr=      1
 Normal termination of Gaussian 16 at Fri Jul  1 00:19:31 2022.
 Link1:  Proceeding to internal job step number  2.
 ------------------------------------------------------------------
 #N Geom=AllCheck Guess=TCheck SCRF=Check GenChk RM062X/ChkBas Freq
 ------------------------------------------------------------------
 1/10=4,29=7,30=1,38=1,40=1/1,3;
 2/12=2,40=1/2;
 3/5=7,6=2,8=2,11=2,14=-4,25=1,30=1,67=1,70=2,71=2,74=-55,82=7,116=1,140=1/1,2,3;
 4/5=101/1;
[...]
 0111640,-0.00042575,0.00276259,0.00045118,-0.00022933,0.00001249,-0.04
 650425,-0.18284937,0.06662827,-0.00557067,0.00103215,0.00532322,-0.005
 76945,-0.03972331,0.01387930,-0.06528044,0.60649193,0.01340522,0.02011
 041,-0.00438816,0.00369467,0.00036147,0.00089177,-0.00210487,0.0013709
 3,-0.00168181,0.00043872,-0.00119534,-0.00068297,0.00001165,-0.0000222
 3,-0.00017427,0.00065716,0.00030036,0.00235172,0.00077896,-0.00251381,
 -0.00270450,-0.00342995,0.00032423,-0.00035516,-0.00376671,0.00198990,
 -0.00269731,-0.00023565,0.00099881,-0.00030740,0.01928511,0.03865157,-
 0.07266045,-0.00995872,-0.00690418,0.00718408,0.00076337,-0.00670315,0
 .00781771,0.02375514,0.00661874,0.12610089,-0.00060029,-0.00028341,0.0
 0007020,-0.00043949,-0.00010079,-0.00004746,-0.00002952,0.00011446,-0.
 00017534,0.00002541,0.00004509,0.00004744,-0.00000280,0.00000240,0.000
 02421,-0.00002667,0.00000804,-0.00014368,-0.00001526,0.00007782,0.0001
 0666,0.00024096,-0.00006317,0.00004955,0.00013458,-0.00008332,0.000230
 11,0.00000721,-0.00003217,-0.00000246,0.01261907,-0.01000015,-0.005354
 09,-0.00198948,0.00072958,0.00028741,0.00092417,-0.00761192,0.00207111
 ,-0.16417165,0.15637100,0.03886749,0.16356849,0.00002077,0.00199022,-0
 .00063426,0.00056306,0.00009351,0.00019833,-0.00011536,-0.00006755,-0.
 00002797,0.00010204,-0.00008746,-0.00018866,0.00001149,-0.00000086,-0.
 00003463,-0.00000275,-0.00001687,0.00034835,-0.00000627,-0.00028824,-0
 .00033760,-0.00051381,0.00010120,-0.00004309,-0.00038615,0.00020826,0.
 00002955,-0.00008449,0.00009695,0.00000608,0.01093873,-0.02680577,-0.0
 0538855,0.00087465,0.00390764,0.00070821,-0.00103645,-0.00230067,0.001
 58139,0.16293250,-0.31756835,-0.05190289,-0.16885860,0.33217787,0.0007
 7701,-0.00126908,0.00015351,-0.00054222,-0.00030769,0.00016193,-0.0001
 1888,0.00011250,-0.00038829,-0.00007171,0.00020259,0.00006762,-0.00000
 568,-0.00000154,0.00002349,-0.00003393,-0.00000519,-0.00022212,0.00016
 028,0.00014862,0.00019780,0.00026404,-0.00001932,0.00004756,0.00019601
 ,-0.00014711,-0.00029281,0.00005453,-0.00010301,0.00004883,-0.00387182
 ,0.02094102,-0.00568710,-0.00118387,-0.00100441,-0.00080029,0.00044324
 ,0.00435154,0.00315738,0.05387941,-0.08690729,-0.02411727,-0.04451935,
 0.05619411,0.02925858,0.00103944,0.00106874,0.00024367,0.00085244,-0.0
 0002897,0.00044653,-0.00012366,0.00026759,-0.00111421,-0.00024553,-0.0
 0019258,-0.00001208,0.00000586,-0.00000353,-0.00004286,0.00012734,0.00
 008332,0.00025278,0.00002447,-0.00026885,-0.00026255,-0.00038042,0.000
 05916,-0.00006875,-0.00036623,0.00010916,-0.00041134,-0.00006421,0.000
 07683,-0.00003158,-0.01267389,-0.00875071,-0.00098426,0.00271865,0.000
 39906,0.00013945,0.00081406,0.00337521,0.00021606,-0.40868112,-0.02836
 023,-0.08501225,-0.01004017,-0.00488922,-0.00519018,0.42668158,0.00123
 721,-0.00033192,0.00006279,-0.00099135,-0.00000150,0.00086802,0.000021
 53,-0.00112058,0.00139811,0.00035642,-0.00006735,-0.00010666,-0.000009
 73,0.00000961,0.00004065,-0.00008237,0.00005609,0.00008286,0.00014758,
 -0.00011179,-0.00008790,-0.00022223,0.00004512,0.00003173,0.00007002,0
 .00013491,-0.00000136,0.00006013,-0.00002837,-0.00010725,-0.02715383,-
 0.00022042,-0.01068347,-0.00662420,-0.00462069,0.00226660,0.00285026,0
 .00105889,0.00103949,-0.03661299,-0.06650388,-0.00104113,0.02962791,0.
 00866146,0.00779402,0.03710952,0.06308628,-0.00161772,0.00020051,-0.00
 076459,0.00185489,0.00043215,-0.00164699,-0.00073751,0.00195257,-0.002
 49801,-0.00055308,0.00002798,0.00018525,0.00000223,-0.00002145,-0.0000
 5290,0.00017508,-0.00000861,-0.00021815,-0.00036487,0.00014534,0.00024
 332,0.00056301,-0.00006952,-0.00009970,0.00002658,-0.00021154,0.000202
 19,0.00002409,0.00002415,0.00012199,0.01980876,0.00848929,-0.00331931,
 0.00205131,0.00239186,0.00302454,-0.00035556,-0.00222388,-0.00148235,-
 0.12079707,-0.00965439,-0.03227059,0.00834058,-0.00013679,-0.00181379,
 0.09209434,-0.00141566,0.04006358,0.00642994,0.00061007,0.00720253,-0.
 00601503,-0.00110287,-0.01097930,-0.00220610,0.00005452,0.00220114,-0.
 00807305,0.00260391,0.05476926,0.00201916,-0.00004262,0.00024396,-0.09
 120781,-0.00105080,0.00144993,0.01474302,-0.00004633,-0.02674393,-0.00
 309172,-0.00985044,0.04068056,-0.00731400,0.00021458,0.00110339,0.0005
 0274,-0.00012973,-0.00097990,0.00051141,-0.00072924,-0.00702511,0.0012
 3495,0.00010110,0.00153293,-0.00076781,0.00084835,0.00159315,-0.000542
 44,-0.00071180,0.00167574,-0.00012444,0.00028857,-0.00020334,0.0001853
 9,0.00010227,-0.00019685,0.59878552,0.00133060,-0.00061817,0.00123946,
 -0.00004230,0.00659908,-0.00231056,-0.00007500,-0.00031942,0.00005107,
 -0.00095238,0.00534268,0.00080258,0.00002698,-0.00356822,0.00037211,0.
 00276462,-0.06728564,-0.00475155,-0.00217067,0.00899215,-0.00284587,-0
 .00298265,-0.00403275,0.00902392,-0.00062659,0.00680452,0.00047409,0.0
 0004363,-0.00018232,0.00009351,0.00013527,-0.00088192,-0.00135256,0.00
 022196,0.00006516,0.00032118,-0.00002741,0.00011801,0.00016821,-0.0002
 4018,-0.00022127,0.00056217,-0.00003319,0.00008154,-0.00007561,0.00006
 884,0.00001330,-0.00003159,0.10021538,0.10822502,-0.00748041,-0.000969
 80,-0.01130513,0.00366466,0.00101659,0.01855546,0.00266882,-0.00007062
 ,-0.00185967,0.02877339,-0.00054839,-0.05088717,-0.00192248,0.00034399
 ,0.00070580,-0.02079173,-0.01379130,-0.26773879,-0.02379266,-0.0048085
 9,-0.03686947,0.01346749,0.00455013,-0.02939258,-0.00283936,-0.0004648
 4,0.00021725,0.00068432,-0.00011515,-0.00092111,-0.00098860,0.00144550
 ,0.01154980,-0.00161861,-0.00023899,-0.00277337,0.00141055,-0.00157531
 ,-0.00269240,0.00099174,0.00128595,-0.00289352,0.00020233,-0.00047734,
 0.00032205,-0.00033398,-0.00013444,0.00028476,-0.21353579,-0.03397379,
 0.56119944,-0.00878799,-0.00071068,-0.01008578,0.00211470,0.00159936,0
 .01661241,0.00153445,0.00001819,-0.00113611,0.01348460,-0.00074564,-0.
 01843518,0.00002034,0.00010373,0.00022117,-0.02373277,-0.00288576,0.05
 834386,-0.00908768,-0.00360335,-0.00493646,0.00323479,0.02475187,-0.09
 808999,-0.00076917,-0.00099820,-0.00397029,0.00027810,-0.00018618,-0.0
 0085758,-0.00098038,0.00116647,0.01047754,-0.00153967,-0.00017888,-0.0
 0236405,0.00125511,-0.00128338,-0.00236991,0.00088334,0.00109142,-0.00
 259547,0.00019292,-0.00043338,0.00031735,-0.00031382,-0.00010647,0.000
 22147,-0.40670677,-0.06759238,0.17673331,0.73584823,-0.00219639,-0.000
 13999,-0.00252658,0.00030562,0.00115803,0.00363521,0.00039748,-0.00030
 146,-0.00024497,0.00276784,0.00363685,-0.00478862,-0.00007758,-0.00043
 183,0.00008293,-0.00556138,0.00090192,0.01047183,-0.00241308,-0.000239
 13,-0.00085218,0.01559383,0.00268683,-0.01666086,0.00009451,-0.0005098
 1,-0.00124716,0.00006936,-0.00006280,-0.00021302,-0.00025154,0.0002920
 0,0.00266564,-0.00039614,-0.00003099,-0.00061107,0.00034462,-0.0003382
 7,-0.00059448,0.00022898,0.00028222,-0.00068443,0.00005235,-0.00011583
 ,0.00008392,-0.00008809,-0.00002695,0.00005566,-0.07330812,-0.08328831
 ,0.04251936,0.11489259,0.19163907,0.00020547,0.00013487,-0.00018845,0.
 00041237,-0.00034323,-0.00115324,0.00002742,0.00004494,-0.00027715,-0.
 00485237,-0.00092632,-0.00365971,0.00008843,0.00011017,0.00009618,0.04
 982571,0.00890427,-0.04625051,0.00617616,0.00090477,0.00415558,-0.0290
 1244,-0.00672833,-0.03044621,0.00047760,-0.00062303,-0.00016532,-0.000
 16532,-0.00001168,0.00014303,-0.00001918,0.00013366,0.00093317,-0.0001
 9707,-0.00001085,-0.00015661,0.00007944,-0.00006845,-0.00020003,0.0000
 8136,0.00008623,-0.00027407,0.00002450,-0.00004907,0.00004251,-0.00003
 742,-0.00001548,0.00001953,0.17856785,0.04374641,-0.23011076,-0.124041
 71,-0.06194948,0.82358223,0.00563480,0.00121451,0.00631998,-0.00071840
 ,-0.00083036,-0.00892321,-0.00178245,-0.00003312,0.00099647,-0.0062636
 2,0.00044535,0.01133224,0.00037783,-0.00023081,-0.00002919,0.01111888,
 0.00111085,-0.03695992,0.01438463,-0.00391406,0.02890962,-0.11105569,-
 0.00755777,0.03656205,-0.00863509,-0.00151794,0.00461925,-0.00020177,-
 0.00014804,0.00013934,0.00013252,-0.00049026,-0.00679217,0.00105242,0.
 00011111,0.00177499,-0.00092225,0.00121375,0.00192406,-0.00052024,-0.0
 0086785,0.00168010,-0.00013581,0.00027522,-0.00017171,0.00021139,0.000
 08466,-0.00020633,-0.09131375,-0.02681374,0.01839564,-0.24175029,-0.04
 240366,-0.10050937,0.72776778,0.00316372,0.00013383,0.00198885,-0.0007
 0889,-0.00056106,-0.00411714,-0.00056088,0.00006034,0.00030510,-0.0027
 8569,-0.00020697,0.00443262,0.00012833,0.00025922,-0.00000336,0.004064
 51,-0.00651145,-0.01082031,0.00673629,0.00182625,0.00048537,-0.0082813
 1,-0.06639802,0.05694347,-0.00269806,0.00346443,0.00233114,-0.00014969
 ,-0.00005032,0.00005316,0.00018577,-0.00083543,-0.00209320,0.00030960,
 0.00008513,0.00055173,-0.00020777,0.00030646,0.00031901,-0.00024848,-0
 .00028793,0.00077847,-0.00004470,0.00011281,-0.00007532,0.00009436,0.0
 0002605,-0.00007370,-0.02630472,0.01644159,0.00599228,-0.03684838,-0.0
 5336047,-0.00098013,0.11029125,0.11774916,0.00320545,-0.00049531,0.002
 77525,-0.00092736,-0.00058888,-0.00495873,0.00055653,0.00006740,-0.000
 03574,-0.00250584,-0.00010207,0.00597659,0.00031467,-0.00003940,-0.000
 18887,0.00445827,0.00021380,-0.01817408,-0.00212854,0.00985059,-0.0144
 9697,-0.01157788,0.05109274,-0.14112820,0.00486728,0.00077457,0.002744
 41,-0.00025805,0.00047817,0.00075648,0.00054528,-0.00021108,-0.0025366
 4,0.00041232,0.00002506,0.00037833,-0.00025637,0.00003679,0.00038988,-
 0.00022892,-0.00012758,0.00053971,-0.00004662,0.00010447,-0.00010567,0
 .00006898,0.00000832,0.00001699,-0.01723692,-0.00741637,0.04219693,-0.
 02371546,0.00838120,-0.17605278,-0.06393748,-0.11481676,0.53693486,-0.
 00240393,0.00050192,0.00108785,0.00178136,0.00010359,0.00026685,-0.001
 82652,-0.00014167,0.00081707,-0.00162459,0.00123680,-0.00232761,-0.000
 77394,0.00002783,0.00064536,-0.00325303,-0.00128039,0.01205561,-0.0147
 8696,-0.01867341,-0.01946266,-0.29741809,-0.20493698,-0.13131418,0.001
 13726,0.00014933,-0.00396031,-0.00043380,-0.00042051,-0.00004964,-0.00
 005509,-0.00046356,-0.00393708,0.00057642,0.00009200,0.00119781,-0.000
 49166,0.00079969,0.00117459,-0.00030711,-0.00055282,0.00107729,-0.0000
 8173,0.00017292,-0.00009770,0.00012515,0.00007166,-0.00018341,-0.00094
 386,-0.00040693,-0.00194062,0.00694435,-0.00095322,-0.00260905,-0.0075
 3196,-0.00647454,-0.01464142,0.31506878,-0.00049265,-0.00025010,0.0007
 7764,0.00055705,0.00005312,-0.00000317,-0.00048441,0.00000891,0.000224
 01,-0.00047093,-0.00038417,-0.00078616,-0.00022140,-0.00006027,0.00023
 908,-0.00202280,0.00103082,0.00228777,0.00260478,0.00391921,-0.0057812
 5,-0.19683391,-0.24738795,-0.11805544,0.00009323,0.00005495,-0.0009034
 9,0.00004751,-0.00007104,0.00010089,-0.00008682,-0.00018938,-0.0012411
 3,0.00021493,0.00004929,0.00036214,-0.00015913,0.00027396,0.00036363,-
 0.00008992,-0.00017375,0.00036893,-0.00001972,0.00004916,-0.00003152,0
 .00004087,0.00002352,-0.00006288,-0.00029785,-0.00063655,0.00061113,0.
 00220875,0.00238989,-0.00024934,0.00255061,0.00681115,0.00225105,0.224
 01852,0.26472298,-0.00025050,0.00039414,0.00162375,0.00045225,0.000006
 55,-0.00007455,-0.00013384,-0.00002030,0.00010667,0.00038168,-0.000006
 47,0.00115707,0.00013058,-0.00008441,-0.00005759,0.00128212,0.00012383
 ,-0.00526792,0.00506018,-0.00034716,0.01024396,-0.13013688,-0.12585835
 ,-0.15402208,-0.00046918,0.00051750,-0.00080014,0.00006867,-0.00026792
 ,0.00108288,-0.00023252,-0.00004462,-0.00093549,0.00023571,0.00000705,
 0.00014458,-0.00009293,0.00013643,0.00027238,-0.00003443,-0.00009661,0
 .00024703,-0.00002072,0.00003048,-0.00002605,0.00002390,0.00001341,-0.
 00002932,-0.00660331,-0.00153724,0.00412550,0.01928556,0.00344132,-0.0
 0619475,-0.04372617,-0.01701979,-0.01896770,0.16807420,0.14239489,0.15
 391304,-0.00331830,-0.00154196,0.00144398,0.00203836,0.00039634,0.0012
 6684,-0.00171218,0.00009115,0.00064932,0.00029969,-0.00128235,-0.00042
 093,-0.00028704,0.00001552,0.00018141,0.00128916,0.00090535,0.00622969
 ,-0.00370966,0.02415424,0.00652011,-0.09657492,0.10908867,0.00868816,-
 0.00141709,0.00232212,-0.00468720,-0.00017535,0.00077835,-0.00014368,-
 0.00020784,-0.00080440,-0.00331554,0.00052551,0.00007974,0.00096392,-0
 .00037310,0.00063617,0.00083441,-0.00029711,-0.00053360,0.00113722,-0.
 00006565,0.00016435,-0.00008905,0.00012106,0.00007042,-0.00016950,0.00
 098105,0.00059203,-0.00246844,0.00141664,-0.00168143,0.00237356,0.0119
 4217,0.01115788,-0.00719642,0.00954543,-0.03020077,-0.01044111,0.08193
 438,0.00072401,0.00087005,-0.00250599,-0.00125406,-0.00002910,0.001421
 74,0.00159351,-0.00010271,-0.00068781,0.00182442,0.00078832,-0.0011661
 6,0.00036884,0.00012223,-0.00033812,-0.00013651,-0.00085792,-0.0017567
 5,-0.00206797,-0.00960871,0.00066079,0.09903325,-0.52601660,-0.0345284
 9,0.00330053,-0.00088844,0.00111970,0.00016802,-0.00058655,0.00038817,
 0.00008866,0.00055313,0.00400523,-0.00060027,-0.00007271,-0.00114093,0
 .00049063,-0.00074031,-0.00108352,0.00033581,0.00064163,-0.00117783,0.
 00008611,-0.00018822,0.00008981,-0.00013640,-0.00007358,0.00016333,0.0
 0575267,0.00086284,-0.00281841,-0.01612229,-0.00484378,-0.00143084,0.0
 1197856,-0.01418139,0.01584092,0.00725280,-0.02899099,-0.00163886,-0.1
 1647417,0.58456458,0.00098998,0.00062462,0.00107623,-0.00040873,-0.000
 22367,-0.00052753,0.00059255,-0.00005175,-0.00022345,0.00022075,0.0008
 7077,0.00141346,0.00029374,0.00012946,-0.00021021,0.00085708,-0.001684
 86,-0.00950323,0.00700278,-0.00896521,0.01142827,0.00781258,-0.0241629
 3,-0.06460632,-0.00109278,0.00037227,0.00172168,-0.00019997,-0.0000789
 9,0.00021248,-0.00001815,0.00002732,-0.00006382,0.00003638,-0.00003274
 ,-0.00010128,-0.00000868,-0.00006050,-0.00002275,-0.00000363,0.0000438
 7,-0.00002143,-0.00000368,0.00000048,-0.00000888,0.00000371,-0.0000167
 8,0.00004320,-0.00714726,-0.00289742,0.00601170,0.01790669,0.00601890,
 0.00417376,-0.02126767,0.02547763,-0.01364099,-0.00420283,-0.02168865,
 0.01105952,-0.00033861,0.02639439,0.05039199,0.00012804,-0.00003182,0.
 00013587,-0.00022061,0.00017308,-0.00026422,-0.00013717,-0.00001490,0.
 00014129,0.00026497,0.00015271,0.00108581,-0.00000308,-0.00006274,-0.0
 0006661,-0.00130482,-0.00310513,0.00238048,-0.00026530,0.00040576,0.00
 036057,-0.00234609,-0.00503121,0.00336545,0.00054169,0.00025118,0.0002
 0554,-0.00006163,0.00001660,0.00011219,0.00003971,-0.00006063,-0.00031
 989,0.00005003,0.00000626,0.00009234,-0.00003161,0.00004008,0.00006761
 ,-0.00002955,-0.00003939,0.00009124,-0.00000615,0.00001505,-0.00001078
 ,0.00000987,0.00000589,-0.00001288,-0.00642569,-0.00218283,0.03525605,
 -0.05328163,-0.00281816,0.00518627,-0.00602604,0.00268294,-0.03631750,
 -0.00147189,-0.00026233,-0.00308759,0.00019488,0.00100366,-0.00034242,
 0.06964367,-0.00055033,0.00001843,-0.00031455,-0.00001764,-0.00047435,
 0.00075431,0.00000183,0.00003922,0.00002760,0.00071149,-0.00001265,-0.
 00012611,-0.00003180,0.00012048,-0.00001961,-0.00351058,0.01123115,0.0
 0180900,-0.00060571,-0.00053924,0.00032794,-0.00062353,0.00269743,-0.0
 0085280,0.00032044,-0.00113280,-0.00036313,0.00001665,0.00001833,-0.00
 000927,-0.00004074,0.00016447,0.00029024,-0.00003763,-0.00000762,-0.00
 006702,0.00001562,-0.00002852,-0.00003025,0.00004556,0.00004287,-0.000
 11966,0.00000768,-0.00001659,0.00001313,-0.00001581,-0.00000199,0.0000
 0678,0.00196958,0.00078682,0.00594874,-0.00487186,-0.05208670,0.016610
 16,-0.00030674,0.01081507,-0.00438738,0.00000405,-0.00038285,0.0001161
 7,-0.00020824,0.00077507,-0.00014783,0.00772668,0.03003274,-0.00003135
 ,0.00001128,0.00007055,0.00010579,-0.00008520,0.00004335,0.00004123,0.
 00000524,-0.00003897,-0.00005516,-0.00002302,-0.00025898,0.00001484,0.
 00001710,-0.00004141,0.00037855,0.00134546,0.00176907,-0.00017489,-0.0
 0004739,0.00006780,-0.00009962,-0.00182484,0.00292899,-0.00006864,-0.0
 0007455,-0.00007730,0.00001363,-0.00000072,-0.00000706,-0.00000292,0.0
 0000722,-0.00003716,0.00000531,-0.00000076,-0.00000339,-0.00000473,-0.
 00000113,0.00000886,-0.00000213,0.00000119,0.00000413,-0.00000098,0.00
 000094,-0.00000125,0.00000152,-0.00000100,0.00000180,0.00817130,0.0011
 7113,-0.00851975,0.00342072,0.01686785,-0.35618535,-0.00405949,0.00156
 136,-0.01242007,-0.00013776,0.00008030,-0.00047787,-0.00005635,0.00022
 970,-0.00006261,-0.00748953,-0.01935371,0.37282531,0.00000719,-0.00015
 071,-0.00059915,-0.00019264,0.00003680,0.00027823,0.00027742,0.0000108
 8,-0.00011223,0.00025774,0.00009374,-0.00020666,0.00006938,-0.00001839
 ,-0.00005366,-0.00014877,0.00021775,-0.00006726,-0.00093582,0.00049798
 ,-0.00432146,0.01657856,-0.00077605,-0.00116268,0.00148159,0.00010211,
 -0.00009005,0.00001806,0.00004828,0.00011213,0.00005090,0.00007513,0.0
 0077748,-0.00011519,-0.00001565,-0.00022001,0.00011535,-0.00017424,-0.
 00024959,0.00006144,0.00012028,-0.00021548,0.00001630,-0.00003289,0.00
 001836,-0.00002767,-0.00001230,0.00003245,-0.00066070,-0.00125306,-0.0
 0453562,-0.02025739,-0.00259838,0.01791780,-0.29576507,-0.05350156,0.1
 6654600,-0.00177458,-0.00069359,0.00023433,-0.00215008,0.00279016,-0.0
 0068182,0.00073841,0.00000105,0.00003066,0.30235559,-0.00049484,-0.000
 24041,-0.00014263,0.00013886,-0.00008227,0.00082660,0.00021911,0.00003
 621,-0.00010943,0.00056002,-0.00032557,-0.00079134,0.00002710,0.000082
 58,-0.00003482,-0.00034372,0.00009218,0.00197076,0.00001489,0.00230493
 ,0.00003036,-0.00626857,-0.00245157,0.00814257,0.00025924,-0.00084834,
 -0.00058475,0.00003574,0.00011911,-0.00001164,-0.00005619,0.00023336,0
 .00041448,-0.00006133,-0.00003188,-0.00012403,0.00002666,-0.00005823,-
 0.00005263,0.00005666,0.00005802,-0.00017134,0.00000874,-0.00002420,0.
 00001582,-0.00001825,-0.00000622,0.00002039,0.00081353,0.00670184,-0.0
 0372669,-0.00926556,-0.00721050,0.00271075,-0.04416152,-0.01569843,0.0
 3905972,-0.00012708,-0.00085991,-0.00026004,0.00227460,-0.00199682,0.0
 0005161,0.00112925,-0.00205878,0.00011356,0.05523266,0.02226488,0.0004
 6581,-0.00023918,0.00022584,-0.00018333,-0.00006203,-0.00081960,-0.000
 06309,0.00001552,0.00007960,-0.00055346,-0.00002955,0.00118481,0.00005
 790,0.00000240,0.00001539,0.00004864,-0.00042595,-0.00411113,-0.001274
 01,0.00190724,-0.00405218,0.02233883,0.00323708,-0.01510419,0.00114642
 ,0.00015495,0.00038583,-0.00004613,0.00010447,0.00006259,0.00012276,-0
 .00001612,-0.00044405,0.00006443,0.00000161,0.00009891,-0.00004614,0.0
 0001959,0.00007657,-0.00003361,-0.00003038,0.00009187,-0.00000721,0.00
 001844,-0.00001774,0.00001052,0.00000513,-0.00001145,-0.00854004,-0.00
 083328,0.00079502,-0.01094210,-0.00385097,0.01816894,0.17392896,0.0487
 7953,-0.19000301,-0.00153235,-0.00125840,0.00287706,-0.00096178,-0.000
 04006,0.00146020,-0.00056928,-0.00011274,0.00041131,-0.17343176,-0.047
 34728,0.18862941\\0.00000527,0.00000122,0.00000161,-0.00000009,0.00000
 143,-0.00001189,-0.00000362,0.00000857,0.00000158,-0.00000992,0.000005
 13,0.00001086,0.00000153,0.00000880,-0.00000285,0.00001612,0.00000725,
 0.00000086,-0.00000941,-0.00000253,-0.00000715,0.00000157,-0.00000444,
 0.00000393,-0.00000269,-0.00000347,0.00000865,0.00000073,-0.00000533,0
 .00000021,-0.00000094,-0.00000385,-0.00000137,-0.00000024,-0.00000906,
 0.00000005,-0.00000195,0.00000774,0.00000001,-0.00000189,0.00000679,0.
 00000005,-0.00000614,-0.00000302,-0.00000262,-0.00000175,0.00000436,-0
 .00000364,0.00000128,0.00000412,-0.00000038,-0.00000033,-0.00000523,-0
 .00000158,0.00000872,0.00000006,0.00000290,0.00000276,-0.00000937,-0.0
 0000150,-0.00000491,-0.00000670,0.00000004,0.00000239,0.00000307,0.000
 00059,0.00000349,-0.00000553,0.00000165\\\@
 The archive entry for this job was punched.


 FROM AN ANONYMOUS WRITER, ON PERSPECTIVE:

 MAN, DESPITE HIS ARTISTIC PRETENSIONS, HIS SOPHISTICATION AND MANY 
 ACCOMPLISHMENTS, OWES THE FACT OF HIS EXISTENCE TO A SIX-INCH LAYER OF 
 TOPSOIL AND THE FACT THAT IT RAINS.
 Job cpu time:       0 days  2 hours 39 minutes 56.3 seconds.
 Elapsed time:       0 days  0 hours 10 minutes 49.4 seconds.
 File lengths (MBytes):  RWF=    409 Int=      0 D2E=      0 Chk=     17 Scr=      1
 Normal termination of Gaussian 16 at Fri Jul  1 00:30:23 2022.
