 Entering Gaussian System, Link 0=g16
 AtFile(1): /home/561/yj5695/Basis/6-31pGd.gbs
 Initial command:
 /apps/gaussian/g16c01/g16/l1.exe "/jobfs/50001020.gadi-pbs/Gau-3067154.inp" -scrdir="/jobfs/50001020.gadi-pbs/"
 Entering Link 1 = /apps/gaussian/g16c01/g16/l1.exe PID=   3067155.
  
 Copyright (c) 1988-2019, Gaussian, Inc.  All Rights Reserved.
  
 This is part of the Gaussian(R) 16 program.  It is based on
 the Gaussian(R) 09 system (copyright 2009, Gaussian, Inc.),
 the Gaussian(R) 03 system (copyright 2003, Gaussian, Inc.),
 the Gaussian(R) 98 system (copyright 1998, Gaussian, Inc.),
 the Gaussian(R) 94 system (copyright 1995, Gaussian, Inc.),
 the Gaussian 92(TM) system (copyright 1992, Gaussian, Inc.),
 the Gaussian 90(TM) system (copyright 1990, Gaussian, Inc.),
 the Gaussian 88(TM) system (copyright 1988, Gaussian, Inc.),
 the Gaussian 86(TM) system (copyright 1986, Carnegie Mellon
 University), and the Gaussian 82(TM) system (copyright 1983,
 Carnegie Mellon University). Gaussian is a federally registered
 trademark of Gaussian, Inc.
  
 This software contains proprietary and confidential information,
 including trade secrets, belonging to Gaussian, Inc.
  
 This software is provided under written license and may be
 used, copied, transmitted, or stored only in accord with that
 written license.
  
 The following legend is applicable only to US Government
 contracts under FAR:
  
                    RESTRICTED RIGHTS LEGEND
  
 Use, reproduction and disclosure by the US Government is
 subject to restrictions as set forth in subparagraphs (a)
 and (c) of the Commercial Computer Software - Restricted
 Rights clause in FAR 52.227-19.
  
 Gaussian, Inc.
 340 Quinnipiac St., Bldg. 40, Wallingford CT 06492
  
  
 ---------------------------------------------------------------
 Warning -- This program may not be used in any manner that
 competes with the business of Gaussian, Inc. or will provide
 assistance to any competitor of Gaussian, Inc.  The licensee
 of this program is prohibited from giving any competitor of
 Gaussian, Inc. access to this program.  By using this program,
 the user acknowledges that Gaussian, Inc. is engaged in the
 business of creating and licensing software in the field of
 computational chemistry and represents and warrants to the
 licensee that it is not a competitor of Gaussian, Inc. and that
 it will not use this program in any manner prohibited above.
 ---------------------------------------------------------------
  

 Cite this work as:
 Gaussian 16, Revision C.01,
 M. J. Frisch, G. W. Trucks, H. B. Schlegel, G. E. Scuseria, 
 M. A. Robb, J. R. Cheeseman, G. Scalmani, V. Barone, 
 G. A. Petersson, H. Nakatsuji, X. Li, M. Caricato, A. V. Marenich, 
 J. Bloino, B. G. Janesko, R. Gomperts, B. Mennucci, H. P. Hratchian, 
 J. V. Ortiz, A. F. Izmaylov, J. L. Sonnenberg, D. Williams-Young, 
 F. Ding, F. Lipparini, F. Egidi, J. Goings, B. Peng, A. Petrone, 
 T. Henderson, D. Ranasinghe, V. G. Zakrzewski, J. Gao, N. Rega, 
 G. Zheng, W. Liang, M. Hada, M. Ehara, K. Toyota, R. Fukuda, 
 J. Hasegawa, M. Ishida, T. Nakajima, Y. Honda, O. Kitao, H. Nakai, 
 T. Vreven, K. Throssell, J. A. Montgomery, Jr., J. E. Peralta, 
 F. Ogliaro, M. J. Bearpark, J. J. Heyd, E. N. Brothers, K. N. Kudin, 
 V. N. Staroverov, T. A. Keith, R. Kobayashi, J. Normand, 
 K. Raghavachari, A. P. Rendell, J. C. Burant, S. S. Iyengar, 
 J. Tomasi, M. Cossi, J. M. Millam, M. Klene, C. Adamo, R. Cammi, 
 J. W. Ochterski, R. L. Martin, K. Morokuma, O. Farkas, 
 J. B. Foresman, and D. J. Fox, Gaussian, Inc., Wallingford CT, 2019.
 
 ******************************************
 Gaussian 16:  ES64L-G16RevC.01  3-Jul-2019
                 2-Jul-2022 
 ******************************************
 %nproc=16
 Will use up to   16 processors via shared memory.
 %mem=50gb
 -----------------------------------------------------
 #m062X/gen 6D OPT Freq=noraman SCRF=(SMD,Solvent=h2o)
 -----------------------------------------------------
 1/18=20,19=15,26=3,38=1/1,3;
 2/9=110,12=2,17=6,18=5,40=1/2;
 3/5=7,8=2,11=2,25=1,30=1,70=32201,71=1,72=1,74=-55/1,2,3;
 4//1;
 5/5=2,38=5,53=1/2;
 6/7=2,8=2,9=2,10=2,28=1/1;
 7//1,2,3,16;
 1/18=20,19=15,26=3/3(2);
 2/9=110/2;
 99//99;
 2/9=110/2;
 3/5=7,6=1,8=2,11=2,25=1,30=1,70=32205,71=1,72=1,74=-55,82=7/1,2,3;
 4/5=5,16=3,69=1/1;
 5/5=2,38=5,53=1/2;
 7//1,2,3,16;
 1/18=20,19=15,26=3/3(-5);
 2/9=110/2;
 6/7=2,8=2,9=2,10=2,19=2,28=1/1;
 99/9=1/99;
 ----------------
 HA.39.smd.a2.smd
 ----------------
 Symbolic Z-matrix:
 Charge =  0 Multiplicity = 1
 S                    -2.30066   1.31977  -1.01826 
 O                    -2.17469   2.77903  -1.02246 
 O                    -3.57646   0.71389  -0.636 
 N                    -1.17589   0.74612   0.03782 
 H                    -0.23494   1.0833   -0.17374 
 H                    -1.1954   -0.27235   0.1091 
 C                    -1.8514    0.78246  -2.68385 
 N                    -0.52992   1.26452  -3.0377 
 C                    -0.29672   1.17589  -4.50731 
 C                     0.25923  -0.21127  -4.67781 
 C                     0.67331  -0.62825  -3.4213 
 O                     0.40656   0.32426  -2.45145 
 C                     0.46273  -1.03202  -5.77709 
 C                     1.09008  -2.26837  -5.57731 
 C                     1.50475  -2.66018  -4.30193 
 C                     1.30024  -1.83946  -3.18644 
 H                    -2.59988   1.23559  -3.3385 
 H                    -1.95586  -0.31023  -2.6959 
 H                    -1.22907   1.36813  -5.0393 
 H                     0.1479   -0.72217  -6.76939 
 H                     1.25584  -2.92902  -6.42262 
 H                     1.98894  -3.62277  -4.16691 
 H                     1.61173  -2.13355  -2.18954 
 H                     0.43802   1.93496  -4.79087 
 

 GradGradGradGradGradGradGradGradGradGradGradGradGradGradGradGradGradGrad
 Berny optimization.
 Initialization pass.
                           ----------------------------
                           !    Initial Parameters    !
                           ! (Angstroms and Degrees)  !
 --------------------------                            --------------------------
 ! Name  Definition              Value          Derivative Info.                !
 --------------------------------------------------------------------------------
 ! R1    R(1,2)                  1.4647         estimate D2E/DX2                !
 ! R2    R(1,3)                  1.4632         estimate D2E/DX2                !
 ! R3    R(1,4)                  1.6461         estimate D2E/DX2                !
 ! R4    R(1,7)                  1.8069         estimate D2E/DX2                !
 ! R5    R(4,5)                  1.0217         estimate D2E/DX2                !
 ! R6    R(4,6)                  1.0211         estimate D2E/DX2                !
 ! R7    R(7,8)                  1.4505         estimate D2E/DX2                !
 ! R8    R(7,17)                 1.0928         estimate D2E/DX2                !
 ! R9    R(7,18)                 1.0977         estimate D2E/DX2                !
 ! R10   R(8,9)                  1.4906         estimate D2E/DX2                !
 ! R11   R(8,12)                 1.4508         estimate D2E/DX2                !
 ! R12   R(9,10)                 1.5041         estimate D2E/DX2                !
 ! R13   R(9,19)                 1.0905         estimate D2E/DX2                !
 ! R14   R(9,24)                 1.0938         estimate D2E/DX2                !
 ! R15   R(10,11)                1.3871         estimate D2E/DX2                !
 ! R16   R(10,13)                1.3869         estimate D2E/DX2                !
 ! R17   R(11,12)                1.3853         estimate D2E/DX2                !
 ! R18   R(11,16)                1.3839         estimate D2E/DX2                !
 ! R19   R(13,14)                1.4007         estimate D2E/DX2                !
 ! R20   R(13,20)                1.0862         estimate D2E/DX2                !
 ! R21   R(14,15)                1.3972         estimate D2E/DX2                !
 ! R22   R(14,21)                1.0856         estimate D2E/DX2                !
 ! R23   R(15,16)                1.3999         estimate D2E/DX2                !
 ! R24   R(15,22)                1.0859         estimate D2E/DX2                !
 ! R25   R(16,23)                1.085          estimate D2E/DX2                !
 ! A1    A(2,1,3)              119.2284         estimate D2E/DX2                !
 ! A2    A(2,1,4)              106.8747         estimate D2E/DX2                !
 ! A3    A(2,1,7)              105.7976         estimate D2E/DX2                !
 ! A4    A(3,1,4)              106.4923         estimate D2E/DX2                !
 ! A5    A(3,1,7)              109.5415         estimate D2E/DX2                !
 ! A6    A(4,1,7)              108.535          estimate D2E/DX2                !
 ! A7    A(1,4,5)              112.4239         estimate D2E/DX2                !
 ! A8    A(1,4,6)              112.2915         estimate D2E/DX2                !
 ! A9    A(5,4,6)              111.1743         estimate D2E/DX2                !
 ! A10   A(1,7,8)              110.645          estimate D2E/DX2                !
 ! A11   A(1,7,17)             104.9884         estimate D2E/DX2                !
 ! A12   A(1,7,18)             106.407          estimate D2E/DX2                !
 ! A13   A(8,7,17)             109.8809         estimate D2E/DX2                !
 ! A14   A(8,7,18)             114.5093         estimate D2E/DX2                !
 ! A15   A(17,7,18)            109.9383         estimate D2E/DX2                !
 ! A16   A(7,8,9)              111.3016         estimate D2E/DX2                !
 ! A17   A(7,8,12)             105.9092         estimate D2E/DX2                !
 ! A18   A(9,8,12)             105.0029         estimate D2E/DX2                !
 ! A19   A(8,9,10)             102.9689         estimate D2E/DX2                !
 ! A20   A(8,9,19)             109.6768         estimate D2E/DX2                !
 ! A21   A(8,9,24)             108.6269         estimate D2E/DX2                !
 ! A22   A(10,9,19)            115.0422         estimate D2E/DX2                !
 ! A23   A(10,9,24)            111.2435         estimate D2E/DX2                !
 ! A24   A(19,9,24)            108.9955         estimate D2E/DX2                !
 ! A25   A(9,10,11)            106.552          estimate D2E/DX2                !
 ! A26   A(9,10,13)            133.6191         estimate D2E/DX2                !
 ! A27   A(11,10,13)           119.7544         estimate D2E/DX2                !
 ! A28   A(10,11,12)           111.7159         estimate D2E/DX2                !
 ! A29   A(10,11,16)           123.5077         estimate D2E/DX2                !
 ! A30   A(12,11,16)           124.7635         estimate D2E/DX2                !
 ! A31   A(8,12,11)            106.6795         estimate D2E/DX2                !
 ! A32   A(10,13,14)           118.3601         estimate D2E/DX2                !
 ! A33   A(10,13,20)           120.8481         estimate D2E/DX2                !
 ! A34   A(14,13,20)           120.7911         estimate D2E/DX2                !
 ! A35   A(13,14,15)           120.7066         estimate D2E/DX2                !
 ! A36   A(13,14,21)           119.6355         estimate D2E/DX2                !
 ! A37   A(15,14,21)           119.6579         estimate D2E/DX2                !
 ! A38   A(14,15,16)           121.3066         estimate D2E/DX2                !
 ! A39   A(14,15,22)           119.6308         estimate D2E/DX2                !
 ! A40   A(16,15,22)           119.0609         estimate D2E/DX2                !
 ! A41   A(11,16,15)           116.3627         estimate D2E/DX2                !
 ! A42   A(11,16,23)           121.5462         estimate D2E/DX2                !
 ! A43   A(15,16,23)           122.0909         estimate D2E/DX2                !
 ! D1    D(2,1,4,5)            -54.0491         estimate D2E/DX2                !
 ! D2    D(2,1,4,6)            179.6885         estimate D2E/DX2                !
 ! D3    D(3,1,4,5)            177.491          estimate D2E/DX2                !
 ! D4    D(3,1,4,6)             51.2286         estimate D2E/DX2                !
 ! D5    D(7,1,4,5)             59.639          estimate D2E/DX2                !
 ! D6    D(7,1,4,6)            -66.6235         estimate D2E/DX2                !
 ! D7    D(2,1,7,8)             55.7973         estimate D2E/DX2                !
 ! D8    D(2,1,7,17)           -62.6974         estimate D2E/DX2                !
 ! D9    D(2,1,7,18)          -179.2383         estimate D2E/DX2                !
 ! D10   D(3,1,7,8)           -174.4932         estimate D2E/DX2                !
 ! D11   D(3,1,7,17)            67.0122         estimate D2E/DX2                !
 ! D12   D(3,1,7,18)           -49.5287         estimate D2E/DX2                !
 ! D13   D(4,1,7,8)            -58.5985         estimate D2E/DX2                !
 ! D14   D(4,1,7,17)          -177.0931         estimate D2E/DX2                !
 ! D15   D(4,1,7,18)            66.3659         estimate D2E/DX2                !
 ! D16   D(1,7,8,9)           -163.8187         estimate D2E/DX2                !
 ! D17   D(1,7,8,12)            82.5997         estimate D2E/DX2                !
 ! D18   D(17,7,8,9)           -48.3426         estimate D2E/DX2                !
 ! D19   D(17,7,8,12)         -161.9242         estimate D2E/DX2                !
 ! D20   D(18,7,8,9)            75.9486         estimate D2E/DX2                !
 ! D21   D(18,7,8,12)          -37.633          estimate D2E/DX2                !
 ! D22   D(7,8,9,10)           -88.5085         estimate D2E/DX2                !
 ! D23   D(7,8,9,19)            34.4243         estimate D2E/DX2                !
 ! D24   D(7,8,9,24)           153.4576         estimate D2E/DX2                !
 ! D25   D(12,8,9,10)           25.6395         estimate D2E/DX2                !
 ! D26   D(12,8,9,19)          148.5723         estimate D2E/DX2                !
 ! D27   D(12,8,9,24)          -92.3944         estimate D2E/DX2                !
 ! D28   D(7,8,12,11)           92.4281         estimate D2E/DX2                !
 ! D29   D(9,8,12,11)          -25.4418         estimate D2E/DX2                !
 ! D30   D(8,9,10,11)          -17.184          estimate D2E/DX2                !
 ! D31   D(8,9,10,13)          166.0834         estimate D2E/DX2                !
 ! D32   D(19,9,10,11)        -136.4572         estimate D2E/DX2                !
 ! D33   D(19,9,10,13)          46.8102         estimate D2E/DX2                !
 ! D34   D(24,9,10,11)          98.9957         estimate D2E/DX2                !
 ! D35   D(24,9,10,13)         -77.7369         estimate D2E/DX2                !
 ! D36   D(9,10,11,12)           1.8592         estimate D2E/DX2                !
 ! D37   D(9,10,11,16)        -176.8896         estimate D2E/DX2                !
 ! D38   D(13,10,11,12)        179.135          estimate D2E/DX2                !
 ! D39   D(13,10,11,16)          0.3863         estimate D2E/DX2                !
 ! D40   D(9,10,13,14)         176.2613         estimate D2E/DX2                !
 ! D41   D(9,10,13,20)          -3.4497         estimate D2E/DX2                !
 ! D42   D(11,10,13,14)         -0.1306         estimate D2E/DX2                !
 ! D43   D(11,10,13,20)       -179.8416         estimate D2E/DX2                !
 ! D44   D(10,11,12,8)          14.9674         estimate D2E/DX2                !
 ! D45   D(16,11,12,8)        -166.3026         estimate D2E/DX2                !
 ! D46   D(10,11,16,15)         -0.2177         estimate D2E/DX2                !
 ! D47   D(10,11,16,23)        179.957          estimate D2E/DX2                !
 ! D48   D(12,11,16,15)       -178.8027         estimate D2E/DX2                !
 ! D49   D(12,11,16,23)          1.3721         estimate D2E/DX2                !
 ! D50   D(10,13,14,15)         -0.2687         estimate D2E/DX2                !
 ! D51   D(10,13,14,21)        179.7365         estimate D2E/DX2                !
 ! D52   D(20,13,14,15)        179.4425         estimate D2E/DX2                !
 ! D53   D(20,13,14,21)         -0.5523         estimate D2E/DX2                !
 ! D54   D(13,14,15,16)          0.4414         estimate D2E/DX2                !
 ! D55   D(13,14,15,22)        179.9681         estimate D2E/DX2                !
 ! D56   D(21,14,15,16)       -179.5638         estimate D2E/DX2                !
 ! D57   D(21,14,15,22)         -0.0371         estimate D2E/DX2                !
 ! D58   D(14,15,16,11)         -0.1955         estimate D2E/DX2                !
 ! D59   D(14,15,16,23)        179.6287         estimate D2E/DX2                !
 ! D60   D(22,15,16,11)       -179.7248         estimate D2E/DX2                !
 ! D61   D(22,15,16,23)          0.0994         estimate D2E/DX2                !
 --------------------------------------------------------------------------------
 Trust Radius=3.00D-01 FncErr=1.00D-07 GrdErr=1.00D-06 EigMax=2.50D+02 EigMin=1.00D-04
 Number of steps in this run=    139 maximum allowed number of steps=    144.
 GradGradGradGradGradGradGradGradGradGradGradGradGradGradGradGradGradGrad

                          Input orientation:                          
 ---------------------------------------------------------------------
 Center     Atomic      Atomic             Coordinates (Angstroms)
 Number     Number       Type             X           Y           Z
 ---------------------------------------------------------------------
      1         16           0       -2.300663    1.319767   -1.018256
      2          8           0       -2.174692    2.779026   -1.022458
      3          8           0       -3.576459    0.713886   -0.636002
      4          7           0       -1.175891    0.746117    0.037822
      5          1           0       -0.234936    1.083299   -0.173736
      6          1           0       -1.195397   -0.272350    0.109101
      7          6           0       -1.851398    0.782456   -2.683850
      8          7           0       -0.529917    1.264522   -3.037698
      9          6           0       -0.296719    1.175885   -4.507308
     10          6           0        0.259232   -0.211270   -4.677811
     11          6           0        0.673309   -0.628252   -3.421303
     12          8           0        0.406564    0.324255   -2.451450
     13          6           0        0.462730   -1.032024   -5.777094
     14          6           0        1.090078   -2.268372   -5.577313
     15          6           0        1.504750   -2.660176   -4.301932
     16          6           0        1.300237   -1.839460   -3.186438
     17          1           0       -2.599879    1.235590   -3.338501
     18          1           0       -1.955861   -0.310233   -2.695895
     19          1           0       -1.229068    1.368125   -5.039296
     20          1           0        0.147895   -0.722173   -6.769387
     21          1           0        1.255842   -2.929016   -6.422618
     22          1           0        1.988944   -3.622770   -4.166911
     23          1           0        1.611725   -2.133549   -2.189542
     24          1           0        0.438023    1.934955   -4.790869
 ---------------------------------------------------------------------
                    Distance matrix (angstroms):
                    1          2          3          4          5
     1  S    0.000000
     2  O    1.464692   0.000000
     3  O    1.463170   2.525688   0.000000
     4  N    1.646052   2.500903   2.493553   0.000000
     5  H    2.244183   2.712650   3.393513   1.021687   0.000000
     6  H    2.242183   3.398579   2.682778   1.021145   1.685309
     7  C    1.806861   2.617448   2.678473   2.804484   3.000688
     8  N    2.686399   3.010017   3.918260   3.185098   2.884811
     9  C    4.026162   4.270951   5.094816   4.649285   4.335001
    10  C    4.721174   5.312952   5.648421   5.021291   4.712409
    11  C    4.291145   5.047287   5.255451   4.156197   3.781667
    12  O    3.220895   3.838073   4.394558   2.979699   2.485086
    13  C    5.984463   6.639779   6.767132   6.297628   6.029838
    14  C    6.719886   7.541993   7.422061   6.763986   6.495229
    15  C    6.411212   7.340174   7.116321   6.133688   5.837989
    16  C    5.258156   6.171576   6.066833   4.817911   4.469413
    17  H    2.340973   2.815499   2.920511   3.696875   3.953718
    18  H    2.364373   3.520199   2.813950   3.032728   3.356308
    19  H    4.161660   4.361173   5.032621   5.115354   4.974244
    20  H    6.575748   7.118989   7.317888   7.088468   6.849007
    21  H    7.740027   8.573916   8.372980   7.820308   7.574273
    22  H    7.262467   8.258719   7.889716   6.839820   6.560349
    23  H    5.348278   6.311294   6.118711   4.585240   4.221580
    24  H    4.702283   4.662581   5.905082   5.228223   4.743006
                    6          7          8          9         10
     6  H    0.000000
     7  C    3.056719   0.000000
     8  N    3.564714   1.450485   0.000000
     9  C    4.921000   2.428335   1.490635   0.000000
    10  C    5.003419   3.068897   2.343222   1.504112   0.000000
    11  C    4.010297   2.984641   2.275412   2.318463   1.387136
    12  O    3.078740   2.315675   1.450788   2.333759   2.294597
    13  C    6.162287   4.267984   3.709954   2.657815   1.386893
    14  C    6.445371   5.131468   4.642776   3.864068   2.393967
    15  C    5.696465   5.072833   4.597979   4.242975   2.773038
    16  C    4.420928   4.130356   3.606424   3.658862   2.441083
    17  H    4.016517   1.092759   2.091904   2.583451   3.472992
    18  H    2.906500   1.097737   2.151743   2.870978   2.973957
    19  H    5.403544   2.505679   2.122720   1.090524   2.200045
    20  H    7.022846   4.790897   4.281576   2.986186   2.155947
    21  H    7.465239   6.116237   5.677357   4.788431   3.379900
    22  H    6.296794   6.029404   5.612968   5.326088   3.858919
    23  H    4.077714   4.554190   4.105227   4.468395   3.422846
    24  H    5.616935   3.318016   2.111870   1.093819   2.156625
                   11         12         13         14         15
    11  C    0.000000
    12  O    1.385293   0.000000
    13  C    2.399401   3.592013   0.000000
    14  C    2.740815   4.118243   1.400726   0.000000
    15  C    2.365484   3.679283   2.431622   1.397161   0.000000
    16  C    1.383917   2.453675   2.839871   2.438117   1.399903
    17  H    3.767562   3.264367   4.524200   5.559300   5.740485
    18  H    2.745886   2.458329   3.983008   4.627594   4.480783
    19  H    3.197258   3.234487   3.027745   4.346494   4.923888
    20  H    3.390361   4.450450   1.086174   2.167829   3.418369
    21  H    3.826323   5.203385   2.155065   1.085573   2.152101
    22  H    3.354693   4.585383   3.410863   2.152112   1.085938
    23  H    2.159578   2.749874   3.924803   3.430348   2.179672
    24  H    2.915665   2.840462   3.126694   4.325694   4.742594
                   16         17         18         19         20
    16  C    0.000000
    17  H    4.968899   0.000000
    18  H    3.630612   1.793675   0.000000
    19  H    4.485428   2.188468   2.972649   0.000000
    20  H    3.926034   4.811868   4.603132   3.042793   0.000000
    21  H    3.414962   6.459281   5.573287   5.153036   2.493582
    22  H    2.148450   6.734035   5.357077   6.002140   4.309966
    23  H    1.085041   5.514419   4.038384   5.334128   5.010964
    24  H    4.190921   3.439089   3.893644   1.778259   3.325513
                   21         22         23         24
    21  H    0.000000
    22  H    2.471224   0.000000
    23  H    4.321846   2.504009   0.000000
    24  H    5.195156   5.803705   4.969628   0.000000
 Stoichiometry    C8H10N2O3S
 Framework group  C1[X(C8H10N2O3S)]
 Deg. of freedom    66
 Full point group                 C1      NOp   1
 Largest Abelian subgroup         C1      NOp   1
 Largest concise Abelian subgroup C1      NOp   1
                         Standard orientation:                         
 ---------------------------------------------------------------------
 Center     Atomic      Atomic             Coordinates (Angstroms)
 Number     Number       Type             X           Y           Z
 ---------------------------------------------------------------------
      1         16           0       -2.637541    0.097980    0.249597
      2          8           0       -3.304040   -0.809921   -0.686788
      3          8           0       -3.291497    0.422985    1.517500
      4          7           0       -2.418161    1.524348   -0.542133
      5          1           0       -1.926667    1.405714   -1.429942
      6          1           0       -1.960031    2.225276    0.042291
      7          6           0       -1.017667   -0.633324    0.575094
      8          7           0       -0.294328   -0.846164   -0.664013
      9          6           0        0.848986   -1.782666   -0.469621
     10          6           0        1.973042   -0.865331   -0.072951
     11          6           0        1.586022    0.415319   -0.439416
     12          8           0        0.315890    0.428464   -0.992254
     13          6           0        3.226610   -1.072971    0.482859
     14          6           0        4.069830    0.032310    0.654234
     15          6           0        3.657943    1.310482    0.268638
     16          6           0        2.393143    1.529519   -0.289960
     17          1           0       -1.231545   -1.593856    1.050234
     18          1           0       -0.514212    0.032904    1.287624
     19          1           0        0.584246   -2.536210    0.272892
     20          1           0        3.548864   -2.068587    0.773847
     21          1           0        5.053885   -0.105908    1.091269
     22          1           0        4.325628    2.155161    0.409980
     23          1           0        2.058009    2.517416   -0.588389
     24          1           0        1.059635   -2.279124   -1.421250
 ---------------------------------------------------------------------
 Rotational constants (GHZ):           1.6159195           0.3418745           0.3177790
 General basis read from cards:  (6D, 7F)
 There are   290 symmetry adapted cartesian basis functions of A   symmetry.
 There are   290 symmetry adapted basis functions of A   symmetry.
   290 basis functions,   512 primitive gaussians,   290 cartesian basis functions
    56 alpha electrons       56 beta electrons
       nuclear repulsion energy      1052.8265768354 Hartrees.
 NAtoms=   24 NActive=   24 NUniq=   24 SFac= 1.00D+00 NAtFMM=   60 NAOKFM=F Big=F
 Integral buffers will be    131072 words long.
 Raffenetti 2 integral format.
 Two-electron integral symmetry is turned on.
 ------------------------------------------------------------------------------
 Polarizable Continuum Model (PCM)
 =================================
 Model                : PCM.
 Atomic radii         : SMD-Coulomb.
 Polarization charges : Total charges.
 Charge compensation  : None.
 Solution method      : On-the-fly selection.
 Cavity type          : VdW (van der Waals Surface) (Alpha=1.000).
 Cavity algorithm     : GePol (No added spheres)
                        Default sphere list used, NSphG=   24.
                        Lebedev-Laikov grids with approx.  5.0 points / Ang**2.
                        Smoothing algorithm: York/Karplus (Gamma=1.0000).
                        Polarization charges: spherical gaussians, with
                                              point-specific exponents (IZeta= 3).
                        Self-potential: point-specific (ISelfS= 7).
                        Self-field    : sphere-specific E.n sum rule (ISelfD= 2).
 1st derivatives      : Analytical E(r).r(x)/FMM algorithm (CHGder, D1EAlg=3).
                        Cavity 1st derivative terms included.
 Solvent              : Water, Eps=  78.355300 Eps(inf)=   1.777849
 ------------------------------------------------------------------------------
 ------------------------------------------------------------------------------
 Atomic radii for non-electrostatic terms: SMD-CDS.
 ------------------------------------------------------------------------------
 Nuclear repulsion after PCM non-electrostatic terms =     1052.8306393770 Hartrees.
 One-electron integrals computed using PRISM.
 NBasis=   290 RedAO= T EigKep=  2.13D-06  NBF=   290
 NBsUse=   290 1.00D-06 EigRej= -1.00D+00 NBFU=   290
 ExpMin= 4.05D-02 ExpMax= 2.19D+04 ExpMxC= 3.30D+03 IAcc=3 IRadAn=         5 AccDes= 0.00D+00
 Harris functional with IExCor= 1009 and IRadAn=       5 diagonalized for initial guess.
 HarFok:  IExCor= 1009 AccDes= 0.00D+00 IRadAn=         5 IDoV= 1 UseB2=F ITyADJ=14
 ICtDFT=  3500011 ScaDFX=  1.000000  1.000000  1.000000  1.000000
 FoFCou: FMM=F IPFlag=           0 FMFlag=      100000 FMFlg1=           0
         NFxFlg=           0 DoJE=T BraDBF=F KetDBF=T FulRan=T
         wScrn=  0.000000 ICntrl=       500 IOpCl=  0 I1Cent=   200000004 NGrid=           0
         NMat0=    1 NMatS0=      1 NMatT0=    0 NMatD0=    1 NMtDS0=    0 NMtDT0=    0
 Petite list used in FoFCou.
 Requested convergence on RMS density matrix=1.00D-08 within 128 cycles.
 Requested convergence on MAX density matrix=1.00D-06.
 Requested convergence on             energy=1.00D-06.
 No special actions if energy rises.
 Inv3:  Mode=1 IEnd=    10267500.
 Iteration    1 A*A^-1 deviation from unit magnitude is 6.00D-15 for   1847.
 Iteration    1 A*A^-1 deviation from orthogonality  is 1.98D-15 for    781    638.
 Iteration    1 A^-1*A deviation from unit magnitude is 5.77D-15 for   1847.
 Iteration    1 A^-1*A deviation from orthogonality  is 1.57D-15 for   1257    220.
 Error on total polarization charges =  0.05047
 SCF Done:  E(RM062X) =  -1043.85744960     A.U. after   15 cycles
            NFock= 15  Conv=0.63D-08     -V/T= 2.0066
 SMD-CDS (non-electrostatic) energy       (kcal/mol) =       2.55
 (included in total energy above)

 **********************************************************************

            Population analysis using the SCF Density.

 **********************************************************************

 Orbital symmetries:
       Occupied  (A) (A) (A) (A) (A) (A) (A) (A) (A) (A) (A) (A)
                 (A) (A) (A) (A) (A) (A) (A) (A) (A) (A) (A) (A)
                 (A) (A) (A) (A) (A) (A) (A) (A) (A) (A) (A) (A)
                 (A) (A) (A) (A) (A) (A) (A) (A) (A) (A) (A) (A)
                 (A) (A) (A) (A) (A) (A) (A) (A)
       Virtual   (A) (A) (A) (A) (A) (A) (A) (A) (A) (A) (A) (A)
                 (A) (A) (A) (A) (A) (A) (A) (A) (A) (A) (A) (A)
                 (A) (A) (A) (A) (A) (A) (A) (A) (A) (A) (A) (A)
                 (A) (A) (A) (A) (A) (A) (A) (A) (A) (A) (A) (A)
                 (A) (A) (A) (A) (A) (A) (A) (A) (A) (A) (A) (A)
                 (A) (A) (A) (A) (A) (A) (A) (A) (A) (A) (A) (A)
                 (A) (A) (A) (A) (A) (A) (A) (A) (A) (A) (A) (A)
                 (A) (A) (A) (A) (A) (A) (A) (A) (A) (A) (A) (A)
                 (A) (A) (A) (A) (A) (A) (A) (A) (A) (A) (A) (A)
                 (A) (A) (A) (A) (A) (A) (A) (A) (A) (A) (A) (A)
                 (A) (A) (A) (A) (A) (A) (A) (A) (A) (A) (A) (A)
                 (A) (A) (A) (A) (A) (A) (A) (A) (A) (A) (A) (A)
                 (A) (A) (A) (A) (A) (A) (A) (A) (A) (A) (A) (A)
                 (A) (A) (A) (A) (A) (A) (A) (A) (A) (A) (A) (A)
                 (A) (A) (A) (A) (A) (A) (A) (A) (A) (A) (A) (A)
                 (A) (A) (A) (A) (A) (A) (A) (A) (A) (A) (A) (A)
                 (A) (A) (A) (A) (A) (A) (A) (A) (A) (A) (A) (A)
                 (A) (A) (A) (A) (A) (A) (A) (A) (A) (A) (A) (A)
                 (A) (A) (A) (A) (A) (A) (A) (A) (A) (A) (A) (A)
                 (A) (A) (A) (A) (A) (A)
 The electronic state is 1-A.
 Alpha  occ. eigenvalues --  -90.17709 -19.71585 -19.66459 -19.65817 -14.84895
 Alpha  occ. eigenvalues --  -14.80109 -10.62110 -10.61714 -10.59382 -10.56728
 Alpha  occ. eigenvalues --  -10.56372 -10.56227 -10.56109 -10.55503  -8.48804
 Alpha  occ. eigenvalues --   -6.40996  -6.40985  -6.40830  -1.26058  -1.24550
 Alpha  occ. eigenvalues --   -1.14451  -1.03234  -1.00999  -0.97148  -0.89009
 Alpha  occ. eigenvalues --   -0.84891  -0.83722  -0.75265  -0.71992  -0.70068
 Alpha  occ. eigenvalues --   -0.68805  -0.63340  -0.61901  -0.60268  -0.59558
 Alpha  occ. eigenvalues --   -0.58142  -0.57618  -0.54551  -0.54021  -0.52003
 Alpha  occ. eigenvalues --   -0.50751  -0.50558  -0.48572  -0.47548  -0.45968
 Alpha  occ. eigenvalues --   -0.43808  -0.42875  -0.42604  -0.41946  -0.40661
 Alpha  occ. eigenvalues --   -0.39996  -0.39640  -0.37931  -0.34033  -0.31375
 Alpha  occ. eigenvalues --   -0.28658
 Alpha virt. eigenvalues --    0.00811   0.01129   0.02496   0.03041   0.03108
 Alpha virt. eigenvalues --    0.03758   0.04516   0.04853   0.05515   0.05819
 Alpha virt. eigenvalues --    0.06043   0.06509   0.06987   0.07756   0.08686
 Alpha virt. eigenvalues --    0.09030   0.09520   0.09836   0.10478   0.11373
 Alpha virt. eigenvalues --    0.11670   0.12322   0.12780   0.13544   0.13771
 Alpha virt. eigenvalues --    0.14469   0.15005   0.15223   0.15488   0.16034
 Alpha virt. eigenvalues --    0.16396   0.17374   0.18075   0.18227   0.18620
 Alpha virt. eigenvalues --    0.19537   0.19962   0.20380   0.20823   0.21131
 Alpha virt. eigenvalues --    0.21381   0.21838   0.22470   0.23167   0.23833
 Alpha virt. eigenvalues --    0.24387   0.24581   0.25087   0.25629   0.25954
 Alpha virt. eigenvalues --    0.26403   0.26794   0.26933   0.27288   0.28232
 Alpha virt. eigenvalues --    0.28616   0.29750   0.29829   0.30406   0.30983
 Alpha virt. eigenvalues --    0.31512   0.31784   0.32174   0.32473   0.33560
 Alpha virt. eigenvalues --    0.33731   0.35116   0.35706   0.36789   0.36906
 Alpha virt. eigenvalues --    0.37714   0.39489   0.40350   0.40385   0.41515
 Alpha virt. eigenvalues --    0.43206   0.43668   0.44509   0.46184   0.47079
 Alpha virt. eigenvalues --    0.48666   0.49731   0.56703   0.59835   0.63531
 Alpha virt. eigenvalues --    0.64096   0.66678   0.67580   0.67934   0.69933
 Alpha virt. eigenvalues --    0.72830   0.73863   0.74488   0.75396   0.77767
 Alpha virt. eigenvalues --    0.78509   0.79057   0.79805   0.81287   0.82391
 Alpha virt. eigenvalues --    0.84150   0.85044   0.85716   0.86991   0.88166
 Alpha virt. eigenvalues --    0.92127   0.93960   0.96118   0.97865   0.98793
 Alpha virt. eigenvalues --    0.99758   1.00428   1.00694   1.02108   1.03889
 Alpha virt. eigenvalues --    1.05084   1.05782   1.07552   1.07645   1.09218
 Alpha virt. eigenvalues --    1.11185   1.11529   1.12804   1.13498   1.14821
 Alpha virt. eigenvalues --    1.15417   1.17085   1.18933   1.20197   1.21268
 Alpha virt. eigenvalues --    1.22296   1.23343   1.24431   1.28023   1.28982
 Alpha virt. eigenvalues --    1.30692   1.31320   1.33242   1.34321   1.34897
 Alpha virt. eigenvalues --    1.35482   1.37369   1.38914   1.40050   1.41136
 Alpha virt. eigenvalues --    1.42497   1.43798   1.45887   1.46432   1.47477
 Alpha virt. eigenvalues --    1.48744   1.52906   1.53960   1.54326   1.57113
 Alpha virt. eigenvalues --    1.62221   1.64285   1.66979   1.72210   1.73104
 Alpha virt. eigenvalues --    1.76329   1.78177   1.82185   1.82717   1.84020
 Alpha virt. eigenvalues --    1.84737   1.85896   1.86668   1.87853   1.91119
 Alpha virt. eigenvalues --    1.92913   1.95365   1.96041   1.99507   2.00368
 Alpha virt. eigenvalues --    2.02232   2.03069   2.03744   2.05950   2.06657
 Alpha virt. eigenvalues --    2.08368   2.11871   2.12938   2.13636   2.15073
 Alpha virt. eigenvalues --    2.17949   2.18560   2.19070   2.22272   2.25501
 Alpha virt. eigenvalues --    2.26986   2.28705   2.30085   2.32159   2.33421
 Alpha virt. eigenvalues --    2.36463   2.40172   2.40840   2.46424   2.49890
 Alpha virt. eigenvalues --    2.53204   2.54389   2.56712   2.59353   2.65309
 Alpha virt. eigenvalues --    2.67707   2.68711   2.70405   2.75262   2.77589
 Alpha virt. eigenvalues --    2.81936   2.83535   2.86918   2.88124   2.96677
 Alpha virt. eigenvalues --    2.98137   3.05456   3.09753   3.22144   3.45224
 Alpha virt. eigenvalues --    3.89149   4.05797   4.13167   4.20777   4.22124
 Alpha virt. eigenvalues --    4.27836   4.30121   4.37354   4.43290   4.44107
 Alpha virt. eigenvalues --    4.49888   4.55929   4.70365   4.87491
          Condensed to atoms (all electrons):
               1          2          3          4          5          6
     1  S   14.026330   0.347989   0.287626  -0.193179   0.047589   0.026202
     2  O    0.347989   8.787946  -0.165037  -0.158268  -0.000724   0.008188
     3  O    0.287626  -0.165037   8.802797  -0.134692   0.009006  -0.004826
     4  N   -0.193179  -0.158268  -0.134692   8.332105   0.196622   0.216039
     5  H    0.047589  -0.000724   0.009006   0.196622   0.262555  -0.012744
     6  H    0.026202   0.008188  -0.004826   0.216039  -0.012744   0.247752
     7  C    0.019916  -0.181236  -0.139592  -0.188016  -0.021650   0.000033
     8  N    0.056301   0.041799  -0.000862   0.014642   0.003090  -0.001297
     9  C   -0.069688   0.000672  -0.021894   0.002817  -0.004207  -0.002038
    10  C    0.018543   0.023863   0.022392  -0.019956   0.024216  -0.010058
    11  C    0.021123  -0.021911   0.000395   0.021972  -0.000723   0.005181
    12  O   -0.028431  -0.003006   0.000715  -0.012846   0.005474  -0.002517
    13  C   -0.002414  -0.004095  -0.004099   0.013215   0.001723  -0.001664
    14  C   -0.003627   0.000486   0.000562   0.003929  -0.000084  -0.000078
    15  C   -0.005414  -0.000933  -0.001722   0.006804  -0.002047   0.000899
    16  C    0.011704  -0.007395  -0.002684   0.034507  -0.018060   0.004315
    17  H   -0.028753  -0.007871  -0.001284   0.014788  -0.000100  -0.000077
    18  H   -0.011328   0.010760   0.007923  -0.012874   0.000503   0.000173
    19  H    0.001633   0.000171   0.000073  -0.000109  -0.000000   0.000000
    20  H    0.000001   0.000000  -0.000000  -0.000000  -0.000000  -0.000000
    21  H   -0.000013   0.000000  -0.000000  -0.000000  -0.000000   0.000000
    22  H   -0.000027  -0.000000  -0.000000   0.000003  -0.000000  -0.000000
    23  H   -0.000003   0.000000  -0.000003   0.000036  -0.000001  -0.000009
    24  H   -0.000743  -0.000023   0.000002   0.000186   0.000000  -0.000000
               7          8          9         10         11         12
     1  S    0.019916   0.056301  -0.069688   0.018543   0.021123  -0.028431
     2  O   -0.181236   0.041799   0.000672   0.023863  -0.021911  -0.003006
     3  O   -0.139592  -0.000862  -0.021894   0.022392   0.000395   0.000715
     4  N   -0.188016   0.014642   0.002817  -0.019956   0.021972  -0.012846
     5  H   -0.021650   0.003090  -0.004207   0.024216  -0.000723   0.005474
     6  H    0.000033  -0.001297  -0.002038  -0.010058   0.005181  -0.002517
     7  C    6.756331   0.131196  -0.131853   0.123558  -0.212796  -0.082011
     8  N    0.131196   7.488885  -0.084624  -1.332378   1.389250  -0.108923
     9  C   -0.131853  -0.084624   7.411317   0.677681  -2.057829  -0.054310
    10  C    0.123558  -1.332378   0.677681  17.343622  -4.702203   0.668838
    11  C   -0.212796   1.389250  -2.057829  -4.702203  16.333867  -0.255141
    12  O   -0.082011  -0.108923  -0.054310   0.668838  -0.255141   8.488609
    13  C   -0.178324  -0.329563   0.410287  -4.101486  -0.898027   0.053842
    14  C    0.008608  -0.116056   0.130317   0.619266  -1.344172   0.030605
    15  C   -0.002167   0.068882  -0.083646  -1.376624   0.546160  -0.036459
    16  C   -0.002318   0.254819  -0.486611  -2.813571  -2.591248  -0.517153
    17  H    0.356832  -0.030359  -0.001214  -0.019271   0.020328   0.008847
    18  H    0.291274  -0.022453   0.034565   0.017131  -0.028959  -0.000757
    19  H   -0.004457  -0.059387   0.403508  -0.031990  -0.058214   0.011247
    20  H   -0.000516   0.001884  -0.016947   0.022444   0.081645  -0.000849
    21  H    0.000011  -0.000059  -0.000739   0.039190  -0.016730   0.000135
    22  H   -0.000137   0.000262  -0.000130  -0.016936   0.025322  -0.000573
    23  H    0.000203   0.000468   0.003163   0.038207  -0.038442  -0.001283
    24  H    0.009145  -0.040568   0.418859  -0.002925  -0.080948   0.005095
              13         14         15         16         17         18
     1  S   -0.002414  -0.003627  -0.005414   0.011704  -0.028753  -0.011328
     2  O   -0.004095   0.000486  -0.000933  -0.007395  -0.007871   0.010760
     3  O   -0.004099   0.000562  -0.001722  -0.002684  -0.001284   0.007923
     4  N    0.013215   0.003929   0.006804   0.034507   0.014788  -0.012874
     5  H    0.001723  -0.000084  -0.002047  -0.018060  -0.000100   0.000503
     6  H   -0.001664  -0.000078   0.000899   0.004315  -0.000077   0.000173
     7  C   -0.178324   0.008608  -0.002167  -0.002318   0.356832   0.291274
     8  N   -0.329563  -0.116056   0.068882   0.254819  -0.030359  -0.022453
     9  C    0.410287   0.130317  -0.083646  -0.486611  -0.001214   0.034565
    10  C   -4.101486   0.619266  -1.376624  -2.813571  -0.019271   0.017131
    11  C   -0.898027  -1.344172   0.546160  -2.591248   0.020328  -0.028959
    12  O    0.053842   0.030605  -0.036459  -0.517153   0.008847  -0.000757
    13  C   13.865919  -0.270976   0.972840  -2.608354  -0.012675  -0.028202
    14  C   -0.270976   5.893108   0.235861   0.603923   0.000521   0.009487
    15  C    0.972840   0.235861   5.826497  -0.067480   0.000190  -0.009611
    16  C   -2.608354   0.603923  -0.067480  13.694322   0.007399   0.023684
    17  H   -0.012675   0.000521   0.000190   0.007399   0.367758  -0.015452
    18  H   -0.028202   0.009487  -0.009611   0.023684  -0.015452   0.404798
    19  H    0.038086   0.007952  -0.001769   0.009328   0.002394   0.000939
    20  H    0.286872  -0.053180   0.007280  -0.024115  -0.000001  -0.000002
    21  H   -0.052089   0.355260  -0.028960   0.018815  -0.000000  -0.000000
    22  H    0.015795  -0.014828   0.341862  -0.036734   0.000000  -0.000001
    23  H   -0.018250   0.008999  -0.025231   0.338365  -0.000000  -0.000010
    24  H    0.016639  -0.001389   0.001426  -0.020030   0.000055  -0.000236
              19         20         21         22         23         24
     1  S    0.001633   0.000001  -0.000013  -0.000027  -0.000003  -0.000743
     2  O    0.000171   0.000000   0.000000  -0.000000   0.000000  -0.000023
     3  O    0.000073  -0.000000  -0.000000  -0.000000  -0.000003   0.000002
     4  N   -0.000109  -0.000000  -0.000000   0.000003   0.000036   0.000186
     5  H   -0.000000  -0.000000  -0.000000  -0.000000  -0.000001   0.000000
     6  H    0.000000  -0.000000   0.000000  -0.000000  -0.000009  -0.000000
     7  C   -0.004457  -0.000516   0.000011  -0.000137   0.000203   0.009145
     8  N   -0.059387   0.001884  -0.000059   0.000262   0.000468  -0.040568
     9  C    0.403508  -0.016947  -0.000739  -0.000130   0.003163   0.418859
    10  C   -0.031990   0.022444   0.039190  -0.016936   0.038207  -0.002925
    11  C   -0.058214   0.081645  -0.016730   0.025322  -0.038442  -0.080948
    12  O    0.011247  -0.000849   0.000135  -0.000573  -0.001283   0.005095
    13  C    0.038086   0.286872  -0.052089   0.015795  -0.018250   0.016639
    14  C    0.007952  -0.053180   0.355260  -0.014828   0.008999  -0.001389
    15  C   -0.001769   0.007280  -0.028960   0.341862  -0.025231   0.001426
    16  C    0.009328  -0.024115   0.018815  -0.036734   0.338365  -0.020030
    17  H    0.002394  -0.000001  -0.000000   0.000000  -0.000000   0.000055
    18  H    0.000939  -0.000002  -0.000000  -0.000001  -0.000010  -0.000236
    19  H    0.420736   0.000479   0.000000  -0.000000   0.000001  -0.024658
    20  H    0.000479   0.437079  -0.002514  -0.000109   0.000012   0.000240
    21  H    0.000000  -0.002514   0.444058  -0.002974  -0.000097   0.000001
    22  H   -0.000000  -0.000109  -0.002974   0.441121  -0.002628   0.000000
    23  H    0.000001   0.000012  -0.000097  -0.002628   0.428207   0.000002
    24  H   -0.024658   0.000240   0.000001   0.000000   0.000002   0.432756
 Mulliken charges:
               1
     1  S    1.478664
     2  O   -0.671377
     3  O   -0.654796
     4  N   -1.137727
     5  H    0.509564
     6  H    0.526527
     7  C   -0.552035
     8  N   -0.324949
     9  C   -0.477459
    10  C    0.788448
    11  C   -0.137900
    12  O   -0.169149
    13  C   -1.164997
    14  C   -0.104495
    15  C   -0.366636
    16  C    0.194574
    17  H    0.337945
    18  H    0.328644
    19  H    0.284036
    20  H    0.260298
    21  H    0.246705
    22  H    0.250713
    23  H    0.268291
    24  H    0.287111
 Sum of Mulliken charges =  -0.00000
 Mulliken charges with hydrogens summed into heavy atoms:
               1
     1  S    1.478664
     2  O   -0.671377
     3  O   -0.654796
     4  N   -0.101636
     7  C    0.114554
     8  N   -0.324949
     9  C    0.093688
    10  C    0.788448
    11  C   -0.137900
    12  O   -0.169149
    13  C   -0.904699
    14  C    0.142211
    15  C   -0.115923
    16  C    0.462864
 Electronic spatial extent (au):  <R**2>=           3441.3240
 Charge=             -0.0000 electrons
 Dipole moment (field-independent basis, Debye):
    X=              9.8715    Y=              0.4084    Z=              1.1937  Tot=              9.9518
 Quadrupole moment (field-independent basis, Debye-Ang):
   XX=           -116.6225   YY=            -73.8904   ZZ=            -95.9112
   XY=             -4.7770   XZ=              4.8501   YZ=             -5.7184
 Traceless Quadrupole moment (field-independent basis, Debye-Ang):
   XX=            -21.1478   YY=             21.5843   ZZ=             -0.4365
   XY=             -4.7770   XZ=              4.8501   YZ=             -5.7184
 Octapole moment (field-independent basis, Debye-Ang**2):
  XXX=            150.5331  YYY=              5.7120  ZZZ=            -12.3729  XYY=             12.2142
  XXY=              9.7990  XXZ=              6.6128  XZZ=              2.2241  YZZ=             -2.0781
  YYZ=              2.5409  XYZ=             10.1025
 Hexadecapole moment (field-independent basis, Debye-Ang**3):
 XXXX=          -3869.6882 YYYY=           -568.4590 ZZZZ=           -359.4196 XXXY=             11.2108
 XXXZ=            134.4979 YYYX=            -11.1607 YYYZ=            -12.5577 ZZZX=             16.1903
 ZZZY=             -9.7851 XXYY=           -672.1318 XXZZ=           -741.9422 YYZZ=           -163.0191
 XXYZ=            -37.2724 YYXZ=            -11.5557 ZZXY=            -10.1843
 N-N= 1.052830639377D+03 E-N=-4.554919644335D+03  KE= 1.036995879074D+03
 D1PCM: PCM CHGder 1st derivatives, ID1Alg=3 FixD1E=F DoIter=F DoCFld=F I1PDM=0.
 Calling FoFJK, ICntrl=      2127 FMM=F ISym2X=0 I1Cent= 0 IOpClX= 0 NMat=1 NMatS=1 NMatT=0.
 ***** Axes restored to original set *****
 -------------------------------------------------------------------
 Center     Atomic                   Forces (Hartrees/Bohr)
 Number     Number              X              Y              Z
 -------------------------------------------------------------------
      1       16           0.007491346    0.007884823    0.000571532
      2        8          -0.002041560    0.000708236    0.004131937
      3        8           0.000265225   -0.001991653   -0.004520993
      4        7          -0.001550977    0.001329907    0.002072608
      5        1          -0.000175022   -0.000453214   -0.000223074
      6        1           0.000650420   -0.000362150   -0.000657690
      7        6          -0.004372850   -0.007477351    0.000008230
      8        7          -0.000739698    0.000762711    0.000067369
      9        6          -0.000213581   -0.000115782   -0.000030577
     10        6           0.000014802    0.000140481    0.000265167
     11        6           0.000251650   -0.000622690   -0.000031785
     12        8           0.000284731   -0.000511296   -0.000518948
     13        6           0.000084684   -0.000049404    0.000005436
     14        6          -0.000020953   -0.000010086    0.000100910
     15        6           0.000021770   -0.000063205   -0.000066374
     16        6          -0.000135556    0.000179304    0.000075584
     17        1          -0.000489480    0.000575336    0.000523726
     18        1           0.000596058    0.000081845   -0.001688022
     19        1           0.000123221   -0.000013480   -0.000245125
     20        1          -0.000013874    0.000018016    0.000036448
     21        1           0.000002719    0.000022594    0.000007716
     22        1          -0.000022727   -0.000002685   -0.000000036
     23        1           0.000040955   -0.000028050    0.000004207
     24        1          -0.000051301   -0.000002205    0.000111753
 -------------------------------------------------------------------
 Cartesian Forces:  Max     0.007884823 RMS     0.001886342

 GradGradGradGradGradGradGradGradGradGradGradGradGradGradGradGradGradGrad
 Berny optimization.
 FormGI is forming the generalized inverse of G from B-inverse, IUseBI=4.
 Internal  Forces:  Max     0.008699671 RMS     0.001364117
 Search for a local minimum.
 Step number   1 out of a maximum of  139
 All quantities printed in internal units (Hartrees-Bohrs-Radians)
 Mixed Optimization -- RFO/linear search
 Second derivative matrix not updated -- first step.
 ITU=  0
     Eigenvalues ---    0.00280   0.00785   0.01024   0.01512   0.01733
     Eigenvalues ---    0.02010   0.02097   0.02110   0.02113   0.02170
     Eigenvalues ---    0.02187   0.02206   0.02216   0.04456   0.04505
     Eigenvalues ---    0.04934   0.05396   0.05816   0.07240   0.07901
     Eigenvalues ---    0.08490   0.08579   0.08842   0.09220   0.12564
     Eigenvalues ---    0.13642   0.15905   0.15999   0.16000   0.16000
     Eigenvalues ---    0.16000   0.16000   0.16000   0.18758   0.19086
     Eigenvalues ---    0.22000   0.22035   0.22621   0.24069   0.24631
     Eigenvalues ---    0.25000   0.25584   0.30981   0.31532   0.33934
     Eigenvalues ---    0.34375   0.34496   0.34752   0.35259   0.35286
     Eigenvalues ---    0.35329   0.35392   0.36045   0.38181   0.41047
     Eigenvalues ---    0.42355   0.43253   0.44070   0.44156   0.45108
     Eigenvalues ---    0.45783   0.46675   0.47113   0.47919   0.89667
     Eigenvalues ---    0.90291
 RFO step:  Lambda=-1.66153044D-03 EMin= 2.79547823D-03
 Linear search not attempted -- first point.
 Iteration  1 RMS(Cart)=  0.03050693 RMS(Int)=  0.00080702
 Iteration  2 RMS(Cart)=  0.00083039 RMS(Int)=  0.00013038
 Iteration  3 RMS(Cart)=  0.00000040 RMS(Int)=  0.00013038
 Variable       Old X    -DE/DX   Delta X   Delta X   Delta X     New X
                                 (Linear)    (Quad)   (Total)
    R1        2.76787   0.00052   0.00000   0.00057   0.00057   2.76844
    R2        2.76499  -0.00058   0.00000  -0.00064  -0.00064   2.76435
    R3        3.11059  -0.00019   0.00000  -0.00043  -0.00043   3.11016
    R4        3.41447   0.00221   0.00000   0.00858   0.00858   3.42305
    R5        1.93071  -0.00029   0.00000  -0.00065  -0.00065   1.93006
    R6        1.92968   0.00032   0.00000   0.00071   0.00071   1.93039
    R7        2.74102  -0.00030   0.00000  -0.00079  -0.00079   2.74023
    R8        2.06502   0.00027   0.00000   0.00077   0.00077   2.06578
    R9        2.07442  -0.00012   0.00000  -0.00036  -0.00036   2.07406
   R10        2.81689   0.00013   0.00000   0.00072   0.00072   2.81761
   R11        2.74159   0.00054   0.00000   0.00169   0.00169   2.74328
   R12        2.84236   0.00034   0.00000   0.00096   0.00096   2.84332
   R13        2.06079  -0.00000   0.00000  -0.00001  -0.00001   2.06078
   R14        2.06702  -0.00005   0.00000  -0.00015  -0.00015   2.06687
   R15        2.62131  -0.00009   0.00000  -0.00052  -0.00052   2.62078
   R16        2.62085  -0.00001   0.00000  -0.00005  -0.00005   2.62080
   R17        2.61782  -0.00016   0.00000  -0.00045  -0.00045   2.61738
   R18        2.61522  -0.00013   0.00000  -0.00029  -0.00029   2.61493
   R19        2.64699   0.00003   0.00000   0.00009   0.00009   2.64708
   R20        2.05257  -0.00003   0.00000  -0.00008  -0.00008   2.05249
   R21        2.64025  -0.00007   0.00000  -0.00010  -0.00010   2.64015
   R22        2.05144  -0.00002   0.00000  -0.00006  -0.00006   2.05137
   R23        2.64543  -0.00001   0.00000  -0.00000  -0.00000   2.64543
   R24        2.05213  -0.00001   0.00000  -0.00002  -0.00002   2.05211
   R25        2.05043   0.00003   0.00000   0.00008   0.00008   2.05051
    A1        2.08093   0.00014   0.00000  -0.00484  -0.00436   2.07657
    A2        1.86532  -0.00313   0.00000   0.00147   0.00052   1.86583
    A3        1.84652   0.00647   0.00000   0.04548   0.04528   1.89179
    A4        1.85864   0.00209   0.00000  -0.00048  -0.00049   1.85815
    A5        1.91186  -0.00870   0.00000  -0.05525  -0.05500   1.85686
    A6        1.89429   0.00366   0.00000   0.01706   0.01661   1.91091
    A7        1.96217  -0.00018   0.00000  -0.00383  -0.00386   1.95831
    A8        1.95986  -0.00016   0.00000  -0.00374  -0.00377   1.95608
    A9        1.94036  -0.00030   0.00000  -0.00642  -0.00647   1.93388
   A10        1.93112  -0.00022   0.00000  -0.00042  -0.00044   1.93068
   A11        1.83239  -0.00105   0.00000  -0.01009  -0.01008   1.82231
   A12        1.85715   0.00184   0.00000   0.01738   0.01740   1.87455
   A13        1.91778   0.00064   0.00000   0.00095   0.00093   1.91871
   A14        1.99856  -0.00111   0.00000  -0.00678  -0.00682   1.99174
   A15        1.91879  -0.00008   0.00000  -0.00099  -0.00096   1.91783
   A16        1.94258   0.00047   0.00000   0.00117   0.00116   1.94374
   A17        1.84846  -0.00031   0.00000  -0.00363  -0.00363   1.84483
   A18        1.83265  -0.00035   0.00000  -0.00281  -0.00281   1.82983
   A19        1.79715  -0.00004   0.00000   0.00065   0.00065   1.79780
   A20        1.91422   0.00023   0.00000   0.00278   0.00278   1.91700
   A21        1.89590  -0.00011   0.00000  -0.00189  -0.00189   1.89401
   A22        2.00786  -0.00009   0.00000  -0.00063  -0.00063   2.00724
   A23        1.94157   0.00005   0.00000  -0.00022  -0.00022   1.94135
   A24        1.90233  -0.00004   0.00000  -0.00066  -0.00066   1.90167
   A25        1.85968   0.00033   0.00000   0.00094   0.00094   1.86062
   A26        2.33209  -0.00008   0.00000   0.00003   0.00003   2.33212
   A27        2.09011  -0.00025   0.00000  -0.00094  -0.00094   2.08917
   A28        1.94981  -0.00037   0.00000  -0.00194  -0.00194   1.94787
   A29        2.15562   0.00028   0.00000   0.00121   0.00121   2.15682
   A30        2.17753   0.00008   0.00000   0.00071   0.00071   2.17824
   A31        1.86191   0.00044   0.00000   0.00208   0.00207   1.86398
   A32        2.06577   0.00007   0.00000   0.00021   0.00020   2.06598
   A33        2.10920  -0.00007   0.00000  -0.00034  -0.00034   2.10885
   A34        2.10820   0.00001   0.00000   0.00014   0.00014   2.10835
   A35        2.10673   0.00006   0.00000   0.00031   0.00031   2.10703
   A36        2.08803  -0.00004   0.00000  -0.00021  -0.00021   2.08782
   A37        2.08843  -0.00002   0.00000  -0.00009  -0.00009   2.08833
   A38        2.11720  -0.00009   0.00000  -0.00036  -0.00036   2.11684
   A39        2.08795   0.00004   0.00000   0.00017   0.00017   2.08812
   A40        2.07801   0.00005   0.00000   0.00019   0.00019   2.07820
   A41        2.03091  -0.00007   0.00000  -0.00041  -0.00041   2.03051
   A42        2.12138   0.00008   0.00000   0.00046   0.00046   2.12184
   A43        2.13089  -0.00001   0.00000  -0.00006  -0.00005   2.13083
    D1       -0.94333  -0.00292   0.00000  -0.02335  -0.02334  -0.96668
    D2        3.13616  -0.00224   0.00000  -0.00852  -0.00854   3.12762
    D3        3.09780  -0.00245   0.00000  -0.01809  -0.01807   3.07973
    D4        0.89411  -0.00176   0.00000  -0.00326  -0.00327   0.89084
    D5        1.04090   0.00476   0.00000   0.03821   0.03822   1.07912
    D6       -1.16280   0.00544   0.00000   0.05304   0.05303  -1.10977
    D7        0.97385   0.00105   0.00000   0.04512   0.04551   1.01935
    D8       -1.09428   0.00101   0.00000   0.05000   0.05038  -1.04390
    D9       -3.12830   0.00077   0.00000   0.04804   0.04846  -3.07984
   D10       -3.04548  -0.00003   0.00000   0.03413   0.03399  -3.01149
   D11        1.16958  -0.00008   0.00000   0.03901   0.03885   1.20844
   D12       -0.86444  -0.00032   0.00000   0.03705   0.03694  -0.82750
   D13       -1.02274  -0.00025   0.00000   0.01295   0.01268  -1.01005
   D14       -3.09086  -0.00029   0.00000   0.01783   0.01755  -3.07331
   D15        1.15830  -0.00053   0.00000   0.01587   0.01564   1.17394
   D16       -2.85918   0.00059   0.00000   0.00306   0.00305  -2.85612
   D17        1.44164   0.00095   0.00000   0.00781   0.00780   1.44943
   D18       -0.84374  -0.00043   0.00000  -0.00889  -0.00890  -0.85264
   D19       -2.82611  -0.00007   0.00000  -0.00415  -0.00415  -2.83026
   D20        1.32555  -0.00086   0.00000  -0.01453  -0.01451   1.31104
   D21       -0.65682  -0.00050   0.00000  -0.00978  -0.00976  -0.66658
   D22       -1.54476   0.00017   0.00000   0.00561   0.00561  -1.53915
   D23        0.60082   0.00016   0.00000   0.00666   0.00666   0.60748
   D24        2.67834   0.00018   0.00000   0.00636   0.00636   2.68470
   D25        0.44749  -0.00017   0.00000   0.00037   0.00036   0.44786
   D26        2.59308  -0.00018   0.00000   0.00141   0.00141   2.59449
   D27       -1.61259  -0.00016   0.00000   0.00111   0.00111  -1.61147
   D28        1.61317   0.00015   0.00000  -0.00511  -0.00511   1.60807
   D29       -0.44404  -0.00008   0.00000  -0.00348  -0.00349  -0.44753
   D30       -0.29992   0.00006   0.00000   0.00161   0.00161  -0.29831
   D31        2.89870   0.00007   0.00000   0.00104   0.00104   2.89974
   D32       -2.38163  -0.00015   0.00000  -0.00190  -0.00189  -2.38352
   D33        0.81699  -0.00014   0.00000  -0.00247  -0.00246   0.81453
   D34        1.72780  -0.00007   0.00000  -0.00033  -0.00033   1.72748
   D35       -1.35677  -0.00006   0.00000  -0.00090  -0.00090  -1.35766
   D36        0.03245  -0.00014   0.00000  -0.00426  -0.00426   0.02819
   D37       -3.08731  -0.00007   0.00000  -0.00291  -0.00291  -3.09022
   D38        3.12650  -0.00014   0.00000  -0.00376  -0.00376   3.12274
   D39        0.00674  -0.00007   0.00000  -0.00241  -0.00241   0.00433
   D40        3.07634   0.00007   0.00000   0.00284   0.00284   3.07918
   D41       -0.06021   0.00004   0.00000   0.00171   0.00171  -0.05850
   D42       -0.00228   0.00007   0.00000   0.00216   0.00216  -0.00012
   D43       -3.13883   0.00003   0.00000   0.00103   0.00103  -3.13780
   D44        0.26123   0.00015   0.00000   0.00520   0.00521   0.26644
   D45       -2.90253   0.00009   0.00000   0.00384   0.00384  -2.89868
   D46       -0.00380   0.00002   0.00000   0.00072   0.00072  -0.00308
   D47        3.14084   0.00000   0.00000   0.00032   0.00032   3.14117
   D48       -3.12070   0.00010   0.00000   0.00228   0.00228  -3.11842
   D49        0.02395   0.00008   0.00000   0.00188   0.00188   0.02583
   D50       -0.00469  -0.00002   0.00000  -0.00037  -0.00037  -0.00506
   D51        3.13699  -0.00002   0.00000  -0.00046  -0.00046   3.13654
   D52        3.13186   0.00002   0.00000   0.00075   0.00075   3.13262
   D53       -0.00964   0.00002   0.00000   0.00067   0.00067  -0.00897
   D54        0.00770  -0.00004   0.00000  -0.00132  -0.00132   0.00639
   D55        3.14104  -0.00001   0.00000  -0.00066  -0.00066   3.14038
   D56       -3.13398  -0.00004   0.00000  -0.00123  -0.00123  -3.13521
   D57       -0.00065  -0.00001   0.00000  -0.00057  -0.00057  -0.00122
   D58       -0.00341   0.00003   0.00000   0.00114   0.00114  -0.00228
   D59        3.13511   0.00005   0.00000   0.00153   0.00153   3.13665
   D60       -3.13679   0.00001   0.00000   0.00048   0.00048  -3.13631
   D61        0.00174   0.00003   0.00000   0.00088   0.00088   0.00261
         Item               Value     Threshold  Converged?
 Maximum Force            0.008700     0.000450     NO 
 RMS     Force            0.001364     0.000300     NO 
 Maximum Displacement     0.148249     0.001800     NO 
 RMS     Displacement     0.030443     0.001200     NO 
 Predicted change in Energy=-8.580369D-04
 GradGradGradGradGradGradGradGradGradGradGradGradGradGradGradGradGradGrad

                          Input orientation:                          
 ---------------------------------------------------------------------
 Center     Atomic      Atomic             Coordinates (Angstroms)
 Number     Number       Type             X           Y           Z
 ---------------------------------------------------------------------
      1         16           0       -2.296782    1.321177   -1.016095
      2          8           0       -2.253142    2.785024   -0.977872
      3          8           0       -3.549084    0.640632   -0.686746
      4          7           0       -1.175119    0.780697    0.060239
      5          1           0       -0.245623    1.159921   -0.127814
      6          1           0       -1.148140   -0.239400    0.106927
      7          6           0       -1.843908    0.779262   -2.684151
      8          7           0       -0.523378    1.263127   -3.037373
      9          6           0       -0.288099    1.176162   -4.507139
     10          6           0        0.262749   -0.213255   -4.680272
     11          6           0        0.671767   -0.636770   -3.424598
     12          8           0        0.410615    0.316838   -2.454645
     13          6           0        0.465481   -1.031787   -5.781319
     14          6           0        1.084162   -2.272818   -5.583233
     15          6           0        1.491803   -2.671693   -4.307837
     16          6           0        1.289892   -1.852512   -3.190742
     17          1           0       -2.594807    1.238281   -3.332584
     18          1           0       -1.943684   -0.313364   -2.712766
     19          1           0       -1.217114    1.373812   -5.042948
     20          1           0        0.155579   -0.716934   -6.773544
     21          1           0        1.248571   -2.931681   -6.430149
     22          1           0        1.968737   -3.638089   -4.174209
     23          1           0        1.597149   -2.151177   -2.193849
     24          1           0        0.450824    1.932786   -4.786030
 ---------------------------------------------------------------------
                    Distance matrix (angstroms):
                    1          2          3          4          5
     1  S    0.000000
     2  O    1.464996   0.000000
     3  O    1.462830   2.522427   0.000000
     4  N    1.645825   2.501427   2.492652   0.000000
     5  H    2.241049   2.719135   3.390416   1.021342   0.000000
     6  H    2.239633   3.397787   2.677481   1.021521   1.681588
     7  C    1.811403   2.664948   2.629918   2.824705   3.038795
     8  N    2.689590   3.090275   3.881732   3.201985   2.924608
     9  C    4.030288   4.348052   5.051357   4.669490   4.379561
    10  C    4.725661   5.387685   5.586362   5.052509   4.782146
    11  C    4.294965   5.123499   5.190681   4.190977   3.865034
    12  O    3.226162   3.920256   4.348508   3.009047   2.560387
    13  C    5.989482   6.710594   6.698387   6.332493   6.105028
    14  C    6.723565   7.611092   7.343755   6.802726   6.581308
    15  C    6.413419   7.408714   7.035220   6.173455   5.930640
    16  C    5.259812   6.241525   5.991782   4.855816   4.562246
    17  H    2.337052   2.837925   2.875462   3.706230   3.974337
    18  H    2.382245   3.564496   2.755389   3.078508   3.425778
    19  H    4.169412   4.426027   4.995210   5.137710   5.014787
    20  H    6.581504   7.187174   7.253731   7.121393   6.917317
    21  H    7.743921   8.641183   8.292501   7.860099   7.661152
    22  H    7.263790   8.324495   7.804882   6.880410   6.655643
    23  H    5.348556   6.377259   6.045599   4.621933   4.315979
    24  H    4.704871   4.747611   5.871375   5.239973   4.772979
                    6          7          8          9         10
     6  H    0.000000
     7  C    3.051537   0.000000
     8  N    3.540415   1.450066   0.000000
     9  C    4.902355   2.429270   1.491016   0.000000
    10  C    4.990848   3.067179   2.344529   1.504622   0.000000
    11  C    3.992698   2.980273   2.277702   2.319474   1.386859
    12  O    3.049716   2.312873   1.451681   2.332245   2.292657
    13  C    6.156549   4.266805   3.711295   2.658281   1.386867
    14  C    6.441729   5.127714   4.644189   3.864782   2.394129
    15  C    5.689946   5.066794   4.599765   4.244261   2.773661
    16  C    4.406898   4.123538   3.608140   3.660030   2.441492
    17  H    4.013305   1.093166   2.092507   2.589273   3.476902
    18  H    2.930704   1.097544   2.146616   2.859968   2.957947
    19  H    5.397075   2.512028   2.125053   1.090516   2.200071
    20  H    7.019159   4.791626   4.282592   2.986177   2.155682
    21  H    7.464982   6.112857   5.678657   4.788914   3.379905
    22  H    6.292387   6.022417   5.614708   5.327397   3.859531
    23  H    4.060182   4.546289   4.106780   4.469525   3.423224
    24  H    5.587137   3.318781   2.110761   1.093741   2.156861
                   11         12         13         14         15
    11  C    0.000000
    12  O    1.385055   0.000000
    13  C    2.398484   3.590064   0.000000
    14  C    2.739785   4.116800   1.400772   0.000000
    15  C    2.365053   3.678940   2.431826   1.397107   0.000000
    16  C    1.383761   2.453782   2.839777   2.437825   1.399902
    17  H    3.767597   3.263801   4.529335   5.561299   5.739285
    18  H    2.729813   2.450817   3.966891   4.609435   4.461898
    19  H    3.198339   3.235121   3.027082   4.345767   4.923894
    20  H    3.389442   4.448215   1.086131   2.167920   3.418521
    21  H    3.825265   5.201892   2.154950   1.085540   2.151967
    22  H    3.354394   4.585421   3.411069   2.152159   1.085930
    23  H    2.159746   2.750814   3.924749   3.430142   2.179674
    24  H    2.916322   2.836945   3.127221   4.327095   4.744843
                   16         17         18         19         20
    16  C    0.000000
    17  H    4.966286   0.000000
    18  H    3.612956   1.793247   0.000000
    19  H    4.486080   2.200398   2.967190   0.000000
    20  H    3.925897   4.819512   4.589084   3.041458   0.000000
    21  H    3.414684   6.461814   5.555629   5.151815   2.493523
    22  H    2.148562   6.731511   5.338225   6.001958   4.310131
    23  H    1.085083   5.509776   4.022975   5.335072   5.010867
    24  H    4.192548   3.445390   3.882947   1.777773   3.325418
                   21         22         23         24
    21  H    0.000000
    22  H    2.471217   0.000000
    23  H    4.321681   2.504158   0.000000
    24  H    5.196400   5.806293   4.971139   0.000000
 Stoichiometry    C8H10N2O3S
 Framework group  C1[X(C8H10N2O3S)]
 Deg. of freedom    66
 Full point group                 C1      NOp   1
 Largest Abelian subgroup         C1      NOp   1
 Largest concise Abelian subgroup C1      NOp   1
                         Standard orientation:                         
 ---------------------------------------------------------------------
 Center     Atomic      Atomic             Coordinates (Angstroms)
 Number     Number       Type             X           Y           Z
 ---------------------------------------------------------------------
      1         16           0       -2.638237    0.096304    0.245908
      2          8           0       -3.382023   -0.807945   -0.634620
      3          8           0       -3.203975    0.439465    1.550536
      4          7           0       -2.453293    1.513776   -0.569758
      5          1           0       -2.006739    1.380656   -1.478607
      6          1           0       -1.951597    2.211713   -0.017772
      7          6           0       -1.011284   -0.631277    0.569677
      8          7           0       -0.292205   -0.846767   -0.670960
      9          6           0        0.852496   -1.782860   -0.479862
     10          6           0        1.976847   -0.865927   -0.081171
     11          6           0        1.589342    0.416121   -0.441130
     12          8           0        0.320546    0.428368   -0.996453
     13          6           0        3.231293   -1.074731    0.472152
     14          6           0        4.072867    0.030873    0.649792
     15          6           0        3.659078    1.310828    0.272431
     16          6           0        2.394164    1.530944   -0.285481
     17          1           0       -1.232019   -1.591091    1.044066
     18          1           0       -0.493283    0.025804    1.279976
     19          1           0        0.591372   -2.540632    0.259612
     20          1           0        3.554914   -2.071511    0.757423
     21          1           0        5.057311   -0.108643    1.085457
     22          1           0        4.325351    2.155691    0.419167
     23          1           0        2.057783    2.519943   -0.578965
     24          1           0        1.061979   -2.274794   -1.434004
 ---------------------------------------------------------------------
 Rotational constants (GHZ):           1.6115439           0.3408799           0.3171968
 Basis read from rwf:  (6D, 7F)
 There are   290 symmetry adapted cartesian basis functions of A   symmetry.
 There are   290 symmetry adapted basis functions of A   symmetry.
   290 basis functions,   512 primitive gaussians,   290 cartesian basis functions
    56 alpha electrons       56 beta electrons
       nuclear repulsion energy      1051.8065935619 Hartrees.
 NAtoms=   24 NActive=   24 NUniq=   24 SFac= 1.00D+00 NAtFMM=   60 NAOKFM=F Big=F
 Integral buffers will be    131072 words long.
 Raffenetti 2 integral format.
 Two-electron integral symmetry is turned on.
 ------------------------------------------------------------------------------
 Polarizable Continuum Model (PCM)
 =================================
 Model                : PCM.
 Atomic radii         : SMD-Coulomb.
 Polarization charges : Total charges.
 Charge compensation  : None.
 Solution method      : On-the-fly selection.
 Cavity type          : VdW (van der Waals Surface) (Alpha=1.000).
 Cavity algorithm     : GePol (No added spheres)
                        Default sphere list used, NSphG=   24.
                        Lebedev-Laikov grids with approx.  5.0 points / Ang**2.
                        Smoothing algorithm: York/Karplus (Gamma=1.0000).
                        Polarization charges: spherical gaussians, with
                                              point-specific exponents (IZeta= 3).
                        Self-potential: point-specific (ISelfS= 7).
                        Self-field    : sphere-specific E.n sum rule (ISelfD= 2).
 1st derivatives      : Analytical E(r).r(x)/FMM algorithm (CHGder, D1EAlg=3).
                        Cavity 1st derivative terms included.
 Solvent              : Water, Eps=  78.355300 Eps(inf)=   1.777849
 ------------------------------------------------------------------------------
 ------------------------------------------------------------------------------
 Atomic radii for non-electrostatic terms: SMD-CDS.
 ------------------------------------------------------------------------------
 Nuclear repulsion after PCM non-electrostatic terms =     1051.8105514447 Hartrees.
 One-electron integrals computed using PRISM.
 NBasis=   290 RedAO= T EigKep=  2.14D-06  NBF=   290
 NBsUse=   290 1.00D-06 EigRej= -1.00D+00 NBFU=   290
 Initial guess from the checkpoint file:  "/jobfs/50001020.gadi-pbs/Gau-3067155.chk"
 B after Tr=     0.000000   -0.000000    0.000000
         Rot=    0.999997    0.001335   -0.002241    0.000261 Ang=   0.30 deg.
 ExpMin= 4.05D-02 ExpMax= 2.19D+04 ExpMxC= 3.30D+03 IAcc=3 IRadAn=         5 AccDes= 0.00D+00
 Harris functional with IExCor= 1009 and IRadAn=       5 diagonalized for initial guess.
 HarFok:  IExCor= 1009 AccDes= 0.00D+00 IRadAn=         5 IDoV= 1 UseB2=F ITyADJ=14
 ICtDFT=  3500011 ScaDFX=  1.000000  1.000000  1.000000  1.000000
 FoFCou: FMM=F IPFlag=           0 FMFlag=      100000 FMFlg1=           0
         NFxFlg=           0 DoJE=T BraDBF=F KetDBF=T FulRan=T
         wScrn=  0.000000 ICntrl=       500 IOpCl=  0 I1Cent=   200000004 NGrid=           0
         NMat0=    1 NMatS0=      1 NMatT0=    0 NMatD0=    1 NMtDS0=    0 NMtDT0=    0
 Petite list used in FoFCou.
 Requested convergence on RMS density matrix=1.00D-08 within 128 cycles.
 Requested convergence on MAX density matrix=1.00D-06.
 Requested convergence on             energy=1.00D-06.
 No special actions if energy rises.
 Inv3:  Mode=1 IEnd=    10300827.
 Iteration    1 A*A^-1 deviation from unit magnitude is 7.55D-15 for   1850.
 Iteration    1 A*A^-1 deviation from orthogonality  is 2.56D-15 for   1150    972.
 Iteration    1 A^-1*A deviation from unit magnitude is 6.88D-15 for   1850.
 Iteration    1 A^-1*A deviation from orthogonality  is 2.23D-15 for   1645   1523.
 Error on total polarization charges =  0.05053
 SCF Done:  E(RM062X) =  -1043.85829900     A.U. after   12 cycles
            NFock= 12  Conv=0.59D-08     -V/T= 2.0066
 SMD-CDS (non-electrostatic) energy       (kcal/mol) =       2.48
 (included in total energy above)
 D1PCM: PCM CHGder 1st derivatives, ID1Alg=3 FixD1E=F DoIter=F DoCFld=F I1PDM=0.
 Calling FoFJK, ICntrl=      2127 FMM=F ISym2X=0 I1Cent= 0 IOpClX= 0 NMat=1 NMatS=1 NMatT=0.
 ***** Axes restored to original set *****
 -------------------------------------------------------------------
 Center     Atomic                   Forces (Hartrees/Bohr)
 Number     Number              X              Y              Z
 -------------------------------------------------------------------
      1       16           0.001777707    0.001567248   -0.000609965
      2        8           0.000738231   -0.001949428    0.000139828
      3        8          -0.002505625   -0.001305881   -0.000428610
      4        7          -0.000208569    0.001560504    0.000431699
      5        1           0.000557827   -0.000107008    0.000207595
      6        1           0.000334492   -0.000442429   -0.000786810
      7        6          -0.000354419   -0.000843446    0.000387464
      8        7           0.000105023    0.000412438   -0.001405891
      9        6           0.000335122    0.000023722    0.000020639
     10        6          -0.000086650    0.000117020   -0.000104347
     11        6           0.000019620    0.000140439    0.000017416
     12        8           0.000094094   -0.000146522    0.000924620
     13        6          -0.000098855   -0.000054527   -0.000047550
     14        6          -0.000011228   -0.000002389    0.000017831
     15        6           0.000043442    0.000005220   -0.000068876
     16        6          -0.000069543    0.000053294    0.000083930
     17        1          -0.000250100    0.000520629    0.000278895
     18        1          -0.000348281    0.000526864    0.001012586
     19        1          -0.000055119   -0.000038786    0.000060850
     20        1          -0.000010412   -0.000019377   -0.000020088
     21        1          -0.000003379    0.000000967   -0.000012659
     22        1          -0.000011432    0.000001078   -0.000003751
     23        1           0.000004957    0.000012195   -0.000015262
     24        1           0.000003098   -0.000031823   -0.000079544
 -------------------------------------------------------------------
 Cartesian Forces:  Max     0.002505625 RMS     0.000629853

 GradGradGradGradGradGradGradGradGradGradGradGradGradGradGradGradGradGrad
 Berny optimization.
 Using GEDIIS/GDIIS optimizer.
 FormGI is forming the generalized inverse of G from B-inverse, IUseBI=4.
 Internal  Forces:  Max     0.002663906 RMS     0.000451207
 Search for a local minimum.
 Step number   2 out of a maximum of  139
 All quantities printed in internal units (Hartrees-Bohrs-Radians)
 Mixed Optimization -- En-DIIS/RFO-DIIS
 Update second derivatives using D2CorX and points    1    2
 DE= -8.49D-04 DEPred=-8.58D-04 R= 9.90D-01
 TightC=F SS=  1.41D+00  RLast= 1.54D-01 DXNew= 5.0454D-01 4.6205D-01
 Trust test= 9.90D-01 RLast= 1.54D-01 DXMaxT set to 4.62D-01
 ITU=  1  0
 Use linear search instead of GDIIS.
     Eigenvalues ---    0.00290   0.00786   0.01011   0.01513   0.01736
     Eigenvalues ---    0.01987   0.02097   0.02110   0.02113   0.02170
     Eigenvalues ---    0.02187   0.02206   0.02216   0.04460   0.04507
     Eigenvalues ---    0.04949   0.05407   0.05825   0.07244   0.08064
     Eigenvalues ---    0.08494   0.08570   0.09155   0.09370   0.13048
     Eigenvalues ---    0.13701   0.15465   0.15927   0.16000   0.16000
     Eigenvalues ---    0.16000   0.16000   0.16000   0.17067   0.18772
     Eigenvalues ---    0.22000   0.22169   0.22622   0.24074   0.24631
     Eigenvalues ---    0.24950   0.26278   0.30983   0.31534   0.33956
     Eigenvalues ---    0.34375   0.34494   0.34752   0.35259   0.35286
     Eigenvalues ---    0.35329   0.35392   0.36030   0.38243   0.41046
     Eigenvalues ---    0.42355   0.43253   0.44097   0.44160   0.45110
     Eigenvalues ---    0.45783   0.46671   0.47113   0.47918   0.89824
     Eigenvalues ---    0.91246
 RFO step:  Lambda=-1.91330165D-04 EMin= 2.89786077D-03
 Quartic linear search produced a step of  0.03099.
 Iteration  1 RMS(Cart)=  0.02846183 RMS(Int)=  0.00027103
 Iteration  2 RMS(Cart)=  0.00040528 RMS(Int)=  0.00000680
 Iteration  3 RMS(Cart)=  0.00000008 RMS(Int)=  0.00000680
 Variable       Old X    -DE/DX   Delta X   Delta X   Delta X     New X
                                 (Linear)    (Quad)   (Total)
    R1        2.76844  -0.00192   0.00002  -0.00216  -0.00214   2.76630
    R2        2.76435   0.00266  -0.00002   0.00298   0.00296   2.76731
    R3        3.11016   0.00000  -0.00001  -0.00003  -0.00005   3.11011
    R4        3.42305  -0.00136   0.00027  -0.00469  -0.00442   3.41863
    R5        1.93006   0.00041  -0.00002   0.00091   0.00089   1.93094
    R6        1.93039   0.00042   0.00002   0.00104   0.00106   1.93145
    R7        2.74023   0.00062  -0.00002   0.00159   0.00156   2.74179
    R8        2.06578   0.00023   0.00002   0.00076   0.00078   2.06657
    R9        2.07406  -0.00052  -0.00001  -0.00161  -0.00162   2.07244
   R10        2.81761  -0.00003   0.00002  -0.00019  -0.00016   2.81745
   R11        2.74328   0.00030   0.00005   0.00082   0.00087   2.74415
   R12        2.84332  -0.00008   0.00003  -0.00019  -0.00016   2.84316
   R13        2.06078   0.00000  -0.00000   0.00001   0.00001   2.06079
   R14        2.06687   0.00001  -0.00000   0.00000  -0.00000   2.06687
   R15        2.62078   0.00020  -0.00002   0.00055   0.00053   2.62132
   R16        2.62080   0.00007  -0.00000   0.00016   0.00015   2.62095
   R17        2.61738  -0.00006  -0.00001  -0.00007  -0.00008   2.61730
   R18        2.61493  -0.00007  -0.00001  -0.00016  -0.00017   2.61476
   R19        2.64708   0.00000   0.00000   0.00000   0.00000   2.64708
   R20        2.05249   0.00001  -0.00000   0.00002   0.00002   2.05251
   R21        2.64015  -0.00000  -0.00000  -0.00005  -0.00005   2.64010
   R22        2.05137   0.00001  -0.00000   0.00001   0.00001   2.05138
   R23        2.64543   0.00005  -0.00000   0.00009   0.00009   2.64552
   R24        2.05211  -0.00000  -0.00000  -0.00001  -0.00001   2.05210
   R25        2.05051  -0.00001   0.00000  -0.00002  -0.00002   2.05049
    A1        2.07657   0.00041  -0.00013   0.00307   0.00296   2.07954
    A2        1.86583  -0.00079   0.00002  -0.00506  -0.00508   1.86075
    A3        1.89179   0.00049   0.00140   0.00511   0.00651   1.89831
[...]
 -0.00000265,0.00017416,0.00002920,-0.00011466,0.00010305,-0.00009637,-
 0.00024011,0.00006248,0.00008848,0.00014117,-0.00004653,-0.00005339,0.
 00007658,0.00012417,-0.00091820,0.00132520,-0.00106516,0.00312413,-0.0
 0315451,0.00240078,0.00172404,-0.00123843,0.01549562,0.00116087,0.0784
 1041,0.10946627,-0.28204049,0.01738083,0.01350779,-0.03071680,-0.00221
 369,0.02244913,-0.05752975,-0.02253395,-0.02985011,0.05299313,-0.04747
 703,0.04839136,-0.19246170,-0.07211440,-0.21817833,0.58967061,-0.00022
 318,0.00018640,0.00078807,0.00005951,-0.00018124,-0.00017902,0.0002262
 5,0.00006135,-0.00025407,-0.00006759,0.00002102,-0.00019478,0.00003235
 ,0.00002830,0.00007555,0.00001185,-0.00000401,0.00004152,-0.00054844,-
 0.00068738,0.00093012,0.00147283,-0.00478124,-0.00350666,-0.00215747,0
 .00034353,-0.00634068,-0.00912848,0.02799689,0.02320780,-0.05638351,0.
 08369677,-0.14400112,0.01696826,-0.02991540,0.01341117,0.00980003,-0.0
 2365384,-0.00964434,-0.01181168,0.00276624,-0.05173600,0.02717985,-0.1
 3670131,-0.26170762,0.10967983,0.00265196,0.74401578,0.00565586,-0.004
 18221,-0.00075724,-0.00034016,0.00032310,0.00013894,-0.00066510,0.0001
 7867,0.00038637,0.00091590,0.00028547,0.00418807,-0.00028913,-0.000157
 58,-0.00015276,-0.00004171,0.00035925,-0.00045308,-0.18071325,0.084173
 11,-0.10470018,-0.01950513,0.01408702,-0.01625232,-0.00005508,0.001313
 79,-0.00134579,0.00022454,0.00008887,0.00036801,0.00004007,-0.00197938
 ,-0.00184640,-0.00743581,0.00005474,0.00100240,0.00001382,0.00006098,-
 0.00000170,0.00002894,0.00002026,0.00018928,0.00005535,-0.00000523,-0.
 00021295,-0.00011151,0.00037969,0.00032338,0.19847329,-0.00626043,0.00
 195031,-0.00752458,0.00043075,0.00020512,0.00045707,0.00007915,-0.0004
 0124,0.00093740,-0.00043715,0.00051949,-0.00349906,0.00024826,0.000095
 75,0.00031777,-0.00003365,-0.00015317,0.00004103,0.08947108,-0.1079515
 1,0.07777138,-0.00745391,0.00411085,-0.00715011,-0.00024600,0.00083018
 ,0.00037475,-0.00015165,-0.00026935,0.00005332,-0.00042964,0.00013802,
 -0.00006325,-0.00115375,0.00132766,0.00031227,0.00002251,0.00011885,0.
 00000782,0.00004441,-0.00003384,0.00008222,0.00002958,-0.00001191,-0.0
 0012903,-0.00010506,0.00014917,0.00012952,-0.09327116,0.10813867,-0.02
 040531,0.01340690,-0.02051505,0.00172237,-0.00032256,0.00267161,0.0017
 0600,-0.00139637,0.00201534,-0.00047294,-0.00070988,-0.00750155,0.0006
 0048,0.00025531,0.00033913,0.00011538,-0.00062480,0.00064127,-0.116234
 75,0.07692162,-0.14215536,0.00503639,-0.00478796,0.00593993,0.00204041
 ,-0.00039660,-0.00019674,0.00009846,0.00030339,-0.00010413,0.00007316,
 0.00069575,0.00102805,0.00520425,-0.00136127,0.00015504,0.00006209,-0.
 00007911,-0.00004168,-0.00006572,0.00001624,-0.00011468,0.00003123,-0.
 00002193,0.00015090,-0.00009869,-0.00027266,-0.00017594,0.11491006,-0.
 07993536,0.15751349,0.00061164,0.00442989,-0.00488416,0.00030492,0.002
 03489,0.00280130,-0.00069417,-0.00013219,0.00097899,0.00007849,-0.0004
 6732,0.00045070,-0.00008047,-0.00003350,-0.00004054,-0.00001027,0.0000
 3096,-0.00007842,-0.05097020,-0.01786582,0.00029877,-0.01467362,-0.034
 55725,0.00149403,0.00072864,-0.00061423,-0.00229957,-0.00056647,0.0000
 9692,0.00053366,0.00022099,0.00011892,0.00035737,0.00427150,-0.0010984
 4,0.00032153,0.00000844,0.00026618,-0.00002589,0.00003238,-0.00011361,
 0.00007750,-0.00005035,0.00001252,-0.00017503,-0.00004879,0.00027566,0
 .00020412,0.00361120,0.01940198,0.00321701,0.05692927,0.00031951,-0.00
 854476,-0.00043427,-0.00008124,0.00035691,-0.00103087,-0.00011150,0.00
 165192,0.00055514,-0.00006651,0.00055362,0.00000957,-0.00002227,-0.000
 01165,0.00002419,-0.00009818,0.00015797,-0.00038167,-0.02043620,-0.320
 02091,-0.01294574,-0.00739500,-0.01026267,0.00130703,0.00007905,0.0001
 2577,-0.00052760,0.00050248,0.00000906,-0.00007222,-0.00032547,0.00072
 550,-0.00017278,0.00202187,0.00284591,0.00107180,-0.00014853,0.0002394
 1,0.00011023,0.00006299,-0.00010085,0.00014743,0.00003800,-0.00002215,
 -0.00020165,-0.00034758,0.00011862,0.00016800,-0.00136743,-0.00897682,
 -0.00198711,0.02786160,0.34103665,-0.00055187,-0.02877296,-0.00153457,
 0.00164785,-0.00759062,-0.00718205,0.00007683,0.00283868,-0.00015686,0
 .00012614,0.00248698,0.00026136,0.00010931,0.00001112,0.00016828,-0.00
 037945,0.00015850,-0.00094279,-0.00185512,-0.01273642,-0.04772838,0.00
 310873,0.01501115,0.00225039,-0.00052732,0.00023340,0.00160859,0.00081
 886,-0.00018188,-0.00074094,0.00004033,0.00027384,0.00139023,-0.000901
 89,-0.00279450,-0.00104314,-0.00004024,-0.00002968,0.00004301,0.000004
 41,-0.00004096,-0.00005028,0.00009750,-0.00005416,0.00008339,-0.000158
 57,-0.00029491,-0.00031283,0.00268361,0.01773886,0.00362709,-0.0041234
 4,0.01397570,0.05073189,0.00031218,-0.00011743,0.00012048,0.00000641,-
 0.00004540,-0.00008082,0.00002611,0.00000889,-0.00009865,-0.00004912,0
 .00000967,0.00010729,0.00000389,0.00000884,-0.00002387,-0.00000038,0.0
 0000051,-0.00000147,-0.00027107,0.00017707,0.00184740,0.00657415,-0.00
 158916,0.00377313,-0.26454365,0.04038455,-0.12316784,-0.00541389,0.001
 02377,-0.00298540,-0.00086753,0.00186300,0.00082318,0.00103086,-0.0019
 2026,0.00345892,0.00090761,-0.00052618,-0.00037161,-0.00006991,0.00066
 031,-0.00042584,0.00000192,0.00014030,0.00058446,0.00035302,-0.0003101
 5,-0.00058004,-0.00028034,-0.00016950,0.00234229,0.00023672,-0.0002608
 4,-0.00021118,0.27905598,-0.00009901,-0.00001948,0.00017436,0.00001163
 ,-0.00005869,-0.00003638,0.00000622,-0.00000585,-0.00001060,-0.0000123
 4,0.00002154,-0.00003294,0.00000008,-0.00000072,-0.00000317,-0.0000005
 2,-0.00000440,-0.00000530,0.00000362,0.00095928,0.00064973,-0.00316368
 ,-0.00047185,-0.00235716,0.03840507,-0.05340259,0.02165065,0.02500863,
 -0.00391017,0.01603893,0.00175059,-0.00382116,-0.00067172,0.00165183,-
 0.00106132,0.00019784,-0.00119772,0.00178715,0.00049287,-0.00047872,-0
 .00065639,0.00054567,0.00008203,-0.00006199,-0.00026310,-0.00058243,-0
 .00035153,0.00137198,-0.00019146,0.00033659,0.00040423,0.00013261,-0.0
 0001682,-0.00014375,-0.04315100,0.05574091,-0.00000392,-0.00053286,-0.
 00005185,0.00007382,0.00016638,0.00001986,-0.00024390,-0.00000184,0.00
 017181,0.00016804,0.00001484,0.00030152,-0.00000796,0.00000828,0.00008
 163,-0.00000599,0.00001832,-0.00001284,-0.00276748,0.00137747,-0.00066
 630,-0.02584752,0.00761021,-0.01709028,-0.11069377,0.01942427,-0.11379
 052,0.00663696,0.00171912,0.00555247,0.00133720,-0.00421477,-0.0021526
 2,-0.00151837,0.00167863,-0.00628562,-0.00040736,0.00012666,0.00024434
 ,0.00003862,0.00013655,0.00025748,0.00017204,-0.00030447,-0.00023883,-
 0.00057904,0.00042356,0.00067236,0.00150596,0.00029018,-0.00314123,0.0
 0026749,0.00016142,-0.00011630,0.12484441,-0.02631936,0.13012280,0.000
 02084,-0.00001457,0.00000931,-0.00000470,-0.00000269,-0.00000331,-0.00
 000612,-0.00000027,-0.00000100,-0.00000902,0.00000824,0.00001855,-0.00
 000123,-0.00000255,-0.00000786,0.00000205,0.00000447,-0.00000453,0.000
 03697,0.00005267,-0.00004472,-0.00015109,0.00025623,-0.00025530,-0.003
 04493,-0.00183914,0.00063988,0.00571902,-0.00132096,0.00527679,0.00645
 047,0.00395491,-0.00022092,0.00010503,-0.00039103,0.00052407,-0.067984
 39,0.03016732,-0.08032594,0.00047731,0.00295733,-0.01282728,0.00485536
 ,0.00491676,-0.00042115,-0.00078293,-0.00033640,0.00030590,-0.00000068
 ,-0.00000657,0.00000784,0.00000991,-0.00001869,-0.00000757,-0.00032605
 ,0.00032970,-0.00018496,0.05846516,-0.00003491,0.00001343,0.00002473,0
 .00000247,-0.00001153,-0.00000589,0.00000816,0.00000030,-0.00000481,0.
 00001583,-0.00000296,-0.00002588,0.00000625,0.00000830,0.00001541,-0.0
 0000100,-0.00000352,0.00000468,0.00001946,0.00002145,0.00002908,-0.000
 27466,0.00041394,0.00001931,-0.00181925,0.00028439,0.00131943,-0.00582
 372,0.00987666,-0.01827544,0.00357124,-0.00069644,-0.00303200,-0.00023
 631,-0.00015125,-0.00148774,0.03050647,-0.07759895,0.07102911,0.007227
 66,-0.00160393,0.02571735,0.00475261,-0.00326165,-0.00052147,-0.000125
 16,-0.00093938,-0.00045973,0.00001645,-0.00000419,-0.00000450,0.000000
 44,-0.00000808,-0.00000332,0.00001562,0.00023118,0.00019511,-0.0355627
 0,0.07351544,-0.00010749,0.00007680,0.00015035,0.00002065,-0.00006134,
 -0.00004074,0.00007438,0.00001563,-0.00005706,0.00001808,-0.00001070,-
 0.00008891,0.00001657,0.00001830,0.00003644,-0.00000375,-0.00001476,0.
 00001647,-0.00010974,-0.00005960,0.00009757,-0.00016696,0.00010094,-0.
 00012321,0.00053703,0.00118038,0.00094114,-0.00723508,0.00729478,-0.01
 686748,-0.00001216,-0.00345710,-0.00032394,-0.00003246,-0.00015711,-0.
 00166294,-0.08050132,0.07212613,-0.30426628,-0.00018113,-0.00074217,0.
 00097934,-0.00092430,-0.00001957,0.00187612,0.00043225,-0.00051397,-0.
 00001598,0.00002857,0.00000397,-0.00001980,-0.00001112,0.00001670,-0.0
 0001445,0.00012878,-0.00050320,-0.00017204,0.08724372,-0.07579706,0.31
 936035,0.00001661,-0.00001207,-0.00004684,-0.00000459,0.00003063,0.000
 02016,-0.00003875,-0.00001157,0.00002702,0.00000156,0.00000249,0.00002
 969,-0.00000563,-0.00000431,-0.00000579,0.00000072,0.00000602,-0.00000
 299,0.00005317,0.00003146,-0.00012635,-0.00037203,-0.00003166,0.000259
 27,0.00057368,-0.00000793,0.00033823,0.00420195,0.00472710,-0.00175238
 ,-0.00073882,0.00029360,-0.00023364,-0.00011525,-0.00044163,0.00020518
 ,0.00108749,0.00837549,0.01101325,-0.04657540,0.03507491,0.03017473,0.
 00439834,-0.00634583,-0.00786915,0.00486513,0.00298260,-0.00253693,-0.
 00002526,-0.00001512,0.00000503,-0.00001537,0.00000340,0.00000805,-0.0
 0003609,-0.00003437,-0.00001978,-0.00303364,-0.00221150,0.00058306,0.0
 3879656,-0.00004625,0.00005512,0.00013551,0.00001566,-0.00004374,-0.00
 003666,0.00006323,0.00001239,-0.00005745,-0.00001040,0.00000099,-0.000
 04840,0.00000799,0.00000562,0.00001436,0.,-0.00000715,0.00000735,-0.00
 016535,-0.00004402,-0.00001070,0.00009463,-0.00062835,-0.00025735,0.00
 003917,0.00036609,-0.00092721,0.00457743,-0.00294600,0.00129265,0.0001
 2992,-0.00046484,0.00099379,-0.00011127,0.00001368,-0.00016644,0.00306
 841,-0.01215268,-0.02172076,0.03524111,-0.16771189,-0.14197656,-0.0012
 8907,0.00918103,0.00879649,0.00282710,0.00134759,0.00171617,-0.0000057
 7,-0.00000450,-0.00000481,0.00000253,0.00001129,-0.00000673,0.00002949
 ,-0.00002404,-0.00002339,-0.00208670,0.00048136,0.00048839,-0.04043700
 ,0.17253518,-0.00002286,0.00001267,0.00003140,0.00000390,-0.00001394,-
 0.00000878,0.00001358,0.00000346,-0.00000968,0.00000454,-0.00000222,-0
 .00001738,0.00000197,0.00000407,0.00000653,-0.00000199,-0.00000216,0.0
 0000425,-0.00000383,-0.00000872,0.00004802,0.00001224,0.00008714,0.000
 01068,-0.00014467,0.00013498,0.00038854,-0.00152887,0.00122092,0.00102
 626,-0.00043967,0.00108872,-0.00011195,0.00016882,-0.00018748,0.000018
 04,-0.00150863,0.00529002,0.00805302,0.02997390,-0.14194344,-0.2315833
 5,0.00502640,-0.01853138,-0.01673594,-0.00287103,0.00205131,-0.0034224
 6,0.00001226,0.00000472,-0.00000669,-0.00000201,0.00000277,-0.00000613
 ,0.00001189,-0.00003264,-0.00001110,0.00092527,-0.00016623,0.00041870,
 -0.03077131,0.15155897,0.24159394,0.00002512,-0.00001791,-0.00005686,-
 0.00000299,0.00001844,0.00001210,-0.00002197,-0.00000556,0.00001887,0.
 00000109,-0.00000117,0.00002021,-0.00000354,-0.00000250,-0.00000689,0.
 00000068,0.00000456,-0.00000339,-0.00002382,-0.00004996,-0.00001546,-0
 .00005302,-0.00020043,-0.00000661,-0.00029118,-0.00030308,0.00010917,-
 0.00067282,-0.00043616,0.00007761,0.00608034,0.00206235,-0.00042651,0.
 00013591,0.00041744,0.00005300,0.00538288,0.00211320,-0.00268734,0.000
 22383,0.00801823,-0.00033868,-0.09876944,0.12165160,-0.02061758,0.0022
 1524,0.00330842,-0.00104656,-0.00000881,-0.00000472,0.00002369,-0.0000
 0958,0.00001760,0.00004880,-0.00003685,0.00007060,-0.00004836,-0.00019
 874,0.00038044,0.00002564,-0.00328294,-0.00197137,0.00083955,0.0926255
 5,-0.00006829,0.00004483,0.00013195,0.00001577,-0.00004473,-0.00003669
 ,0.00005278,0.00001225,-0.00004587,0.00000432,-0.00000343,-0.00006023,
 0.00000955,0.00001082,0.00002347,-0.00000260,-0.00000903,0.00001143,-0
 .00012033,-0.00007507,0.00008959,-0.00004344,-0.00028302,-0.00022399,-
 0.00009057,-0.00003948,-0.00000425,-0.00056559,0.00018553,-0.00023167,
 0.00219762,0.00121063,-0.00317536,0.00074513,-0.00082894,0.00021747,0.
 00231896,0.00219821,0.00090842,0.00281762,-0.00246626,-0.00103104,0.12
 169741,-0.28575824,0.03413576,0.00787493,-0.01148463,0.00397577,0.0000
 2658,0.00000488,-0.00000999,-0.00000679,0.00002146,-0.00000397,-0.0000
 0251,-0.00000471,-0.00000962,0.00009333,-0.00022386,-0.00009489,-0.001
 84735,-0.00022711,0.00041005,-0.13315000,0.29778550,-0.00004326,0.0000
 2845,0.00010403,0.00000936,-0.00003019,-0.00002556,0.00003504,0.000008
 71,-0.00003350,0.00000114,0.00000022,-0.00004075,0.00000694,0.00000706
 ,0.00001577,-0.00000056,-0.00000807,0.00000751,-0.00006160,-0.00002593
 ,0.00006379,0.00006671,-0.00029762,-0.00010123,0.00012919,0.00006152,0
 .00004014,0.00018991,-0.00038771,-0.00113136,-0.00062553,-0.00298643,-
 0.00344722,0.00085799,-0.00113184,0.00060520,-0.00241411,0.00053484,-0
 .00479433,-0.01277678,0.02610245,0.00088609,-0.02064299,0.03425240,-0.
 06341105,0.01103904,-0.02289557,0.00674834,0.00002502,0.00000545,-0.00
 002123,0.00000832,0.00000259,-0.00003627,0.00001024,-0.00003760,0.0000
 1910,-0.00061807,0.00130413,-0.00006935,0.00110121,-0.00016053,0.00114
 921,0.02331039,-0.03552464,0.06238846,0.00001993,-0.00000436,-0.000021
 60,-0.00000496,0.00000084,0.00000373,-0.00002008,-0.00001236,0.0000135
 8,-0.00001323,0.00000938,0.00004016,-0.00000873,0.00000159,-0.00000592
 ,-0.00000449,0.00001043,0.00000550,0.00007480,0.00018381,-0.00004345,-
 0.00018395,-0.00017420,0.00045763,-0.00034623,-0.00029206,-0.00083110,
 0.00433138,0.00471818,-0.00055330,0.00094305,0.00254550,-0.01321440,-0
 .00249029,-0.00224481,0.00039274,-0.00078485,0.00015711,0.00055392,0.0
 0587981,0.00304540,0.00015347,0.00487192,-0.00195533,0.00518505,-0.065
 33931,0.03160029,-0.08173171,-0.00001441,-0.00000238,-0.00000549,0.000
 02514,-0.00004538,-0.00002410,-0.00005457,0.00020437,0.00010818,-0.000
 87509,-0.00048180,0.00009560,0.00027322,0.00000062,0.00026833,-0.00333
 025,-0.00196803,0.00039842,0.05702139,0.00000751,0.00001510,0.00007242
 ,0.00000060,-0.00002288,-0.00002339,0.00002197,0.00000469,-0.00002708,
 -0.00003115,0.00001062,-0.00001669,0.00000911,-0.00000471,0.00000391,0
 .00000947,0.00000058,-0.00000202,-0.00005802,0.00005647,-0.00002317,0.
 00003977,-0.00008468,0.00029363,0.00034398,-0.00016214,0.00128060,0.00
 425429,-0.00293001,-0.00085031,0.00781262,-0.00273299,0.02510250,-0.00
 259542,0.00198831,0.00050333,0.00000826,-0.00107193,-0.00060383,0.0032
 0552,-0.00085423,-0.00342885,-0.00646376,0.01003420,-0.01791032,0.0312
 0177,-0.07491125,0.07106853,-0.00001902,0.00000022,-0.00000400,0.00000
 343,-0.00000148,-0.00000148,0.00007311,-0.00030597,-0.00008079,-0.0004
 9402,-0.00003464,0.00017835,-0.00025767,0.00036635,-0.00093876,-0.0018
 5583,0.00004914,0.00116444,-0.03530682,0.07076587,0.00003410,-0.000015
 88,-0.00007488,-0.00000715,0.00002467,0.00002078,-0.00002980,-0.000006
 28,0.00002872,-0.00000241,-0.00000320,0.00002561,-0.00000580,-0.000000
 99,-0.00001211,-0.00000743,0.00001703,0.00000236,0.00004040,0.00000057
 ,-0.00003079,-0.00012789,0.00037077,-0.00023746,0.00009505,-0.00016688
 ,0.00007638,-0.00077448,-0.00048685,0.00133843,-0.00053049,-0.00031329
 ,0.00028683,0.00031992,0.00061382,0.00024873,0.00028942,-0.00019146,0.
 00021031,0.00034353,-0.00396660,-0.00102706,-0.00706916,0.00801172,-0.
 01512681,-0.08166913,0.07063964,-0.30826184,-0.00000790,-0.00000662,0.
 00001607,-0.00000679,0.00000786,0.00001212,0.00000436,-0.00001224,0.00
 003479,0.00011227,0.00017604,-0.00007482,-0.00037332,0.00042572,-0.000
 81197,0.00071337,0.00053554,0.00106449,0.08870534,-0.07572666,0.322269
 27,0.00012184,-0.00052167,-0.00062755,-0.00008855,0.00024268,0.0001942
 5,-0.00035825,-0.00004205,0.00031435,0.00007591,0.00000246,0.00031661,
 -0.00003572,-0.00003554,-0.00001899,-0.00000341,0.00003935,-0.00003329
 ,0.00119092,0.00023540,0.00155803,-0.00279578,-0.00001227,0.00331082,-
 0.17853512,-0.12707743,0.04489210,0.01136488,0.00995025,-0.00412585,-0
 .00041934,0.00158080,0.00043390,-0.00015889,-0.00181457,0.00084226,0.0
 0016854,-0.00009892,-0.00006963,-0.00057444,-0.00030631,-0.00016108,-0
 .00018613,0.00042612,0.00014806,-0.00027054,-0.00062754,-0.00004857,0.
 00046742,0.00001297,0.00008674,0.00005007,-0.00018168,0.00001033,-0.01
 655939,-0.01874573,0.00717566,0.00027647,0.00004789,0.00008117,-0.0000
 2467,0.00002589,0.00003221,0.00001531,0.00001151,-0.00000603,0.0000297
 8,0.00009031,-0.00004600,0.18624908,0.00013365,0.00023388,0.00015120,-
 0.00005688,-0.00009682,-0.00000847,0.00020895,-0.00000648,-0.00020879,
 -0.00006962,0.00000356,-0.00004248,-0.00000556,-0.00001210,-0.00000873
 ,0.00000344,-0.00000765,0.00000088,0.00095124,0.00119889,-0.00162501,0
 .00508336,0.00606092,-0.00179560,-0.13259388,-0.18044077,0.05134862,-0
 .01601406,-0.02478751,0.00555301,0.00056467,-0.00238919,-0.00283748,-0
 .00047791,0.00097248,0.00115667,-0.00000518,0.00110753,0.00176713,0.00
 173729,-0.00058656,0.00047994,-0.00001206,-0.00055660,-0.00080681,0.00
 061388,0.00079159,0.00020171,-0.00018875,-0.00011922,-0.00008453,0.000
 22060,0.00011209,-0.00007291,0.00369729,0.00510099,-0.00186389,-0.0006
 6465,-0.00030606,-0.00006891,0.00013031,-0.00012239,-0.00004283,-0.000
 06419,-0.00007472,0.00001386,0.00001000,-0.00017465,0.00007354,0.13679
 806,0.19409880,0.00036063,0.00129680,0.00201848,0.00000330,-0.00058558
 ,-0.00037404,0.00090480,0.00004723,-0.00105596,-0.00026105,0.00000879,
 -0.00045306,0.00005282,0.00004795,0.00002715,0.00000553,-0.00007368,0.
 00006118,0.00033823,0.00162690,-0.00530673,0.02930122,0.01668717,-0.01
 774211,0.03906221,0.04378761,-0.06365783,-0.00467367,-0.00180307,0.004
 64692,-0.00041988,-0.00041745,-0.00187616,-0.00217630,0.00225657,0.000
 84917,0.00087934,-0.00073689,-0.00034771,-0.00015561,0.00086488,-0.000
 24158,0.00013921,-0.00022953,0.00074058,0.00052042,-0.00027391,-0.0001
 3733,-0.00003164,-0.00021973,-0.00010384,0.00063618,0.00019348,-0.0003
 1135,-0.01011011,-0.01109709,0.00625137,-0.00014096,-0.00005031,-0.000
 07948,-0.00002642,-0.00003242,-0.00002315,0.00000183,0.00001276,0.0000
 1972,0.00004942,-0.00003035,0.00002285,-0.05425949,-0.05128013,0.07707
 291\\-0.00004588,-0.00004563,-0.00000912,0.00000925,0.00001914,0.00001
 446,0.00002556,0.00002124,-0.00002139,-0.00001194,-0.00000137,0.000003
 74,-0.00001146,-0.00001754,0.00000791,-0.00002473,-0.00001414,-0.00000
 914,-0.00000769,-0.00001062,0.00000364,0.00001260,0.00001647,0.0000166
 3,0.00001766,0.00000083,-0.00000463,0.00001192,0.00000534,0.00000692,0
 .00000030,-0.00000489,0.00000777,-0.00000453,-0.00001405,0.00000143,0.
 00000805,0.00001195,-0.00000103,0.00000310,0.00000298,-0.00000193,-0.0
 0000722,-0.00000467,-0.00000578,-0.00001075,-0.00000807,0.00000058,0.0
 0000624,0.00001427,-0.00000199,-0.00000173,0.00000785,-0.00001948,0.00
 001928,0.00001448,0.00000400,0.00001828,0.00001754,-0.00000009,0.00000
 347,0.00000843,-0.00000587,-0.00001357,-0.00000780,-0.00000499,-0.0000
 1669,-0.00001721,0.00000051,0.00002049,0.00000546,0.00001783\\\@
 The archive entry for this job was punched.


 FROM WHENCE IT HAPPENS, THAT THEY WHICH TRUST TO BOOKS, DO AS THEY THAT CAST UP MANY LITTLE SUMMS INTO GREATER,
 WITHOUT CONSIDERING WETHER THOSE LITTLE SUMMES WERE RIGHTLY CAST UP OR NOT...
 AND AT LAST FINDING THE ERROUR VISIBLE, AND NOT MISTRUSTING THEIR FIRST GROUNDS,
 KNOW NOT WHICH WAY TO CLEERE THEMSELVES...
 BUT SPEND TIME IN FLUTTERING OVER THEIR BOOKES....
 AS BIRDS THAT ENTERING BY THE CHIMNEY, AND FINDING THEMSELVES INCLOSED IN A CHAMBER,
 FLUTTER AT THE FALSE LIGHT OF A GLASSE WINDOW,
 FOR WANT OF WIT TO CONSIDER WHICH WAY THEY CAME IN....
           LEVIATHAN
 Job cpu time:       0 days  1 hours 34 minutes 21.3 seconds.
 Elapsed time:       0 days  0 hours  6 minutes  0.1 seconds.
 File lengths (MBytes):  RWF=    293 Int=      0 D2E=      0 Chk=     15 Scr=      1
 Normal termination of Gaussian 16 at Sat Jul  2 01:50:41 2022.
