 Entering Gaussian System, Link 0=g16
 AtFile(1): /home/561/yj5695/Basis/6-31pGd.gbs
 Initial command:
 /apps/gaussian/g16c01/g16/l1.exe "/jobfs/48967307.gadi-pbs/Gau-3399496.inp" -scrdir="/jobfs/48967307.gadi-pbs/"
 Entering Link 1 = /apps/gaussian/g16c01/g16/l1.exe PID=   3399509.
  
 Copyright (c) 1988-2019, Gaussian, Inc.  All Rights Reserved.
  
 This is part of the Gaussian(R) 16 program.  It is based on
 the Gaussian(R) 09 system (copyright 2009, Gaussian, Inc.),
 the Gaussian(R) 03 system (copyright 2003, Gaussian, Inc.),
 the Gaussian(R) 98 system (copyright 1998, Gaussian, Inc.),
 the Gaussian(R) 94 system (copyright 1995, Gaussian, Inc.),
 the Gaussian 92(TM) system (copyright 1992, Gaussian, Inc.),
 the Gaussian 90(TM) system (copyright 1990, Gaussian, Inc.),
 the Gaussian 88(TM) system (copyright 1988, Gaussian, Inc.),
 the Gaussian 86(TM) system (copyright 1986, Carnegie Mellon
 University), and the Gaussian 82(TM) system (copyright 1983,
 Carnegie Mellon University). Gaussian is a federally registered
 trademark of Gaussian, Inc.
  
 This software contains proprietary and confidential information,
 including trade secrets, belonging to Gaussian, Inc.
  
 This software is provided under written license and may be
 used, copied, transmitted, or stored only in accord with that
 written license.
  
 The following legend is applicable only to US Government
 contracts under FAR:
  
                    RESTRICTED RIGHTS LEGEND
  
 Use, reproduction and disclosure by the US Government is
 subject to restrictions as set forth in subparagraphs (a)
 and (c) of the Commercial Computer Software - Restricted
 Rights clause in FAR 52.227-19.
  
 Gaussian, Inc.
 340 Quinnipiac St., Bldg. 40, Wallingford CT 06492
  
  
 ---------------------------------------------------------------
 Warning -- This program may not be used in any manner that
 competes with the business of Gaussian, Inc. or will provide
 assistance to any competitor of Gaussian, Inc.  The licensee
 of this program is prohibited from giving any competitor of
 Gaussian, Inc. access to this program.  By using this program,
 the user acknowledges that Gaussian, Inc. is engaged in the
 business of creating and licensing software in the field of
 computational chemistry and represents and warrants to the
 licensee that it is not a competitor of Gaussian, Inc. and that
 it will not use this program in any manner prohibited above.
 ---------------------------------------------------------------
  

 Cite this work as:
 Gaussian 16, Revision C.01,
 M. J. Frisch, G. W. Trucks, H. B. Schlegel, G. E. Scuseria, 
 M. A. Robb, J. R. Cheeseman, G. Scalmani, V. Barone, 
 G. A. Petersson, H. Nakatsuji, X. Li, M. Caricato, A. V. Marenich, 
 J. Bloino, B. G. Janesko, R. Gomperts, B. Mennucci, H. P. Hratchian, 
 J. V. Ortiz, A. F. Izmaylov, J. L. Sonnenberg, D. Williams-Young, 
 F. Ding, F. Lipparini, F. Egidi, J. Goings, B. Peng, A. Petrone, 
 T. Henderson, D. Ranasinghe, V. G. Zakrzewski, J. Gao, N. Rega, 
 G. Zheng, W. Liang, M. Hada, M. Ehara, K. Toyota, R. Fukuda, 
 J. Hasegawa, M. Ishida, T. Nakajima, Y. Honda, O. Kitao, H. Nakai, 
 T. Vreven, K. Throssell, J. A. Montgomery, Jr., J. E. Peralta, 
 F. Ogliaro, M. J. Bearpark, J. J. Heyd, E. N. Brothers, K. N. Kudin, 
 V. N. Staroverov, T. A. Keith, R. Kobayashi, J. Normand, 
 K. Raghavachari, A. P. Rendell, J. C. Burant, S. S. Iyengar, 
 J. Tomasi, M. Cossi, J. M. Millam, M. Klene, C. Adamo, R. Cammi, 
 J. W. Ochterski, R. L. Martin, K. Morokuma, O. Farkas, 
 J. B. Foresman, and D. J. Fox, Gaussian, Inc., Wallingford CT, 2019.
 
 ******************************************
 Gaussian 16:  ES64L-G16RevC.01  3-Jul-2019
                30-Jun-2022 
 ******************************************
 %nproc=16
 Will use up to   16 processors via shared memory.
 %mem=50gb
 -----------------------------------------------------
 #m062X/gen 6D OPT Freq=noraman SCRF=(SMD,Solvent=h2o)
 -----------------------------------------------------
 1/18=20,19=15,26=3,38=1/1,3;
 2/9=110,12=2,17=6,18=5,40=1/2;
 3/5=7,8=2,11=2,25=1,30=1,70=32201,71=1,72=1,74=-55/1,2,3;
 4//1;
 5/5=2,38=5,53=1/2;
 6/7=2,8=2,9=2,10=2,28=1/1;
 7//1,2,3,16;
 1/18=20,19=15,26=3/3(2);
 2/9=110/2;
 99//99;
 2/9=110/2;
 3/5=7,6=1,8=2,11=2,25=1,30=1,70=32205,71=1,72=1,74=-55,82=7/1,2,3;
 4/5=5,16=3,69=1/1;
 5/5=2,38=5,53=1/2;
 7//1,2,3,16;
 1/18=20,19=15,26=3/3(-5);
 2/9=110/2;
 6/7=2,8=2,9=2,10=2,19=2,28=1/1;
 99/9=1/99;
 ----------------
 HA.30.smd.a1.smd
 ----------------
 Symbolic Z-matrix:
 Charge =  0 Multiplicity = 1
 C                    -1.49293   0.72218  -0.82877 
 C                    -2.62159   0.85719  -1.67579 
 C                    -4.02475   1.08154  -1.15219 
 C                    -2.47682   0.81611  -3.04293 
 H                    -3.33904   0.92884  -3.69231 
 C                    -1.21046   0.61824  -3.64959 
 C                    -0.10532   0.48271  -2.78278 
 S                     1.51205   0.29334  -3.47079 
 C                    -0.24463   0.53916  -1.4012 
 H                     0.63246   0.45365  -0.76605 
 S                    -1.53585   0.76069   0.95523 
 O                    -0.1488    0.88311   1.39889 
 O                    -2.51171   1.76113   1.3756 
 N                    -2.05876  -0.69096   1.5333 
 H                    -1.42507  -1.45023   1.27571 
 H                    -3.01696  -0.90354   1.25239 
 N                    -1.09298   0.60466  -4.99453 
 C                     0.14015   0.23119  -5.66614 
 N                     1.30544   0.83658  -5.026 
 O                     2.44258   1.19553  -2.79807 
 O                     1.84744  -1.12735  -3.54248 
 H                    -1.93593   0.68996  -5.55244 
 F                    -4.95051   0.83149  -2.08874 
 F                    -4.22005   2.34539  -0.74845 
 F                    -4.31289   0.27607  -0.11113 
 H                     0.27909  -0.85379  -5.66315 
 H                     0.09507   0.57871  -6.69573 
 H                     1.27494   1.86065  -5.0382 
 

 GradGradGradGradGradGradGradGradGradGradGradGradGradGradGradGradGradGrad
 Berny optimization.
 Initialization pass.
                           ----------------------------
                           !    Initial Parameters    !
                           ! (Angstroms and Degrees)  !
 --------------------------                            --------------------------
 ! Name  Definition              Value          Derivative Info.                !
 --------------------------------------------------------------------------------
 ! R1    R(1,2)                  1.4176         estimate D2E/DX2                !
 ! R2    R(1,9)                  1.3854         estimate D2E/DX2                !
 ! R3    R(1,11)                 1.7849         estimate D2E/DX2                !
 ! R4    R(2,3)                  1.5144         estimate D2E/DX2                !
 ! R5    R(2,4)                  1.3754         estimate D2E/DX2                !
 ! R6    R(3,23)                 1.3404         estimate D2E/DX2                !
 ! R7    R(3,24)                 1.3411         estimate D2E/DX2                !
 ! R8    R(3,25)                 1.3475         estimate D2E/DX2                !
 ! R9    R(4,5)                  1.0853         estimate D2E/DX2                !
 ! R10   R(4,6)                  1.418          estimate D2E/DX2                !
 ! R11   R(6,7)                  1.4111         estimate D2E/DX2                !
 ! R12   R(6,17)                 1.3501         estimate D2E/DX2                !
 ! R13   R(7,8)                  1.7678         estimate D2E/DX2                !
 ! R14   R(7,9)                  1.3897         estimate D2E/DX2                !
 ! R15   R(8,19)                 1.6603         estimate D2E/DX2                !
 ! R16   R(8,20)                 1.4603         estimate D2E/DX2                !
 ! R17   R(8,21)                 1.4615         estimate D2E/DX2                !
 ! R18   R(9,10)                 1.0863         estimate D2E/DX2                !
 ! R19   R(11,12)                1.4614         estimate D2E/DX2                !
 ! R20   R(11,13)                1.4594         estimate D2E/DX2                !
 ! R21   R(11,14)                1.6477         estimate D2E/DX2                !
 ! R22   R(14,15)                1.022          estimate D2E/DX2                !
 ! R23   R(14,16)                1.0209         estimate D2E/DX2                !
 ! R24   R(17,18)                1.453          estimate D2E/DX2                !
 ! R25   R(17,22)                1.0144         estimate D2E/DX2                !
 ! R26   R(18,19)                1.4609         estimate D2E/DX2                !
 ! R27   R(18,26)                1.0938         estimate D2E/DX2                !
 ! R28   R(18,27)                1.0876         estimate D2E/DX2                !
 ! R29   R(19,28)                1.0246         estimate D2E/DX2                !
 ! A1    A(2,1,9)              118.8872         estimate D2E/DX2                !
 ! A2    A(2,1,11)             125.1694         estimate D2E/DX2                !
 ! A3    A(9,1,11)             115.9429         estimate D2E/DX2                !
 ! A4    A(1,2,3)              123.0409         estimate D2E/DX2                !
 ! A5    A(1,2,4)              120.4823         estimate D2E/DX2                !
 ! A6    A(3,2,4)              116.4632         estimate D2E/DX2                !
 ! A7    A(2,3,23)             111.7599         estimate D2E/DX2                !
 ! A8    A(2,3,24)             112.2496         estimate D2E/DX2                !
 ! A9    A(2,3,25)             112.1295         estimate D2E/DX2                !
 ! A10   A(23,3,24)            106.5944         estimate D2E/DX2                !
 ! A11   A(23,3,25)            106.2975         estimate D2E/DX2                !
 ! A12   A(24,3,25)            107.4341         estimate D2E/DX2                !
 ! A13   A(2,4,5)              120.5328         estimate D2E/DX2                !
 ! A14   A(2,4,6)              121.5612         estimate D2E/DX2                !
 ! A15   A(5,4,6)              117.9047         estimate D2E/DX2                !
 ! A16   A(4,6,7)              116.7449         estimate D2E/DX2                !
 ! A17   A(4,6,17)             120.3497         estimate D2E/DX2                !
 ! A18   A(7,6,17)             122.8765         estimate D2E/DX2                !
 ! A19   A(6,7,8)              119.1938         estimate D2E/DX2                !
 ! A20   A(6,7,9)              121.8898         estimate D2E/DX2                !
 ! A21   A(8,7,9)              118.8797         estimate D2E/DX2                !
 ! A22   A(7,8,19)             102.4541         estimate D2E/DX2                !
 ! A23   A(7,8,20)             109.7265         estimate D2E/DX2                !
 ! A24   A(7,8,21)             109.4616         estimate D2E/DX2                !
 ! A25   A(19,8,20)            107.9797         estimate D2E/DX2                !
 ! A26   A(19,8,21)            107.4981         estimate D2E/DX2                !
 ! A27   A(20,8,21)            118.4857         estimate D2E/DX2                !
 ! A28   A(1,9,7)              120.4269         estimate D2E/DX2                !
 ! A29   A(1,9,10)             119.7566         estimate D2E/DX2                !
 ! A30   A(7,9,10)             119.8105         estimate D2E/DX2                !
 ! A31   A(1,11,12)            106.4042         estimate D2E/DX2                !
 ! A32   A(1,11,13)            108.5878         estimate D2E/DX2                !
 ! A33   A(1,11,14)            109.8328         estimate D2E/DX2                !
 ! A34   A(12,11,13)           119.3255         estimate D2E/DX2                !
 ! A35   A(12,11,14)           105.5755         estimate D2E/DX2                !
 ! A36   A(13,11,14)           106.8986         estimate D2E/DX2                !
 ! A37   A(11,14,15)           111.6745         estimate D2E/DX2                !
 ! A38   A(11,14,16)           112.6306         estimate D2E/DX2                !
 ! A39   A(15,14,16)           110.9735         estimate D2E/DX2                !
 ! A40   A(6,17,18)            122.4716         estimate D2E/DX2                !
 ! A41   A(6,17,22)            118.3401         estimate D2E/DX2                !
 ! A42   A(18,17,22)           118.2043         estimate D2E/DX2                !
 ! A43   A(17,18,19)           111.5864         estimate D2E/DX2                !
 ! A44   A(17,18,26)           111.1924         estimate D2E/DX2                !
 ! A45   A(17,18,27)           108.6792         estimate D2E/DX2                !
 ! A46   A(19,18,26)           107.9704         estimate D2E/DX2                !
 ! A47   A(19,18,27)           108.3887         estimate D2E/DX2                !
 ! A48   A(26,18,27)           108.9532         estimate D2E/DX2                !
 ! A49   A(8,19,18)            111.9707         estimate D2E/DX2                !
 ! A50   A(8,19,28)            109.9921         estimate D2E/DX2                !
 ! A51   A(18,19,28)           112.6579         estimate D2E/DX2                !
 ! D1    D(9,1,2,3)           -179.0474         estimate D2E/DX2                !
 ! D2    D(9,1,2,4)             -0.4403         estimate D2E/DX2                !
 ! D3    D(11,1,2,3)             1.2323         estimate D2E/DX2                !
 ! D4    D(11,1,2,4)           179.8394         estimate D2E/DX2                !
 ! D5    D(2,1,9,7)             -0.3126         estimate D2E/DX2                !
 ! D6    D(2,1,9,10)           178.8009         estimate D2E/DX2                !
 ! D7    D(11,1,9,7)           179.4331         estimate D2E/DX2                !
 ! D8    D(11,1,9,10)           -1.4534         estimate D2E/DX2                !
 ! D9    D(2,1,11,12)         -167.7846         estimate D2E/DX2                !
 ! D10   D(2,1,11,13)          -38.1673         estimate D2E/DX2                !
 ! D11   D(2,1,11,14)           78.4038         estimate D2E/DX2                !
 ! D12   D(9,1,11,12)           12.4877         estimate D2E/DX2                !
 ! D13   D(9,1,11,13)          142.1051         estimate D2E/DX2                !
 ! D14   D(9,1,11,14)         -101.3239         estimate D2E/DX2                !
 ! D15   D(1,2,3,23)          -163.7581         estimate D2E/DX2                !
 ! D16   D(1,2,3,24)            76.5365         estimate D2E/DX2                !
 ! D17   D(1,2,3,25)           -44.5157         estimate D2E/DX2                !
 ! D18   D(4,2,3,23)            17.5828         estimate D2E/DX2                !
 ! D19   D(4,2,3,24)          -102.1226         estimate D2E/DX2                !
 ! D20   D(4,2,3,25)           136.8251         estimate D2E/DX2                !
 ! D21   D(1,2,4,5)           -179.4144         estimate D2E/DX2                !
 ! D22   D(1,2,4,6)              1.0022         estimate D2E/DX2                !
 ! D23   D(3,2,4,5)             -0.7187         estimate D2E/DX2                !
 ! D24   D(3,2,4,6)            179.6979         estimate D2E/DX2                !
 ! D25   D(2,4,6,7)             -0.7771         estimate D2E/DX2                !
 ! D26   D(2,4,6,17)          -178.8762         estimate D2E/DX2                !
 ! D27   D(5,4,6,7)            179.6289         estimate D2E/DX2                !
 ! D28   D(5,4,6,17)             1.5299         estimate D2E/DX2                !
 ! D29   D(4,6,7,8)           -177.7572         estimate D2E/DX2                !
 ! D30   D(4,6,7,9)              0.0139         estimate D2E/DX2                !
 ! D31   D(17,6,7,8)             0.2896         estimate D2E/DX2                !
 ! D32   D(17,6,7,9)           178.0606         estimate D2E/DX2                !
 ! D33   D(4,6,17,18)         -171.6089         estimate D2E/DX2                !
 ! D34   D(4,6,17,22)           -3.1696         estimate D2E/DX2                !
 ! D35   D(7,6,17,18)           10.4125         estimate D2E/DX2                !
 ! D36   D(7,6,17,22)          178.8517         estimate D2E/DX2                !
 ! D37   D(6,7,8,19)            18.2579         estimate D2E/DX2                !
 ! D38   D(6,7,8,20)           132.7784         estimate D2E/DX2                !
 ! D39   D(6,7,8,21)           -95.6095         estimate D2E/DX2                !
 ! D40   D(9,7,8,19)          -159.5809         estimate D2E/DX2                !
 ! D41   D(9,7,8,20)           -45.0604         estimate D2E/DX2                !
 ! D42   D(9,7,8,21)            86.5517         estimate D2E/DX2                !
 ! D43   D(6,7,9,1)              0.524          estimate D2E/DX2                !
 ! D44   D(6,7,9,10)          -178.589          estimate D2E/DX2                !
 ! D45   D(8,7,9,1)            178.3019         estimate D2E/DX2                !
 ! D46   D(8,7,9,10)            -0.8112         estimate D2E/DX2                !
 ! D47   D(7,8,19,18)          -48.8788         estimate D2E/DX2                !
 ! D48   D(7,8,19,28)           77.1936         estimate D2E/DX2                !
 ! D49   D(20,8,19,18)        -164.6695         estimate D2E/DX2                !
 ! D50   D(20,8,19,28)         -38.5971         estimate D2E/DX2                !
 ! D51   D(21,8,19,18)          66.423          estimate D2E/DX2                !
 ! D52   D(21,8,19,28)        -167.5046         estimate D2E/DX2                !
 ! D53   D(1,11,14,15)          62.1656         estimate D2E/DX2                !
 ! D54   D(1,11,14,16)         -63.495          estimate D2E/DX2                !
 ! D55   D(12,11,14,15)        -52.1775         estimate D2E/DX2                !
 ! D56   D(12,11,14,16)       -177.8381         estimate D2E/DX2                !
 ! D57   D(13,11,14,15)        179.793          estimate D2E/DX2                !
 ! D58   D(13,11,14,16)         54.1324         estimate D2E/DX2                !
 ! D59   D(6,17,18,19)         -43.5276         estimate D2E/DX2                !
 ! D60   D(6,17,18,26)          77.0873         estimate D2E/DX2                !
 ! D61   D(6,17,18,27)        -162.9919         estimate D2E/DX2                !
 ! D62   D(22,17,18,19)        148.0182         estimate D2E/DX2                !
 ! D63   D(22,17,18,26)        -91.3669         estimate D2E/DX2                !
 ! D64   D(22,17,18,27)         28.5539         estimate D2E/DX2                !
 ! D65   D(17,18,19,8)          63.7867         estimate D2E/DX2                !
 ! D66   D(17,18,19,28)        -60.8178         estimate D2E/DX2                !
 ! D67   D(26,18,19,8)         -58.6954         estimate D2E/DX2                !
 ! D68   D(26,18,19,28)        176.7001         estimate D2E/DX2                !
 ! D69   D(27,18,19,8)        -176.5773         estimate D2E/DX2                !
 ! D70   D(27,18,19,28)         58.8182         estimate D2E/DX2                !
 --------------------------------------------------------------------------------
 Trust Radius=3.00D-01 FncErr=1.00D-07 GrdErr=1.00D-06 EigMax=2.50D+02 EigMin=1.00D-04
 Number of steps in this run=    160 maximum allowed number of steps=    168.
 GradGradGradGradGradGradGradGradGradGradGradGradGradGradGradGradGradGrad

                          Input orientation:                          
 ---------------------------------------------------------------------
 Center     Atomic      Atomic             Coordinates (Angstroms)
 Number     Number       Type             X           Y           Z
 ---------------------------------------------------------------------
      1          6           0       -1.492925    0.722182   -0.828774
      2          6           0       -2.621587    0.857188   -1.675789
      3          6           0       -4.024754    1.081545   -1.152194
      4          6           0       -2.476818    0.816108   -3.042933
      5          1           0       -3.339043    0.928844   -3.692309
      6          6           0       -1.210457    0.618241   -3.649592
      7          6           0       -0.105320    0.482707   -2.782778
      8         16           0        1.512049    0.293339   -3.470787
      9          6           0       -0.244631    0.539161   -1.401198
     10          1           0        0.632463    0.453654   -0.766045
     11         16           0       -1.535845    0.760686    0.955230
     12          8           0       -0.148802    0.883105    1.398893
     13          8           0       -2.511705    1.761125    1.375604
     14          7           0       -2.058764   -0.690964    1.533297
     15          1           0       -1.425073   -1.450227    1.275705
     16          1           0       -3.016962   -0.903541    1.252393
     17          7           0       -1.092980    0.604663   -4.994534
     18          6           0        0.140148    0.231185   -5.666141
     19          7           0        1.305436    0.836580   -5.026001
     20          8           0        2.442577    1.195533   -2.798066
     21          8           0        1.847438   -1.127351   -3.542477
     22          1           0       -1.935929    0.689957   -5.552444
     23          9           0       -4.950511    0.831485   -2.088743
     24          9           0       -4.220046    2.345390   -0.748445
     25          9           0       -4.312890    0.276068   -0.111133
     26          1           0        0.279092   -0.853786   -5.663151
     27          1           0        0.095072    0.578705   -6.695728
     28          1           0        1.274936    1.860649   -5.038200
 ---------------------------------------------------------------------
                    Distance matrix (angstroms):
                    1          2          3          4          5
     1  C    0.000000
     2  C    1.417582   0.000000
     3  C    2.577576   1.514386   0.000000
     4  C    2.424741   1.375401   2.457937   0.000000
     5  H    3.413311   2.141549   2.635470   1.085279   0.000000
     6  C    2.836830   2.438090   3.791031   1.418047   2.151552
     7  C    2.408511   2.774394   4.287117   2.408908   3.388694
     8  S    4.024178   4.541684   6.054199   4.045665   4.897554
     9  C    1.385426   2.413806   3.826946   2.784718   3.869939
    10  H    2.143202   3.402839   4.715191   3.870816   4.955975
    11  S    1.784936   2.847878   3.277019   4.107774   4.987927
    12  O    2.606734   3.945758   4.644397   5.015373   6.008333
    13  O    2.641325   3.184364   3.023394   4.518600   5.202011
    14  N    2.810077   3.607184   3.770778   4.836105   5.618705
    15  H    3.025359   3.932827   4.366109   4.989296   5.831331
    16  H    3.049085   3.439584   3.276927   4.658194   5.283129
    17  N    4.186565   3.662578   4.856572   2.401762   2.616425
    18  C    5.129145   4.893053   6.200422   3.751249   4.060482
    19  N    5.045852   5.161962   6.593733   4.270647   4.833056
    20  O    4.426099   5.198052   6.674448   4.940078   5.856443
    21  O    4.684334   5.234033   6.713815   4.767155   5.581216
    22  H    4.744507   3.940374   4.886587   2.570237   2.342199
    23  F    3.681626   2.365392   1.340403   2.651391   2.275463
    24  F    3.174657   2.372716   1.341065   3.262242   3.383652
    25  F    2.943846   2.376206   1.347451   3.501179   3.768198
    26  H    5.384693   5.219236   6.528195   4.153207   4.489197
    27  H    6.079759   5.714681   6.925069   4.473689   4.575617
    28  H    5.164923   5.243628   6.617761   4.375822   4.895762
                    6          7          8          9         10
     6  C    0.000000
     7  C    1.411051   0.000000
     8  S    2.747648   1.767795   0.000000
     9  C    2.448336   1.389733   2.725720   0.000000
    10  H    3.426118   2.147645   2.848684   1.086289   0.000000
    11  S    4.618501   4.012029   5.394228   2.696119   2.785429
    12  O    5.165701   4.201021   5.178806   2.822763   2.341316
    13  O    5.315263   4.971638   6.467805   3.787275   4.022677
    14  N    5.412576   4.880774   6.225786   3.662724   3.720192
    15  H    5.346323   4.685004   5.847726   3.537926   3.467991
    16  H    5.441391   5.165457   6.652285   4.099848   4.385701
    17  N    1.350131   2.425327   3.033958   3.692702   4.569472
    18  C    2.457726   2.904703   2.589509   4.293325   4.929788
    19  N    2.876090   2.673482   1.660268   3.953525   4.329752
    20  O    3.795131   2.645777   1.460270   3.098895   2.820639
    21  O    3.522682   2.642479   1.461501   3.426236   3.418233
    22  H    2.037719   3.326429   4.047117   4.485094   5.437103
    23  F    4.058291   4.907057   6.630560   4.764817   5.749947
    24  F    4.522977   4.953692   6.669256   4.415028   5.208245
    25  F    4.718354   4.988390   6.724395   4.276005   4.991689
    26  H    2.905175   3.198521   2.764514   4.514292   5.080937
    27  H    3.314350   3.919254   3.534049   5.305564   5.955297
    28  H    3.106282   2.981738   2.229230   4.157307   4.543535
                   11         12         13         14         15
    11  S    0.000000
    12  O    1.461407   0.000000
    13  O    1.459416   2.520867   0.000000
    14  N    1.647693   2.478651   2.498552   0.000000
    15  H    2.236764   2.662420   3.391686   1.021958   0.000000
    16  H    2.247591   3.382293   2.714942   1.020901   1.683306
    17  N    5.968263   6.468764   6.627884   6.724877   6.606721
    18  C    6.850684   7.100929   7.678490   7.584028   7.312065
    19  N    6.622217   6.587582   7.510386   7.528321   7.238554
    20  O    5.486726   4.942400   6.502640   6.525461   6.209217
    21  O    5.936384   5.695967   7.178645   6.419683   5.833391
    22  H    6.520344   7.179987   7.033972   7.220094   7.173910
    23  F    4.575011   5.934870   4.337477   4.878445   5.380932
    24  F    3.552285   4.829531   2.787719   4.370004   5.129889
    25  F    3.013961   4.470828   2.767679   2.953030   3.639080
    26  H    7.050070   7.285077   8.010642   7.568418   7.169912
    27  H    7.824971   8.104013   8.563866   8.600461   8.364876
    28  H    6.710560   6.664742   7.448855   7.798003   7.623473
                   16         17         18         19         20
    16  H    0.000000
    17  N    6.708240   0.000000
    18  C    7.689022   1.452978   0.000000
    19  N    7.818528   2.409808   1.460883   0.000000
    20  O    7.114696   4.204017   3.802236   2.526981   0.000000
    21  O    6.833978   3.708692   3.044734   2.520245   2.510802
    22  H    7.072035   1.014446   2.129200   3.287109   5.197453
    23  F    4.232271   4.834833   6.250836   6.911178   7.435955
    24  F    4.000789   5.553192   6.903976   7.148772   7.064960
    25  F    2.220385   5.858618   7.119668   7.485699   7.328121
    26  H    7.661018   2.111091   1.093836   2.077662   4.133895
    27  H    8.663396   2.075139   1.087590   2.078333   4.591626
    28  H    8.101401   2.680752   2.082596   1.024596   2.612272
                   21         22         23         24         25
    21  O    0.000000
    22  H    4.653648   0.000000
    23  F    7.222361   4.594013   0.000000
    24  F    7.528672   5.571001   2.149857   0.000000
    25  F    7.189809   5.952236   2.150811   2.167229   0.000000
    26  H    2.651755   2.702169   6.554790   7.391299   7.292995
    27  H    3.990540   2.333332   6.837113   7.557221   7.929603
    28  H    3.390146   3.456099   6.965247   6.987975   7.616475
                   26         27         28
    26  H    0.000000
    27  H    1.775418   0.000000
    28  H    2.958112   2.404757   0.000000
 Stoichiometry    C8H8F3N3O4S2
 Framework group  C1[X(C8H8F3N3O4S2)]
 Deg. of freedom    78
 Full point group                 C1      NOp   1
 Largest Abelian subgroup         C1      NOp   1
 Largest concise Abelian subgroup C1      NOp   1
                         Standard orientation:                         
 ---------------------------------------------------------------------
 Center     Atomic      Atomic             Coordinates (Angstroms)
 Number     Number       Type             X           Y           Z
 ---------------------------------------------------------------------
      1          6           0        0.907493   -0.438737   -0.042410
      2          6           0        1.070205    0.969171   -0.013099
      3          6           0        2.425300    1.644569   -0.043460
      4          6           0       -0.027112    1.797862    0.016818
      5          1           0        0.096376    2.876015    0.029719
      6          6           0       -1.347298    1.280751    0.040570
      7          6           0       -1.479656   -0.123844    0.014922
      8         16           0       -3.096847   -0.837081   -0.018063
      9          6           0       -0.374148   -0.964732   -0.031078
     10          1           0       -0.515630   -2.040956   -0.072916
     11         16           0        2.238810   -1.626852   -0.086825
     12          8           0        1.630179   -2.917014   -0.404256
     13          8           0        3.298609   -1.106139   -0.944485
     14          7           0        2.883594   -1.800500    1.419492
     15          1           0        2.196673   -2.160805    2.084863
     16          1           0        3.311088   -0.940347    1.765362
     17          7           0       -2.407415    2.116792    0.046902
     18          6           0       -3.768190    1.649522    0.249625
     19          7           0       -4.039364    0.435585   -0.516534
     20          8           0       -3.157885   -1.872804   -1.045654
     21          8           0       -3.505581   -1.180140    1.342537
     22          1           0       -2.232929    3.115444    0.083664
     23          9           0        2.350077    2.926892    0.339515
     24          9           0        2.966343    1.642436   -1.270540
     25          9           0        3.306048    1.052922    0.787118
     26          1           0       -3.958661    1.432347    1.304628
     27          1           0       -4.455581    2.424723   -0.081146
     28          1           0       -3.934812    0.574513   -1.526269
 ---------------------------------------------------------------------
 Rotational constants (GHZ):           0.4942287           0.2033521           0.1577795
 General basis read from cards:  (6D, 7F)
 There are   404 symmetry adapted cartesian basis functions of A   symmetry.
 There are   404 symmetry adapted basis functions of A   symmetry.
   404 basis functions,   720 primitive gaussians,   404 cartesian basis functions
    84 alpha electrons       84 beta electrons
       nuclear repulsion energy      2106.5312311558 Hartrees.
 NAtoms=   28 NActive=   28 NUniq=   28 SFac= 1.00D+00 NAtFMM=   60 NAOKFM=F Big=F
 Integral buffers will be    131072 words long.
 Raffenetti 2 integral format.
 Two-electron integral symmetry is turned on.
 ------------------------------------------------------------------------------
 Polarizable Continuum Model (PCM)
 =================================
 Model                : PCM.
 Atomic radii         : SMD-Coulomb.
 Polarization charges : Total charges.
 Charge compensation  : None.
 Solution method      : On-the-fly selection.
 Cavity type          : VdW (van der Waals Surface) (Alpha=1.000).
 Cavity algorithm     : GePol (No added spheres)
                        Default sphere list used, NSphG=   28.
                        Lebedev-Laikov grids with approx.  5.0 points / Ang**2.
                        Smoothing algorithm: York/Karplus (Gamma=1.0000).
                        Polarization charges: spherical gaussians, with
                                              point-specific exponents (IZeta= 3).
                        Self-potential: point-specific (ISelfS= 7).
                        Self-field    : sphere-specific E.n sum rule (ISelfD= 2).
 1st derivatives      : Analytical E(r).r(x)/FMM algorithm (CHGder, D1EAlg=3).
                        Cavity 1st derivative terms included.
 Solvent              : Water, Eps=  78.355300 Eps(inf)=   1.777849
 ------------------------------------------------------------------------------
 ------------------------------------------------------------------------------
 Atomic radii for non-electrostatic terms: SMD-CDS.
 ------------------------------------------------------------------------------
 Nuclear repulsion after PCM non-electrostatic terms =     2106.5374331685 Hartrees.
 One-electron integrals computed using PRISM.
 NBasis=   404 RedAO= T EigKep=  1.11D-06  NBF=   404
 NBsUse=   402 1.00D-06 EigRej=  6.12D-07 NBFU=   402
 ExpMin= 4.05D-02 ExpMax= 2.19D+04 ExpMxC= 3.30D+03 IAcc=3 IRadAn=         5 AccDes= 0.00D+00
 Harris functional with IExCor= 1009 and IRadAn=       5 diagonalized for initial guess.
 HarFok:  IExCor= 1009 AccDes= 0.00D+00 IRadAn=         5 IDoV= 1 UseB2=F ITyADJ=14
 ICtDFT=  3500011 ScaDFX=  1.000000  1.000000  1.000000  1.000000
 FoFCou: FMM=F IPFlag=           0 FMFlag=      100000 FMFlg1=           0
         NFxFlg=           0 DoJE=T BraDBF=F KetDBF=T FulRan=T
         wScrn=  0.000000 ICntrl=       500 IOpCl=  0 I1Cent=   200000004 NGrid=           0
         NMat0=    1 NMatS0=      1 NMatT0=    0 NMatD0=    1 NMtDS0=    0 NMtDT0=    0
 Petite list used in FoFCou.
 Requested convergence on RMS density matrix=1.00D-08 within 128 cycles.
 Requested convergence on MAX density matrix=1.00D-06.
 Requested convergence on             energy=1.00D-06.
 No special actions if energy rises.
 Inv3:  Mode=1 IEnd=    13116843.
 Iteration    1 A*A^-1 deviation from unit magnitude is 6.22D-15 for   2087.
 Iteration    1 A*A^-1 deviation from orthogonality  is 2.00D-15 for   2083   1986.
 Iteration    1 A^-1*A deviation from unit magnitude is 6.22D-15 for   2087.
 Iteration    1 A^-1*A deviation from orthogonality  is 2.00D-15 for   1840    989.
 Error on total polarization charges =  0.03857
 SCF Done:  E(RM062X) =  -1870.21395933     A.U. after   16 cycles
            NFock= 16  Conv=0.83D-08     -V/T= 2.0061
 SMD-CDS (non-electrostatic) energy       (kcal/mol) =       3.89
 (included in total energy above)

 **********************************************************************

            Population analysis using the SCF Density.

 **********************************************************************

 Orbital symmetries:
       Occupied  (A) (A) (A) (A) (A) (A) (A) (A) (A) (A) (A) (A)
                 (A) (A) (A) (A) (A) (A) (A) (A) (A) (A) (A) (A)
                 (A) (A) (A) (A) (A) (A) (A) (A) (A) (A) (A) (A)
                 (A) (A) (A) (A) (A) (A) (A) (A) (A) (A) (A) (A)
                 (A) (A) (A) (A) (A) (A) (A) (A) (A) (A) (A) (A)
                 (A) (A) (A) (A) (A) (A) (A) (A) (A) (A) (A) (A)
                 (A) (A) (A) (A) (A) (A) (A) (A) (A) (A) (A) (A)
       Virtual   (A) (A) (A) (A) (A) (A) (A) (A) (A) (A) (A) (A)
                 (A) (A) (A) (A) (A) (A) (A) (A) (A) (A) (A) (A)
                 (A) (A) (A) (A) (A) (A) (A) (A) (A) (A) (A) (A)
                 (A) (A) (A) (A) (A) (A) (A) (A) (A) (A) (A) (A)
                 (A) (A) (A) (A) (A) (A) (A) (A) (A) (A) (A) (A)
                 (A) (A) (A) (A) (A) (A) (A) (A) (A) (A) (A) (A)
                 (A) (A) (A) (A) (A) (A) (A) (A) (A) (A) (A) (A)
                 (A) (A) (A) (A) (A) (A) (A) (A) (A) (A) (A) (A)
                 (A) (A) (A) (A) (A) (A) (A) (A) (A) (A) (A) (A)
                 (A) (A) (A) (A) (A) (A) (A) (A) (A) (A) (A) (A)
                 (A) (A) (A) (A) (A) (A) (A) (A) (A) (A) (A) (A)
                 (A) (A) (A) (A) (A) (A) (A) (A) (A) (A) (A) (A)
                 (A) (A) (A) (A) (A) (A) (A) (A) (A) (A) (A) (A)
                 (A) (A) (A) (A) (A) (A) (A) (A) (A) (A) (A) (A)
                 (A) (A) (A) (A) (A) (A) (A) (A) (A) (A) (A) (A)
                 (A) (A) (A) (A) (A) (A) (A) (A) (A) (A) (A) (A)
                 (A) (A) (A) (A) (A) (A) (A) (A) (A) (A) (A) (A)
                 (A) (A) (A) (A) (A) (A) (A) (A) (A) (A) (A) (A)
                 (A) (A) (A) (A) (A) (A) (A) (A) (A) (A) (A) (A)
                 (A) (A) (A) (A) (A) (A) (A) (A) (A) (A) (A) (A)
                 (A) (A) (A) (A) (A) (A) (A) (A) (A) (A) (A) (A)
                 (A) (A) (A) (A) (A) (A) (A) (A) (A) (A) (A) (A)
                 (A) (A) (A) (A) (A) (A) (A) (A) (A) (A) (A) (A)
                 (A) (A) (A) (A) (A) (A) (A) (A) (A) (A) (A) (A)
                 (A) (A) (A) (A) (A) (A) (A) (A) (A) (A) (A) (A)
                 (A) (A) (A) (A) (A) (A) (A) (A) (A) (A) (A) (A)
                 (A) (A) (A) (A) (A) (A)
 The electronic state is 1-A.
 Alpha  occ. eigenvalues --  -90.18918 -90.18917 -25.31995 -25.31729 -25.31392
 Alpha  occ. eigenvalues --  -19.67145 -19.66843 -19.66457 -19.66428 -14.81721
 Alpha  occ. eigenvalues --  -14.81038 -14.80479 -10.83337 -10.65114 -10.63791
 Alpha  occ. eigenvalues --  -10.62399 -10.61500 -10.61123 -10.60747 -10.59235
 Alpha  occ. eigenvalues --   -8.49931  -8.49823  -6.42137  -6.42103  -6.42025
 Alpha  occ. eigenvalues --   -6.42008  -6.41998  -6.41911  -1.48568  -1.39282
 Alpha  occ. eigenvalues --   -1.38932  -1.27047  -1.26644  -1.15339  -1.15125
 Alpha  occ. eigenvalues --   -1.11309  -1.04403  -1.03493  -1.00548  -0.93079
 Alpha  occ. eigenvalues --   -0.89844  -0.84547  -0.81690  -0.78367  -0.76643
 Alpha  occ. eigenvalues --   -0.73691  -0.71578  -0.70901  -0.70483  -0.68357
 Alpha  occ. eigenvalues --   -0.66196  -0.63883  -0.62856  -0.61880  -0.61041
 Alpha  occ. eigenvalues --   -0.60288  -0.58814  -0.58615  -0.57384  -0.57280
 Alpha  occ. eigenvalues --   -0.55364  -0.54888  -0.54794  -0.54335  -0.53801
 Alpha  occ. eigenvalues --   -0.52715  -0.52411  -0.52248  -0.49847  -0.48499
 Alpha  occ. eigenvalues --   -0.46972  -0.44260  -0.44022  -0.43454  -0.42859
 Alpha  occ. eigenvalues --   -0.42355  -0.41418  -0.40787  -0.40480  -0.40142
 Alpha  occ. eigenvalues --   -0.38724  -0.37226  -0.35384  -0.28823
 Alpha virt. eigenvalues --   -0.03749  -0.01890   0.00741   0.02070   0.02421
 Alpha virt. eigenvalues --    0.02859   0.03789   0.03898   0.04279   0.04416
 Alpha virt. eigenvalues --    0.05516   0.06129   0.06360   0.06792   0.07229
 Alpha virt. eigenvalues --    0.07652   0.08109   0.08571   0.08944   0.09601
 Alpha virt. eigenvalues --    0.10076   0.10381   0.11014   0.11323   0.11880
 Alpha virt. eigenvalues --    0.12267   0.12731   0.12850   0.13331   0.13932
 Alpha virt. eigenvalues --    0.14531   0.14769   0.15272   0.15655   0.15873
 Alpha virt. eigenvalues --    0.16582   0.16991   0.18145   0.18312   0.18703
 Alpha virt. eigenvalues --    0.18707   0.19237   0.19390   0.19914   0.20457
 Alpha virt. eigenvalues --    0.20948   0.21075   0.21484   0.21990   0.22538
 Alpha virt. eigenvalues --    0.23254   0.23355   0.24154   0.24300   0.24435
 Alpha virt. eigenvalues --    0.25089   0.25454   0.26174   0.26251   0.26500
 Alpha virt. eigenvalues --    0.27162   0.27392   0.27823   0.28097   0.28325
 Alpha virt. eigenvalues --    0.28483   0.29228   0.29457   0.29939   0.30273
 Alpha virt. eigenvalues --    0.30732   0.31003   0.31078   0.31482   0.31848
 Alpha virt. eigenvalues --    0.32375   0.33142   0.33614   0.34087   0.34474
 Alpha virt. eigenvalues --    0.34663   0.34926   0.36172   0.36401   0.37052
 Alpha virt. eigenvalues --    0.37428   0.38292   0.38470   0.38771   0.39449
 Alpha virt. eigenvalues --    0.39968   0.40426   0.41154   0.41847   0.43036
 Alpha virt. eigenvalues --    0.43532   0.44116   0.44809   0.45490   0.46150
 Alpha virt. eigenvalues --    0.46654   0.47902   0.48413   0.49195   0.49828
 Alpha virt. eigenvalues --    0.51559   0.53829   0.54706   0.55199   0.55839
 Alpha virt. eigenvalues --    0.58133   0.61989   0.62411   0.64549   0.65276
 Alpha virt. eigenvalues --    0.66968   0.67593   0.69378   0.70314   0.70700
 Alpha virt. eigenvalues --    0.72633   0.72789   0.73756   0.74658   0.75704
 Alpha virt. eigenvalues --    0.76487   0.79758   0.82121   0.83383   0.83616
 Alpha virt. eigenvalues --    0.84629   0.86923   0.88992   0.89566   0.90565
 Alpha virt. eigenvalues --    0.92821   0.93220   0.94552   0.95059   0.95603
 Alpha virt. eigenvalues --    0.98198   0.99129   1.01224   1.01913   1.03060
 Alpha virt. eigenvalues --    1.03360   1.05048   1.06572   1.07075   1.07472
 Alpha virt. eigenvalues --    1.08775   1.09667   1.11800   1.12311   1.13177
 Alpha virt. eigenvalues --    1.13652   1.14534   1.14945   1.15857   1.16340
 Alpha virt. eigenvalues --    1.16941   1.18282   1.19235   1.20108   1.21986
 Alpha virt. eigenvalues --    1.24357   1.24939   1.26313   1.27305   1.29856
 Alpha virt. eigenvalues --    1.30698   1.31264   1.32729   1.33148   1.35075
 Alpha virt. eigenvalues --    1.35683   1.36163   1.36528   1.37800   1.38530
 Alpha virt. eigenvalues --    1.39050   1.39619   1.40637   1.41292   1.43727
 Alpha virt. eigenvalues --    1.44983   1.46223   1.47612   1.48982   1.49461
 Alpha virt. eigenvalues --    1.50147   1.53041   1.54326   1.56094   1.57439
 Alpha virt. eigenvalues --    1.59769   1.62562   1.64568   1.65252   1.66259
 Alpha virt. eigenvalues --    1.67419   1.68350   1.70162   1.71447   1.72434
 Alpha virt. eigenvalues --    1.73538   1.74002   1.74807   1.75249   1.76774
 Alpha virt. eigenvalues --    1.77172   1.77282   1.77906   1.79780   1.82027
 Alpha virt. eigenvalues --    1.82322   1.82478   1.83341   1.84172   1.85385
 Alpha virt. eigenvalues --    1.85975   1.86213   1.87838   1.87999   1.88948
 Alpha virt. eigenvalues --    1.89789   1.91286   1.91981   1.93050   1.94609
 Alpha virt. eigenvalues --    1.95298   1.95685   1.96437   1.97733   1.98659
 Alpha virt. eigenvalues --    2.00143   2.01765   2.03577   2.05428   2.07478
 Alpha virt. eigenvalues --    2.08149   2.08509   2.09739   2.11264   2.11678
 Alpha virt. eigenvalues --    2.12432   2.12542   2.14026   2.14755   2.15852
 Alpha virt. eigenvalues --    2.16846   2.17792   2.18503   2.20862   2.22326
 Alpha virt. eigenvalues --    2.23458   2.24042   2.24871   2.25807   2.28132
 Alpha virt. eigenvalues --    2.30003   2.30799   2.32512   2.34347   2.38087
 Alpha virt. eigenvalues --    2.39921   2.41329   2.43404   2.47669   2.49335
 Alpha virt. eigenvalues --    2.49610   2.51220   2.53362   2.54524   2.56942
 Alpha virt. eigenvalues --    2.60474   2.63729   2.65247   2.69280   2.71775
 Alpha virt. eigenvalues --    2.76891   2.77756   2.79011   2.80571   2.83827
 Alpha virt. eigenvalues --    2.87733   2.89994   2.91574   2.93519   2.95832
 Alpha virt. eigenvalues --    3.00199   3.01547   3.06505   3.20101   3.21987
 Alpha virt. eigenvalues --    3.28619   3.30544   3.34938   3.94330   3.99687
 Alpha virt. eigenvalues --    4.08475   4.09400   4.19912   4.22220   4.25530
 Alpha virt. eigenvalues --    4.30689   4.34810   4.36163   4.38687   4.42957
 Alpha virt. eigenvalues --    4.43369   4.48997   4.55034   4.62547   4.77741
 Alpha virt. eigenvalues --    5.82503   6.11376   7.05842
          Condensed to atoms (all electrons):
               1          2          3          4          5          6
     1  C   57.431662 -14.732774  -1.625288  -2.194150  -0.000319  -2.081248
     2  C  -14.732774  51.609537 -10.065913  -3.757086  -0.137374  -2.436943
     3  C   -1.625288 -10.065913  21.057711  -2.557372  -0.002398  -5.258947
     4  C   -2.194150  -3.757086  -2.557372  23.407130   0.246852  -4.048844
     5  H   -0.000319  -0.137374  -0.002398   0.246852   0.397924   0.135560
     6  C   -2.081248  -2.436943  -5.258947  -4.048844   0.135560  34.646438
     7  C  -25.668776  -1.038308   3.156465  -7.036046   0.069679 -11.415063
     8  S   -2.783014   0.255716  -0.068136   1.183133  -0.001067  -1.305198
     9  C   -1.264572 -15.310544   2.185885   1.606519  -0.011518  -4.003915
    10  H   -0.257659  -0.009424   0.009465   0.006434   0.000009  -0.006623
    11  S    2.303788   1.856400  -2.919630   1.035497   0.001044   1.611446
    12  O    0.074809  -0.164150  -0.028672   0.062372   0.000021   0.013219
    13  O   -0.449607   0.007741  -0.228407   0.110687   0.000048   0.119426
    14  N   -0.830207  -0.497225   0.521330  -0.027281   0.000041  -0.074242
    15  H    0.022097   0.094403  -0.019490   0.001352   0.000000   0.011006
    16  H    0.008966   0.005414  -0.057267   0.015348  -0.000000   0.004081
    17  N   -0.211803   0.417343   0.050296  -0.019061  -0.016231  -0.271243
    18  C    0.401086  -0.297804  -0.090380  -1.125653   0.004915  -0.012442
    19  N   -0.226605  -0.202863  -0.007175   0.442546   0.000151   0.446416
    20  O    0.217861  -0.009879  -0.012245  -0.031670   0.000007  -0.145697
    21  O   -0.310984   0.075778   0.004494   0.084123   0.000001  -0.031666
    22  H    0.008043  -0.008945  -0.000093  -0.015038   0.004310  -0.029653
    23  F   -0.071625  -0.161213  -0.031878   0.107605   0.006343   0.270292
    24  F   -0.106623   0.170814   0.163140  -0.075844  -0.000368  -0.054895
    25  F   -0.042791  -0.124823   0.112772   0.036041   0.000386   0.004849
    26  H    0.002158  -0.003359  -0.000530   0.008771  -0.000007  -0.049070
    27  H    0.004174  -0.003552   0.000007   0.006146   0.000004   0.003222
    28  H    0.011645   0.000716  -0.000332  -0.011017  -0.000001  -0.062112
               7          8          9         10         11         12
     1  C  -25.668776  -2.783014  -1.264572  -0.257659   2.303788   0.074809
     2  C   -1.038308   0.255716 -15.310544  -0.009424   1.856400  -0.164150
     3  C    3.156465  -0.068136   2.185885   0.009465  -2.919630  -0.028672
     4  C   -7.036046   1.183133   1.606519   0.006434   1.035497   0.062372
     5  H    0.069679  -0.001067  -0.011518   0.000009   0.001044   0.000021
     6  C  -11.415063  -1.305198  -4.003915  -0.006623   1.611446   0.013219
     7  C   50.228011  -0.502501   1.597469   0.141669  -4.747908  -0.182902
     8  S   -0.502501  18.255634  -0.662902   0.025062  -0.306606  -0.004572
     9  C    1.597469  -0.662902  23.656638   0.398878  -2.421172   0.017689
    10  H    0.141669   0.025062   0.398878   0.383115  -0.013909  -0.000021
    11  S   -4.747908  -0.306606  -2.421172  -0.013909  17.544148   0.294033
    12  O   -0.182902  -0.004572   0.017689  -0.000021   0.294033   8.800814
    13  O   -0.068002  -0.005718   0.227121   0.000672   0.358917  -0.134003
    14  N    0.276727  -0.002030   0.574273   0.000650  -0.454095  -0.108764
    15  H   -0.062501  -0.001834  -0.132615  -0.000043   0.108682  -0.006472
    16  H   -0.001062   0.000024   0.013268  -0.000008   0.044076   0.010450
    17  N    0.074784  -0.021432  -0.058518  -0.000427  -0.017576  -0.000301
    18  C    1.064528  -0.784379   0.221824  -0.001466   0.021951   0.000126
    19  N   -0.168615  -0.138449  -0.269110   0.001805  -0.002399   0.000003
    20  O   -0.304776   0.137439   0.296002   0.003387   0.006189  -0.000246
    21  O    0.231547   0.705986  -0.409681   0.000012  -0.011259  -0.000429
    22  H    0.043465  -0.000715  -0.003517   0.000002   0.000044   0.000000
    23  F    0.006262  -0.001220  -0.021068   0.000011   0.013356   0.000118
    24  F    0.041628   0.001457   0.021685   0.000006  -0.027466  -0.000198
    25  F    0.021399  -0.000179   0.021460   0.000023   0.075864   0.001324
    26  H   -0.020619   0.032322   0.000852  -0.000001  -0.000107   0.000000
    27  H    0.016706  -0.008306   0.002490   0.000000   0.000055  -0.000000
    28  H   -0.027597   0.068777   0.026525  -0.000005  -0.000060  -0.000001
              13         14         15         16         17         18
     1  C   -0.449607  -0.830207   0.022097   0.008966  -0.211803   0.401086
     2  C    0.007741  -0.497225   0.094403   0.005414   0.417343  -0.297804
     3  C   -0.228407   0.521330  -0.019490  -0.057267   0.050296  -0.090380
     4  C    0.110687  -0.027281   0.001352   0.015348  -0.019061  -1.125653
     5  H    0.000048   0.000041   0.000000  -0.000000  -0.016231   0.004915
     6  C    0.119426  -0.074242   0.011006   0.004081  -0.271243  -0.012442
     7  C   -0.068002   0.276727  -0.062501  -0.001062   0.074784   1.064528
     8  S   -0.005718  -0.002030  -0.001834   0.000024  -0.021432  -0.784379
     9  C    0.227121   0.574273  -0.132615   0.013268  -0.058518   0.221824
    10  H    0.000672   0.000650  -0.000043  -0.000008  -0.000427  -0.001466
    11  S    0.358917  -0.454095   0.108682   0.044076  -0.017576   0.021951
    12  O   -0.134003  -0.108764  -0.006472   0.010450  -0.000301   0.000126
    13  O    8.786729  -0.103732   0.009018  -0.004283  -0.000273   0.000613
    14  N   -0.103732   8.334755   0.228487   0.196524  -0.000162  -0.000413
    15  H    0.009018   0.228487   0.250486  -0.011861  -0.000010   0.000038
    16  H   -0.004283   0.196524  -0.011861   0.260739  -0.000006   0.000023
    17  N   -0.000273  -0.000162  -0.000010  -0.000006   7.485225   0.314753
    18  C    0.000613  -0.000413   0.000038   0.000023   0.314753   6.094407
    19  N    0.000016   0.000135  -0.000001   0.000000  -0.397085  -0.224619
    20  O   -0.000047  -0.000056  -0.000003   0.000001   0.003344   0.085421
    21  O   -0.000038  -0.000116  -0.000010  -0.000001   0.030600  -0.123983
    22  H    0.000001   0.000003  -0.000000  -0.000000   0.255474  -0.032628
    23  F    0.000243  -0.001143  -0.000002   0.000209  -0.000910   0.001250
    24  F   -0.016680   0.004088  -0.000011  -0.000219   0.000454  -0.000354
    25  F   -0.024286   0.016688  -0.000590   0.001892   0.000204  -0.000328
    26  H   -0.000000   0.000003  -0.000000   0.000000  -0.047594   0.429339
    27  H    0.000000  -0.000000  -0.000000  -0.000000  -0.051603   0.378177
    28  H   -0.000000  -0.000000  -0.000000   0.000000   0.018211  -0.012800
              19         20         21         22         23         24
     1  C   -0.226605   0.217861  -0.310984   0.008043  -0.071625  -0.106623
     2  C   -0.202863  -0.009879   0.075778  -0.008945  -0.161213   0.170814
     3  C   -0.007175  -0.012245   0.004494  -0.000093  -0.031878   0.163140
     4  C    0.442546  -0.031670   0.084123  -0.015038   0.107605  -0.075844
     5  H    0.000151   0.000007   0.000001   0.004310   0.006343  -0.000368
     6  C    0.446416  -0.145697  -0.031666  -0.029653   0.270292  -0.054895
     7  C   -0.168615  -0.304776   0.231547   0.043465   0.006262   0.041628
     8  S   -0.138449   0.137439   0.705986  -0.000715  -0.001220   0.001457
     9  C   -0.269110   0.296002  -0.409681  -0.003517  -0.021068   0.021685
    10  H    0.001805   0.003387   0.000012   0.000002   0.000011   0.000006
    11  S   -0.002399   0.006189  -0.011259   0.000044   0.013356  -0.027466
    12  O    0.000003  -0.000246  -0.000429   0.000000   0.000118  -0.000198
    13  O    0.000016  -0.000047  -0.000038   0.000001   0.000243  -0.016680
    14  N    0.000135  -0.000056  -0.000116   0.000003  -0.001143   0.004088
    15  H   -0.000001  -0.000003  -0.000010  -0.000000  -0.000002  -0.000011
    16  H    0.000000   0.000001  -0.000001  -0.000000   0.000209  -0.000219
    17  N   -0.397085   0.003344   0.030600   0.255474  -0.000910   0.000454
    18  C   -0.224619   0.085421  -0.123983  -0.032628   0.001250  -0.000354
    19  N    8.639463  -0.155659  -0.067191   0.015775  -0.000032   0.000029
    20  O   -0.155659   8.684944  -0.199548  -0.000020  -0.000003  -0.000005
    21  O   -0.067191  -0.199548   8.565979  -0.000072  -0.000007   0.000002
    22  H    0.015775  -0.000020  -0.000072   0.234348  -0.000010   0.000000
    23  F   -0.000032  -0.000003  -0.000007  -0.000010   9.288564  -0.048011
    24  F    0.000029  -0.000005   0.000002   0.000000  -0.048011   9.216179
    25  F    0.000013  -0.000007  -0.000001   0.000002  -0.034121  -0.046265
    26  H   -0.041992   0.000607   0.001268   0.000809   0.000000   0.000000
    27  H   -0.015646  -0.000580  -0.000294  -0.001428  -0.000000  -0.000000
    28  H    0.199585   0.003671   0.004846  -0.000218   0.000000   0.000000
              25         26         27         28
     1  C   -0.042791   0.002158   0.004174   0.011645
     2  C   -0.124823  -0.003359  -0.003552   0.000716
     3  C    0.112772  -0.000530   0.000007  -0.000332
     4  C    0.036041   0.008771   0.006146  -0.011017
     5  H    0.000386  -0.000007   0.000004  -0.000001
     6  C    0.004849  -0.049070   0.003222  -0.062112
     7  C    0.021399  -0.020619   0.016706  -0.027597
     8  S   -0.000179   0.032322  -0.008306   0.068777
     9  C    0.021460   0.000852   0.002490   0.026525
    10  H    0.000023  -0.000001   0.000000  -0.000005
    11  S    0.075864  -0.000107   0.000055  -0.000060
    12  O    0.001324   0.000000  -0.000000  -0.000001
    13  O   -0.024286  -0.000000   0.000000  -0.000000
    14  N    0.016688   0.000003  -0.000000  -0.000000
    15  H   -0.000590  -0.000000  -0.000000  -0.000000
    16  H    0.001892   0.000000  -0.000000   0.000000
    17  N    0.000204  -0.047594  -0.051603   0.018211
    18  C   -0.000328   0.429339   0.378177  -0.012800
    19  N    0.000013  -0.041992  -0.015646   0.199585
    20  O   -0.000007   0.000607  -0.000580   0.003671
    21  O   -0.000001   0.001268  -0.000294   0.004846
    22  H    0.000002   0.000809  -0.001428  -0.000218
    23  F   -0.034121   0.000000  -0.000000   0.000000
    24  F   -0.046265   0.000000  -0.000000   0.000000
    25  F    9.302514  -0.000000   0.000000  -0.000000
    26  H   -0.000000   0.411517  -0.021533   0.002260
    27  H    0.000000  -0.021533   0.400537  -0.004176
    28  H   -0.000000   0.002260  -0.004176   0.237716
 Mulliken charges:
               1
     1  C   -1.628245
     2  C    0.468316
     3  C    1.712586
     4  C   -1.461494
     5  H    0.301987
     6  C    0.021844
     7  C    0.274337
     8  S    1.932709
     9  C   -0.299448
    10  H    0.318384
    11  S    1.646698
    12  O   -0.644248
    13  O   -0.586156
    14  N   -1.054237
    15  H    0.509872
    16  H    0.513691
    17  N   -0.536454
    18  C   -0.311202
    19  N   -0.828494
    20  O   -0.578431
    21  O   -0.549357
    22  H    0.530061
    23  F   -0.323012
    24  F   -0.242543
    25  F   -0.322042
    26  H    0.294908
    27  H    0.295601
    28  H    0.544368
 Sum of Mulliken charges =  -0.00000
 Mulliken charges with hydrogens summed into heavy atoms:
               1
     1  C   -1.628245
     2  C    0.468316
     3  C    1.712586
     4  C   -1.159508
     6  C    0.021844
     7  C    0.274337
     8  S    1.932709
     9  C    0.018936
    11  S    1.646698
    12  O   -0.644248
    13  O   -0.586156
    14  N   -0.030674
    17  N   -0.006393
    18  C    0.279307
    19  N   -0.284126
    20  O   -0.578431
    21  O   -0.549357
    23  F   -0.323012
    24  F   -0.242543
    25  F   -0.322042
 Electronic spatial extent (au):  <R**2>=           6436.8616
 Charge=             -0.0000 electrons
 Dipole moment (field-independent basis, Debye):
    X=             -5.5295    Y=             13.6893    Z=              4.2088  Tot=             15.3521
 Quadrupole moment (field-independent basis, Debye-Ang):
   XX=           -149.0002   YY=           -129.8332   ZZ=           -127.5459
   XY=            -26.3973   XZ=             21.0577   YZ=             -8.6118
 Traceless Quadrupole moment (field-independent basis, Debye-Ang):
   XX=            -13.5405   YY=              5.6266   ZZ=              7.9139
   XY=            -26.3973   XZ=             21.0577   YZ=             -8.6118
 Octapole moment (field-independent basis, Debye-Ang**2):
  XXX=            -18.4546  YYY=            133.1980  ZZZ=             11.5246  XYY=            -44.5855
  XXY=            145.8349  XXZ=             14.8071  XZZ=             28.5390  YZZ=              8.4528
  YYZ=             21.3175  XYZ=            -13.6898
 Hexadecapole moment (field-independent basis, Debye-Ang**3):
 XXXX=          -5687.7611 YYYY=          -2038.5920 ZZZZ=           -417.0141 XXXY=           -268.8980
 XXXZ=            224.0937 YYYX=            -40.0365 YYYZ=            -47.2676 ZZZX=             85.1178
 ZZZY=            -30.9927 XXYY=          -1275.1364 XXZZ=           -970.6168 YYZZ=           -422.7121
 XXYZ=            -30.8011 YYXZ=              5.0693 ZZXY=            -36.2668
 N-N= 2.106537433169D+03 E-N=-8.620129921985D+03  KE= 1.858803419962D+03
 D1PCM: PCM CHGder 1st derivatives, ID1Alg=3 FixD1E=F DoIter=F DoCFld=F I1PDM=0.
 Calling FoFJK, ICntrl=      2127 FMM=F ISym2X=0 I1Cent= 0 IOpClX= 0 NMat=1 NMatS=1 NMatT=0.
 ***** Axes restored to original set *****
 -------------------------------------------------------------------
 Center     Atomic                   Forces (Hartrees/Bohr)
 Number     Number              X              Y              Z
 -------------------------------------------------------------------
      1        6          -0.000004226   -0.000001030   -0.000001313
      2        6           0.000002125    0.000009650   -0.000010021
      3        6           0.000004913   -0.000015794    0.000002219
      4        6           0.000002300    0.000003372    0.000002758
      5        1           0.000000867    0.000000738   -0.000004102
      6        6           0.000005054   -0.000001333    0.000008903
      7        6           0.000002539   -0.000005277   -0.000001714
      8       16          -0.000001186   -0.000003506   -0.000001469
      9        6          -0.000002252    0.000005156    0.000000959
     10        1          -0.000003055   -0.000002473   -0.000000452
     11       16          -0.000000837    0.000008531   -0.000016406
     12        8          -0.000007311   -0.000002653    0.000012605
     13        8          -0.000007561    0.000008142    0.000008080
     14        7          -0.000004343    0.000006493    0.000006377
     15        1          -0.000004963    0.000001230    0.000002106
     16        1          -0.000003944    0.000008919   -0.000001776
     17        7           0.000001483   -0.000002561   -0.000006558
     18        6           0.000008476   -0.000001703    0.000003953
     19        7          -0.000003492   -0.000002895   -0.000008160
     20        8           0.000003637   -0.000000877    0.000011179
     21        8           0.000001396   -0.000016038    0.000009629
     22        1           0.000001504   -0.000002123   -0.000003585
     23        9           0.000002414    0.000020307   -0.000005940
     24        9          -0.000001813    0.000001481   -0.000014898
     25        9          -0.000005083    0.000009655    0.000005312
     26        1           0.000003482   -0.000009083    0.000003346
     27        1           0.000006225   -0.000007536    0.000000941
     28        1           0.000003652   -0.000008792   -0.000001972
 -------------------------------------------------------------------
 Cartesian Forces:  Max     0.000020307 RMS     0.000006541

 GradGradGradGradGradGradGradGradGradGradGradGradGradGradGradGradGradGrad
 Berny optimization.
 FormGI is forming the generalized inverse of G from B-inverse, IUseBI=4.
 Internal  Forces:  Max     0.000013718 RMS     0.000004364
 Search for a local minimum.
 Step number   1 out of a maximum of  160
 All quantities printed in internal units (Hartrees-Bohrs-Radians)
 Mixed Optimization -- En-DIIS/RFO-DIIS
 Second derivative matrix not updated -- first step.
 ITU=  0
     Eigenvalues ---    0.00570   0.00576   0.01242   0.01391   0.01450
     Eigenvalues ---    0.01518   0.01588   0.01694   0.01848   0.01988
     Eigenvalues ---    0.02020   0.02128   0.02173   0.02209   0.02254
     Eigenvalues ---    0.03550   0.04499   0.05270   0.07037   0.07716
     Eigenvalues ---    0.09173   0.09788   0.09879   0.10409   0.10525
     Eigenvalues ---    0.10710   0.11492   0.11777   0.13053   0.14129
     Eigenvalues ---    0.14522   0.15703   0.15998   0.16000   0.16000
     Eigenvalues ---    0.16000   0.20000   0.20006   0.20719   0.23108
     Eigenvalues ---    0.23941   0.24661   0.24979   0.24993   0.25000
     Eigenvalues ---    0.25000   0.25000   0.25000   0.25000   0.27340
     Eigenvalues ---    0.28364   0.30914   0.34373   0.35053   0.35093
     Eigenvalues ---    0.35245   0.35364   0.36744   0.38651   0.40354
     Eigenvalues ---    0.41198   0.42858   0.43001   0.43613   0.44027
     Eigenvalues ---    0.44195   0.45236   0.45437   0.47425   0.49224
     Eigenvalues ---    0.53348   0.55567   0.56967   0.57115   0.90982
     Eigenvalues ---    0.91021   0.91496   0.91855
 RFO step:  Lambda=-2.05956279D-08 EMin= 5.69575141D-03
 Linear search not attempted -- first point.
 Iteration  1 RMS(Cart)=  0.00018595 RMS(Int)=  0.00000001
 Iteration  2 RMS(Cart)=  0.00000002 RMS(Int)=  0.00000000
 Variable       Old X    -DE/DX   Delta X   Delta X   Delta X     New X
                                 (Linear)    (Quad)   (Total)
    R1        2.67884  -0.00000   0.00000  -0.00000  -0.00000   2.67884
    R2        2.61807   0.00000   0.00000   0.00001   0.00001   2.61808
    R3        3.37304   0.00001   0.00000   0.00004   0.00004   3.37308
    R4        2.86178  -0.00000   0.00000  -0.00001  -0.00001   2.86177
    R5        2.59913  -0.00000   0.00000  -0.00000  -0.00000   2.59913
    R6        2.53299  -0.00000   0.00000  -0.00001  -0.00001   2.53299
    R7        2.53425  -0.00001   0.00000  -0.00001  -0.00001   2.53423
    R8        2.54631   0.00001   0.00000   0.00001   0.00001   2.54632
    R9        2.05088   0.00000   0.00000   0.00000   0.00000   2.05088
   R10        2.67972  -0.00000   0.00000  -0.00000  -0.00000   2.67972
   R11        2.66650  -0.00000   0.00000  -0.00000  -0.00000   2.66649
   R12        2.55138   0.00001   0.00000   0.00002   0.00002   2.55140
   R13        3.34065  -0.00000   0.00000   0.00000   0.00000   3.34065
   R14        2.62621   0.00001   0.00000   0.00001   0.00001   2.62623
   R15        3.13745   0.00001   0.00000   0.00003   0.00003   3.13748
   R16        2.75951   0.00001   0.00000   0.00001   0.00001   2.75952
   R17        2.76184   0.00001   0.00000   0.00001   0.00001   2.76185
   R18        2.05279  -0.00000   0.00000  -0.00001  -0.00001   2.05278
   R19        2.76166  -0.00000   0.00000  -0.00000  -0.00000   2.76166
   R20        2.75790   0.00001   0.00000   0.00001   0.00001   2.75791
   R21        3.11369  -0.00000   0.00000  -0.00000  -0.00000   3.11369
   R22        1.93122   0.00000   0.00000   0.00001   0.00001   1.93123
   R23        1.92922  -0.00000   0.00000  -0.00000  -0.00000   1.92922
   R24        2.74573   0.00000   0.00000   0.00001   0.00001   2.74574
   R25        1.91703   0.00000   0.00000   0.00001   0.00001   1.91703
   R26        2.76067  -0.00001   0.00000  -0.00002  -0.00002   2.76065
   R27        2.06705   0.00000   0.00000   0.00001   0.00001   2.06706
   R28        2.05525   0.00000   0.00000   0.00000   0.00000   2.05525
   R29        1.93621  -0.00000   0.00000  -0.00000  -0.00000   1.93620
    A1        2.07497  -0.00001   0.00000  -0.00003  -0.00003   2.07495
    A2        2.18462  -0.00000   0.00000  -0.00001  -0.00001   2.18460
    A3        2.02359   0.00001   0.00000   0.00004   0.00004   2.02363
    A4        2.14747  -0.00000   0.00000  -0.00001  -0.00001   2.14746
    A5        2.10281   0.00000   0.00000   0.00002   0.00002   2.10283
    A6        2.03267  -0.00000   0.00000  -0.00001  -0.00001   2.03266
    A7        1.95058  -0.00000   0.00000  -0.00000  -0.00000   1.95057
    A8        1.95913  -0.00000   0.00000  -0.00004  -0.00004   1.95908
    A9        1.95703   0.00001   0.00000   0.00008   0.00008   1.95711
   A10        1.86042  -0.00001   0.00000  -0.00010  -0.00010   1.86032
   A11        1.85524   0.00001   0.00000   0.00007   0.00007   1.85531
   A12        1.87508  -0.00000   0.00000  -0.00000  -0.00000   1.87508
   A13        2.10369  -0.00000   0.00000  -0.00000  -0.00000   2.10369
   A14        2.12164   0.00000   0.00000   0.00001   0.00001   2.12165
   A15        2.05783  -0.00000   0.00000  -0.00000  -0.00000   2.05782
   A16        2.03758  -0.00000   0.00000  -0.00001  -0.00001   2.03757
   A17        2.10050  -0.00000   0.00000   0.00000   0.00000   2.10050
   A18        2.14460   0.00000   0.00000   0.00001   0.00001   2.14461
   A19        2.08032  -0.00000   0.00000  -0.00000  -0.00000   2.08032
   A20        2.12738  -0.00000   0.00000  -0.00000  -0.00000   2.12738
   A21        2.07484   0.00000   0.00000   0.00001   0.00001   2.07485
   A22        1.78816   0.00000   0.00000   0.00001   0.00001   1.78817
   A23        1.91509  -0.00001   0.00000  -0.00004  -0.00004   1.91505
   A24        1.91047  -0.00000   0.00000  -0.00002  -0.00002   1.91045
   A25        1.88460   0.00001   0.00000   0.00003   0.00003   1.88463
   A26        1.87620   0.00000   0.00000   0.00003   0.00003   1.87623
   A27        2.06796  -0.00000   0.00000  -0.00001  -0.00001   2.06796
   A28        2.10185   0.00000   0.00000   0.00001   0.00001   2.10186
   A29        2.09015   0.00000   0.00000   0.00000   0.00000   2.09015
   A30        2.09109  -0.00000   0.00000  -0.00002  -0.00002   2.09107
   A31        1.85710   0.00001   0.00000   0.00009   0.00009   1.85719
   A32        1.89522   0.00001   0.00000   0.00006   0.00006   1.89528
   A33        1.91694  -0.00000   0.00000  -0.00001  -0.00001   1.91694
   A34        2.08262  -0.00000   0.00000  -0.00002  -0.00002   2.08261
   A35        1.84264  -0.00001   0.00000  -0.00008  -0.00008   1.84256
   A36        1.86573  -0.00001   0.00000  -0.00005  -0.00005   1.86569
   A37        1.94909   0.00000   0.00000   0.00001   0.00001   1.94910
   A38        1.96578  -0.00000   0.00000  -0.00003  -0.00003   1.96574
   A39        1.93685   0.00000   0.00000   0.00000   0.00000   1.93685
   A40        2.13753  -0.00000   0.00000  -0.00002  -0.00002   2.13752
   A41        2.06542   0.00000   0.00000   0.00001   0.00001   2.06543
   A42        2.06305   0.00000   0.00000   0.00000   0.00000   2.06306
   A43        1.94755  -0.00000   0.00000  -0.00002  -0.00002   1.94753
   A44        1.94067   0.00000   0.00000   0.00001   0.00001   1.94069
   A45        1.89681   0.00000   0.00000   0.00001   0.00001   1.89682
   A46        1.88444   0.00000   0.00000   0.00000   0.00000   1.88444
   A47        1.89174  -0.00000   0.00000  -0.00001  -0.00001   1.89173
   A48        1.90159  -0.00000   0.00000  -0.00000  -0.00000   1.90159
   A49        1.95426   0.00000   0.00000  -0.00000  -0.00000   1.95426
   A50        1.91972   0.00000   0.00000   0.00003   0.00003   1.91975
   A51        1.96625  -0.00000   0.00000  -0.00003  -0.00003   1.96623
    D1       -3.12497   0.00000   0.00000   0.00006   0.00006  -3.12491
    D2       -0.00768   0.00000   0.00000   0.00008   0.00008  -0.00760
    D3        0.02151   0.00000   0.00000   0.00013   0.00013   0.02164
    D4        3.13879   0.00000   0.00000   0.00016   0.00016   3.13895
    D5       -0.00546  -0.00000   0.00000  -0.00011  -0.00011  -0.00556
    D6        3.12066   0.00000   0.00000   0.00002   0.00002   3.12068
    D7        3.13170  -0.00000   0.00000  -0.00018  -0.00018   3.13152
    D8       -0.02537  -0.00000   0.00000  -0.00005  -0.00005  -0.02542
    D9       -2.92839  -0.00001   0.00000  -0.00005  -0.00005  -2.92844
   D10       -0.66614   0.00000   0.00000   0.00003   0.00003  -0.66611
   D11        1.36840   0.00000   0.00000   0.00001   0.00001   1.36841
   D12        0.21795  -0.00001   0.00000   0.00003   0.00003   0.21798
   D13        2.48020   0.00001   0.00000   0.00011   0.00011   2.48031
   D14       -1.76844   0.00000   0.00000   0.00008   0.00008  -1.76835
   D15       -2.85812  -0.00001   0.00000  -0.00008  -0.00008  -2.85820
   D16        1.33581   0.00001   0.00000   0.00008   0.00008   1.33590
   D17       -0.77695   0.00000   0.00000   0.00006   0.00006  -0.77688
   D18        0.30688  -0.00001   0.00000  -0.00010  -0.00010   0.30677
   D19       -1.78238   0.00001   0.00000   0.00006   0.00006  -1.78232
   D20        2.38805   0.00000   0.00000   0.00004   0.00004   2.38809
   D21       -3.13137  -0.00000   0.00000  -0.00006  -0.00006  -3.13143
   D22        0.01749   0.00000   0.00000   0.00002   0.00002   0.01751
   D23       -0.01254  -0.00000   0.00000  -0.00004  -0.00004  -0.01258
   D24        3.13632   0.00000   0.00000   0.00004   0.00004   3.13636
   D25       -0.01356  -0.00000   0.00000  -0.00009  -0.00009  -0.01365
   D26       -3.12198  -0.00000   0.00000  -0.00013  -0.00013  -3.12210
   D27        3.13512  -0.00000   0.00000  -0.00001  -0.00001   3.13510
   D28        0.02670  -0.00000   0.00000  -0.00005  -0.00005   0.02665
   D29       -3.10245   0.00000   0.00000   0.00005   0.00005  -3.10240
   D30        0.00024   0.00000   0.00000   0.00007   0.00007   0.00031
   D31        0.00505   0.00000   0.00000   0.00009   0.00009   0.00514
   D32        3.10774   0.00000   0.00000   0.00010   0.00010   3.10784
   D33       -2.99514  -0.00000   0.00000   0.00004   0.00004  -2.99510
   D34       -0.05532  -0.00000   0.00000   0.00001   0.00001  -0.05531
   D35        0.18173  -0.00000   0.00000   0.00000   0.00000   0.18174
   D36        3.12155  -0.00000   0.00000  -0.00003  -0.00003   3.12152
   D37        0.31866  -0.00000   0.00000  -0.00010  -0.00010   0.31856
   D38        2.31742   0.00000   0.00000  -0.00008  -0.00008   2.31734
   D39       -1.66870  -0.00000   0.00000  -0.00014  -0.00014  -1.66884
   D40       -2.78521  -0.00000   0.00000  -0.00012  -0.00012  -2.78533
   D41       -0.78645   0.00000   0.00000  -0.00009  -0.00009  -0.78654
   D42        1.51061  -0.00000   0.00000  -0.00015  -0.00015   1.51046
   D43        0.00915   0.00000   0.00000   0.00003   0.00003   0.00918
   D44       -3.11697  -0.00000   0.00000  -0.00009  -0.00009  -3.11706
   D45        3.11195   0.00000   0.00000   0.00005   0.00005   3.11200
   D46       -0.01416  -0.00000   0.00000  -0.00008  -0.00008  -0.01424
   D47       -0.85310  -0.00000   0.00000   0.00004   0.00004  -0.85306
   D48        1.34728  -0.00000   0.00000   0.00002   0.00002   1.34731
   D49       -2.87403   0.00000   0.00000   0.00006   0.00006  -2.87396
   D50       -0.67365   0.00000   0.00000   0.00005   0.00005  -0.67360
   D51        1.15930  -0.00000   0.00000   0.00003   0.00003   1.15933
   D52       -2.92351  -0.00000   0.00000   0.00002   0.00002  -2.92349
   D53        1.08499   0.00000   0.00000   0.00002   0.00002   1.08501
   D54       -1.10820   0.00000   0.00000   0.00003   0.00003  -1.10817
   D55       -0.91067  -0.00001   0.00000  -0.00004  -0.00004  -0.91071
   D56       -3.10386  -0.00001   0.00000  -0.00003  -0.00003  -3.10389
   D57        3.13798   0.00001   0.00000   0.00006   0.00006   3.13804
   D58        0.94479   0.00001   0.00000   0.00007   0.00007   0.94486
   D59       -0.75970  -0.00000   0.00000  -0.00007  -0.00007  -0.75977
   D60        1.34543  -0.00000   0.00000  -0.00007  -0.00007   1.34535
   D61       -2.84474  -0.00000   0.00000  -0.00006  -0.00006  -2.84480
   D62        2.58340  -0.00000   0.00000  -0.00004  -0.00004   2.58336
   D63       -1.59465  -0.00000   0.00000  -0.00004  -0.00004  -1.59470
   D64        0.49836  -0.00000   0.00000  -0.00003  -0.00003   0.49833
   D65        1.11329   0.00000   0.00000   0.00004   0.00004   1.11332
   D66       -1.06147  -0.00000   0.00000   0.00002   0.00002  -1.06145
   D67       -1.02443   0.00000   0.00000   0.00003   0.00003  -1.02440
   D68        3.08400  -0.00000   0.00000   0.00001   0.00001   3.08401
   D69       -3.08186   0.00000   0.00000   0.00003   0.00003  -3.08182
   D70        1.02657  -0.00000   0.00000   0.00002   0.00002   1.02659
         Item               Value     Threshold  Converged?
 Maximum Force            0.000014     0.000450     YES
 RMS     Force            0.000004     0.000300     YES
 Maximum Displacement     0.000678     0.001800     YES
 RMS     Displacement     0.000186     0.001200     YES
 Predicted change in Energy=-1.029779D-08
 Optimization completed.
    -- Stationary point found.
                           ----------------------------
                           !   Optimized Parameters   !
                           ! (Angstroms and Degrees)  !
 --------------------------                            --------------------------
 ! Name  Definition              Value          Derivative Info.                !
 --------------------------------------------------------------------------------
 ! R1    R(1,2)                  1.4176         -DE/DX =    0.0                 !
 ! R2    R(1,9)                  1.3854         -DE/DX =    0.0                 !
 ! R3    R(1,11)                 1.7849         -DE/DX =    0.0                 !
 ! R4    R(2,3)                  1.5144         -DE/DX =    0.0                 !
 ! R5    R(2,4)                  1.3754         -DE/DX =    0.0                 !
 ! R6    R(3,23)                 1.3404         -DE/DX =    0.0                 !
 ! R7    R(3,24)                 1.3411         -DE/DX =    0.0                 !
 ! R8    R(3,25)                 1.3475         -DE/DX =    0.0                 !
 ! R9    R(4,5)                  1.0853         -DE/DX =    0.0                 !
 ! R10   R(4,6)                  1.418          -DE/DX =    0.0                 !
 ! R11   R(6,7)                  1.4111         -DE/DX =    0.0                 !
 ! R12   R(6,17)                 1.3501         -DE/DX =    0.0                 !
 ! R13   R(7,8)                  1.7678         -DE/DX =    0.0                 !
 ! R14   R(7,9)                  1.3897         -DE/DX =    0.0                 !
 ! R15   R(8,19)                 1.6603         -DE/DX =    0.0                 !
 ! R16   R(8,20)                 1.4603         -DE/DX =    0.0                 !
 ! R17   R(8,21)                 1.4615         -DE/DX =    0.0                 !
 ! R18   R(9,10)                 1.0863         -DE/DX =    0.0                 !
 ! R19   R(11,12)                1.4614         -DE/DX =    0.0                 !
 ! R20   R(11,13)                1.4594         -DE/DX =    0.0                 !
 ! R21   R(11,14)                1.6477         -DE/DX =    0.0                 !
 ! R22   R(14,15)                1.022          -DE/DX =    0.0                 !
 ! R23   R(14,16)                1.0209         -DE/DX =    0.0                 !
 ! R24   R(17,18)                1.453          -DE/DX =    0.0                 !
 ! R25   R(17,22)                1.0144         -DE/DX =    0.0                 !
 ! R26   R(18,19)                1.4609         -DE/DX =    0.0                 !
 ! R27   R(18,26)                1.0938         -DE/DX =    0.0                 !
 ! R28   R(18,27)                1.0876         -DE/DX =    0.0                 !
 ! R29   R(19,28)                1.0246         -DE/DX =    0.0                 !
 ! A1    A(2,1,9)              118.8872         -DE/DX =    0.0                 !
 ! A2    A(2,1,11)             125.1694         -DE/DX =    0.0                 !
 ! A3    A(9,1,11)             115.9429         -DE/DX =    0.0                 !
 ! A4    A(1,2,3)              123.0409         -DE/DX =    0.0                 !
 ! A5    A(1,2,4)              120.4823         -DE/DX =    0.0                 !
 ! A6    A(3,2,4)              116.4632         -DE/DX =    0.0                 !
 ! A7    A(2,3,23)             111.7599         -DE/DX =    0.0                 !
 ! A8    A(2,3,24)             112.2496         -DE/DX =    0.0                 !
 ! A9    A(2,3,25)             112.1295         -DE/DX =    0.0                 !
 ! A10   A(23,3,24)            106.5944         -DE/DX =    0.0                 !
 ! A11   A(23,3,25)            106.2975         -DE/DX =    0.0                 !
 ! A12   A(24,3,25)            107.4341         -DE/DX =    0.0                 !
 ! A13   A(2,4,5)              120.5328         -DE/DX =    0.0                 !
 ! A14   A(2,4,6)              121.5612         -DE/DX =    0.0                 !
 ! A15   A(5,4,6)              117.9047         -DE/DX =    0.0                 !
 ! A16   A(4,6,7)              116.7449         -DE/DX =    0.0                 !
 ! A17   A(4,6,17)             120.3497         -DE/DX =    0.0                 !
 ! A18   A(7,6,17)             122.8765         -DE/DX =    0.0                 !
 ! A19   A(6,7,8)              119.1938         -DE/DX =    0.0                 !
 ! A20   A(6,7,9)              121.8898         -DE/DX =    0.0                 !
 ! A21   A(8,7,9)              118.8797         -DE/DX =    0.0                 !
 ! A22   A(7,8,19)             102.4541         -DE/DX =    0.0                 !
 ! A23   A(7,8,20)             109.7265         -DE/DX =    0.0                 !
 ! A24   A(7,8,21)             109.4616         -DE/DX =    0.0                 !
 ! A25   A(19,8,20)            107.9797         -DE/DX =    0.0                 !
 ! A26   A(19,8,21)            107.4981         -DE/DX =    0.0                 !
 ! A27   A(20,8,21)            118.4857         -DE/DX =    0.0                 !
 ! A28   A(1,9,7)              120.4269         -DE/DX =    0.0                 !
 ! A29   A(1,9,10)             119.7566         -DE/DX =    0.0                 !
 ! A30   A(7,9,10)             119.8105         -DE/DX =    0.0                 !
 ! A31   A(1,11,12)            106.4042         -DE/DX =    0.0                 !
 ! A32   A(1,11,13)            108.5878         -DE/DX =    0.0                 !
 ! A33   A(1,11,14)            109.8328         -DE/DX =    0.0                 !
 ! A34   A(12,11,13)           119.3255         -DE/DX =    0.0                 !
 ! A35   A(12,11,14)           105.5755         -DE/DX =    0.0                 !
 ! A36   A(13,11,14)           106.8986         -DE/DX =    0.0                 !
 ! A37   A(11,14,15)           111.6745         -DE/DX =    0.0                 !
 ! A38   A(11,14,16)           112.6306         -DE/DX =    0.0                 !
 ! A39   A(15,14,16)           110.9735         -DE/DX =    0.0                 !
 ! A40   A(6,17,18)            122.4716         -DE/DX =    0.0                 !
 ! A41   A(6,17,22)            118.3401         -DE/DX =    0.0                 !
 ! A42   A(18,17,22)           118.2043         -DE/DX =    0.0                 !
 ! A43   A(17,18,19)           111.5864         -DE/DX =    0.0                 !
 ! A44   A(17,18,26)           111.1924         -DE/DX =    0.0                 !
 ! A45   A(17,18,27)           108.6792         -DE/DX =    0.0                 !
 ! A46   A(19,18,26)           107.9704         -DE/DX =    0.0                 !
 ! A47   A(19,18,27)           108.3887         -DE/DX =    0.0                 !
 ! A48   A(26,18,27)           108.9532         -DE/DX =    0.0                 !
 ! A49   A(8,19,18)            111.9707         -DE/DX =    0.0                 !
 ! A50   A(8,19,28)            109.9921         -DE/DX =    0.0                 !
 ! A51   A(18,19,28)           112.6579         -DE/DX =    0.0                 !
 ! D1    D(9,1,2,3)           -179.0474         -DE/DX =    0.0                 !
 ! D2    D(9,1,2,4)             -0.4403         -DE/DX =    0.0                 !
 ! D3    D(11,1,2,3)             1.2323         -DE/DX =    0.0                 !
 ! D4    D(11,1,2,4)           179.8394         -DE/DX =    0.0                 !
 ! D5    D(2,1,9,7)             -0.3126         -DE/DX =    0.0                 !
 ! D6    D(2,1,9,10)           178.8009         -DE/DX =    0.0                 !
 ! D7    D(11,1,9,7)           179.4331         -DE/DX =    0.0                 !
 ! D8    D(11,1,9,10)           -1.4534         -DE/DX =    0.0                 !
 ! D9    D(2,1,11,12)         -167.7846         -DE/DX =    0.0                 !
 ! D10   D(2,1,11,13)          -38.1673         -DE/DX =    0.0                 !
 ! D11   D(2,1,11,14)           78.4038         -DE/DX =    0.0                 !
 ! D12   D(9,1,11,12)           12.4877         -DE/DX =    0.0                 !
 ! D13   D(9,1,11,13)          142.1051         -DE/DX =    0.0                 !
 ! D14   D(9,1,11,14)         -101.3239         -DE/DX =    0.0                 !
[...]
 001191,-0.00002530,-0.00002073,0.00002912,-0.00180510,-0.00086771,0.00
 377344,0.00443357,0.00149757,-0.00124250,-0.00755683,0.03384377,-0.000
 45840,-0.00122886,-0.02103779,0.01017743,-0.00363225,0.02290198,0.0588
 6001,0.00046466,0.00003591,0.00192645,-0.00075491,0.00004191,-0.001555
 81,0.00063667,-0.00007248,-0.00019545,0.00011798,-0.00020157,0.0054410
 2,-0.00099094,0.00003276,-0.00088664,0.01092831,-0.00217140,-0.0010747
 2,0.00191776,0.00047469,0.00491378,-0.00199031,-0.00053608,0.00295178,
 0.00083490,0.00013844,-0.00058769,-0.00001567,0.00000858,0.00014251,0.
 00004566,-0.00005619,-0.00211867,0.00027367,-0.00001038,0.00045370,-0.
 00026413,0.00017684,0.00047555,-0.00013312,-0.00030156,0.00056890,-0.0
 0004451,0.00008064,-0.00004786,0.00007560,0.00003446,-0.00003782,-0.33
 626968,0.03977677,-0.17745071,-0.01152983,-0.00030319,-0.01318235,-0.0
 0441839,0.00098582,-0.00019097,0.00063777,0.00012764,-0.00032477,0.000
 56058,-0.00021386,-0.00046986,0.33975809,-0.00027944,0.00004575,-0.000
 43583,0.00027983,-0.00068116,0.00050099,-0.00019881,0.00024293,0.00007
 643,0.00004027,-0.00242900,-0.00126044,0.00014443,-0.00003717,0.000014
 22,-0.00107787,-0.00408009,0.00363150,-0.00081752,0.00399357,-0.000504
 81,0.00089198,-0.00072236,0.00054595,0.00021510,0.00144558,-0.00009852
 ,0.00001763,-0.00023627,-0.00001698,-0.00001266,0.00007503,0.00049953,
 -0.00006847,-0.00003517,-0.00010776,0.00006235,-0.00005536,-0.00010586
 ,0.00001917,0.00005299,-0.00014122,0.00001161,-0.00001923,0.00001297,-
 0.00001593,-0.00000671,0.00001081,0.03437608,-0.00175688,0.01206738,0.
 00705842,-0.00528515,0.00291527,-0.00403062,-0.00012204,-0.00067634,-0
 .00023985,-0.00012243,-0.00034855,-0.00010729,0.00015141,0.00012216,-0
 .03771866,0.00987295,0.00068239,-0.00003007,0.00095800,-0.00053977,0.0
 0009010,-0.00074598,0.00043269,-0.00011026,-0.00020043,-0.00231045,0.0
 0063428,0.00105265,0.00147379,-0.00028432,-0.00028991,-0.02891707,0.00
 281879,-0.02172489,0.00369158,-0.00078174,-0.00268995,-0.00017126,0.00
 104639,-0.00293208,-0.00169077,0.00024073,-0.00026300,0.00016373,-0.00
 002565,-0.00028488,0.00002602,-0.00002695,-0.00077863,0.00016297,-0.00
 000887,0.00015303,-0.00007823,0.00005730,0.00016412,-0.00005033,-0.000
 10323,0.00019971,-0.00001659,0.00002839,-0.00001736,0.00002265,0.00001
 480,-0.00001446,-0.17213802,0.01362891,-0.17901068,0.01125563,-0.00015
 287,0.01332517,0.00639639,-0.00067003,0.00082710,0.00020588,0.00013792
 ,0.00075856,0.00013390,-0.00045538,0.00033584,0.18121024,-0.01550780,0
 .19060290,-0.00467316,-0.00014709,0.00789389,-0.03801072,-0.00729681,-
 0.03613739,-0.19888482,-0.02337441,-0.09172892,-0.00445930,0.00040239,
 0.00033617,-0.00418844,-0.00025475,0.00154313,0.00157598,0.00018230,-0
 .00299787,-0.00099674,-0.00004841,0.00052893,0.00275584,-0.00049739,-0
 .00102289,-0.00240079,0.00074034,-0.00291443,-0.00059395,0.00029313,0.
 00060131,0.00169284,-0.00034826,0.00465947,-0.00121358,-0.00005606,-0.
 00135165,-0.00022246,-0.00050524,-0.00153529,0.00008751,0.00089515,-0.
 00096745,0.00008730,-0.00019285,0.00001601,0.00002397,-0.00042409,0.00
 040370,-0.00053002,-0.00025718,0.00223312,0.00069136,-0.00010414,-0.00
 021911,-0.00056564,-0.00000797,0.00055915,-0.00098579,-0.00028459,-0.0
 0002155,-0.00080597,0.00070855,0.00026435,-0.00022242,0.00008315,-0.00
 014520,0.23682184,-0.00009646,0.00144556,0.00016805,0.00114776,0.00771
 267,-0.00039247,-0.02594918,-0.07206827,-0.02135407,0.00124716,-0.0000
 0190,-0.00067987,-0.00024390,-0.00003516,0.00024169,-0.00030448,0.0000
 7019,0.00024306,0.00009123,0.00003412,0.00026776,-0.00001637,-0.000023
 57,0.00000435,0.00017899,-0.00035862,-0.00037023,-0.00003500,-0.000181
 17,0.00002133,0.00007442,-0.00048886,-0.00001535,-0.00008878,0.0000678
 8,-0.00002351,-0.00030610,0.00049672,-0.00024324,0.00004937,0.00009957
 ,-0.00000537,0.00002904,0.00002350,0.00002106,-0.00010646,0.00014482,-
 0.00012343,0.00004176,0.00004692,-0.00011629,-0.00004081,0.00000676,0.
 00000416,0.00002935,0.00000208,0.00000233,0.00001709,0.00001229,0.0000
 1187,0.00000589,0.00000665,-0.00000842,0.00001214,-0.00001660,0.000005
 70,0.04368047,0.09257856,-0.00016727,-0.00024057,0.00170587,-0.0052528
 4,-0.00200610,-0.00041044,-0.10414125,-0.02201246,-0.15310821,0.002940
 27,0.00095963,-0.00435412,0.00415125,-0.00037244,0.00107543,0.00106398
 ,0.00024065,0.00110474,0.00006409,-0.00010268,0.00005102,0.00052188,-0
 .00009230,-0.00009764,-0.00011980,0.00006443,-0.00033522,-0.00010850,0
 .00006497,0.00011372,0.00321027,-0.00010895,0.00073932,-0.00088825,-0.
 00001960,-0.00020608,-0.00151049,-0.00024542,-0.00091874,-0.00043733,0
 .00062590,-0.00033120,-0.00004894,-0.00017265,-0.00010547,0.00047742,-
 0.00096586,0.00082590,-0.00021056,-0.00002320,0.00030017,0.00000965,-0
 .00002242,-0.00000956,-0.00007109,0.00000324,0.00011486,-0.00009994,-0
 .00000722,-0.00000506,-0.00012792,0.00008043,0.00002359,-0.00006600,0.
 00002306,0.00002338,0.15952483,0.04589291,0.25659810,0.00076361,-0.000
 21866,0.00056219,-0.00295745,0.03467899,0.01558844,-0.08657922,0.04626
 637,0.01826769,-0.00421719,0.00131739,-0.00106513,0.00016086,0.0010133
 7,0.00014437,0.00110607,-0.00237834,-0.00064897,-0.00139751,0.00024047
 ,0.00035113,0.00264600,-0.00023814,-0.00099767,-0.00066987,-0.00102811
 ,0.00030668,-0.00009061,-0.00000832,0.00009972,0.00180116,-0.00124433,
 0.00176341,-0.00107276,0.00019887,-0.00064700,-0.00293118,0.00178954,-
 0.00374731,0.00013306,0.00083607,-0.00080466,0.00013472,-0.00008298,0.
 00009766,-0.00017918,-0.00005128,0.00001456,-0.00068240,-0.00004068,0.
 00119379,0.00043777,0.00001564,-0.00012495,-0.00040758,0.00000453,0.00
 049641,-0.00087831,-0.00024948,-0.00003762,-0.00082778,0.00066123,0.00
 028386,-0.00015206,0.00001579,-0.00010686,0.00619997,-0.03453917,-0.02
 327114,0.07697699,-0.00032377,0.00036785,-0.00154087,0.00823179,-0.021
 53752,-0.01272988,0.05180411,-0.24118115,-0.06445680,0.00418004,-0.000
 99485,0.00072033,-0.00019838,-0.00079690,0.00032384,-0.00079864,0.0015
 7815,0.00055672,0.00091931,-0.00018688,-0.00017977,-0.00224911,0.00018
 925,0.00083288,0.00111054,0.00060979,0.00020226,0.00017773,-0.00001618
 ,-0.00016295,-0.00077580,-0.00200286,-0.00277443,0.00065996,0.00027026
 ,0.00082452,-0.00019722,0.00179049,0.00093692,0.00012221,-0.00045803,0
 .00105517,0.00001430,0.00026122,0.00000721,-0.00044408,0.00073466,-0.0
 0089871,0.00072818,0.00004972,-0.00129814,-0.00050707,0.00001090,0.000
 09803,0.00039069,0.00001949,-0.00041493,0.00078857,0.00025169,0.000036
 24,0.00071176,-0.00057072,-0.00023405,0.00013147,-0.00003473,0.0001232
 5,-0.02387521,-0.03689382,-0.04287200,-0.03896693,0.37648663,-0.000200
 68,-0.00064040,-0.00192156,0.00853585,-0.01998247,0.00236896,0.0190614
 9,-0.06535118,-0.08876075,0.00128800,0.00003540,0.00040204,-0.00024648
 ,-0.00060267,0.00017331,-0.00114315,0.00132610,0.00079261,0.00082215,-
 0.00015398,0.00062332,-0.00117690,0.00011252,0.00049046,0.00142395,0.0
 0045637,-0.00027899,0.00017721,0.00008563,-0.00014815,0.00352962,-0.00
 346904,-0.00336934,-0.00108697,0.00048700,0.00063264,-0.00599247,0.003
 58645,-0.00362024,-0.00029654,0.00055040,0.00046531,0.00007180,0.00008
 360,-0.00004471,0.00011383,-0.00015332,0.00023174,0.00033810,0.0000251
 6,-0.00058239,-0.00023850,-0.00005993,0.00005977,0.00020548,-0.0000127
 4,-0.00020878,0.00042489,0.00011708,0.00000281,0.00038345,-0.00031902,
 -0.00013833,0.00007500,0.00000080,0.00005577,-0.01674803,-0.05070941,-
 0.02734183,-0.00581645,0.09813004,0.11135982,0.00137893,0.00063874,0.0
 0015063,-0.00394040,-0.02190007,0.03559514,-0.09636936,-0.03232256,0.0
 5146797,-0.00705732,0.00001129,-0.00108842,0.00009659,-0.00061018,0.00
 002622,0.00116703,0.00134848,0.00035751,-0.00080296,0.00000740,0.00086
 054,0.00224969,-0.00040468,-0.00078804,0.00028371,0.00016169,-0.000426
 14,-0.00003249,0.00001488,0.00005304,0.00095135,-0.00231432,0.00120139
 ,-0.00131591,0.00032683,-0.00059456,-0.00378224,-0.00292496,-0.0040131
 5,-0.00135779,0.00195180,-0.00157845,-0.00005642,-0.00016508,-0.000397
 76,-0.00426123,0.00168103,-0.00188049,-0.00094980,0.00011721,0.0013157
 2,0.00056904,-0.00019848,0.00002010,-0.00043481,0.00000842,0.00039386,
 -0.00079602,-0.00023120,-0.00005183,-0.00064852,0.00053753,0.00019557,
 -0.00013829,0.00005907,-0.00012997,0.00900320,0.01511283,-0.03543167,0
 .01281121,-0.00178899,-0.00357707,0.09358303,0.00123245,0.00046227,-0.
 00010335,-0.00094866,0.00053769,0.01116649,-0.03729766,-0.12144364,0.0
 8359690,-0.00333545,0.00026011,0.00005591,0.00005191,0.00007130,-0.000
 26650,0.00085295,-0.00015367,0.00026446,-0.00021098,-0.00002597,-0.000
 20505,0.00059167,-0.00014547,-0.00020160,-0.00054514,0.00013424,-0.000
 01621,-0.00004842,-0.00001447,0.00003736,-0.00169791,-0.00491187,-0.00
 082603,-0.00027448,0.00063731,-0.00023094,-0.00399888,-0.00028128,-0.0
 0236817,0.00160261,-0.00043069,0.00094749,0.00038974,0.00030931,0.0003
 7513,0.00144754,-0.00074759,-0.00023213,-0.00048678,0.00005128,0.00057
 579,0.00026503,-0.00004224,0.00000644,-0.00014324,0.00000589,0.0000874
 4,-0.00023355,-0.00006309,-0.00001213,-0.00017708,0.00017837,0.0000517
 4,-0.00004715,0.00001180,-0.00007139,0.01050377,0.00732756,0.02129296,
 -0.00813353,-0.07780189,0.03651766,0.04072796,0.19601941,-0.00096748,-
 0.00033905,-0.00043570,0.01016411,0.02117307,-0.02216193,0.05542017,0.
 08349391,-0.18561332,0.00568726,-0.00005448,0.00095298,-0.00023895,0.0
 0068292,0.00065576,-0.00161841,-0.00145943,0.00001026,0.00108122,0.000
 06165,0.00012497,-0.00198017,0.00046954,0.00078665,0.00103388,-0.00104
 497,-0.00002951,0.00016629,0.00000403,-0.00013372,0.00676807,-0.000050
 29,-0.00377341,-0.00130342,0.00009579,0.00090612,-0.00685647,-0.002825
 92,-0.00155267,-0.00208114,0.00144614,-0.00074179,-0.00037482,-0.00039
 901,-0.00054812,-0.00088556,-0.00132621,0.00067971,0.00087521,-0.00005
 800,-0.00090984,-0.00047796,0.00022069,-0.00005221,0.00039959,-0.00003
 683,-0.00034389,0.00077077,0.00020104,0.00004260,0.00056329,-0.0004919
 4,-0.00019505,0.00009381,-0.00006545,0.00013592,-0.02277236,0.02715698
 ,-0.07544527,-0.00191874,0.02374470,0.00877047,-0.04167952,-0.15046492
 ,0.27887475,0.00104020,-0.00003314,0.00172897,-0.00083620,-0.00021072,
 -0.00198506,0.00058975,-0.00003977,-0.00029293,-0.00231761,-0.00032115
 ,0.00276944,0.00006880,0.00014268,0.00002351,0.00073723,0.00168490,-0.
 01106453,0.00211890,-0.00023062,0.00046881,-0.00115903,-0.00287678,0.0
 0308639,-0.00003705,0.00001519,-0.00007587,-0.00001035,0.00001134,0.00
 002158,0.00009029,-0.00001910,-0.00182497,0.00025824,-0.00002097,0.000
 38395,-0.00022462,0.00014253,0.00039124,-0.00011537,-0.00025005,0.0004
 7068,-0.00003827,0.00006962,-0.00003978,0.00006173,0.00003001,-0.00003
 062,-0.01750800,0.03097102,0.01475502,-0.04808807,0.03578386,-0.002321
 40,-0.00338904,-0.03454188,-0.00245016,0.00040500,0.00040020,-0.000426
 43,0.00043870,0.00051302,-0.00024302,-0.00058848,0.00111831,0.00081881
 ,-0.00020364,0.00000822,-0.00001741,-0.00015614,0.00015256,0.00009309,
 -0.00012044,-0.00006221,0.00010669,0.07076052,0.00018801,-0.00004099,-
 0.00038744,-0.00014260,0.00001871,0.00003001,-0.00006375,0.00001099,0.
 00001658,0.00016703,-0.00018519,-0.00042554,-0.00004148,0.00000705,0.0
 0000041,-0.00018171,0.00053870,0.00142395,-0.00009821,-0.00025071,-0.0
 0115447,0.00034425,-0.00347311,0.00103489,-0.00005445,-0.00007138,0.00
 037595,0.00000427,0.00000497,-0.00000211,0.00001366,0.00002738,0.00044
 244,-0.00006433,-0.00000072,-0.00009050,0.00005029,-0.00003930,-0.0001
 0287,0.00002760,0.00006674,-0.00013033,0.00001065,-0.00001858,0.000010
 71,-0.00001831,-0.00000766,0.00001001,0.00969831,-0.00093773,-0.003117
 49,0.02804567,-0.32063782,0.00521324,-0.00512551,-0.01550622,-0.001394
 30,-0.00008377,0.00045264,-0.00040324,0.00139136,0.00094988,0.00160897
 ,-0.00008822,-0.00093922,-0.00086192,0.00003390,-0.00000108,-0.0000027
 2,0.00001129,-0.00001711,-0.00000050,0.00002427,0.00001201,-0.00001172
 ,-0.03331615,0.34611856,-0.00068536,0.00008258,-0.00013795,0.00040719,
 0.00016621,0.00071730,-0.00007942,-0.00004614,0.00005012,0.00074519,0.
 00056252,-0.00093441,-0.00004176,-0.00010998,0.00000315,-0.00029321,-0
 .00153538,0.00328469,-0.00056965,0.00059973,0.00054604,0.00003844,-0.0
 0313526,-0.00137021,0.00033472,0.00012136,-0.00058998,0.00001118,-0.00
 000495,-0.00001414,-0.00004602,-0.00005475,0.00009540,-0.00001409,0.00
 000829,-0.00002916,0.00001642,-0.00001537,-0.00002284,0.00001009,0.000
 00633,0.00000006,0.00000043,-0.00000226,0.00000089,0.00000074,-0.00000
 139,-0.00000066,0.01010949,-0.01845065,-0.00106816,-0.00130697,0.01419
 647,-0.05667737,-0.00388931,-0.01928168,0.00012389,-0.00006713,0.00036
 073,0.00023974,-0.00064618,0.00019668,-0.00006818,0.00019622,-0.000964
 04,-0.00044977,0.00001648,-0.00000087,-0.00000060,0.00003342,-0.000032
 16,-0.00002474,0.00000419,0.00001544,-0.00000740,0.00037095,-0.0009654
 4,0.05474107,0.00024583,-0.00002230,0.00034079,-0.00061413,0.00016925,
 -0.00039158,0.00024399,-0.00009459,-0.00000272,0.00003057,0.00043627,0
 .00182315,0.00002733,-0.00004896,-0.00003294,-0.00500035,-0.00017742,-
 0.00124518,0.00041637,0.00045667,-0.00013660,-0.00205781,-0.00442139,0
 .00187076,0.00037291,-0.00005769,0.00005338,-0.00003479,0.00001490,0.0
 0006437,0.00003756,-0.00000231,-0.00046327,0.00007412,-0.00000497,0.00
 010519,-0.00004985,0.00003052,0.00009721,-0.00002923,-0.00006103,0.000
 11459,-0.00000964,0.00001737,-0.00001120,0.00001310,0.00000853,-0.0000
 0847,-0.00247873,-0.00678631,0.03647586,-0.05024971,0.00369694,-0.0132
 4453,-0.00700187,0.00982903,-0.03116138,-0.00157944,-0.00046473,-0.003
 10654,0.00006862,0.00113958,-0.00054423,0.00110007,0.00011287,-0.00012
 284,-0.00007042,0.00000521,-0.00000176,-0.00005031,0.00006569,0.000019
 80,-0.00010051,-0.00004562,0.00009426,0.00120908,0.00074845,-0.0022854
 6,0.06471512,-0.00009836,0.00000106,-0.00015225,0.00018309,-0.00009574
 ,0.00013315,-0.00009724,0.00003529,0.00000554,0.00013585,-0.00017661,-
 0.00067611,-0.00000561,0.00001629,0.00000688,0.00206916,0.00031473,-0.
 00010739,-0.00042777,0.00024458,-0.00012593,-0.00145187,-0.00329586,-0
 .00121629,0.00006030,-0.00012113,-0.00001599,-0.00000678,0.00000067,0.
 00000615,0.00000197,0.00003705,0.00020426,-0.00002860,-0.00000538,-0.0
 0004810,0.00002105,-0.00002383,-0.00004546,0.00001488,0.00003561,-0.00
 006404,0.00000529,-0.00000941,0.00000401,-0.00000793,-0.00000428,0.000
 00407,0.00222983,0.00421537,-0.01588515,0.00479695,-0.08692068,0.10241
 755,-0.00472576,0.00631513,-0.01859401,-0.00084708,0.00002161,-0.00158
 941,0.00046392,0.00113558,0.00078699,-0.00050669,0.00048902,0.00049691
 ,0.00002961,-0.00000231,0.00000121,0.00002330,-0.00002777,-0.00000864,
 0.00003555,0.00001587,-0.00003349,0.00213030,-0.00717809,0.02932905,-0
 .00484489,0.08453093,-0.00004092,-0.00001863,-0.00018041,0.00026057,-0
 .00008986,0.00012119,-0.00017603,0.00005097,0.00002431,-0.00000159,-0.
 00016922,-0.00081655,-0.00000268,0.00001312,-0.00001096,0.00254422,0.0
 0046442,0.00177402,-0.00022022,0.00004697,0.00017704,-0.00025962,-0.00
 208464,0.00216427,-0.00005522,0.00003348,0.00004846,0.00000132,0.00000
 230,-0.00000235,-0.00000645,0.00000736,0.00028995,-0.00004482,-0.00000
 121,-0.00007436,0.00003768,-0.00002954,-0.00007441,0.00001806,0.000045
 08,-0.00007614,0.00000598,-0.00001154,0.00000605,-0.00000943,-0.000006
 35,0.00000583,0.00306534,0.00272756,-0.01617376,-0.01013737,0.08986757
 ,-0.31036374,-0.00623060,0.00344774,-0.01269903,-0.00035093,-0.0000866
 6,-0.00075090,0.00001160,0.00046082,0.00003113,-0.00014589,-0.00010711
 ,0.00056176,0.00005402,-0.00000038,0.00000229,0.00004325,-0.00004910,-
 0.00001856,0.00005856,0.00002491,-0.00005280,-0.00007346,0.00043053,0.
 00287727,0.01107286,-0.09495226,0.33304598,0.00011646,-0.00007818,-0.0
 0019606,0.00015919,0.00004578,-0.00003928,-0.00029706,0.00004489,0.000
 11228,0.00006639,-0.00004305,-0.00006889,0.00001442,-0.00002738,-0.000
 02530,-0.00030084,-0.00010066,0.00126519,-0.00020033,-0.00007262,0.000
 63936,-0.00074841,0.00227179,0.01270545,-0.00018889,0.00029613,0.00029
 122,0.00001627,0.00003952,-0.00001298,-0.00000656,-0.00003137,0.000428
 37,-0.00006776,-0.00000302,-0.00011320,0.00005806,-0.00004537,-0.00012
 512,0.00002294,0.00005916,-0.00009991,0.00000968,-0.00001556,0.0000094
 8,-0.00001412,-0.00000807,0.00001184,0.00217728,0.00000195,-0.00012326
 ,-0.00315475,-0.03193426,-0.00041704,-0.02900592,0.03271773,-0.0263518
 6,-0.00165700,-0.00144069,-0.00099115,0.00099044,0.00357139,-0.0049817
 0,0.00016102,0.00006102,-0.00025929,0.00008806,-0.00000422,0.00000854,
 0.00007811,-0.00006375,-0.00004046,0.00007072,0.00002110,-0.00006961,-
 0.00298613,-0.00148053,-0.00237061,0.00077213,0.00084755,0.00058177,0.
 03382658,0.00035358,-0.00009037,-0.00037370,0.00010728,-0.00000212,-0.
 00026781,-0.00039219,0.00009857,0.00012780,-0.00004940,-0.00007936,0.0
 0010997,0.00003108,-0.00000437,-0.00003813,-0.00036580,-0.00013720,0.0
 0032018,-0.00042312,0.00067082,-0.00154658,0.00450993,-0.01170220,0.00
 460440,0.00031503,0.00015630,0.00050308,0.00000361,0.00002025,0.000058
 21,0.00004263,-0.00002423,0.00059810,-0.00008825,-0.00000082,-0.000161
 74,0.00009367,-0.00008826,-0.00020242,0.00003248,0.00010043,-0.0001499
 0,0.00001362,-0.00002055,0.00000995,-0.00002192,-0.00001246,0.00001476
 ,0.00122978,0.00097335,0.00118232,0.00206208,-0.01035347,-0.00244857,0
 .00059253,-0.42364421,0.01182889,-0.00190421,0.00112281,-0.00267563,-0
 .00105650,0.00277084,-0.00031470,0.00016936,0.00019854,-0.00023299,0.0
 0012168,-0.00000450,0.00001720,0.00010708,-0.00009968,-0.00005090,0.00
 009552,0.00002744,-0.00008874,-0.00125122,0.00109729,-0.00104509,0.000
 30092,0.00045231,-0.00001632,-0.00462927,0.43857486,-0.00024076,0.0003
 0470,0.00024011,-0.00010813,-0.00004138,0.00002930,0.00023148,-0.00005
 485,-0.00008038,-0.00007239,0.00006833,0.00025871,0.00001160,0.0000063
 8,0.00000731,0.00015803,0.00066091,-0.00144318,-0.00027249,-0.00203096
 ,-0.00042619,-0.00131786,0.03672986,-0.00583184,0.00049638,-0.00060900
 ,-0.00046298,-0.00001333,-0.00006292,0.00000669,0.00002239,0.00006273,
 -0.00043510,0.00006340,-0.00001044,0.00010590,-0.00006699,0.00002294,0
 .00012125,-0.00001379,-0.00005470,0.00009274,-0.00000930,0.00001413,-0
 .00000954,0.00001443,0.00000601,-0.00001019,-0.00075500,0.00124941,0.0
 0114089,0.00627777,-0.01933819,0.00151514,-0.01964096,-0.00895538,-0.0
 4391833,0.00179201,-0.00260125,0.00198982,-0.00246210,0.00586842,-0.00
 475256,-0.00011377,-0.00008038,0.00024808,-0.00007240,0.00000167,-0.00
 000899,-0.00006008,0.00005169,0.00002936,-0.00006339,-0.00001772,0.000
 05640,-0.00464348,-0.00154711,-0.00128406,0.00062650,0.00011872,0.0001
 6442,0.02023224,-0.00976165,0.05265723\\0.00000422,0.00000104,0.000001
 30,-0.00000210,-0.00000966,0.00001001,-0.00000491,0.00001579,-0.000002
 22,-0.00000230,-0.00000337,-0.00000275,-0.00000087,-0.00000074,0.00000
 410,-0.00000505,0.00000133,-0.00000889,-0.00000253,0.00000527,0.000001
 70,0.00000119,0.00000349,0.00000147,0.00000223,-0.00000515,-0.00000093
 ,0.00000306,0.00000247,0.00000045,0.00000082,-0.00000853,0.00001640,0.
 00000732,0.00000265,-0.00001260,0.00000757,-0.00000814,-0.00000808,0.0
 0000435,-0.00000649,-0.00000638,0.00000496,-0.00000123,-0.00000211,0.0
 0000394,-0.00000892,0.00000178,-0.00000148,0.00000256,0.00000656,-0.00
 000848,0.00000170,-0.00000396,0.00000349,0.00000290,0.00000816,-0.0000
 0364,0.00000088,-0.00001118,-0.00000140,0.00001604,-0.00000963,-0.0000
 0150,0.00000212,0.00000358,-0.00000242,-0.00002031,0.00000594,0.000001
 81,-0.00000148,0.00001490,0.00000508,-0.00000966,-0.00000531,-0.000003
 48,0.00000908,-0.00000335,-0.00000623,0.00000754,-0.00000094,-0.000003
 65,0.00000879,0.00000197\\\@
 The archive entry for this job was punched.


 COLLEGE PROFESSOR: SOMEONE WHO TALKS IN OTHER PEOPLE'S SLEEP.
 Job cpu time:       0 days  3 hours 56 minutes 43.4 seconds.
 Elapsed time:       0 days  0 hours 15 minutes 30.7 seconds.
 File lengths (MBytes):  RWF=    606 Int=      0 D2E=      0 Chk=     21 Scr=      1
 Normal termination of Gaussian 16 at Thu Jun 30 22:50:37 2022.
