 Entering Gaussian System, Link 0=g16
 AtFile(1): /home/561/yj5695/Basis/6-31pGd.gbs
 Initial command:
 /apps/gaussian/g16c01/g16/l1.exe "/jobfs/50001332.gadi-pbs/Gau-4021914.inp" -scrdir="/jobfs/50001332.gadi-pbs/"
 Entering Link 1 = /apps/gaussian/g16c01/g16/l1.exe PID=   4021915.
  
 Copyright (c) 1988-2019, Gaussian, Inc.  All Rights Reserved.
  
 This is part of the Gaussian(R) 16 program.  It is based on
 the Gaussian(R) 09 system (copyright 2009, Gaussian, Inc.),
 the Gaussian(R) 03 system (copyright 2003, Gaussian, Inc.),
 the Gaussian(R) 98 system (copyright 1998, Gaussian, Inc.),
 the Gaussian(R) 94 system (copyright 1995, Gaussian, Inc.),
 the Gaussian 92(TM) system (copyright 1992, Gaussian, Inc.),
 the Gaussian 90(TM) system (copyright 1990, Gaussian, Inc.),
 the Gaussian 88(TM) system (copyright 1988, Gaussian, Inc.),
 the Gaussian 86(TM) system (copyright 1986, Carnegie Mellon
 University), and the Gaussian 82(TM) system (copyright 1983,
 Carnegie Mellon University). Gaussian is a federally registered
 trademark of Gaussian, Inc.
  
 This software contains proprietary and confidential information,
 including trade secrets, belonging to Gaussian, Inc.
  
 This software is provided under written license and may be
 used, copied, transmitted, or stored only in accord with that
 written license.
  
 The following legend is applicable only to US Government
 contracts under FAR:
  
                    RESTRICTED RIGHTS LEGEND
  
 Use, reproduction and disclosure by the US Government is
 subject to restrictions as set forth in subparagraphs (a)
 and (c) of the Commercial Computer Software - Restricted
 Rights clause in FAR 52.227-19.
  
 Gaussian, Inc.
 340 Quinnipiac St., Bldg. 40, Wallingford CT 06492
  
  
 ---------------------------------------------------------------
 Warning -- This program may not be used in any manner that
 competes with the business of Gaussian, Inc. or will provide
 assistance to any competitor of Gaussian, Inc.  The licensee
 of this program is prohibited from giving any competitor of
 Gaussian, Inc. access to this program.  By using this program,
 the user acknowledges that Gaussian, Inc. is engaged in the
 business of creating and licensing software in the field of
 computational chemistry and represents and warrants to the
 licensee that it is not a competitor of Gaussian, Inc. and that
 it will not use this program in any manner prohibited above.
 ---------------------------------------------------------------
  

 Cite this work as:
 Gaussian 16, Revision C.01,
 M. J. Frisch, G. W. Trucks, H. B. Schlegel, G. E. Scuseria, 
 M. A. Robb, J. R. Cheeseman, G. Scalmani, V. Barone, 
 G. A. Petersson, H. Nakatsuji, X. Li, M. Caricato, A. V. Marenich, 
 J. Bloino, B. G. Janesko, R. Gomperts, B. Mennucci, H. P. Hratchian, 
 J. V. Ortiz, A. F. Izmaylov, J. L. Sonnenberg, D. Williams-Young, 
 F. Ding, F. Lipparini, F. Egidi, J. Goings, B. Peng, A. Petrone, 
 T. Henderson, D. Ranasinghe, V. G. Zakrzewski, J. Gao, N. Rega, 
 G. Zheng, W. Liang, M. Hada, M. Ehara, K. Toyota, R. Fukuda, 
 J. Hasegawa, M. Ishida, T. Nakajima, Y. Honda, O. Kitao, H. Nakai, 
 T. Vreven, K. Throssell, J. A. Montgomery, Jr., J. E. Peralta, 
 F. Ogliaro, M. J. Bearpark, J. J. Heyd, E. N. Brothers, K. N. Kudin, 
 V. N. Staroverov, T. A. Keith, R. Kobayashi, J. Normand, 
 K. Raghavachari, A. P. Rendell, J. C. Burant, S. S. Iyengar, 
 J. Tomasi, M. Cossi, J. M. Millam, M. Klene, C. Adamo, R. Cammi, 
 J. W. Ochterski, R. L. Martin, K. Morokuma, O. Farkas, 
 J. B. Foresman, and D. J. Fox, Gaussian, Inc., Wallingford CT, 2019.
 
 ******************************************
 Gaussian 16:  ES64L-G16RevC.01  3-Jul-2019
                 2-Jul-2022 
 ******************************************
 %nproc=16
 Will use up to   16 processors via shared memory.
 %mem=50gb
 -----------------------------------------------------
 #m062X/gen 6D OPT Freq=noraman SCRF=(SMD,Solvent=h2o)
 -----------------------------------------------------
 1/18=20,19=15,26=3,38=1/1,3;
 2/9=110,12=2,17=6,18=5,40=1/2;
 3/5=7,8=2,11=2,25=1,30=1,70=32201,71=1,72=1,74=-55/1,2,3;
 4//1;
 5/5=2,38=5,53=1/2;
 6/7=2,8=2,9=2,10=2,28=1/1;
 7//1,2,3,16;
 1/18=20,19=15,26=3/3(2);
 2/9=110/2;
 99//99;
 2/9=110/2;
 3/5=7,6=1,8=2,11=2,25=1,30=1,70=32205,71=1,72=1,74=-55,82=7/1,2,3;
 4/5=5,16=3,69=1/1;
 5/5=2,38=5,53=1/2;
 7//1,2,3,16;
 1/18=20,19=15,26=3/3(-5);
 2/9=110/2;
 6/7=2,8=2,9=2,10=2,19=2,28=1/1;
 99/9=1/99;
 ----------------
 HA.40.smd.a2.smd
 ----------------
 Symbolic Z-matrix:
 Charge =  0 Multiplicity = 1
 C                    -1.60159   1.239    -1.27098 
 C                    -2.74572   1.31203  -2.11171 
 C                    -2.8177    0.61297  -3.29015 
 C                    -1.7417   -0.20731  -3.69016 
 C                    -0.60767  -0.26027  -2.91664 
 C                    -0.47216   0.47133  -1.6928 
 S                     0.70323  -1.3172   -3.50947 
 O                     0.95354  -2.32998  -2.48398 
 O                     0.3872   -1.76104  -4.86868 
 N                     2.09944  -0.44132  -3.62092 
 H                     2.37731  -0.05875  -2.71485 
 H                     2.05234   0.29769  -4.32448 
 C                     0.71122   0.48883  -0.9039 
 C                     0.75423   1.2369    0.24519 
 C                    -0.36789   1.96765   0.69285 
 C                    -1.54643   1.96289  -0.026 
 N                    -2.7008    2.66832   0.39623 
 C                    -3.78145   1.7743    0.8381 
 C                    -2.46701   3.67872   1.42245 
 H                    -3.57197   1.95052  -1.81971 
 H                    -3.69567   0.68809  -3.92303 
 H                    -1.80429  -0.77897  -4.60952 
 H                     1.59658  -0.05313  -1.21354 
 H                     1.66515   1.25868   0.83623 
 H                    -0.29105   2.52169   1.62135 
 H                    -3.95636   0.97587   0.11665 
 H                    -4.70272   2.35233   0.94887 
 H                    -3.53456   1.31547   1.80861 
 H                    -1.67575   4.36299   1.10724 
 H                    -2.19498   3.24057   2.39551 
 H                    -3.38931   4.24963   1.55611 
 

 GradGradGradGradGradGradGradGradGradGradGradGradGradGradGradGradGradGrad
 Berny optimization.
 Initialization pass.
                           ----------------------------
                           !    Initial Parameters    !
                           ! (Angstroms and Degrees)  !
 --------------------------                            --------------------------
 ! Name  Definition              Value          Derivative Info.                !
 --------------------------------------------------------------------------------
 ! R1    R(1,2)                  1.4217         estimate D2E/DX2                !
 ! R2    R(1,6)                  1.4293         estimate D2E/DX2                !
 ! R3    R(1,16)                 1.4412         estimate D2E/DX2                !
 ! R4    R(2,3)                  1.3721         estimate D2E/DX2                !
 ! R5    R(2,20)                 1.0843         estimate D2E/DX2                !
 ! R6    R(3,4)                  1.4109         estimate D2E/DX2                !
 ! R7    R(3,21)                 1.0849         estimate D2E/DX2                !
 ! R8    R(4,5)                  1.3737         estimate D2E/DX2                !
 ! R9    R(4,22)                 1.0844         estimate D2E/DX2                !
 ! R10   R(5,6)                  1.4323         estimate D2E/DX2                !
 ! R11   R(5,7)                  1.7852         estimate D2E/DX2                !
 ! R12   R(6,13)                 1.4223         estimate D2E/DX2                !
 ! R13   R(7,8)                  1.4629         estimate D2E/DX2                !
 ! R14   R(7,9)                  1.4644         estimate D2E/DX2                !
 ! R15   R(7,10)                 1.652          estimate D2E/DX2                !
 ! R16   R(10,11)                1.022          estimate D2E/DX2                !
 ! R17   R(10,12)                1.0214         estimate D2E/DX2                !
 ! R18   R(13,14)                1.3718         estimate D2E/DX2                !
 ! R19   R(13,23)                1.0833         estimate D2E/DX2                !
 ! R20   R(14,15)                1.4119         estimate D2E/DX2                !
 ! R21   R(14,24)                1.0861         estimate D2E/DX2                !
 ! R22   R(15,16)                1.3805         estimate D2E/DX2                !
 ! R23   R(15,25)                1.084          estimate D2E/DX2                !
 ! R24   R(16,17)                1.4172         estimate D2E/DX2                !
 ! R25   R(17,18)                1.4705         estimate D2E/DX2                !
 ! R26   R(17,19)                1.459          estimate D2E/DX2                !
 ! R27   R(18,26)                1.0902         estimate D2E/DX2                !
 ! R28   R(18,27)                1.0932         estimate D2E/DX2                !
 ! R29   R(18,28)                1.1015         estimate D2E/DX2                !
 ! R30   R(19,29)                1.0926         estimate D2E/DX2                !
 ! R31   R(19,30)                1.1013         estimate D2E/DX2                !
 ! R32   R(19,31)                1.0929         estimate D2E/DX2                !
 ! A1    A(2,1,6)              119.2744         estimate D2E/DX2                !
 ! A2    A(2,1,16)             121.0549         estimate D2E/DX2                !
 ! A3    A(6,1,16)             119.6351         estimate D2E/DX2                !
 ! A4    A(1,2,3)              121.5979         estimate D2E/DX2                !
 ! A5    A(1,2,20)             118.9634         estimate D2E/DX2                !
 ! A6    A(3,2,20)             119.4296         estimate D2E/DX2                !
 ! A7    A(2,3,4)              119.9807         estimate D2E/DX2                !
 ! A8    A(2,3,21)             120.5443         estimate D2E/DX2                !
 ! A9    A(4,3,21)             119.4745         estimate D2E/DX2                !
 ! A10   A(3,4,5)              119.4939         estimate D2E/DX2                !
 ! A11   A(3,4,22)             120.1876         estimate D2E/DX2                !
 ! A12   A(5,4,22)             120.3114         estimate D2E/DX2                !
 ! A13   A(4,5,6)              122.6529         estimate D2E/DX2                !
 ! A14   A(4,5,7)              116.2325         estimate D2E/DX2                !
 ! A15   A(6,5,7)              121.1107         estimate D2E/DX2                !
 ! A16   A(1,6,5)              116.857          estimate D2E/DX2                !
 ! A17   A(1,6,13)             119.1533         estimate D2E/DX2                !
 ! A18   A(5,6,13)             123.9822         estimate D2E/DX2                !
 ! A19   A(5,7,8)              107.6218         estimate D2E/DX2                !
 ! A20   A(5,7,9)              109.2204         estimate D2E/DX2                !
 ! A21   A(5,7,10)             109.2155         estimate D2E/DX2                !
 ! A22   A(8,7,9)              118.5397         estimate D2E/DX2                !
 ! A23   A(8,7,10)             105.6496         estimate D2E/DX2                !
 ! A24   A(9,7,10)             106.2894         estimate D2E/DX2                !
 ! A25   A(7,10,11)            111.6199         estimate D2E/DX2                !
 ! A26   A(7,10,12)            113.0228         estimate D2E/DX2                !
 ! A27   A(11,10,12)           110.6318         estimate D2E/DX2                !
 ! A28   A(6,13,14)            119.8276         estimate D2E/DX2                !
 ! A29   A(6,13,23)            121.0179         estimate D2E/DX2                !
 ! A30   A(14,13,23)           119.1189         estimate D2E/DX2                !
 ! A31   A(13,14,15)           121.5267         estimate D2E/DX2                !
 ! A32   A(13,14,24)           119.5428         estimate D2E/DX2                !
 ! A33   A(15,14,24)           118.9236         estimate D2E/DX2                !
 ! A34   A(14,15,16)           120.7701         estimate D2E/DX2                !
 ! A35   A(14,15,25)           118.6715         estimate D2E/DX2                !
 ! A36   A(16,15,25)           120.5521         estimate D2E/DX2                !
 ! A37   A(1,16,15)            118.9631         estimate D2E/DX2                !
 ! A38   A(1,16,17)            118.438          estimate D2E/DX2                !
 ! A39   A(15,16,17)           122.5833         estimate D2E/DX2                !
 ! A40   A(16,17,18)           112.6746         estimate D2E/DX2                !
 ! A41   A(16,17,19)           115.0716         estimate D2E/DX2                !
 ! A42   A(18,17,19)           109.1138         estimate D2E/DX2                !
 ! A43   A(17,18,26)           111.3654         estimate D2E/DX2                !
 ! A44   A(17,18,27)           109.1649         estimate D2E/DX2                !
 ! A45   A(17,18,28)           110.6884         estimate D2E/DX2                !
 ! A46   A(26,18,27)           108.6069         estimate D2E/DX2                !
 ! A47   A(26,18,28)           108.2971         estimate D2E/DX2                !
 ! A48   A(27,18,28)           108.6535         estimate D2E/DX2                !
 ! A49   A(17,19,29)           110.2952         estimate D2E/DX2                !
 ! A50   A(17,19,30)           112.6764         estimate D2E/DX2                !
 ! A51   A(17,19,31)           108.2136         estimate D2E/DX2                !
 ! A52   A(29,19,30)           108.9778         estimate D2E/DX2                !
 ! A53   A(29,19,31)           108.6207         estimate D2E/DX2                !
 ! A54   A(30,19,31)           107.9516         estimate D2E/DX2                !
 ! D1    D(6,1,2,3)              3.0995         estimate D2E/DX2                !
 ! D2    D(6,1,2,20)          -175.794          estimate D2E/DX2                !
 ! D3    D(16,1,2,3)          -179.0806         estimate D2E/DX2                !
 ! D4    D(16,1,2,20)            2.0258         estimate D2E/DX2                !
 ! D5    D(2,1,6,5)             -4.1894         estimate D2E/DX2                !
 ! D6    D(2,1,6,13)           174.8551         estimate D2E/DX2                !
 ! D7    D(16,1,6,5)           177.9593         estimate D2E/DX2                !
 ! D8    D(16,1,6,13)           -2.9961         estimate D2E/DX2                !
 ! D9    D(2,1,16,15)         -173.6982         estimate D2E/DX2                !
 ! D10   D(2,1,16,17)            4.8988         estimate D2E/DX2                !
 ! D11   D(6,1,16,15)            4.1139         estimate D2E/DX2                !
 ! D12   D(6,1,16,17)         -177.2891         estimate D2E/DX2                !
 ! D13   D(1,2,3,4)              0.2628         estimate D2E/DX2                !
 ! D14   D(1,2,3,21)          -179.4579         estimate D2E/DX2                !
 ! D15   D(20,2,3,4)           179.1513         estimate D2E/DX2                !
 ! D16   D(20,2,3,21)           -0.5694         estimate D2E/DX2                !
 ! D17   D(2,3,4,5)             -2.37           estimate D2E/DX2                !
 ! D18   D(2,3,4,22)           178.5956         estimate D2E/DX2                !
 ! D19   D(21,3,4,5)           177.3537         estimate D2E/DX2                !
 ! D20   D(21,3,4,22)           -1.6807         estimate D2E/DX2                !
 ! D21   D(3,4,5,6)              1.0995         estimate D2E/DX2                !
 ! D22   D(3,4,5,7)           -179.6163         estimate D2E/DX2                !
 ! D23   D(22,4,5,6)          -179.8674         estimate D2E/DX2                !
 ! D24   D(22,4,5,7)            -0.5832         estimate D2E/DX2                !
 ! D25   D(4,5,6,1)              2.1819         estimate D2E/DX2                !
 ! D26   D(4,5,6,13)          -176.8118         estimate D2E/DX2                !
 ! D27   D(7,5,6,1)           -177.0681         estimate D2E/DX2                !
 ! D28   D(7,5,6,13)             3.9382         estimate D2E/DX2                !
 ! D29   D(4,5,7,8)           -120.1078         estimate D2E/DX2                !
 ! D30   D(4,5,7,9)              9.805          estimate D2E/DX2                !
 ! D31   D(4,5,7,10)           125.6594         estimate D2E/DX2                !
 ! D32   D(6,5,7,8)             59.1882         estimate D2E/DX2                !
 ! D33   D(6,5,7,9)           -170.8989         estimate D2E/DX2                !
 ! D34   D(6,5,7,10)           -55.0446         estimate D2E/DX2                !
 ! D35   D(1,6,13,14)            0.0244         estimate D2E/DX2                !
 ! D36   D(1,6,13,23)         -177.7873         estimate D2E/DX2                !
 ! D37   D(5,6,13,14)          178.9965         estimate D2E/DX2                !
 ! D38   D(5,6,13,23)            1.1847         estimate D2E/DX2                !
 ! D39   D(5,7,10,11)           60.0975         estimate D2E/DX2                !
 ! D40   D(5,7,10,12)          -65.3704         estimate D2E/DX2                !
 ! D41   D(8,7,10,11)          -55.4067         estimate D2E/DX2                !
 ! D42   D(8,7,10,12)          179.1255         estimate D2E/DX2                !
 ! D43   D(9,7,10,11)          177.8113         estimate D2E/DX2                !
 ! D44   D(9,7,10,12)           52.3434         estimate D2E/DX2                !
 ! D45   D(6,13,14,15)           1.8768         estimate D2E/DX2                !
 ! D46   D(6,13,14,24)        -179.0913         estimate D2E/DX2                !
 ! D47   D(23,13,14,15)        179.7302         estimate D2E/DX2                !
 ! D48   D(23,13,14,24)         -1.2379         estimate D2E/DX2                !
 ! D49   D(13,14,15,16)         -0.7262         estimate D2E/DX2                !
 ! D50   D(13,14,15,25)        178.367          estimate D2E/DX2                !
 ! D51   D(24,14,15,16)       -179.764          estimate D2E/DX2                !
 ! D52   D(24,14,15,25)         -0.6707         estimate D2E/DX2                !
 ! D53   D(14,15,16,1)          -2.2844         estimate D2E/DX2                !
 ! D54   D(14,15,16,17)        179.1798         estimate D2E/DX2                !
 ! D55   D(25,15,16,1)         178.6395         estimate D2E/DX2                !
 ! D56   D(25,15,16,17)          0.1037         estimate D2E/DX2                !
 ! D57   D(1,16,17,18)          71.496          estimate D2E/DX2                !
 ! D58   D(1,16,17,19)        -162.5424         estimate D2E/DX2                !
 ! D59   D(15,16,17,18)       -109.9609         estimate D2E/DX2                !
 ! D60   D(15,16,17,19)         16.0007         estimate D2E/DX2                !
 ! D61   D(16,17,18,26)        -48.3161         estimate D2E/DX2                !
 ! D62   D(16,17,18,27)       -168.229          estimate D2E/DX2                !
 ! D63   D(16,17,18,28)         72.22           estimate D2E/DX2                !
 ! D64   D(19,17,18,26)       -177.4272         estimate D2E/DX2                !
 ! D65   D(19,17,18,27)         62.6599         estimate D2E/DX2                !
 ! D66   D(19,17,18,28)        -56.8912         estimate D2E/DX2                !
 ! D67   D(16,17,19,29)         53.0141         estimate D2E/DX2                !
 ! D68   D(16,17,19,30)        -69.0113         estimate D2E/DX2                !
 ! D69   D(16,17,19,31)        171.7048         estimate D2E/DX2                !
 ! D70   D(18,17,19,29)       -179.2113         estimate D2E/DX2                !
 ! D71   D(18,17,19,30)         58.7633         estimate D2E/DX2                !
 ! D72   D(18,17,19,31)        -60.5207         estimate D2E/DX2                !
 --------------------------------------------------------------------------------
 Trust Radius=3.00D-01 FncErr=1.00D-07 GrdErr=1.00D-06 EigMax=2.50D+02 EigMin=1.00D-04
 Number of steps in this run=    168 maximum allowed number of steps=    186.
 GradGradGradGradGradGradGradGradGradGradGradGradGradGradGradGradGradGrad

                          Input orientation:                          
 ---------------------------------------------------------------------
 Center     Atomic      Atomic             Coordinates (Angstroms)
 Number     Number       Type             X           Y           Z
 ---------------------------------------------------------------------
      1          6           0       -1.601594    1.239000   -1.270977
      2          6           0       -2.745719    1.312026   -2.111710
      3          6           0       -2.817695    0.612970   -3.290149
      4          6           0       -1.741698   -0.207307   -3.690158
      5          6           0       -0.607674   -0.260271   -2.916636
      6          6           0       -0.472161    0.471334   -1.692801
      7         16           0        0.703233   -1.317201   -3.509471
      8          8           0        0.953535   -2.329978   -2.483976
      9          8           0        0.387196   -1.761041   -4.868682
     10          7           0        2.099440   -0.441319   -3.620923
     11          1           0        2.377314   -0.058752   -2.714848
     12          1           0        2.052339    0.297687   -4.324480
     13          6           0        0.711217    0.488829   -0.903903
     14          6           0        0.754229    1.236898    0.245189
     15          6           0       -0.367885    1.967654    0.692852
     16          6           0       -1.546425    1.962888   -0.026000
     17          7           0       -2.700796    2.668319    0.396233
     18          6           0       -3.781447    1.774295    0.838103
     19          6           0       -2.467009    3.678724    1.422445
     20          1           0       -3.571969    1.950515   -1.819705
     21          1           0       -3.695666    0.688087   -3.923031
     22          1           0       -1.804288   -0.778969   -4.609515
     23          1           0        1.596580   -0.053127   -1.213539
     24          1           0        1.665148    1.258675    0.836231
     25          1           0       -0.291051    2.521688    1.621347
     26          1           0       -3.956364    0.975867    0.116654
     27          1           0       -4.702718    2.352327    0.948874
     28          1           0       -3.534562    1.315467    1.808613
     29          1           0       -1.675749    4.362990    1.107238
     30          1           0       -2.194985    3.240573    2.395506
     31          1           0       -3.389314    4.249629    1.556112
 ---------------------------------------------------------------------
                    Distance matrix (angstroms):
                    1          2          3          4          5
     1  C    0.000000
     2  C    1.421684   0.000000
     3  C    2.438826   1.372071   0.000000
     4  C    2.822033   2.409965   1.410897   0.000000
     5  C    2.438008   2.773312   2.405463   1.373736   0.000000
     6  C    1.429288   2.459942   2.841322   2.462055   1.432265
     7  S    4.105758   4.556516   4.021268   2.691134   1.785226
     8  O    4.553862   5.204542   4.851086   3.636604   2.628356
     9  O    5.089107   5.182643   4.289408   2.887074   2.655666
    10  N    4.695037   5.369125   5.039757   3.848882   2.803081
    11  H    4.427260   5.337441   5.269753   4.235512   2.998580
    12  H    4.853986   5.380204   4.988635   3.879704   3.060884
    13  C    2.458982   3.753246   4.261784   3.776852   2.520262
    14  C    2.801547   4.220220   5.064242   4.878764   3.754122
    15  C    2.430967   3.734904   4.868371   5.082184   4.248476
    16  C    1.441189   2.492411   3.754074   4.263089   3.765563
    17  N    2.455766   2.851548   4.222267   5.087994   4.892126
    18  C    3.080019   3.160352   4.395447   5.347193   5.320748
    19  C    3.735735   4.262533   5.632972   6.462664   6.148206
    20  H    2.165579   1.084262   2.126067   3.391855   3.857185
    21  H    3.423745   2.138360   1.084903   2.161932   3.383476
    22  H    3.906292   3.390808   2.169151   1.084404   2.137001
    23  H    3.449813   4.639603   4.923598   4.159509   2.793239
    24  H    3.887456   5.305558   6.126975   5.851829   4.642944
    25  H    3.424668   4.628649   5.843794   6.145232   5.332245
    26  H    2.745852   2.558177   3.610342   4.560314   4.684294
    27  H    3.972934   3.778789   4.954593   6.069595   6.207835
    28  H    3.636769   3.998902   5.196612   5.980776   5.777335
    29  H    3.926922   4.562329   5.890985   6.626234   6.221486
    30  H    4.219183   4.933315   6.294342   7.009183   6.557005
    31  H    4.500251   4.743063   6.085909   7.078295   6.934133
                    6          7          8          9         10
     6  C    0.000000
     7  S    2.807258   0.000000
     8  O    3.241283   1.462877   0.000000
     9  O    3.975954   1.464352   2.516198   0.000000
    10  N    3.341216   1.651964   2.484508   2.496067   0.000000
    11  H    3.073285   2.240015   2.690523   3.390775   1.022029
    12  H    3.650889   2.256588   3.391084   2.703187   1.021441
    13  C    1.422339   3.170299   3.240528   4.570162   3.189755
    14  C    2.417835   4.541310   4.495628   5.939194   4.424119
    15  C    2.818011   5.440320   5.505273   6.738247   5.522635
    16  C    2.481331   5.287203   5.542576   6.407660   5.656502
    17  N    3.762661   6.536536   6.828815   7.541502   6.989253
    18  C    4.365152   6.969297   7.092342   7.902125   7.705627
    19  C    4.896073   7.702824   7.941332   8.792941   7.953790
    20  H    3.436989   5.640091   6.264508   6.224700   6.413278
    21  H    3.925798   4.852064   5.726663   4.854096   5.911859
    22  H    3.441662   2.790601   3.811710   2.415416   4.041091
    23  H    2.187336   2.768981   2.685436   4.211846   2.489791
    24  H    3.403527   5.142523   4.940506   6.580112   4.790074
    25  H    3.901324   6.484671   6.476213   7.805271   6.478831
    26  H    3.958327   6.333939   6.465214   7.156169   7.256077
    27  H    5.330497   7.909904   8.105655   8.756197   8.657763
    28  H    4.727659   7.291904   7.201292   8.332548   8.019235
    29  H    4.943059   7.696631   8.037772   8.801768   7.725862
    30  H    5.229824   8.002607   8.046960   9.189789   8.258077
    31  H    5.774143   8.567302   8.858548   9.574349   8.884430
                   11         12         13         14         15
    11  H    0.000000
    12  H    1.680349   0.000000
    13  C    2.520961   3.679061   0.000000
    14  C    3.615928   4.842425   1.371813   0.000000
    15  C    4.822329   5.815487   2.429200   1.411930   0.000000
    16  C    5.168429   5.848156   2.835579   2.427677   1.380481
    17  N    6.550034   7.106147   4.252336   3.742857   2.453852
    18  C    7.342606   7.928789   4.987087   4.605725   3.422118
    19  C    7.386026   8.055002   5.068377   4.210086   2.804708
    20  H    6.342902   6.374840   4.617456   4.846548   4.071780
    21  H    6.236871   5.775217   5.345602   6.121831   5.832478
    22  H    4.646964   4.014225   4.654744   5.846185   6.141847
    23  H    1.692190   3.163659   1.083263   2.121699   3.402500
    24  H    3.853953   5.263682   2.128547   1.086084   2.157877
    25  H    5.708014   6.766869   3.393220   2.153394   1.083956
    26  H    7.014508   7.502540   4.802609   4.719570   3.767337
    27  H    8.328446   8.812525   6.017981   5.614056   4.359392
    28  H    7.569706   8.358479   5.105655   4.565544   3.420251
    29  H    7.112486   7.741375   4.975080   4.052206   2.760409
    30  H    7.609677   8.476942   5.186926   4.163705   2.803150
    31  H    8.370021   8.933689   6.083555   5.288101   3.883511
                   16         17         18         19         20
    16  C    0.000000
    17  N    1.417211   0.000000
    18  C    2.403657   1.470488   0.000000
    19  C    2.426842   1.459002   2.386640   0.000000
    20  H    2.705616   2.486879   2.671868   3.836558   0.000000
    21  H    4.629385   4.854598   4.884220   6.247209   2.456218
    22  H    5.347231   6.143699   6.332840   7.529593   4.284603
    23  H    3.918296   5.335267   6.039195   6.114563   5.576371
    24  H    3.399053   4.608922   5.470947   4.824418   5.912701
    25  H    2.145221   2.707264   3.654440   2.472466   4.788685
    26  H    2.608135   2.125796   1.090216   3.350926   2.201632
    27  H    3.326293   2.100703   1.093221   2.642346   3.017462
    28  H    2.781663   2.126074   1.101528   2.621789   3.683663
    29  H    2.657338   2.104319   3.347796   1.092551   4.240599
    30  H    2.813681   2.140190   2.663144   1.101282   4.618261
    31  H    3.335941   2.078441   2.607026   1.092907   4.088451
                   21         22         23         24         25
    21  H    0.000000
    22  H    2.490145   0.000000
    23  H    5.991545   4.860597   0.000000
    24  H    7.191278   6.770903   2.434560   0.000000
    25  H    6.759706   7.211648   4.269590   2.457300   0.000000
    26  H    4.058305   5.481565   5.802019   5.674431   4.253020
    27  H    5.245885   7.007253   7.081200   6.462080   4.465838
    28  H    5.768128   6.969424   6.110243   5.290155   3.465603
    29  H    6.548938   7.690093   5.966258   4.568568   2.360527
    30  H    6.977904   8.085770   6.184629   4.610844   2.177403
    31  H    6.542128   8.112587   7.144495   5.917062   3.548136
                   26         27         28         29         30
    26  H    0.000000
    27  H    1.773211   0.000000
    28  H    1.776505   1.782924   0.000000
    29  H    4.201793   3.637360   3.637926   0.000000
    30  H    3.663948   3.028275   2.417632   1.785794   0.000000
    31  H    3.620926   2.386110   2.948586   1.775005   1.774598
                   31
    31  H    0.000000
 Stoichiometry    C12H14N2O2S
 Framework group  C1[X(C12H14N2O2S)]
 Deg. of freedom    87
 Full point group                 C1      NOp   1
 Largest Abelian subgroup         C1      NOp   1
 Largest concise Abelian subgroup C1      NOp   1
                         Standard orientation:                         
 ---------------------------------------------------------------------
 Center     Atomic      Atomic             Coordinates (Angstroms)
 Number     Number       Type             X           Y           Z
 ---------------------------------------------------------------------
      1          6           0        1.074369    0.406678   -0.150160
      2          6           0        1.112252    1.814747   -0.342761
      3          6           0       -0.034039    2.568490   -0.364339
      4          6           0       -1.288975    1.948461   -0.187329
      5          6           0       -1.354835    0.583899   -0.043168
      6          6           0       -0.190422   -0.250081   -0.041362
      7         16           0       -2.986584   -0.109777    0.164777
      8          8           0       -3.013000   -0.800962    1.453797
      9          8           0       -3.987740    0.927139   -0.093717
     10          7           0       -3.228424   -1.281585   -0.974242
     11          1           0       -2.543483   -2.035469   -0.890230
     12          1           0       -3.244898   -0.914842   -1.927431
     13          6           0       -0.229327   -1.669537    0.040374
     14          6           0        0.939757   -2.386784    0.014508
     15          6           0        2.196835   -1.747432   -0.052804
     16          6           0        2.287007   -0.371085   -0.109940
     17          7           0        3.528243    0.310959   -0.161282
     18          6           0        3.825876    1.040650    1.080209
     19          6           0        4.675325   -0.518527   -0.514612
     20          1           0        2.070849    2.298464   -0.493533
     21          1           0        0.014126    3.640895   -0.521318
     22          1           0       -2.195292    2.543845   -0.181059
     23          1           0       -1.172458   -2.200299    0.087844
     24          1           0        0.903880   -3.471224    0.062268
     25          1           0        3.092175   -2.358369   -0.043753
     26          1           0        2.973811    1.639226    1.403109
     27          1           0        4.675721    1.706915    0.909958
     28          1           0        4.083783    0.340698    1.890713
     29          1           0        4.479979   -1.059570   -1.443472
     30          1           0        4.934714   -1.242426    0.273747
     31          1           0        5.536688    0.136678   -0.666943
 ---------------------------------------------------------------------
 Rotational constants (GHZ):           0.9699080           0.2675328           0.2253094
 General basis read from cards:  (6D, 7F)
 There are   355 symmetry adapted cartesian basis functions of A   symmetry.
 There are   355 symmetry adapted basis functions of A   symmetry.
   355 basis functions,   624 primitive gaussians,   355 cartesian basis functions
    66 alpha electrons       66 beta electrons
       nuclear repulsion energy      1364.6124340222 Hartrees.
 NAtoms=   31 NActive=   31 NUniq=   31 SFac= 1.00D+00 NAtFMM=   60 NAOKFM=F Big=F
 Integral buffers will be    131072 words long.
 Raffenetti 2 integral format.
 Two-electron integral symmetry is turned on.
 ------------------------------------------------------------------------------
 Polarizable Continuum Model (PCM)
 =================================
 Model                : PCM.
 Atomic radii         : SMD-Coulomb.
 Polarization charges : Total charges.
 Charge compensation  : None.
 Solution method      : On-the-fly selection.
 Cavity type          : VdW (van der Waals Surface) (Alpha=1.000).
 Cavity algorithm     : GePol (No added spheres)
                        Default sphere list used, NSphG=   31.
                        Lebedev-Laikov grids with approx.  5.0 points / Ang**2.
                        Smoothing algorithm: York/Karplus (Gamma=1.0000).
                        Polarization charges: spherical gaussians, with
                                              point-specific exponents (IZeta= 3).
                        Self-potential: point-specific (ISelfS= 7).
                        Self-field    : sphere-specific E.n sum rule (ISelfD= 2).
 1st derivatives      : Analytical E(r).r(x)/FMM algorithm (CHGder, D1EAlg=3).
                        Cavity 1st derivative terms included.
 Solvent              : Water, Eps=  78.355300 Eps(inf)=   1.777849
 ------------------------------------------------------------------------------
 ------------------------------------------------------------------------------
 Atomic radii for non-electrostatic terms: SMD-CDS.
 ------------------------------------------------------------------------------
 Nuclear repulsion after PCM non-electrostatic terms =     1364.6190504668 Hartrees.
 One-electron integrals computed using PRISM.
 NBasis=   355 RedAO= T EigKep=  1.64D-06  NBF=   355
 NBsUse=   351 1.00D-06 EigRej=  9.77D-07 NBFU=   351
 ExpMin= 4.05D-02 ExpMax= 2.19D+04 ExpMxC= 3.30D+03 IAcc=3 IRadAn=         5 AccDes= 0.00D+00
 Harris functional with IExCor= 1009 and IRadAn=       5 diagonalized for initial guess.
 HarFok:  IExCor= 1009 AccDes= 0.00D+00 IRadAn=         5 IDoV= 1 UseB2=F ITyADJ=14
 ICtDFT=  3500011 ScaDFX=  1.000000  1.000000  1.000000  1.000000
 FoFCou: FMM=F IPFlag=           0 FMFlag=      100000 FMFlg1=           0
         NFxFlg=           0 DoJE=T BraDBF=F KetDBF=T FulRan=T
         wScrn=  0.000000 ICntrl=       500 IOpCl=  0 I1Cent=   200000004 NGrid=           0
         NMat0=    1 NMatS0=      1 NMatT0=    0 NMatD0=    1 NMtDS0=    0 NMtDT0=    0
 Petite list used in FoFCou.
 Requested convergence on RMS density matrix=1.00D-08 within 128 cycles.
 Requested convergence on MAX density matrix=1.00D-06.
 Requested convergence on             energy=1.00D-06.
 No special actions if energy rises.
 Inv3:  Mode=1 IEnd=    15268608.
 Iteration    1 A*A^-1 deviation from unit magnitude is 4.44D-15 for   2221.
 Iteration    1 A*A^-1 deviation from orthogonality  is 2.35D-15 for   2254    628.
 Iteration    1 A^-1*A deviation from unit magnitude is 4.44D-15 for   2221.
 Iteration    1 A^-1*A deviation from orthogonality  is 1.48D-14 for   1393   1352.
 Error on total polarization charges =  0.05688
 SCF Done:  E(RM062X) =  -1123.48055489     A.U. after   16 cycles
            NFock= 16  Conv=0.38D-08     -V/T= 2.0069
 SMD-CDS (non-electrostatic) energy       (kcal/mol) =       4.15
 (included in total energy above)

 **********************************************************************

            Population analysis using the SCF Density.

 **********************************************************************

 Orbital symmetries:
       Occupied  (A) (A) (A) (A) (A) (A) (A) (A) (A) (A) (A) (A)
                 (A) (A) (A) (A) (A) (A) (A) (A) (A) (A) (A) (A)
                 (A) (A) (A) (A) (A) (A) (A) (A) (A) (A) (A) (A)
                 (A) (A) (A) (A) (A) (A) (A) (A) (A) (A) (A) (A)
                 (A) (A) (A) (A) (A) (A) (A) (A) (A) (A) (A) (A)
                 (A) (A) (A) (A) (A) (A)
       Virtual   (A) (A) (A) (A) (A) (A) (A) (A) (A) (A) (A) (A)
                 (A) (A) (A) (A) (A) (A) (A) (A) (A) (A) (A) (A)
                 (A) (A) (A) (A) (A) (A) (A) (A) (A) (A) (A) (A)
                 (A) (A) (A) (A) (A) (A) (A) (A) (A) (A) (A) (A)
                 (A) (A) (A) (A) (A) (A) (A) (A) (A) (A) (A) (A)
                 (A) (A) (A) (A) (A) (A) (A) (A) (A) (A) (A) (A)
                 (A) (A) (A) (A) (A) (A) (A) (A) (A) (A) (A) (A)
                 (A) (A) (A) (A) (A) (A) (A) (A) (A) (A) (A) (A)
                 (A) (A) (A) (A) (A) (A) (A) (A) (A) (A) (A) (A)
                 (A) (A) (A) (A) (A) (A) (A) (A) (A) (A) (A) (A)
                 (A) (A) (A) (A) (A) (A) (A) (A) (A) (A) (A) (A)
                 (A) (A) (A) (A) (A) (A) (A) (A) (A) (A) (A) (A)
                 (A) (A) (A) (A) (A) (A) (A) (A) (A) (A) (A) (A)
                 (A) (A) (A) (A) (A) (A) (A) (A) (A) (A) (A) (A)
                 (A) (A) (A) (A) (A) (A) (A) (A) (A) (A) (A) (A)
                 (A) (A) (A) (A) (A) (A) (A) (A) (A) (A) (A) (A)
                 (A) (A) (A) (A) (A) (A) (A) (A) (A) (A) (A) (A)
                 (A) (A) (A) (A) (A) (A) (A) (A) (A) (A) (A) (A)
                 (A) (A) (A) (A) (A) (A) (A) (A) (A) (A) (A) (A)
                 (A) (A) (A) (A) (A) (A) (A) (A) (A) (A) (A) (A)
                 (A) (A) (A) (A) (A) (A) (A) (A) (A) (A) (A) (A)
                 (A) (A) (A) (A) (A) (A) (A) (A) (A) (A) (A) (A)
                 (A) (A) (A) (A) (A) (A) (A) (A) (A) (A) (A) (A)
                 (A) (A) (A) (A) (A) (A) (A) (A) (A)
 The electronic state is 1-A.
 Alpha  occ. eigenvalues --  -90.18250 -19.66336 -19.65964 -14.80258 -14.77472
 Alpha  occ. eigenvalues --  -10.60224 -10.60050 -10.59215 -10.58031 -10.57908
 Alpha  occ. eigenvalues --  -10.56985 -10.56504 -10.56480 -10.56373 -10.56327
 Alpha  occ. eigenvalues --  -10.56101 -10.55552  -8.49223  -6.41428  -6.41409
 Alpha  occ. eigenvalues --   -6.41278  -1.26100  -1.14548  -1.05581  -1.03328
 Alpha  occ. eigenvalues --   -0.99424  -0.93869  -0.89359  -0.85545  -0.83858
 Alpha  occ. eigenvalues --   -0.79894  -0.76980  -0.74796  -0.71428  -0.70420
 Alpha  occ. eigenvalues --   -0.67449  -0.63095  -0.61702  -0.59864  -0.59530
 Alpha  occ. eigenvalues --   -0.58236  -0.57120  -0.54723  -0.54643  -0.53171
 Alpha  occ. eigenvalues --   -0.52682  -0.50690  -0.49345  -0.48182  -0.47559
 Alpha  occ. eigenvalues --   -0.46243  -0.45654  -0.44324  -0.44115  -0.42816
 Alpha  occ. eigenvalues --   -0.42637  -0.41938  -0.41229  -0.40900  -0.40183
 Alpha  occ. eigenvalues --   -0.40018  -0.37718  -0.35773  -0.31226  -0.31029
 Alpha  occ. eigenvalues --   -0.26308
 Alpha virt. eigenvalues --   -0.03783  -0.00165   0.01427   0.02635   0.03154
 Alpha virt. eigenvalues --    0.03208   0.04196   0.04288   0.04505   0.04825
 Alpha virt. eigenvalues --    0.04871   0.06085   0.06467   0.07016   0.07528
 Alpha virt. eigenvalues --    0.08190   0.08594   0.08883   0.09497   0.09634
 Alpha virt. eigenvalues --    0.10483   0.10877   0.11185   0.11719   0.11877
 Alpha virt. eigenvalues --    0.12093   0.12567   0.12833   0.13412   0.14277
 Alpha virt. eigenvalues --    0.14482   0.15686   0.16318   0.16379   0.16849
 Alpha virt. eigenvalues --    0.17063   0.17508   0.17979   0.18410   0.19050
 Alpha virt. eigenvalues --    0.19247   0.19889   0.20022   0.20458   0.21156
 Alpha virt. eigenvalues --    0.21497   0.21769   0.22167   0.22711   0.23237
 Alpha virt. eigenvalues --    0.23881   0.24236   0.24534   0.24964   0.25341
 Alpha virt. eigenvalues --    0.25769   0.26071   0.26358   0.26750   0.27224
 Alpha virt. eigenvalues --    0.27248   0.27372   0.28124   0.28456   0.28803
 Alpha virt. eigenvalues --    0.28858   0.29587   0.29837   0.30490   0.30931
 Alpha virt. eigenvalues --    0.31246   0.31643   0.32023   0.32385   0.32768
 Alpha virt. eigenvalues --    0.33247   0.33913   0.34142   0.34709   0.35013
 Alpha virt. eigenvalues --    0.35819   0.36331   0.36798   0.37842   0.38499
 Alpha virt. eigenvalues --    0.38722   0.39337   0.39521   0.41914   0.43054
 Alpha virt. eigenvalues --    0.43966   0.45327   0.46195   0.46876   0.48304
 Alpha virt. eigenvalues --    0.48919   0.49947   0.55869   0.56853   0.58795
 Alpha virt. eigenvalues --    0.62351   0.64387   0.65412   0.67118   0.68926
 Alpha virt. eigenvalues --    0.70547   0.71383   0.72234   0.72765   0.73190
 Alpha virt. eigenvalues --    0.74479   0.75694   0.76171   0.76507   0.77845
 Alpha virt. eigenvalues --    0.78903   0.79440   0.80357   0.80745   0.81496
 Alpha virt. eigenvalues --    0.82576   0.83576   0.84039   0.85583   0.86208
 Alpha virt. eigenvalues --    0.88098   0.92254   0.93023   0.93629   0.94691
 Alpha virt. eigenvalues --    0.95331   0.95902   0.96154   0.97151   0.99131
 Alpha virt. eigenvalues --    1.00340   1.01511   1.01760   1.02351   1.05037
 Alpha virt. eigenvalues --    1.05631   1.05992   1.06734   1.07570   1.08561
 Alpha virt. eigenvalues --    1.08925   1.10971   1.11601   1.11869   1.13633
 Alpha virt. eigenvalues --    1.13710   1.14770   1.15559   1.16124   1.17153
 Alpha virt. eigenvalues --    1.18293   1.18841   1.19969   1.20567   1.21611
 Alpha virt. eigenvalues --    1.22923   1.23946   1.25831   1.26815   1.27797
 Alpha virt. eigenvalues --    1.29978   1.31138   1.31563   1.33182   1.34000
 Alpha virt. eigenvalues --    1.34783   1.35061   1.37323   1.37626   1.38934
 Alpha virt. eigenvalues --    1.41345   1.41634   1.42559   1.43087   1.44904
 Alpha virt. eigenvalues --    1.46161   1.49018   1.50700   1.51291   1.52286
 Alpha virt. eigenvalues --    1.52626   1.53730   1.55187   1.56517   1.58874
 Alpha virt. eigenvalues --    1.60741   1.64003   1.67979   1.72224   1.73153
 Alpha virt. eigenvalues --    1.78065   1.78629   1.80117   1.82176   1.82758
 Alpha virt. eigenvalues --    1.83652   1.85487   1.86156   1.88315   1.88733
 Alpha virt. eigenvalues --    1.90046   1.91815   1.93980   1.94600   1.96211
 Alpha virt. eigenvalues --    1.98463   2.00722   2.01803   2.02004   2.04459
 Alpha virt. eigenvalues --    2.05847   2.07680   2.09032   2.10709   2.11695
 Alpha virt. eigenvalues --    2.12657   2.15594   2.15920   2.17528   2.19827
 Alpha virt. eigenvalues --    2.21211   2.22419   2.23321   2.23825   2.24507
 Alpha virt. eigenvalues --    2.26436   2.27178   2.30965   2.31788   2.33442
 Alpha virt. eigenvalues --    2.34400   2.35707   2.36391   2.39913   2.40741
 Alpha virt. eigenvalues --    2.41263   2.43233   2.46001   2.49400   2.51146
 Alpha virt. eigenvalues --    2.53736   2.58425   2.61699   2.63089   2.64701
 Alpha virt. eigenvalues --    2.68939   2.69227   2.70807   2.72148   2.75495
 Alpha virt. eigenvalues --    2.77734   2.81551   2.84771   2.87027   2.88099
 Alpha virt. eigenvalues --    2.90870   2.96135   2.99144   3.00550   3.04603
 Alpha virt. eigenvalues --    3.15888   3.36120   3.45636   3.92152   4.06723
 Alpha virt. eigenvalues --    4.21728   4.26288   4.29233   4.29685   4.33203
 Alpha virt. eigenvalues --    4.36332   4.37855   4.38738   4.43074   4.44795
 Alpha virt. eigenvalues --    4.45526   4.48786   4.53318   4.60597   4.84641
          Condensed to atoms (all electrons):
               1          2          3          4          5          6
     1  C   11.998429  -2.492264  -0.029159   0.638662  -1.025577  -0.736435
     2  C   -2.492264  13.396512  -1.780207  -2.398359   1.028018  -0.567751
     3  C   -0.029159  -1.780207   9.185705   0.282965  -1.622784  -0.625288
     4  C    0.638662  -2.398359   0.282965  12.222674  -3.332429   0.797299
     5  C   -1.025577   1.028018  -1.622784  -3.332429  13.321749   1.764401
     6  C   -0.736435  -0.567751  -0.625288   0.797299   1.764401  10.883884
     7  S   -0.121756   0.061658   0.049804   0.410308  -0.679612   0.274816
     8  O    0.003467  -0.014449   0.017690   0.021083  -0.180423   0.041638
     9  O   -0.038883   0.064781   0.163944  -0.132663  -0.190136  -0.055931
    10  N    0.123355  -0.081390   0.054349   0.153721  -0.193378   0.081881
    11  H   -0.007248   0.004377  -0.000824  -0.013410   0.009374  -0.002154
    12  H   -0.002740   0.002470  -0.002941  -0.017473  -0.011416  -0.011868
    13  C   -2.025276  -0.514114   0.393422  -1.071823  -0.377326   1.192265
    14  C    0.380991   2.446564  -0.435817  -0.081763  -1.880895  -6.010318
    15  C   -2.252928  -1.962701  -0.122203  -0.702897   0.225757   0.370841
    16  C    1.765887  -1.437484   0.262819  -0.901918  -0.085169  -1.708413
    17  N   -0.146161   0.013559   0.114510   0.035979  -0.063962  -0.001743
    18  C    0.003697   0.053122  -0.018293   0.038337  -0.010059   0.005564
    19  C    0.153382  -0.047008   0.009799   0.022720  -0.041991  -0.064882
    20  H   -0.027213   0.332030  -0.040790  -0.002790   0.007805   0.000004
    21  H    0.016066  -0.009398   0.322208  -0.041279   0.030286  -0.005239
    22  H    0.001977  -0.001428   0.010637   0.387473  -0.101039   0.010444
    23  H   -0.010014   0.004100  -0.001514   0.039658  -0.000255   0.032561
    24  H    0.014481   0.003523   0.001003  -0.000312  -0.006707  -0.042897
    25  H    0.011242   0.013367   0.002115  -0.000089   0.001212   0.005870
    26  H    0.080277  -0.038110  -0.048617   0.003248  -0.009363   0.012834
    27  H    0.025467   0.006690  -0.010239  -0.000108   0.001383   0.003411
    28  H   -0.052869   0.009104   0.011934  -0.000981  -0.000378  -0.009884
    29  H    0.002696   0.008069   0.000878   0.000105  -0.000149  -0.005907
    30  H   -0.024359   0.004322   0.002346  -0.000037  -0.000329  -0.002726
    31  H    0.023201  -0.006997  -0.002990   0.000003   0.000199   0.000864
               7          8          9         10         11         12
     1  C   -0.121756   0.003467  -0.038883   0.123355  -0.007248  -0.002740
     2  C    0.061658  -0.014449   0.064781  -0.081390   0.004377   0.002470
     3  C    0.049804   0.017690   0.163944   0.054349  -0.000824  -0.002941
     4  C    0.410308   0.021083  -0.132663   0.153721  -0.013410  -0.017473
     5  C   -0.679612  -0.180423  -0.190136  -0.193378   0.009374  -0.011416
     6  C    0.274816   0.041638  -0.055931   0.081881  -0.002154  -0.011868
     7  S   15.252377   0.427660   0.176321  -0.193029   0.003523   0.067277
     8  O    0.427660   8.780876  -0.131462  -0.137521  -0.009548   0.008226
     9  O    0.176321  -0.131462   8.809598  -0.107983   0.010184  -0.005100
    10  N   -0.193029  -0.137521  -0.107983   8.257521   0.206602   0.226609
    11  H    0.003523  -0.009548   0.010184   0.206602   0.282355  -0.014711
    12  H    0.067277   0.008226  -0.005100   0.226609  -0.014711   0.247528
    13  C   -0.822856  -0.137288   0.063185  -0.161604   0.035047  -0.004361
    14  C   -0.308408  -0.081808   0.024783  -0.207009   0.011344   0.003770
    15  C    0.015724  -0.000437  -0.001456   0.014769  -0.003962   0.000769
    16  C   -0.017672   0.009503   0.006729   0.019289  -0.003899  -0.001106
    17  N   -0.004322  -0.000145  -0.000043   0.000480  -0.000011  -0.000003
    18  C   -0.001057   0.000111  -0.000036   0.000365  -0.000025  -0.000005
    19  C   -0.002315  -0.000141   0.000023  -0.000076   0.000017  -0.000007
    20  H    0.000985   0.000001  -0.000003   0.000024   0.000000  -0.000000
    21  H   -0.001003   0.000027   0.000212   0.000041  -0.000000   0.000000
    22  H    0.000443  -0.000133   0.003182   0.000146  -0.000005  -0.000005
    23  H    0.073052  -0.008544   0.001691  -0.020207   0.012856   0.000121
    24  H   -0.001628  -0.000051   0.000001  -0.000089  -0.000014  -0.000000
    25  H   -0.000209   0.000004  -0.000000   0.000016  -0.000000  -0.000000
    26  H   -0.000299   0.000002  -0.000000  -0.000003   0.000000   0.000000
    27  H    0.000020  -0.000000   0.000000  -0.000000   0.000000   0.000000
    28  H   -0.000013  -0.000000  -0.000000   0.000000   0.000000  -0.000000
    29  H    0.000007   0.000000   0.000000  -0.000001  -0.000000   0.000000
    30  H   -0.000007  -0.000000  -0.000000   0.000000   0.000000  -0.000000
    31  H    0.000004   0.000000  -0.000000  -0.000000  -0.000000   0.000000
              13         14         15         16         17         18
     1  C   -2.025276   0.380991  -2.252928   1.765887  -0.146161   0.003697
     2  C   -0.514114   2.446564  -1.962701  -1.437484   0.013559   0.053122
     3  C    0.393422  -0.435817  -0.122203   0.262819   0.114510  -0.018293
     4  C   -1.071823  -0.081763  -0.702897  -0.901918   0.035979   0.038337
     5  C   -0.377326  -1.880895   0.225757  -0.085169  -0.063962  -0.010059
     6  C    1.192265  -6.010318   0.370841  -1.708413  -0.001743   0.005564
     7  S   -0.822856  -0.308408   0.015724  -0.017672  -0.004322  -0.001057
     8  O   -0.137288  -0.081808  -0.000437   0.009503  -0.000145   0.000111
     9  O    0.063185   0.024783  -0.001456   0.006729  -0.000043  -0.000036
    10  N   -0.161604  -0.207009   0.014769   0.019289   0.000480   0.000365
    11  H    0.035047   0.011344  -0.003962  -0.003899  -0.000011  -0.000025
    12  H   -0.004361   0.003770   0.000769  -0.001106  -0.000003  -0.000005
    13  C   16.415272  -6.432292  -0.295325  -0.454455  -0.049029  -0.052265
    14  C   -6.432292  20.646326  -0.971130  -0.586829   0.042333   0.004973
    15  C   -0.295325  -0.971130  12.477049  -0.512063  -0.336973  -0.031189
    16  C   -0.454455  -0.586829  -0.512063   9.965655   0.276472  -0.430094
    17  N   -0.049029   0.042333  -0.336973   0.276472   7.199678   0.258632
    18  C   -0.052265   0.004973  -0.031189  -0.430094   0.258632   5.666132
    19  C    0.001349  -0.019482  -0.261247  -0.154699   0.240148  -0.157359
    20  H    0.000012  -0.002772   0.007551  -0.003476   0.027456  -0.008343
    21  H   -0.001151  -0.000739   0.001091   0.003573   0.000244  -0.000151
    22  H   -0.002515  -0.000829  -0.000847  -0.000597  -0.000016   0.000001
    23  H    0.133901   0.036150   0.009899  -0.009610   0.000172   0.000108
    24  H   -0.045984   0.364388  -0.017188   0.046002  -0.000934  -0.000180
    25  H    0.047693   0.060231   0.259652  -0.069561  -0.011854  -0.001098
    26  H   -0.005521  -0.000950  -0.008354  -0.006619  -0.039744   0.383402
    27  H   -0.002084   0.002952  -0.011468   0.011883  -0.054367   0.390031
    28  H    0.006528  -0.015865   0.055100   0.004073  -0.053657   0.382959
    29  H   -0.002602  -0.004909  -0.030258  -0.015625  -0.034667   0.023071
    30  H    0.006530   0.002510   0.059035  -0.058520  -0.019709  -0.014740
    31  H   -0.000616   0.001686  -0.020252   0.013352  -0.049387  -0.014867
              19         20         21         22         23         24
     1  C    0.153382  -0.027213   0.016066   0.001977  -0.010014   0.014481
     2  C   -0.047008   0.332030  -0.009398  -0.001428   0.004100   0.003523
     3  C    0.009799  -0.040790   0.322208   0.010637  -0.001514   0.001003
     4  C    0.022720  -0.002790  -0.041279   0.387473   0.039658  -0.000312
     5  C   -0.041991   0.007805   0.030286  -0.101039  -0.000255  -0.006707
     6  C   -0.064882   0.000004  -0.005239   0.010444   0.032561  -0.042897
     7  S   -0.002315   0.000985  -0.001003   0.000443   0.073052  -0.001628
     8  O   -0.000141   0.000001   0.000027  -0.000133  -0.008544  -0.000051
     9  O    0.000023  -0.000003   0.000212   0.003182   0.001691   0.000001
    10  N   -0.000076   0.000024   0.000041   0.000146  -0.020207  -0.000089
    11  H    0.000017   0.000000  -0.000000  -0.000005   0.012856  -0.000014
    12  H   -0.000007  -0.000000   0.000000  -0.000005   0.000121  -0.000000
    13  C    0.001349   0.000012  -0.001151  -0.002515   0.133901  -0.045984
    14  C   -0.019482  -0.002772  -0.000739  -0.000829   0.036150   0.364388
    15  C   -0.261247   0.007551   0.001091  -0.000847   0.009899  -0.017188
    16  C   -0.154699  -0.003476   0.003573  -0.000597  -0.009610   0.046002
    17  N    0.240148   0.027456   0.000244  -0.000016   0.000172  -0.000934
    18  C   -0.157359  -0.008343  -0.000151   0.000001   0.000108  -0.000180
    19  C    5.601049   0.007051   0.000174  -0.000009   0.000027   0.000586
    20  H    0.007051   0.430609  -0.002504  -0.000120   0.000001   0.000000
    21  H    0.000174  -0.002504   0.427592  -0.002687   0.000000  -0.000000
    22  H   -0.000009  -0.000120  -0.002687   0.412299  -0.000010  -0.000000
    23  H    0.000027   0.000001   0.000000  -0.000010   0.492703  -0.003363
    24  H    0.000586   0.000000  -0.000000  -0.000000  -0.003363   0.435097
    25  H   -0.010954  -0.000009  -0.000000  -0.000000  -0.000148  -0.002716
    26  H    0.020319  -0.001676   0.000006  -0.000000  -0.000000  -0.000000
    27  H   -0.021616   0.000010  -0.000000   0.000000   0.000000  -0.000000
    28  H   -0.008559   0.000172   0.000000  -0.000000   0.000000   0.000002
    29  H    0.406859  -0.000006  -0.000000  -0.000000   0.000000  -0.000002
    30  H    0.375417   0.000003   0.000000   0.000000   0.000000   0.000007
    31  H    0.396859   0.000013  -0.000000   0.000000  -0.000000  -0.000000
              25         26         27         28         29         30
     1  C    0.011242   0.080277   0.025467  -0.052869   0.002696  -0.024359
     2  C    0.013367  -0.038110   0.006690   0.009104   0.008069   0.004322
     3  C    0.002115  -0.048617  -0.010239   0.011934   0.000878   0.002346
     4  C   -0.000089   0.003248  -0.000108  -0.000981   0.000105  -0.000037
     5  C    0.001212  -0.009363   0.001383  -0.000378  -0.000149  -0.000329
     6  C    0.005870   0.012834   0.003411  -0.009884  -0.005907  -0.002726
     7  S   -0.000209  -0.000299   0.000020  -0.000013   0.000007  -0.000007
     8  O    0.000004   0.000002  -0.000000  -0.000000   0.000000  -0.000000
     9  O   -0.000000  -0.000000   0.000000  -0.000000   0.000000  -0.000000
    10  N    0.000016  -0.000003  -0.000000   0.000000  -0.000001   0.000000
    11  H   -0.000000   0.000000   0.000000   0.000000  -0.000000   0.000000
    12  H   -0.000000   0.000000   0.000000  -0.000000   0.000000  -0.000000
    13  C    0.047693  -0.005521  -0.002084   0.006528  -0.002602   0.006530
    14  C    0.060231  -0.000950   0.002952  -0.015865  -0.004909   0.002510
    15  C    0.259652  -0.008354  -0.011468   0.055100  -0.030258   0.059035
    16  C   -0.069561  -0.006619   0.011883   0.004073  -0.015625  -0.058520
    17  N   -0.011854  -0.039744  -0.054367  -0.053657  -0.034667  -0.019709
    18  C   -0.001098   0.383402   0.390031   0.382959   0.023071  -0.014740
    19  C   -0.010954   0.020319  -0.021616  -0.008559   0.406859   0.375417
    20  H   -0.000009  -0.001676   0.000010   0.000172  -0.000006   0.000003
    21  H   -0.000000   0.000006  -0.000000   0.000000  -0.000000   0.000000
    22  H   -0.000000  -0.000000   0.000000  -0.000000  -0.000000   0.000000
    23  H   -0.000148  -0.000000   0.000000   0.000000   0.000000   0.000000
    24  H   -0.002716  -0.000000  -0.000000   0.000002  -0.000002   0.000007
    25  H    0.446119   0.000013   0.000002  -0.000055  -0.001741  -0.001840
    26  H    0.000013   0.468888  -0.019364  -0.031046  -0.000129  -0.000199
    27  H    0.000002  -0.019364   0.466069  -0.035482   0.000190  -0.001539
    28  H   -0.000055  -0.031046  -0.035482   0.496322  -0.000188   0.008026
    29  H   -0.001741  -0.000129   0.000190  -0.000188   0.463043  -0.034347
    30  H   -0.001840  -0.000199  -0.001539   0.008026  -0.034347   0.497637
    31  H    0.000280   0.000213   0.003558  -0.001573  -0.015625  -0.035952
              31
     1  C    0.023201
     2  C   -0.006997
     3  C   -0.002990
     4  C    0.000003
     5  C    0.000199
     6  C    0.000864
     7  S    0.000004
     8  O    0.000000
     9  O   -0.000000
    10  N   -0.000000
    11  H   -0.000000
    12  H    0.000000
    13  C   -0.000616
    14  C    0.001686
    15  C   -0.020252
    16  C    0.013352
    17  N   -0.049387
    18  C   -0.014867
    19  C    0.396859
    20  H    0.000013
    21  H   -0.000000
    22  H    0.000000
    23  H   -0.000000
    24  H   -0.000000
    25  H    0.000280
    26  H    0.000213
    27  H    0.003558
    28  H   -0.001573
    29  H   -0.015625
    30  H   -0.035952
    31  H    0.466828
 Mulliken charges:
               1
     1  C   -0.250394
     2  C   -0.100606
     3  C   -0.144463
     4  C   -0.355903
     5  C   -0.576806
     6  C    0.372860
     7  S    1.340209
     8  O   -0.608335
     9  O   -0.660940
    10  N   -1.036877
    11  H    0.480131
    12  H    0.514966
    13  C    0.163281
    14  C   -0.987189
    15  C    0.045639
    16  C    0.072571
    17  N   -0.342936
    18  C   -0.470746
    19  C   -0.445436
    20  H    0.275975
    21  H    0.262631
    22  H    0.283639
    23  H    0.216665
    24  H    0.256976
    25  H    0.252456
    26  H    0.240795
    27  H    0.244602
    28  H    0.236328
    29  H    0.241237
    30  H    0.238470
    31  H    0.241199
 Sum of Mulliken charges =  -0.00000
 Mulliken charges with hydrogens summed into heavy atoms:
               1
     1  C   -0.250394
     2  C    0.175369
     3  C    0.118168
     4  C   -0.072263
     5  C   -0.576806
     6  C    0.372860
     7  S    1.340209
     8  O   -0.608335
     9  O   -0.660940
    10  N   -0.041779
    13  C    0.379946
    14  C   -0.730213
    15  C    0.298095
    16  C    0.072571
    17  N   -0.342936
    18  C    0.250979
    19  C    0.275470
 Electronic spatial extent (au):  <R**2>=           4817.9367
 Charge=             -0.0000 electrons
 Dipole moment (field-independent basis, Debye):
    X=              9.4310    Y=             -0.9605    Z=             -4.3300  Tot=             10.4219
 Quadrupole moment (field-independent basis, Debye-Ang):
   XX=           -121.8320   YY=            -92.1326   ZZ=           -112.3664
   XY=              1.4860   XZ=             16.4937   YZ=              5.9907
 Traceless Quadrupole moment (field-independent basis, Debye-Ang):
   XX=            -13.0550   YY=             16.6444   ZZ=             -3.5894
   XY=              1.4860   XZ=             16.4937   YZ=              5.9907
 Octapole moment (field-independent basis, Debye-Ang**2):
  XXX=            208.5415  YYY=             -0.9270  ZZZ=            -16.6458  XYY=              7.4836
  XXY=            -16.3046  XXZ=            -32.2985  XZZ=             -9.3948  YZZ=             -0.2056
  YYZ=             -8.6627  XYZ=             -8.9367
 Hexadecapole moment (field-independent basis, Debye-Ang**3):
 XXXX=          -5023.0982 YYYY=          -1118.2799 ZZZZ=           -338.9288 XXXY=             38.3188
 XXXZ=            114.1902 YYYX=             -8.0194 YYYZ=             -7.7826 ZZZX=             62.1729
 ZZZY=             25.1636 XXYY=           -997.5643 XXZZ=           -852.2439 YYZZ=           -295.3925
 XXYZ=             61.0773 YYXZ=             16.6922 ZZXY=              5.3697
 N-N= 1.364619050467D+03 E-N=-5.359546654838D+03  KE= 1.115824287215D+03
 D1PCM: PCM CHGder 1st derivatives, ID1Alg=3 FixD1E=F DoIter=F DoCFld=F I1PDM=0.
 Calling FoFJK, ICntrl=      2127 FMM=F ISym2X=0 I1Cent= 0 IOpClX= 0 NMat=1 NMatS=1 NMatT=0.
 ***** Axes restored to original set *****
 -------------------------------------------------------------------
 Center     Atomic                   Forces (Hartrees/Bohr)
 Number     Number              X              Y              Z
 -------------------------------------------------------------------
      1        6           0.000229946   -0.000254118   -0.000121565
      2        6           0.000052631   -0.000068435   -0.000186656
      3        6          -0.000406291   -0.000548899    0.000269711
      4        6           0.000819851    0.000630554   -0.000035999
      5        6          -0.001083981    0.001204957   -0.003577804
      6        6          -0.000221960   -0.001489425    0.000123560
      7       16           0.001429278    0.001476548    0.000236937
      8        8           0.001014759   -0.001926233    0.002610395
      9        8          -0.001048208    0.002486033    0.003054790
     10        7           0.000699480   -0.000408186   -0.001051852
     11        1           0.003386552   -0.000571718   -0.007481676
     12        1          -0.001496219    0.000035705   -0.000477300
     13        6          -0.001361365    0.001749605   -0.000389209
     14        6           0.001032536   -0.000081918   -0.000149368
     15        6           0.000019347   -0.000403416   -0.000159429
     16        6          -0.000248881    0.000190210    0.000097851
     17        7           0.000426528   -0.000191221   -0.000079453
     18        6          -0.000158638   -0.000139658   -0.000022484
     19        6           0.000105089    0.000075783    0.000076368
     20        1           0.000050308    0.000034963   -0.000010947
     21        1          -0.000050316   -0.000105901    0.000075770
     22        1           0.000236668    0.000170749   -0.000605961
     23        1          -0.003462236   -0.001879256    0.008062587
     24        1          -0.000013673    0.000047158   -0.000110501
     25        1           0.000092804   -0.000111553   -0.000011446
     26        1          -0.000027136    0.000004384    0.000009014
     27        1           0.000017406    0.000044335   -0.000016067
     28        1          -0.000001938    0.000037577   -0.000054668
     29        1           0.000013243    0.000025070   -0.000031933
     30        1          -0.000053934   -0.000015072    0.000001107
     31        1           0.000008350   -0.000018623   -0.000043772
 -------------------------------------------------------------------
 Cartesian Forces:  Max     0.008062587 RMS     0.001508902

 GradGradGradGradGradGradGradGradGradGradGradGradGradGradGradGradGradGrad
 Berny optimization.
 FormGI is forming the generalized inverse of G from B-inverse, IUseBI=4.
 Internal  Forces:  Max     0.016031561 RMS     0.003316373
 Search for a local minimum.
 Step number   1 out of a maximum of  168
 All quantities printed in internal units (Hartrees-Bohrs-Radians)
 Mixed Optimization -- RFO/linear search
 Second derivative matrix not updated -- first step.
 ITU=  0
     Eigenvalues ---    0.00566   0.00759   0.00911   0.01464   0.01465
     Eigenvalues ---    0.01656   0.01721   0.01765   0.01801   0.01932
     Eigenvalues ---    0.01938   0.02025   0.02060   0.02079   0.02151
     Eigenvalues ---    0.02178   0.02179   0.02220   0.02281   0.02308
     Eigenvalues ---    0.02822   0.04439   0.07186   0.07238   0.07457
     Eigenvalues ---    0.07669   0.09239   0.10255   0.14464   0.15988
     Eigenvalues ---    0.15997   0.15998   0.15998   0.15999   0.16000
     Eigenvalues ---    0.16000   0.16000   0.16000   0.16000   0.16000
     Eigenvalues ---    0.16000   0.16000   0.16000   0.17292   0.19684
     Eigenvalues ---    0.19918   0.22057   0.22118   0.23480   0.23507
     Eigenvalues ---    0.24855   0.24898   0.24991   0.24998   0.25000
     Eigenvalues ---    0.27316   0.33514   0.33541   0.34443   0.34479
     Eigenvalues ---    0.34519   0.34788   0.35269   0.35408   0.35467
     Eigenvalues ---    0.35484   0.35521   0.35603   0.35682   0.36688
     Eigenvalues ---    0.37090   0.38245   0.39164   0.40810   0.41481
     Eigenvalues ---    0.42353   0.42856   0.42883   0.43192   0.44016
     Eigenvalues ---    0.44109   0.47652   0.48482   0.49551   0.49857
     Eigenvalues ---    0.89806   0.90412
 RFO step:  Lambda=-1.79644578D-02 EMin= 5.65734471D-03
 Linear search not attempted -- first point.
 Iteration  1 RMS(Cart)=  0.17447604 RMS(Int)=  0.01601751
 Iteration  2 RMS(Cart)=  0.04074021 RMS(Int)=  0.00087662
 Iteration  3 RMS(Cart)=  0.00139252 RMS(Int)=  0.00037624
 Iteration  4 RMS(Cart)=  0.00000238 RMS(Int)=  0.00037624
 Iteration  5 RMS(Cart)=  0.00000000 RMS(Int)=  0.00037624
 Variable       Old X    -DE/DX   Delta X   Delta X   Delta X     New X
                                 (Linear)    (Quad)   (Total)
    R1        2.68659  -0.00083   0.00000  -0.00201  -0.00197   2.68463
    R2        2.70096   0.00269   0.00000   0.00754   0.00746   2.70842
    R3        2.72345  -0.00006   0.00000   0.00015   0.00007   2.72352
    R4        2.59284  -0.00240   0.00000  -0.00524  -0.00520   2.58764
    R5        2.04896  -0.00002   0.00000  -0.00006  -0.00006   2.04890
    R6        2.66621  -0.00153   0.00000  -0.00401  -0.00401   2.66220
    R7        2.05017  -0.00001   0.00000  -0.00003  -0.00003   2.05014
    R8        2.59599   0.00042   0.00000   0.00090   0.00086   2.59685
    R9        2.04923   0.00041   0.00000   0.00110   0.00110   2.05033
   R10        2.70659   0.00671   0.00000   0.01660   0.01654   2.72313
   R11        3.37359   0.00330   0.00000   0.01135   0.01135   3.38494
   R12        2.68783   0.00250   0.00000   0.00596   0.00598   2.69381
   R13        2.76444   0.00333   0.00000   0.00361   0.00361   2.76805
   R14        2.76722  -0.00336   0.00000  -0.00367  -0.00367   2.76355
   R15        3.12176   0.00232   0.00000   0.00526   0.00526   3.12702
   R16        1.93135  -0.00592   0.00000  -0.01293  -0.01293   1.91843
   R17        1.93024   0.00043   0.00000   0.00095   0.00095   1.93119
   R18        2.59235  -0.00067   0.00000  -0.00154  -0.00146   2.59089
   R19        2.04707  -0.00420   0.00000  -0.01122  -0.01122   2.03585
   R20        2.66816  -0.00199   0.00000  -0.00493  -0.00486   2.66330
   R21        2.05240  -0.00007   0.00000  -0.00019  -0.00019   2.05221
   R22        2.60873  -0.00160   0.00000  -0.00339  -0.00340   2.60533
   R23        2.04838  -0.00006   0.00000  -0.00016  -0.00016   2.04822
   R24        2.67814  -0.00040   0.00000  -0.00090  -0.00090   2.67724
   R25        2.77882   0.00016   0.00000   0.00043   0.00043   2.77925
   R26        2.75711   0.00005   0.00000   0.00012   0.00012   2.75723
   R27        2.06021   0.00000   0.00000   0.00000   0.00000   2.06021
   R28        2.06589   0.00000   0.00000   0.00001   0.00001   2.06590
   R29        2.08159  -0.00006   0.00000  -0.00017  -0.00017   2.08142
   R30        2.06462   0.00002   0.00000   0.00007   0.00007   2.06469
   R31        2.08112  -0.00000   0.00000  -0.00001  -0.00001   2.08111
   R32        2.06530  -0.00002   0.00000  -0.00005  -0.00005   2.06524
    A1        2.08173   0.00231   0.00000   0.00922   0.00912   2.09085
    A2        2.11281  -0.00421   0.00000  -0.01700  -0.01685   2.09596
    A3        2.08803   0.00192   0.00000   0.00853   0.00826   2.09628
    A4        2.12228   0.00038   0.00000   0.00030   0.00011   2.12239
    A5        2.07630  -0.00021   0.00000  -0.00008  -0.00013   2.07618
    A6        2.08444  -0.00015   0.00000   0.00020   0.00016   2.08460
    A7        2.09406  -0.00044   0.00000  -0.00430  -0.00449   2.08957
    A8        2.10389   0.00022   0.00000   0.00212   0.00216   2.10605
    A9        2.08522   0.00022   0.00000   0.00212   0.00216   2.08738
   A10        2.08556   0.00293   0.00000   0.01140   0.01096   2.09652
   A11        2.09767  -0.00143   0.00000  -0.00569  -0.00576   2.09191
   A12        2.09983  -0.00153   0.00000  -0.00624  -0.00630   2.09353
   A13        2.14070  -0.00195   0.00000  -0.00566  -0.00599   2.13470
   A14        2.02864  -0.01313   0.00000  -0.04987  -0.04972   1.97892
   A15        2.11378   0.01508   0.00000   0.05541   0.05554   2.16933
   A16        2.03954  -0.00320   0.00000  -0.00986  -0.01047   2.02907
   A17        2.07962  -0.00517   0.00000  -0.01874  -0.01920   2.06041
   A18        2.16390   0.00840   0.00000   0.02943   0.02918   2.19308
   A19        1.87836  -0.00184   0.00000   0.01105   0.00868   1.88704
   A20        1.90625  -0.00721   0.00000  -0.04639  -0.04550   1.86076
   A21        1.90617   0.01603   0.00000   0.06424   0.06344   1.96961
   A22        2.06891   0.00253   0.00000   0.00013   0.00033   2.06924
   A23        1.84393   0.00166   0.00000   0.03278   0.03109   1.87502
   A24        1.85510  -0.00901   0.00000  -0.05186  -0.05077   1.80433
   A25        1.94813   0.00961   0.00000   0.05804   0.05798   2.00611
   A26        1.97262  -0.00417   0.00000  -0.01946  -0.01953   1.95309
   A27        1.93089  -0.00219   0.00000  -0.00554  -0.00564   1.92525
   A28        2.09139   0.00273   0.00000   0.01207   0.01153   2.10292
   A29        2.11216   0.00302   0.00000   0.01933   0.01881   2.13097
   A30        2.07902  -0.00567   0.00000  -0.02943  -0.02993   2.04909
   A31        2.12104   0.00048   0.00000   0.00063   0.00060   2.12164
   A32        2.08642  -0.00026   0.00000  -0.00053  -0.00058   2.08583
   A33        2.07561  -0.00023   0.00000  -0.00036  -0.00041   2.07519
   A34        2.10784  -0.00078   0.00000  -0.00465  -0.00485   2.10298
   A35        2.07121   0.00027   0.00000   0.00147   0.00139   2.07260
   A36        2.10403   0.00050   0.00000   0.00278   0.00271   2.10674
   A37        2.07630   0.00088   0.00000   0.00363   0.00336   2.07966
   A38        2.06713  -0.00059   0.00000  -0.00226  -0.00216   2.06498
   A39        2.13948  -0.00029   0.00000  -0.00114  -0.00103   2.13845
   A40        1.96654   0.00006   0.00000   0.00066   0.00066   1.96721
   A41        2.00838  -0.00003   0.00000   0.00019   0.00019   2.00857
   A42        1.90440   0.00003   0.00000   0.00045   0.00045   1.90484
   A43        1.94369   0.00005   0.00000   0.00033   0.00033   1.94402
   A44        1.90529  -0.00006   0.00000  -0.00038  -0.00038   1.90490
   A45        1.93188  -0.00001   0.00000  -0.00007  -0.00007   1.93181
   A46        1.89555   0.00000   0.00000  -0.00001  -0.00001   1.89554
   A47        1.89014  -0.00000   0.00000   0.00004   0.00004   1.89018
   A48        1.89636   0.00003   0.00000   0.00009   0.00009   1.89645
   A49        1.92502   0.00001   0.00000   0.00010   0.00010   1.92511
   A50        1.96657  -0.00001   0.00000  -0.00003  -0.00003   1.96654
   A51        1.88868  -0.00007   0.00000  -0.00051  -0.00051   1.88817
   A52        1.90202   0.00005   0.00000   0.00045   0.00045   1.90247
   A53        1.89579   0.00002   0.00000   0.00002   0.00002   1.89581
   A54        1.88411   0.00002   0.00000  -0.00003  -0.00003   1.88409
    D1        0.05410   0.00078   0.00000   0.01636   0.01606   0.07016
    D2       -3.06818  -0.00025   0.00000  -0.00857  -0.00870  -3.07688
    D3       -3.12555   0.00162   0.00000   0.03949   0.03904  -3.08651
    D4        0.03536   0.00060   0.00000   0.01456   0.01428   0.04964
    D5       -0.07312   0.00102   0.00000   0.03092   0.03135  -0.04177
    D6        3.05180   0.00293   0.00000   0.08423   0.08376   3.13556
    D7        3.10598   0.00032   0.00000   0.00869   0.00893   3.11490
    D8       -0.05229   0.00224   0.00000   0.06200   0.06133   0.00904
    D9       -3.03161  -0.00161   0.00000  -0.04729  -0.04713  -3.07873
   D10        0.08550  -0.00124   0.00000  -0.03720  -0.03710   0.04840
   D11        0.07180  -0.00076   0.00000  -0.02407  -0.02406   0.04774
   D12       -3.09428  -0.00039   0.00000  -0.01398  -0.01404  -3.10832
   D13        0.00459  -0.00115   0.00000  -0.03126  -0.03139  -0.02681
   D14       -3.13213  -0.00065   0.00000  -0.01570  -0.01563   3.13543
   D15        3.12678  -0.00012   0.00000  -0.00621  -0.00652   3.12026
   D16       -0.00994   0.00038   0.00000   0.00934   0.00925  -0.00069
   D17       -0.04137  -0.00020   0.00000  -0.00301  -0.00283  -0.04419
   D18        3.11708   0.00117   0.00000   0.03330   0.03352  -3.13258
   D19        3.09541  -0.00069   0.00000  -0.01840  -0.01843   3.07698
   D20       -0.02933   0.00068   0.00000   0.01791   0.01792  -0.01141
   D21        0.01919   0.00194   0.00000   0.05307   0.05307   0.07226
   D22       -3.13490   0.00173   0.00000   0.04294   0.04323  -3.09167
   D23       -3.13928   0.00057   0.00000   0.01672   0.01669  -3.12259
   D24       -0.01018   0.00036   0.00000   0.00659   0.00685  -0.00333
   D25        0.03808  -0.00241   0.00000  -0.06649  -0.06632  -0.02824
   D26       -3.08595  -0.00428   0.00000  -0.12210  -0.12269   3.07454
   D27       -3.09042  -0.00199   0.00000  -0.05512  -0.05459   3.13817
   D28        0.06873  -0.00386   0.00000  -0.11073  -0.11097  -0.04223
   D29       -2.09628  -0.00138   0.00000  -0.19973  -0.19936  -2.29564
   D30        0.17113  -0.00458   0.00000  -0.22435  -0.22398  -0.05285
   D31        2.19317  -0.01046   0.00000  -0.27646  -0.27698   1.91619
   D32        1.03303  -0.00171   0.00000  -0.21015  -0.20993   0.82310
   D33       -2.98275  -0.00491   0.00000  -0.23477  -0.23454   3.06589
   D34       -0.96071  -0.01079   0.00000  -0.28687  -0.28754  -1.24825
   D35        0.00043  -0.00206   0.00000  -0.05704  -0.05670  -0.05627
   D36       -3.10297  -0.00432   0.00000  -0.11688  -0.11747   3.06274
   D37        3.12408  -0.00013   0.00000  -0.00014   0.00068   3.12476
   D38        0.02068  -0.00239   0.00000  -0.05998  -0.06009  -0.03941
   D39        1.04890   0.00492   0.00000   0.05754   0.05859   1.10749
   D40       -1.14093   0.00343   0.00000   0.03367   0.03467  -1.10625
   D41       -0.96703  -0.00144   0.00000  -0.00296  -0.00382  -0.97085
   D42        3.12633  -0.00293   0.00000  -0.02683  -0.02774   3.09859
   D43        3.10339  -0.00027   0.00000   0.00753   0.00741   3.11081
   D44        0.91356  -0.00176   0.00000  -0.01634  -0.01650   0.89706
   D45        0.03276   0.00051   0.00000   0.01438   0.01479   0.04755
   D46       -3.12573  -0.00012   0.00000  -0.00354  -0.00321  -3.12894
   D47        3.13688   0.00291   0.00000   0.07414   0.07381  -3.07249
   D48       -0.02161   0.00228   0.00000   0.05622   0.05580   0.03420
   D49       -0.01267   0.00091   0.00000   0.02442   0.02428   0.01160
   D50        3.11309  -0.00016   0.00000  -0.00422  -0.00433   3.10876
   D51       -3.13747   0.00153   0.00000   0.04224   0.04218  -3.09530
   D52       -0.01171   0.00047   0.00000   0.01359   0.01357   0.00186
   D53       -0.03987  -0.00069   0.00000  -0.01856  -0.01864  -0.05851
   D54        3.12728  -0.00107   0.00000  -0.02907  -0.02910   3.09818
   D55        3.11785   0.00040   0.00000   0.01064   0.01055   3.12839
   D56        0.00181   0.00001   0.00000   0.00013   0.00009   0.00190
   D57        1.24784  -0.00031   0.00000  -0.00826  -0.00821   1.23963
   D58       -2.83690  -0.00024   0.00000  -0.00688  -0.00683  -2.84373
   D59       -1.91918   0.00009   0.00000   0.00229   0.00224  -1.91694
   D60        0.27927   0.00016   0.00000   0.00366   0.00361   0.28288
   D61       -0.84327   0.00000   0.00000   0.00036   0.00036  -0.84291
   D62       -2.93615   0.00001   0.00000   0.00042   0.00042  -2.93573
   D63        1.26048   0.00003   0.00000   0.00059   0.00059   1.26106
   D64       -3.09669  -0.00003   0.00000  -0.00079  -0.00079  -3.09747
   D65        1.09362  -0.00002   0.00000  -0.00073  -0.00073   1.09289
   D66       -0.99294  -0.00001   0.00000  -0.00056  -0.00056  -0.99350
   D67        0.92527  -0.00003   0.00000  -0.00099  -0.00099   0.92428
   D68       -1.20447  -0.00009   0.00000  -0.00161  -0.00161  -1.20608
   D69        2.99681  -0.00005   0.00000  -0.00121  -0.00121   2.99560
   D70       -3.12783   0.00005   0.00000   0.00046   0.00046  -3.12737
   D71        1.02561  -0.00000   0.00000  -0.00016  -0.00016   1.02545
   D72       -1.05629   0.00003   0.00000   0.00023   0.00023  -1.05605
         Item               Value     Threshold  Converged?
 Maximum Force            0.016032     0.000450     NO 
 RMS     Force            0.003316     0.000300     NO 
 Maximum Displacement     1.271284     0.001800     NO 
 RMS     Displacement     0.205560     0.001200     NO 
 Predicted change in Energy=-1.327318D-02
 GradGradGradGradGradGradGradGradGradGradGradGradGradGradGradGradGradGrad

                          Input orientation:                          
 ---------------------------------------------------------------------
 Center     Atomic      Atomic             Coordinates (Angstroms)
 Number     Number       Type             X           Y           Z
 ---------------------------------------------------------------------
      1          6           0       -1.550281    1.248404   -1.214181
      2          6           0       -2.676392    1.325997   -2.076782
      3          6           0       -2.743095    0.601317   -3.236708
      4          6           0       -1.661379   -0.220303   -3.610182
      5          6           0       -0.523292   -0.254141   -2.840753
      6          6           0       -0.413927    0.462574   -1.595403
      7         16           0        0.765749   -1.293775   -3.523434
      8          8           0        1.259553   -2.167175   -2.456226
      9          8           0        0.212465   -1.908070   -4.729733
     10          7           0        2.056036   -0.427720   -4.092031
     11          1           0        2.560222    0.101576   -3.387583
     12          1           0        1.794212    0.178949   -4.871624
     13          6           0        0.698602    0.416851   -0.705319
     14          6           0        0.698739    1.160149    0.446750
     15          6           0       -0.411707    1.944171    0.818924
     16          6           0       -1.543234    1.972738    0.031780
     17          7           0       -2.702282    2.704300    0.390325
     18          6           0       -3.828937    1.835907    0.763891
     19          6           0       -2.503847    3.705541    1.432920
     20          1           0       -3.503160    1.972148   -1.803835
     21          1           0       -3.613045    0.667832   -3.881490
     22          1           0       -1.708443   -0.788959   -4.533011
     23          1           0        1.555769   -0.208466   -0.892076
     24          1           0        1.559692    1.122421    1.107579
     25          1           0       -0.374581    2.489689    1.754771
     26          1           0       -3.981572    1.044764    0.029471
     27          1           0       -4.740233    2.436822    0.823751
     28          1           0       -3.650601    1.367565    1.744718
     29          1           0       -1.679010    4.371017    1.167341
     30          1           0       -2.300362    3.257810    2.418284
     31          1           0       -3.418196    4.298545    1.514756
 ---------------------------------------------------------------------
                    Distance matrix (angstroms):
                    1          2          3          4          5
     1  C    0.000000
     2  C    1.420643   0.000000
     3  C    2.435599   1.369321   0.000000
     4  C    2.812519   2.402626   1.408777   0.000000
     5  C    2.440919   2.777828   2.411662   1.374193   0.000000
     6  C    1.433234   2.469002   2.852746   2.466129   1.441019
     7  S    4.142380   4.561177   3.998195   2.655336   1.791233
     8  O    4.593912   5.276163   4.928985   3.695100   2.643123
[...]
 -0.00172010,-0.00276135,-0.00307666,-0.01983353,-0.13872182,-0.2693046
 0,-0.00266113,-0.00811541,-0.00947250,0.00182361,0.00072983,-0.0016306
 4,0.00033230,-0.00004618,-0.00023822,0.00151420,-0.00107480,-0.0006074
 8,-0.00005728,-0.00010485,0.00005615,-0.00000652,-0.00005610,-0.000041
 92,-0.00002549,-0.00005152,0.00002231,-0.00021202,-0.00017583,-0.00018
 895,0.00060301,0.00162153,-0.00025287,0.02082327,0.15311267,0.28110783
 ,-0.00102986,-0.00037785,0.00085266,-0.00070387,0.00010132,0.00120676,
 0.00005960,-0.00000199,0.00002080,-0.00001834,-0.00000996,-0.00002943,
 0.00009063,-0.00012363,-0.00003565,-0.00006552,0.00005891,-0.00000150,
 -0.00020635,0.00015699,0.00009910,0.00005885,-0.00005998,0.00001435,0.
 00003010,-0.00005345,-0.00006626,0.00008432,-0.00000047,-0.00003629,-0
 .00001454,0.00000018,0.00000268,-0.00000677,-0.00000289,0.00001062,0.0
 0005048,-0.00001286,0.00003627,-0.00004424,-0.00013771,0.00000171,-0.0
 0015609,0.00021950,0.00008219,0.00062254,-0.00118690,-0.00166233,-0.00
 659427,-0.02072682,-0.01750851,-0.05515912,-0.02566250,-0.02393278,-0.
 00433310,-0.00190023,0.00240280,0.00019920,-0.00027183,0.00037956,-0.0
 0000481,-0.00001879,-0.00003004,0.00001327,-0.00000591,-0.00000898,0.0
 0002353,0.00001597,-0.00000126,-0.00000964,0.00000004,0.00001416,0.000
 09167,-0.00000288,0.00000381,0.06061045,0.00076808,0.00034054,-0.00060
 142,-0.00014218,0.00054910,-0.00063746,0.00015726,0.00012174,0.0001707
 0,0.00018159,-0.00021637,-0.00000352,-0.00000809,-0.00016130,-0.000224
 18,-0.00072563,0.00046239,0.00020907,-0.00014745,0.00013001,0.00004299
 ,0.00004264,-0.00004157,0.00001634,0.00002444,-0.00003724,-0.00004015,
 0.00006433,-0.00000323,-0.00002472,-0.00000614,-0.00000359,-0.00000650
 ,-0.00000440,-0.00000265,0.00001435,0.00022452,0.00012499,0.00038274,0
 .00026641,-0.00037015,-0.00028777,-0.00075913,0.00025915,-0.00006619,0
 .00188026,-0.00047696,-0.00051779,-0.00322322,-0.01621746,-0.01214720,
 -0.03149484,-0.19671770,-0.13541240,-0.00362028,-0.00072379,0.00234567
 ,0.00002831,-0.00036789,0.00078596,0.00000304,0.00001094,-0.00002300,0
 .00001672,-0.00002615,0.00000444,0.00001958,0.00000472,0.00001484,-0.0
 0002095,0.00001564,0.00000478,0.00005135,-0.00000853,0.00002600,0.0377
 8423,0.21300504,0.00147731,0.00054218,-0.00019607,0.00119067,0.0006157
 2,-0.00318050,-0.00002699,0.00023010,0.00015569,0.00027208,-0.00025127
 ,0.00007860,-0.00014979,-0.00004289,-0.00020062,-0.00049553,0.00026952
 ,0.00019046,0.00011693,-0.00007770,-0.00008652,-0.00003936,0.00004223,
 -0.00001157,-0.00001400,0.00002268,0.00003677,-0.00003476,0.00000085,0
 .00001515,0.00000737,0.00000145,-0.00000681,0.00000533,0.00000216,-0.0
 0000499,-0.00000372,0.00005673,0.00015704,0.00020294,-0.00008511,-0.00
 008443,-0.00029679,-0.00011154,-0.00020016,0.00071492,-0.00022215,0.00
 026536,0.00075659,0.00992242,0.00785820,-0.02972454,-0.14307759,-0.180
 13150,0.00108718,0.00096356,0.00034765,0.00136123,0.00100886,-0.002168
 87,-0.00000136,0.00002303,0.00001134,-0.00000617,-0.00000609,0.0000095
 7,-0.00000264,-0.00000435,0.00000411,-0.00000015,0.00001037,-0.0000161
 9,-0.00001226,-0.00000145,0.00002003,0.02602083,0.14934799,0.19450176,
 0.00003073,0.00007406,-0.00017230,-0.00007708,-0.00007562,0.00008343,-
 0.00000223,0.00007478,0.00010830,0.00007747,-0.00001674,0.00006663,-0.
 00006486,0.00003011,-0.00000166,-0.00008709,0.00015047,-0.00004881,0.0
 0018932,-0.00016453,-0.00012311,-0.00005832,0.00008330,0.00000539,-0.0
 0003174,0.00006726,0.00008612,-0.00007619,-0.00000270,0.00003738,0.000
 02888,0.00000246,-0.00001478,0.00000434,0.00000695,-0.00001146,-0.0001
 6856,0.00012852,0.00017609,0.00006868,0.00008948,-0.00046974,-0.000994
 91,0.00061866,0.00082007,-0.00229545,-0.00437958,-0.00167751,-0.025583
 72,0.00999303,0.00790746,-0.23131089,0.12604024,0.01417224,0.00025779,
 0.00176084,0.00050942,-0.00017942,0.00012647,0.00008376,0.00001128,0.0
 0001978,0.00002188,-0.00000214,0.00000383,0.00000597,-0.00001259,-0.00
 001695,0.00004112,-0.00012680,0.00007803,0.00002278,-0.00000796,-0.000
 12389,0.00001463,0.00663395,-0.00304005,0.00006895,0.25803137,-0.00003
 136,0.00002493,0.00002403,-0.00008380,0.00006486,0.00003234,0.00007350
 ,0.00000351,-0.00000236,-0.00001233,-0.00002675,0.00001464,0.00001923,
 -0.00001129,-0.00001780,-0.00013119,0.00009529,0.00000030,-0.00000526,
 0.00000007,-0.00000524,0.00000062,0.00000822,0.00000270,0.00000009,0.0
 0000331,0.00000408,0.00000492,-0.00000144,-0.00000017,0.00000400,-0.00
 000003,-0.00000503,-0.00000046,0.00000082,0.00000088,0.00001071,0.0000
 7015,0.00011688,0.00003429,0.00005817,-0.00037478,-0.00087928,0.000824
 48,0.00044067,-0.00335201,-0.00155292,-0.00061938,-0.02171884,0.010342
 69,0.00344715,0.13464636,-0.14164009,-0.01218241,-0.00151760,0.0011030
 3,0.00078164,0.00016126,-0.00017372,-0.00014713,0.00000423,0.00000971,
 -0.00000649,0.00000507,-0.00000295,-0.00000012,-0.00000246,-0.00001023
 ,0.00002752,-0.00008531,0.00002212,0.00003388,-0.00001720,-0.00008818,
 0.00006493,0.01833233,-0.01106691,0.00060600,-0.13523663,0.14852871,0.
 00012513,0.00001768,-0.00007309,0.00013651,0.00001888,0.00009894,-0.00
 001740,-0.00002456,-0.00006684,-0.00003631,-0.00001756,-0.00002566,0.0
 0004156,-0.00005395,-0.00002175,-0.00012687,0.00008005,0.00000149,-0.0
 0013423,0.00011929,0.00007137,0.00003907,-0.00005425,0.00000139,0.0000
 2184,-0.00004598,-0.00005547,0.00005517,0.00000085,-0.00002502,-0.0000
 1645,-0.00000132,0.00000705,-0.00000372,-0.00000389,0.00000852,0.00015
 785,-0.00004584,-0.00000619,0.00006815,-0.00002904,0.00018173,0.000715
 97,-0.00024139,-0.00043915,0.00146812,0.00151108,0.00148284,0.01227625
 ,-0.00658213,-0.00265597,0.01261139,-0.00917935,-0.05196081,-0.0008589
 8,-0.00055838,0.00002131,-0.00000798,0.00000763,0.00000395,0.00000062,
 -0.00000459,-0.00002537,0.00000028,-0.00000258,-0.00000314,0.00000442,
 -0.00000131,-0.00001149,0.00005339,-0.00007607,0.00000970,-0.00000302,
 0.00004718,-0.00001683,0.01878722,-0.01137602,-0.00029307,-0.02103194,
 0.00923962,0.05077109,0.00001616,0.00118725,0.00051384,-0.00032695,0.0
 0009298,-0.00017726,-0.00002056,0.00007891,0.00009911,0.00009917,-0.00
 003978,0.00004371,-0.00003553,-0.00003486,-0.00005865,0.00034229,-0.00
 003630,0.00010250,0.00003512,-0.00003608,-0.00003431,-0.00001222,0.000
 02408,0.00000341,-0.00000586,0.00001923,0.00002415,-0.00001812,-0.0000
 0195,0.00001079,0.00000932,-0.00000014,-0.00000718,0.00000181,0.000002
 75,-0.00000245,-0.00031526,-0.00003252,-0.00012843,0.00007677,0.000197
 92,0.00011593,0.00013977,0.00012361,-0.00136507,0.00566482,-0.00446657
 ,0.00082330,-0.00569211,-0.01828086,0.02747789,-0.06328588,0.02534068,
 -0.05236741,0.00124766,0.00137229,0.00362460,-0.00000171,-0.00008438,0
 .00009851,0.00000337,0.00000393,0.00000768,0.00000442,-0.00000245,0.00
 000074,-0.00000191,-0.00001490,0.00000377,0.00000768,-0.00001316,-0.00
 001132,-0.00006143,-0.00012094,0.00006014,-0.00067053,0.00229319,-0.00
 304746,-0.00448260,0.00943249,-0.02402918,0.06757092,0.00006012,0.0004
 6918,0.00045133,-0.00039422,0.00024735,-0.00075031,0.00006927,0.000249
 88,0.00033692,0.00025327,-0.00013745,0.00005779,-0.00005195,-0.0000661
 2,-0.00016984,-0.00021426,0.00016062,0.00000902,0.00007295,-0.00007921
 ,-0.00009966,-0.00002613,0.00005875,0.00002167,-0.00001229,0.00003679,
 0.00005465,-0.00003010,-0.00000298,0.00002005,0.00002532,0.00000051,-0
 .00001867,0.00000226,0.00000375,-0.00000446,-0.00026491,0.00030182,0.0
 0033720,0.00033832,-0.00050203,-0.00012213,-0.00151497,0.00010828,-0.0
 0016416,0.00403323,-0.00241138,-0.00176634,-0.01045854,-0.01370438,0.0
 2006156,0.02604625,-0.09025353,0.08694347,0.00052627,0.00143921,0.0031
 2775,0.00017389,-0.00016094,0.00004679,0.00000056,0.00000505,0.0000143
 8,0.00001004,-0.00001486,0.00000905,0.00002512,0.00001238,0.00000967,-
 0.00004139,0.00006018,-0.00003791,0.00003608,0.00005885,-0.00002032,-0
 .00491722,0.01170843,-0.02029830,0.00447218,-0.00648001,0.01679253,-0.
 01843126,0.09861759,0.00033265,-0.00060603,-0.00063478,0.00015149,0.00
 024414,0.00005083,0.00005352,-0.00005258,-0.00005825,-0.00005106,-0.00
 002942,-0.00007408,0.00007448,-0.00007004,-0.00004910,-0.00015445,0.00
 010777,0.00008949,-0.00024896,0.00023238,0.00014548,0.00007848,-0.0001
 1339,-0.00000010,0.00004088,-0.00008764,-0.00010425,0.00010764,-0.0000
 0352,-0.00005115,-0.00003750,-0.00000191,0.00001767,-0.00000671,-0.000
 00813,0.00001523,0.00035042,-0.00029325,-0.00017927,-0.00018533,0.0003
 7786,0.00005974,0.00142977,-0.00012342,-0.00031899,-0.00315958,0.00163
 984,0.00170380,0.00908573,0.00977304,-0.01134401,-0.05262738,0.0864722
 6,-0.24793249,0.00004821,-0.00290960,0.00260836,0.00018806,-0.00009634
 ,0.00022584,-0.00000694,-0.00000912,-0.00003143,0.00000555,-0.00001025
 ,-0.00000571,-0.00000598,-0.00001460,-0.00000639,0.00006875,-0.0000487
 8,0.00002050,-0.00005666,-0.00006172,0.00002601,-0.00564087,0.00929376
 ,-0.01770697,-0.00009171,-0.00170908,0.00303152,0.04970705,-0.10361034
 ,0.26981920,0.00023935,-0.00015092,-0.00021063,0.00003810,0.00000930,-
 0.00002252,-0.00003230,0.00003678,-0.00001712,0.00002727,-0.00000063,0
 .00002839,0.00000853,-0.00008935,-0.00005857,0.00010801,0.00000808,0.0
 0009378,-0.00006207,0.00003878,0.00004154,0.00001881,-0.00002058,-0.00
 000306,0.00000883,-0.00001338,-0.00002599,0.00002116,0.00000210,-0.000
 00929,-0.00000602,-0.00000053,0.00000512,-0.00000137,-0.00000140,0.000
 00261,-0.00001930,-0.00013792,-0.00020161,-0.00015768,0.00027875,0.000
 30010,-0.00007702,0.00060945,-0.00021351,0.00008328,0.00138602,0.00011
 533,-0.00492698,-0.00246892,0.00002038,0.00106610,-0.00076318,-0.00166
 599,-0.20518156,-0.12612885,0.05940536,0.00001393,-0.00006326,0.000043
 89,0.00000171,0.00000047,-0.00000658,0.00000022,-0.00000701,-0.0000014
 3,-0.00000272,0.00000476,0.00000161,0.00002509,-0.00000820,0.00000032,
 -0.00022730,0.00100433,-0.00000991,-0.00002330,-0.00045825,0.00031957,
 0.00035714,-0.00008425,-0.00004771,-0.00003765,-0.00001353,0.00023313,
 0.21966860,-0.00000455,-0.00022922,-0.00049872,0.00008598,0.00005731,0
 .00019017,0.00007395,-0.00013576,-0.00011359,-0.00014426,0.00007060,-0
 .00000844,0.00006394,0.00001443,0.00009638,-0.00029257,0.00008252,-0.0
 0008376,-0.00000361,0.00000351,0.00000970,0.00000310,0.00000011,-0.000
 00180,-0.00000091,0.00000175,0.00000015,0.00000541,0.00000228,-0.00000
 358,-0.00000069,-0.00000042,0.00000037,0.00000037,-0.00000130,-0.00000
 050,0.00014442,0.00009473,0.00026957,0.00027350,-0.00000187,-0.0001065
 4,0.00006310,-0.00011052,0.00003290,-0.00221859,0.00078011,0.00119987,
 -0.01813179,-0.01692879,0.00407554,0.00084515,-0.00304617,-0.00436663,
 -0.12053235,-0.14689722,0.04529528,0.00003652,-0.00003993,0.00003908,0
 .00000218,0.00000156,-0.00000348,0.00000212,0.00000138,-0.00000328,-0.
 00001105,-0.00000589,0.00003387,-0.00000084,-0.00001041,0.00000229,0.0
 0048232,-0.00085203,0.00044149,-0.00128046,-0.00059011,0.00030175,-0.0
 0017406,0.00038598,0.00018163,0.00022588,0.00019029,-0.00003546,0.1373
 8576,0.16145541,-0.00011753,0.00014615,-0.00025569,0.00001483,0.000004
 97,0.00009600,0.00002238,-0.00005995,-0.00006146,-0.00005497,0.0000245
 1,-0.00002746,0.00000770,-0.00000683,0.00004631,-0.00008072,0.00004708
 ,-0.00003640,-0.00003400,0.00003578,0.00002766,0.00001050,-0.00001719,
 -0.00000305,0.00000629,-0.00001091,-0.00001429,0.00001719,0.00000082,-
 0.00001327,-0.00000553,-0.00000008,0.00000361,0.00000040,-0.00000190,0
 .00000260,0.00013479,-0.00000792,0.00007226,0.00004711,-0.00004056,-0.
 00023758,0.00072126,-0.00003722,0.00042788,-0.00150725,0.00052876,0.00
 121647,-0.02212742,-0.01834477,0.00577040,0.00033672,-0.00322935,-0.00
 281614,0.06500020,0.05198447,-0.07570840,0.00000664,0.00002074,0.00006
 740,-0.00000147,-0.00000257,-0.00000515,-0.00000014,-0.00000017,-0.000
 00007,-0.00000668,-0.00002045,-0.00001192,0.00001360,-0.00002121,0.000
 00911,-0.00005918,-0.00026324,-0.00027150,-0.00099892,-0.00109395,0.00
 052414,0.00006170,0.00018971,-0.00015430,-0.00009668,-0.00035287,0.000
 30960,-0.06338086,-0.04617371,0.07843421,0.00011893,0.00011501,-0.0000
 8924,0.00001267,-0.00000783,-0.00004429,-0.00003289,-0.00001834,-0.000
 04054,0.00000054,-0.00001432,0.00000037,-0.00000095,-0.00007385,-0.000
 06258,0.00030786,-0.00004196,0.00013788,-0.00010925,0.00009678,0.00007
 483,0.00003322,-0.00004795,-0.00001032,0.00001618,-0.00003378,-0.00004
 484,0.00004181,0.00000119,-0.00002071,-0.00001601,-0.00000258,0.000007
 49,-0.00000218,-0.00000347,0.00000712,0.00000159,-0.00023110,-0.000433
 52,-0.00010791,0.00064631,0.00016201,0.00021585,-0.00075521,0.00064253
 ,-0.00107121,0.00053252,0.00106894,-0.00044431,-0.00277626,-0.00639778
 ,0.00085400,0.00119220,-0.00199986,-0.06197667,0.02331569,-0.04531923,
 0.00004690,-0.00003473,0.00002212,0.00000334,0.00000625,-0.00001431,0.
 00000132,-0.00000565,-0.00000266,-0.00003455,-0.00004862,0.00001834,0.
 00001370,-0.00005752,0.00003045,-0.00182592,0.00051394,0.00147253,-0.0
 0002154,-0.00007225,0.00019932,-0.00015229,0.00018652,0.00006902,0.000
 02665,0.00003433,0.00033704,0.00586646,-0.00973526,0.02152231,0.063113
 65,-0.00009523,-0.00089339,-0.00023810,0.00006879,0.00002523,-0.000065
 32,0.00013005,-0.00015398,-0.00005111,-0.00011804,0.00000711,-0.000069
 73,0.00009294,0.00002330,0.00004931,-0.00035532,-0.00003642,-0.0001686
 3,-0.00006749,0.00003995,0.00002938,0.00002060,-0.00002140,0.00000890,
 0.00001489,-0.00002226,-0.00002756,0.00002466,0.00000369,-0.00001190,-
 0.00000543,-0.00000053,0.00000388,-0.00000131,-0.00000263,0.00000310,0
 .00021443,0.00009823,0.00030973,-0.00014825,-0.00060132,-0.00022459,0.
 00087933,0.00050788,0.00108343,-0.00218957,0.00217475,-0.00028584,-0.0
 0792029,0.00709955,-0.02648801,0.00150813,0.00341050,-0.00408417,0.022
 02367,-0.09990273,0.09709425,0.00016234,-0.00000314,0.00005916,-0.0000
 0257,-0.00000034,-0.00001467,0.00001046,0.00000173,-0.00000550,0.00004
 072,0.00004338,-0.00006022,0.00002556,0.00000884,-0.00000530,0.0012343
 3,-0.00024114,-0.00127352,0.00014070,0.00000363,0.00015076,-0.00005239
 ,-0.00036192,0.00031891,0.00122373,0.00020033,0.00155472,0.00548969,-0
 .00747931,0.01558467,-0.02493005,0.10318133,0.00040548,-0.00096964,-0.
 00050909,0.00012018,0.00001275,0.00007905,0.00006938,-0.00018031,-0.00
 011190,-0.00012071,0.00000145,-0.00007022,0.00013275,-0.00008115,-0.00
 003981,-0.00004792,-0.00007301,-0.00002097,-0.00024764,0.00019734,0.00
 013017,0.00007543,-0.00009410,0.00000585,0.00004253,-0.00008159,-0.000
 10073,0.00009496,0.00000083,-0.00004086,-0.00002977,-0.00000080,0.0000
 1386,-0.00000585,-0.00000707,0.00001398,0.00014470,-0.00014688,-0.0002
 1725,0.00000980,0.00055781,0.00049077,0.00099717,-0.00017904,-0.000401
 14,-0.00536569,0.00310691,0.00165338,-0.00635837,-0.00485546,-0.033141
 06,0.00282943,0.00157460,0.00079525,-0.04435489,0.09657208,-0.23876016
 ,0.00019523,-0.00004024,0.00020866,-0.00000126,-0.00000090,-0.00003364
 ,0.00001184,-0.00000586,-0.00001065,-0.00000924,-0.00000306,0.00003933
 ,0.00005755,-0.00006632,0.00001668,0.00110047,-0.00012542,0.00002343,0
 .00005558,-0.00038636,0.00027052,-0.00025817,-0.00012615,-0.00005017,-
 0.00104442,-0.00079308,0.00050012,-0.00203274,0.00434625,-0.00642155,0
 .05311860,-0.09815547,0.27227099,0.00031428,-0.00000906,-0.00043233,0.
 00010315,0.00000828,0.00014960,0.00001701,-0.00004014,-0.00002727,-0.0
 0004890,0.00004121,0.00001497,0.00002599,0.00002439,0.00006743,-0.0002
 3318,0.00007630,-0.00012634,0.00006478,-0.00006168,-0.00004261,-0.0000
 1667,0.00002761,0.00000361,-0.00001027,0.00002074,0.00002572,-0.000025
 27,-0.00000173,0.00001200,0.00000966,0.00000080,-0.00000502,0.00000208
 ,0.00000213,-0.00000355,0.00001670,0.00011039,0.00025130,0.00030768,0.
 00000348,-0.00007472,-0.00044015,0.00029697,-0.00038219,0.00070351,-0.
 00112123,-0.00122137,0.00575492,-0.00527835,0.00076465,0.00089808,-0.0
 0163102,-0.00065548,-0.24818663,0.12660501,0.01962401,-0.00003370,0.00
 007778,0.00000421,0.00000187,-0.00000142,0.00000738,-0.00000132,0.0000
 0373,0.00000028,-0.00000835,-0.00000336,0.00003990,-0.00001748,0.00002
 298,-0.00001065,0.00001612,0.00010605,0.00056912,0.00049329,-0.0000830
 7,0.00005431,0.00002389,0.00024234,-0.00031818,-0.00027762,0.00019130,
 -0.00001970,-0.01679731,0.01283727,0.00054772,-0.00487899,0.00258091,0
 .00041559,0.26222284,0.00098426,-0.00051903,-0.00027653,0.00014454,-0.
 00001301,0.00019575,0.00000901,-0.00012352,-0.00014221,-0.00013872,0.0
 0004017,-0.00004696,0.00014005,-0.00003903,0.00006801,-0.00014374,0.00
 000748,-0.00039703,-0.00014753,0.00012159,0.00006182,0.00004416,-0.000
 05854,0.00000503,0.00002626,-0.00005886,-0.00007041,0.00006205,0.00000
 239,-0.00002400,-0.00001776,-0.00000194,0.00000636,-0.00000348,-0.0000
 0538,0.00000921,0.00014219,-0.00007158,0.00011217,0.00013404,0.0000573
 2,-0.00005342,-0.00021197,0.00054263,-0.00029814,-0.00316465,-0.002402
 37,-0.00156037,0.02014159,-0.01658883,-0.00850682,0.00151231,0.0002202
 9,-0.00023275,0.11985475,-0.12671186,-0.00985915,0.00001831,-0.0000102
 2,-0.00001276,-0.00000517,-0.00001082,-0.00001902,0.00000020,0.0000039
 3,-0.00000698,0.00000155,-0.00000509,0.00000577,0.00005594,-0.00001395
 ,-0.00001262,-0.00017956,0.00012684,0.00025965,-0.00005585,0.00029528,
 0.00006007,-0.00053730,-0.00012962,-0.00003712,-0.00002278,-0.00011634
 ,0.00019885,-0.01584412,0.01318698,0.00111721,0.01225000,-0.00710893,0
 .00000189,-0.13504861,0.13938401,0.00096271,-0.00061531,0.00009818,0.0
 0009181,-0.00002290,0.00014041,-0.00005899,-0.00002406,-0.00010439,-0.
 00004840,-0.00000140,-0.00000878,0.00011803,-0.00006743,-0.00004125,0.
 00021314,-0.00002142,-0.00024617,-0.00017689,0.00015828,0.00007357,0.0
 0005063,-0.00006995,0.00000373,0.00003019,-0.00007098,-0.00008269,0.00
 007554,0.00000491,-0.00002618,-0.00002213,-0.00000234,0.00000881,-0.00
 000453,-0.00000633,0.00001051,0.00000034,-0.00018733,-0.00028684,-0.00
 010447,0.00040721,0.00042378,-0.00006331,-0.00030601,-0.00067553,-0.00
 272443,-0.00362329,-0.00177417,0.02409621,-0.01899992,-0.00820144,0.00
 099060,0.00068160,0.00024434,0.01356580,-0.00706808,-0.04949272,-0.000
 00551,-0.00000005,0.00001719,-0.00000243,-0.00000668,-0.00002032,-0.00
 000171,-0.00000057,-0.00000564,-0.00000311,0.00000247,0.00002090,0.000
 04193,-0.00003674,0.00001157,0.00010372,0.00028639,0.00043253,-0.00003
 828,0.00018903,-0.00015811,-0.00039214,0.00016915,0.00019342,-0.000347
 29,-0.00008543,-0.00012643,0.00729639,-0.00511679,-0.00096943,-0.02441
 099,0.01497945,0.00341714,-0.01923243,0.01945449,0.05712403\\-0.000002
 16,-0.00000103,-0.00000073,-0.00000220,-0.00000138,0.00000864,-0.00000
 193,-0.00000250,-0.00000212,-0.00000031,0.00000263,-0.00000196,-0.0000
 0643,0.00000743,0.00000604,0.00000924,-0.00000763,-0.00000085,-0.00000
 396,0.00001040,-0.00002387,0.00000722,-0.00000462,0.00001014,-0.000009
 33,0.00000459,-0.00000631,0.00000353,-0.00000114,-0.00001104,-0.000001
 69,0.00001660,-0.00000015,-0.00000714,0.00001245,-0.00000402,-0.000000
 58,0.00000211,-0.00001952,-0.00000251,0.00000828,-0.00000042,0.0000079
 4,-0.00000145,0.00000462,-0.00001253,0.00000919,-0.00000329,0.00001131
 ,-0.00001058,0.00000822,-0.00000661,-0.00000414,0.00000321,0.00000301,
 -0.00000423,0.00000534,-0.00000223,-0.00000320,0.00000531,-0.00000455,
 -0.00000383,0.00000443,-0.00000339,0.00000465,-0.00000316,0.00000623,0
 .00000269,-0.00000227,0.00000448,0.00000022,-0.00000535,0.00000331,-0.
 00000079,-0.00000104,0.00000496,-0.00000775,0.00000714,0.00000160,-0.0
 0000802,0.00000573,0.00000491,-0.00000490,0.00000430,-0.00000173,-0.00
 000203,0.00000365,0.00000267,-0.00000540,0.00000312,-0.00000112,-0.000
 00661,0.00000621\\\@
 The archive entry for this job was punched.


 Sacred cows make the best hamburger.
                               -- Mark Twain
 Job cpu time:       0 days  3 hours 30 minutes 40.9 seconds.
 Elapsed time:       0 days  0 hours 13 minutes 23.6 seconds.
 File lengths (MBytes):  RWF=    512 Int=      0 D2E=      0 Chk=     19 Scr=      1
 Normal termination of Gaussian 16 at Sat Jul  2 02:11:59 2022.
