 Entering Gaussian System, Link 0=g16
 AtFile(1): //home/561/yj5695//Basis/6-31pGd.gbs
 Initial command:
 /apps/gaussian/g16c01/g16/l1.exe "/jobfs/40662277.gadi-pbs/Gau-561038.inp" -scrdir="/jobfs/40662277.gadi-pbs/"
 Entering Link 1 = /apps/gaussian/g16c01/g16/l1.exe PID=    561050.
  
 Copyright (c) 1988-2019, Gaussian, Inc.  All Rights Reserved.
  
 This is part of the Gaussian(R) 16 program.  It is based on
 the Gaussian(R) 09 system (copyright 2009, Gaussian, Inc.),
 the Gaussian(R) 03 system (copyright 2003, Gaussian, Inc.),
 the Gaussian(R) 98 system (copyright 1998, Gaussian, Inc.),
 the Gaussian(R) 94 system (copyright 1995, Gaussian, Inc.),
 the Gaussian 92(TM) system (copyright 1992, Gaussian, Inc.),
 the Gaussian 90(TM) system (copyright 1990, Gaussian, Inc.),
 the Gaussian 88(TM) system (copyright 1988, Gaussian, Inc.),
 the Gaussian 86(TM) system (copyright 1986, Carnegie Mellon
 University), and the Gaussian 82(TM) system (copyright 1983,
 Carnegie Mellon University). Gaussian is a federally registered
 trademark of Gaussian, Inc.
  
 This software contains proprietary and confidential information,
 including trade secrets, belonging to Gaussian, Inc.
  
 This software is provided under written license and may be
 used, copied, transmitted, or stored only in accord with that
 written license.
  
 The following legend is applicable only to US Government
 contracts under FAR:
  
                    RESTRICTED RIGHTS LEGEND
  
 Use, reproduction and disclosure by the US Government is
 subject to restrictions as set forth in subparagraphs (a)
 and (c) of the Commercial Computer Software - Restricted
 Rights clause in FAR 52.227-19.
  
 Gaussian, Inc.
 340 Quinnipiac St., Bldg. 40, Wallingford CT 06492
  
  
 ---------------------------------------------------------------
 Warning -- This program may not be used in any manner that
 competes with the business of Gaussian, Inc. or will provide
 assistance to any competitor of Gaussian, Inc.  The licensee
 of this program is prohibited from giving any competitor of
 Gaussian, Inc. access to this program.  By using this program,
 the user acknowledges that Gaussian, Inc. is engaged in the
 business of creating and licensing software in the field of
 computational chemistry and represents and warrants to the
 licensee that it is not a competitor of Gaussian, Inc. and that
 it will not use this program in any manner prohibited above.
 ---------------------------------------------------------------
  

 Cite this work as:
 Gaussian 16, Revision C.01,
 M. J. Frisch, G. W. Trucks, H. B. Schlegel, G. E. Scuseria, 
 M. A. Robb, J. R. Cheeseman, G. Scalmani, V. Barone, 
 G. A. Petersson, H. Nakatsuji, X. Li, M. Caricato, A. V. Marenich, 
 J. Bloino, B. G. Janesko, R. Gomperts, B. Mennucci, H. P. Hratchian, 
 J. V. Ortiz, A. F. Izmaylov, J. L. Sonnenberg, D. Williams-Young, 
 F. Ding, F. Lipparini, F. Egidi, J. Goings, B. Peng, A. Petrone, 
 T. Henderson, D. Ranasinghe, V. G. Zakrzewski, J. Gao, N. Rega, 
 G. Zheng, W. Liang, M. Hada, M. Ehara, K. Toyota, R. Fukuda, 
 J. Hasegawa, M. Ishida, T. Nakajima, Y. Honda, O. Kitao, H. Nakai, 
 T. Vreven, K. Throssell, J. A. Montgomery, Jr., J. E. Peralta, 
 F. Ogliaro, M. J. Bearpark, J. J. Heyd, E. N. Brothers, K. N. Kudin, 
 V. N. Staroverov, T. A. Keith, R. Kobayashi, J. Normand, 
 K. Raghavachari, A. P. Rendell, J. C. Burant, S. S. Iyengar, 
 J. Tomasi, M. Cossi, J. M. Millam, M. Klene, C. Adamo, R. Cammi, 
 J. W. Ochterski, R. L. Martin, K. Morokuma, O. Farkas, 
 J. B. Foresman, and D. J. Fox, Gaussian, Inc., Wallingford CT, 2019.
 
 ******************************************
 Gaussian 16:  ES64L-G16RevC.01  3-Jul-2019
                19-May-2022 
 ******************************************
 %nproc=16
 Will use up to   16 processors via shared memory.
 %mem=20gb
 ----------------------------------------------------------------------
 #m062X/gen 6D OPT Freq=Noraman INT(grid=ultrafine) SCRF=(SMD,Solvent=h
 2o)
 ----------------------------------------------------------------------
 1/18=20,19=15,26=6,38=1/1,3;
 2/9=110,12=2,17=6,18=5,40=1/2;
 3/5=7,8=2,11=2,25=1,30=1,70=32201,71=1,72=1,74=-55,75=-5/1,2,3;
 4//1;
 5/5=2,38=5,53=1/2;
 6/7=2,8=2,9=2,10=2,28=1/1;
 7//1,2,3,16;
 1/18=20,19=15,26=6/3(2);
 2/9=110/2;
 99//99;
 2/9=110/2;
 3/5=7,6=1,8=2,11=2,25=1,30=1,70=32205,71=1,72=1,74=-55,75=-5,82=7/1,2,3;
 4/5=5,16=3,69=1/1;
 5/5=2,38=5,53=1/2;
 7//1,2,3,16;
 1/18=20,19=15,26=6/3(-5);
 2/9=110/2;
 6/7=2,8=2,9=2,10=2,19=2,28=1/1;
 99/9=1/99;
 --------
 a3 b2 c1
 --------
 Symbolic Z-matrix:
 Charge =  0 Multiplicity = 1
 C                    -1.32656   0.74439  -0.88638 
 C                    -2.52601   0.81867  -1.59954 
 H                    -3.47867   0.82352  -1.07807 
 C                    -2.4926    0.89961  -2.98182 
 H                    -3.41818   0.96781  -3.54661 
 C                    -1.26324   0.90133  -3.66975 
 N                    -1.23359   0.92772  -5.0452 
 C                    -0.06638   0.82078  -2.93108 
 H                     0.88445   0.828    -3.45664 
 C                    -0.09604   0.73978  -1.54873 
 H                     0.8323    0.6835   -0.98792 
 S                    -1.3685    0.57803   0.86599 
 O                    -1.55212  -0.8388    1.19277 
 O                    -0.22351   1.30007   1.42761 
 N                    -2.71184   1.34659   1.46375 
 H                    -3.56869   0.92964   1.09337 
 H                    -2.69012   2.34563   1.24779 
 H                    -1.39098   0.04273  -5.51455 
 H                    -0.49711   1.48212  -5.46769 
 

 GradGradGradGradGradGradGradGradGradGradGradGradGradGradGradGradGradGrad
 Berny optimization.
 Initialization pass.
                           ----------------------------
                           !    Initial Parameters    !
                           ! (Angstroms and Degrees)  !
 --------------------------                            --------------------------
 ! Name  Definition              Value          Derivative Info.                !
 --------------------------------------------------------------------------------
 ! R1    R(1,2)                  1.3974         estimate D2E/DX2                !
 ! R2    R(1,10)                 1.3975         estimate D2E/DX2                !
 ! R3    R(1,12)                 1.7608         estimate D2E/DX2                !
 ! R4    R(2,3)                  1.0861         estimate D2E/DX2                !
 ! R5    R(2,4)                  1.3851         estimate D2E/DX2                !
 ! R6    R(4,5)                  1.0864         estimate D2E/DX2                !
 ! R7    R(4,6)                  1.4087         estimate D2E/DX2                !
 ! R8    R(6,7)                  1.376          estimate D2E/DX2                !
 ! R9    R(6,8)                  1.4088         estimate D2E/DX2                !
 ! R10   R(7,18)                 1.014          estimate D2E/DX2                !
 ! R11   R(7,19)                 1.014          estimate D2E/DX2                !
 ! R12   R(8,9)                  1.0864         estimate D2E/DX2                !
 ! R13   R(8,10)                 1.385          estimate D2E/DX2                !
 ! R14   R(10,11)                1.086          estimate D2E/DX2                !
 ! R15   R(12,13)                1.4656         estimate D2E/DX2                !
 ! R16   R(12,14)                1.4655         estimate D2E/DX2                !
 ! R17   R(12,15)                1.6591         estimate D2E/DX2                !
 ! R18   R(15,16)                1.0224         estimate D2E/DX2                !
 ! R19   R(15,17)                1.0224         estimate D2E/DX2                !
 ! A1    A(2,1,10)             120.9359         estimate D2E/DX2                !
 ! A2    A(2,1,12)             119.5041         estimate D2E/DX2                !
 ! A3    A(10,1,12)            119.497          estimate D2E/DX2                !
 ! A4    A(1,2,3)              120.5375         estimate D2E/DX2                !
 ! A5    A(1,2,4)              119.4537         estimate D2E/DX2                !
 ! A6    A(3,2,4)              120.0059         estimate D2E/DX2                !
 ! A7    A(2,4,5)              120.1279         estimate D2E/DX2                !
 ! A8    A(2,4,6)              120.5619         estimate D2E/DX2                !
 ! A9    A(5,4,6)              119.3094         estimate D2E/DX2                !
 ! A10   A(4,6,7)              120.4609         estimate D2E/DX2                !
 ! A11   A(4,6,8)              119.031          estimate D2E/DX2                !
 ! A12   A(7,6,8)              120.4583         estimate D2E/DX2                !
 ! A13   A(6,7,18)             116.2686         estimate D2E/DX2                !
 ! A14   A(6,7,19)             116.27           estimate D2E/DX2                !
 ! A15   A(18,7,19)            113.3933         estimate D2E/DX2                !
 ! A16   A(6,8,9)              119.3086         estimate D2E/DX2                !
 ! A17   A(6,8,10)             120.5619         estimate D2E/DX2                !
 ! A18   A(9,8,10)             120.1287         estimate D2E/DX2                !
 ! A19   A(1,10,8)             119.4535         estimate D2E/DX2                !
 ! A20   A(1,10,11)            120.5372         estimate D2E/DX2                !
 ! A21   A(8,10,11)            120.0064         estimate D2E/DX2                !
 ! A22   A(1,12,13)            108.4351         estimate D2E/DX2                !
 ! A23   A(1,12,14)            108.4353         estimate D2E/DX2                !
 ! A24   A(1,12,15)            109.5176         estimate D2E/DX2                !
 ! A25   A(13,12,14)           119.2578         estimate D2E/DX2                !
 ! A26   A(13,12,15)           105.4301         estimate D2E/DX2                !
 ! A27   A(14,12,15)           105.4436         estimate D2E/DX2                !
 ! A28   A(12,15,16)           111.0488         estimate D2E/DX2                !
 ! A29   A(12,15,17)           111.0617         estimate D2E/DX2                !
 ! A30   A(16,15,17)           109.8655         estimate D2E/DX2                !
 ! D1    D(10,1,2,3)          -179.8945         estimate D2E/DX2                !
 ! D2    D(10,1,2,4)            -0.521          estimate D2E/DX2                !
 ! D3    D(12,1,2,3)             3.0054         estimate D2E/DX2                !
 ! D4    D(12,1,2,4)          -177.6212         estimate D2E/DX2                !
 ! D5    D(2,1,10,8)             0.5184         estimate D2E/DX2                !
 ! D6    D(2,1,10,11)          179.8977         estimate D2E/DX2                !
 ! D7    D(12,1,10,8)          177.6188         estimate D2E/DX2                !
 ! D8    D(12,1,10,11)          -3.002          estimate D2E/DX2                !
 ! D9    D(2,1,12,13)           83.1766         estimate D2E/DX2                !
 ! D10   D(2,1,12,14)         -145.9673         estimate D2E/DX2                !
 ! D11   D(2,1,12,15)          -31.3873         estimate D2E/DX2                !
 ! D12   D(10,1,12,13)         -93.9657         estimate D2E/DX2                !
 ! D13   D(10,1,12,14)          36.8904         estimate D2E/DX2                !
 ! D14   D(10,1,12,15)         151.4704         estimate D2E/DX2                !
 ! D15   D(1,2,4,5)           -179.3906         estimate D2E/DX2                !
 ! D16   D(1,2,4,6)              0.2896         estimate D2E/DX2                !
 ! D17   D(3,2,4,5)             -0.0137         estimate D2E/DX2                !
 ! D18   D(3,2,4,6)            179.6665         estimate D2E/DX2                !
 ! D19   D(2,4,6,7)            177.3838         estimate D2E/DX2                !
 ! D20   D(2,4,6,8)             -0.0622         estimate D2E/DX2                !
 ! D21   D(5,4,6,7)             -2.9334         estimate D2E/DX2                !
 ! D22   D(5,4,6,8)            179.6206         estimate D2E/DX2                !
 ! D23   D(4,6,7,18)           -79.9525         estimate D2E/DX2                !
 ! D24   D(4,6,7,19)           142.5398         estimate D2E/DX2                !
 ! D25   D(8,6,7,18)            97.4568         estimate D2E/DX2                !
 ! D26   D(8,6,7,19)           -40.0509         estimate D2E/DX2                !
 ! D27   D(4,6,8,9)           -179.6215         estimate D2E/DX2                !
 ! D28   D(4,6,8,10)             0.0597         estimate D2E/DX2                !
 ! D29   D(7,6,8,9)              2.9324         estimate D2E/DX2                !
 ! D30   D(7,6,8,10)          -177.3864         estimate D2E/DX2                !
 ! D31   D(6,8,10,1)            -0.2846         estimate D2E/DX2                !
 ! D32   D(6,8,10,11)         -179.6671         estimate D2E/DX2                !
 ! D33   D(9,8,10,1)           179.3941         estimate D2E/DX2                !
 ! D34   D(9,8,10,11)            0.0115         estimate D2E/DX2                !
 ! D35   D(1,12,15,16)          61.3281         estimate D2E/DX2                !
 ! D36   D(1,12,15,17)         -61.2451         estimate D2E/DX2                !
 ! D37   D(13,12,15,16)        -55.1522         estimate D2E/DX2                !
 ! D38   D(13,12,15,17)       -177.7255         estimate D2E/DX2                !
 ! D39   D(14,12,15,16)        177.8158         estimate D2E/DX2                !
 ! D40   D(14,12,15,17)         55.2425         estimate D2E/DX2                !
 --------------------------------------------------------------------------------
 Trust Radius=3.00D-01 FncErr=5.00D-06 GrdErr=5.00D-06 EigMax=2.50D+02 EigMin=1.00D-04
 Number of steps in this run=     99 maximum allowed number of steps=    114.
 GradGradGradGradGradGradGradGradGradGradGradGradGradGradGradGradGradGrad

                          Input orientation:                          
 ---------------------------------------------------------------------
 Center     Atomic      Atomic             Coordinates (Angstroms)
 Number     Number       Type             X           Y           Z
 ---------------------------------------------------------------------
      1          6           0       -1.326558    0.744385   -0.886378
      2          6           0       -2.526011    0.818671   -1.599540
      3          1           0       -3.478668    0.823518   -1.078071
      4          6           0       -2.492601    0.899610   -2.981824
      5          1           0       -3.418182    0.967806   -3.546610
      6          6           0       -1.263242    0.901325   -3.669751
      7          7           0       -1.233590    0.927715   -5.045204
      8          6           0       -0.066375    0.820784   -2.931079
      9          1           0        0.884451    0.828002   -3.456640
     10          6           0       -0.096041    0.739778   -1.548734
     11          1           0        0.832304    0.683502   -0.987923
     12         16           0       -1.368502    0.578025    0.865994
     13          8           0       -1.552116   -0.838801    1.192768
     14          8           0       -0.223512    1.300074    1.427611
     15          7           0       -2.711844    1.346587    1.463747
     16          1           0       -3.568694    0.929644    1.093373
     17          1           0       -2.690120    2.345634    1.247791
     18          1           0       -1.390981    0.042730   -5.514554
     19          1           0       -0.497110    1.482118   -5.467688
 ---------------------------------------------------------------------
                    Distance matrix (angstroms):
                    1          2          3          4          5
     1  C    0.000000
     2  C    1.397428   0.000000
     3  H    2.162079   1.086052   0.000000
     4  C    2.403049   1.385055   2.145319   0.000000
     5  H    3.391407   2.146926   2.473492   1.086432   0.000000
     6  C    2.788513   2.426353   3.410421   1.408748   2.159479
     7  N    4.163903   3.681690   4.559537   2.417320   2.649497
     8  C    2.403061   2.796929   3.882961   2.428036   3.411027
     9  H    3.391430   3.883318   4.969348   3.411020   4.305844
    10  C    1.397465   2.431781   3.416241   2.796926   3.883314
    11  H    2.162106   3.416230   4.314187   3.882955   4.969340
    12  S    1.760751   2.734336   2.879662   4.021532   4.881003
    13  O    2.623014   3.390084   3.410516   4.618853   5.404418
    14  O    2.622984   3.833653   4.135407   4.975164   5.921080
    15  N    2.793699   3.113994   2.706004   4.473361   5.074058
    16  H    2.996816   2.889859   2.175899   4.214986   4.642580
    17  H    2.996327   3.235095   2.889339   4.474331   5.041306
    18  H    4.681504   4.149423   4.964922   2.891804   2.972896
    19  H    4.713877   4.418050   5.347166   3.240497   3.533797
                    6          7          8          9         10
     6  C    0.000000
     7  N    1.376026   0.000000
     8  C    1.408763   2.417302   0.000000
     9  H    2.159486   2.649448   1.086433   0.000000
    10  C    2.426349   3.681663   1.385034   2.146917   0.000000
    11  H    3.410420   4.559505   2.145303   2.473492   1.086048
    12  S    4.548471   5.923069   4.021471   4.880927   2.734270
    13  O    5.172579   6.491096   4.686978   5.507457   3.482513
    14  O    5.217580   6.561726   4.387777   5.030541   3.031305
    15  N    5.352523   6.687835   5.156498   6.116574   4.035553
    16  H    5.291811   6.567712   5.336132   6.367374   4.367619
    17  H    5.320172   6.613151   5.164510   6.100200   4.138668
    18  H    2.038823   1.014031   3.005710   3.166900   4.229713
    19  H    2.038837   1.014031   2.656554   2.526043   4.008756
                   11         12         13         14         15
    11  H    0.000000
    12  S    2.879528   0.000000
    13  O    3.571873   1.465569   0.000000
    14  O    2.707344   1.465527   2.528859   0.000000
    15  N    4.360201   1.659085   2.488839   2.489029   0.000000
    16  H    4.874542   2.239683   2.684001   3.382185   1.022355
    17  H    4.490943   2.239840   3.382116   2.685086   1.022352
    18  H    5.083697   6.403002   6.766922   7.151053   7.220901
    19  H    4.740614   6.456953   7.131716   6.903126   7.277926
                   16         17         18         19
    16  H    0.000000
    17  H    1.673549   0.000000
    18  H    7.013826   7.260884   0.000000
    19  H    7.265492   7.117065   1.695004   0.000000
 Stoichiometry    C6H8N2O2S
 Framework group  C1[X(C6H8N2O2S)]
 Deg. of freedom    51
 Full point group                 C1      NOp   1
 Largest Abelian subgroup         C1      NOp   1
 Largest concise Abelian subgroup C1      NOp   1
                         Standard orientation:                         
 ---------------------------------------------------------------------
 Center     Atomic      Atomic             Coordinates (Angstroms)
 Number     Number       Type             X           Y           Z
 ---------------------------------------------------------------------
      1          6           0        0.106429   -0.053683   -0.012713
      2          6           0       -0.534419    1.188070    0.000280
      3          1           0        0.043767    2.107335    0.013020
      4          6           0       -1.918383    1.240446   -0.016385
      5          1           0       -2.427811    2.200038   -0.016522
      6          6           0       -2.679814    0.055443   -0.040067
      7          7           0       -4.054298    0.108586   -0.002456
      8          6           0       -2.013091   -1.185538   -0.047914
      9          1           0       -2.595785   -2.102165   -0.072418
     10          6           0       -0.629293   -1.241654   -0.031351
     11          1           0       -0.124532   -2.203204   -0.043043
     12         16           0        1.863753   -0.123500    0.072012
     13          8           0        2.264153   -0.026650    1.478493
     14          8           0        2.321253   -1.264380   -0.726022
     15          7           0        2.507845    1.216860   -0.663612
     16          1           0        2.209730    2.073503   -0.191914
     17          1           0        2.246541    1.255149   -1.651265
     18          1           0       -4.473098    0.251547    0.909920
     19          1           0       -4.545512   -0.574585   -0.568357
 ---------------------------------------------------------------------
 Rotational constants (GHZ):           2.5738295           0.5604137           0.5100570
 General basis read from cards:  (6D, 7F)
 There are   229 symmetry adapted cartesian basis functions of A   symmetry.
 There are   229 symmetry adapted basis functions of A   symmetry.
   229 basis functions,   408 primitive gaussians,   229 cartesian basis functions
    45 alpha electrons       45 beta electrons
       nuclear repulsion energy       727.0145131746 Hartrees.
 NAtoms=   19 NActive=   19 NUniq=   19 SFac= 1.00D+00 NAtFMM=   60 NAOKFM=F Big=F
 Integral buffers will be    131072 words long.
 Raffenetti 2 integral format.
 Two-electron integral symmetry is turned on.
 ------------------------------------------------------------------------------
 Polarizable Continuum Model (PCM)
 =================================
 Model                : PCM.
 Atomic radii         : SMD-Coulomb.
 Polarization charges : Total charges.
 Charge compensation  : None.
 Solution method      : On-the-fly selection.
 Cavity type          : VdW (van der Waals Surface) (Alpha=1.000).
 Cavity algorithm     : GePol (No added spheres)
                        Default sphere list used, NSphG=   19.
                        Lebedev-Laikov grids with approx.  5.0 points / Ang**2.
                        Smoothing algorithm: York/Karplus (Gamma=1.0000).
                        Polarization charges: spherical gaussians, with
                                              point-specific exponents (IZeta= 3).
                        Self-potential: point-specific (ISelfS= 7).
                        Self-field    : sphere-specific E.n sum rule (ISelfD= 2).
 1st derivatives      : Analytical E(r).r(x)/FMM algorithm (CHGder, D1EAlg=3).
                        Cavity 1st derivative terms included.
 Solvent              : Water, Eps=  78.355300 Eps(inf)=   1.777849
 ------------------------------------------------------------------------------
 Spheres list:
 ISph  on   Nord     Re0    Alpha      Xe            Ye            Ze
    1   C      1    1.8500  1.000      0.106429     -0.053683     -0.012713
    2   C      2    1.8500  1.000     -0.534419      1.188070      0.000280
    3   H      3    1.2000  1.000      0.043767      2.107335      0.013020
    4   C      4    1.8500  1.000     -1.918383      1.240446     -0.016385
    5   H      5    1.2000  1.000     -2.427811      2.200038     -0.016522
    6   C      6    1.8500  1.000     -2.679814      0.055443     -0.040067
    7   N      7    1.8900  1.000     -4.054298      0.108586     -0.002456
    8   C      8    1.8500  1.000     -2.013091     -1.185538     -0.047914
    9   H      9    1.2000  1.000     -2.595785     -2.102165     -0.072418
   10   C     10    1.8500  1.000     -0.629293     -1.241654     -0.031351
   11   H     11    1.2000  1.000     -0.124532     -2.203204     -0.043043
   12   S     12    2.4900  1.000      1.863753     -0.123500      0.072012
   13   O     13    1.5200  1.000      2.264153     -0.026650      1.478493
   14   O     14    1.5200  1.000      2.321253     -1.264380     -0.726022
   15   N     15    1.8900  1.000      2.507845      1.216860     -0.663612
   16   H     16    1.2000  1.000      2.209730      2.073503     -0.191914
   17   H     17    1.2000  1.000      2.246541      1.255149     -1.651265
   18   H     18    1.2000  1.000     -4.473098      0.251547      0.909920
   19   H     19    1.2000  1.000     -4.545512     -0.574585     -0.568357
 ------------------------------------------------------------------------------
 ------------------------------------------------------------------------------
 Atomic radii for non-electrostatic terms: SMD-CDS.
 ------------------------------------------------------------------------------
 Nuclear repulsion after PCM non-electrostatic terms =      727.0206468355 Hartrees.
 One-electron integrals computed using PRISM.
 NBasis=   229 RedAO= T EigKep=  3.00D-06  NBF=   229
 NBsUse=   229 1.00D-06 EigRej= -1.00D+00 NBFU=   229
 ExpMin= 4.05D-02 ExpMax= 2.19D+04 ExpMxC= 3.30D+03 IAcc=3 IRadAn=         5 AccDes= 0.00D+00
 Harris functional with IExCor= 1009 and IRadAn=       5 diagonalized for initial guess.
 HarFok:  IExCor= 1009 AccDes= 0.00D+00 IRadAn=         5 IDoV= 1 UseB2=F ITyADJ=14
 ICtDFT=  3500011 ScaDFX=  1.000000  1.000000  1.000000  1.000000
 FoFCou: FMM=F IPFlag=           0 FMFlag=      100000 FMFlg1=           0
         NFxFlg=           0 DoJE=T BraDBF=F KetDBF=T FulRan=T
         wScrn=  0.000000 ICntrl=       500 IOpCl=  0 I1Cent=   200000004 NGrid=           0
         NMat0=    1 NMatS0=      1 NMatT0=    0 NMatD0=    1 NMtDS0=    0 NMtDT0=    0
 Petite list used in FoFCou.
 Requested convergence on RMS density matrix=1.00D-08 within 128 cycles.
 Requested convergence on MAX density matrix=1.00D-06.
 Requested convergence on             energy=1.00D-06.
 No special actions if energy rises.
 Inv3:  Mode=1 IEnd=     7161075.
 Iteration    1 A*A^-1 deviation from unit magnitude is 3.66D-15 for   1527.
 Iteration    1 A*A^-1 deviation from orthogonality  is 3.09D-15 for   1513    363.
 Iteration    1 A^-1*A deviation from unit magnitude is 3.55D-15 for   1538.
 Iteration    1 A^-1*A deviation from orthogonality  is 8.46D-15 for    686    658.
 Error on total polarization charges =  0.04216
 SCF Done:  E(RM062X) =  -891.323029458     A.U. after   15 cycles
            NFock= 15  Conv=0.42D-08     -V/T= 2.0063
 SMD-CDS (non-electrostatic) energy       (kcal/mol) =       3.85
 (included in total energy above)

 **********************************************************************

            Population analysis using the SCF Density.

 **********************************************************************

 Orbital symmetries:
       Occupied  (A) (A) (A) (A) (A) (A) (A) (A) (A) (A) (A) (A)
                 (A) (A) (A) (A) (A) (A) (A) (A) (A) (A) (A) (A)
                 (A) (A) (A) (A) (A) (A) (A) (A) (A) (A) (A) (A)
                 (A) (A) (A) (A) (A) (A) (A) (A) (A)
       Virtual   (A) (A) (A) (A) (A) (A) (A) (A) (A) (A) (A) (A)
                 (A) (A) (A) (A) (A) (A) (A) (A) (A) (A) (A) (A)
                 (A) (A) (A) (A) (A) (A) (A) (A) (A) (A) (A) (A)
                 (A) (A) (A) (A) (A) (A) (A) (A) (A) (A) (A) (A)
                 (A) (A) (A) (A) (A) (A) (A) (A) (A) (A) (A) (A)
                 (A) (A) (A) (A) (A) (A) (A) (A) (A) (A) (A) (A)
                 (A) (A) (A) (A) (A) (A) (A) (A) (A) (A) (A) (A)
                 (A) (A) (A) (A) (A) (A) (A) (A) (A) (A) (A) (A)
                 (A) (A) (A) (A) (A) (A) (A) (A) (A) (A) (A) (A)
                 (A) (A) (A) (A) (A) (A) (A) (A) (A) (A) (A) (A)
                 (A) (A) (A) (A) (A) (A) (A) (A) (A) (A) (A) (A)
                 (A) (A) (A) (A) (A) (A) (A) (A) (A) (A) (A) (A)
                 (A) (A) (A) (A) (A) (A) (A) (A) (A) (A) (A) (A)
                 (A) (A) (A) (A) (A) (A) (A) (A) (A) (A) (A) (A)
                 (A) (A) (A) (A) (A) (A) (A) (A) (A) (A) (A) (A)
                 (A) (A) (A) (A)
 The electronic state is 1-A.
 Alpha  occ. eigenvalues --  -90.18037 -19.65994 -19.65954 -14.80335 -14.75438
 Alpha  occ. eigenvalues --  -10.60467 -10.59595 -10.57927 -10.57804 -10.56301
 Alpha  occ. eigenvalues --  -10.56250  -8.49046  -6.41247  -6.41227  -6.41099
 Alpha  occ. eigenvalues --   -1.25820  -1.14310  -1.03227  -1.02915  -0.96698
 Alpha  occ. eigenvalues --   -0.86362  -0.85833  -0.75975  -0.71331  -0.68701
 Alpha  occ. eigenvalues --   -0.64080  -0.61495  -0.60047  -0.58476  -0.57922
 Alpha  occ. eigenvalues --   -0.54672  -0.53494  -0.52298  -0.50400  -0.47826
 Alpha  occ. eigenvalues --   -0.46324  -0.43395  -0.42575  -0.41810  -0.40252
 Alpha  occ. eigenvalues --   -0.39883  -0.38582  -0.34851  -0.32585  -0.28947
 Alpha virt. eigenvalues --   -0.00925   0.00599   0.01181   0.02668   0.03718
 Alpha virt. eigenvalues --    0.04175   0.04850   0.05266   0.06003   0.07825
 Alpha virt. eigenvalues --    0.08187   0.08370   0.08675   0.09866   0.10023
 Alpha virt. eigenvalues --    0.11417   0.12367   0.12735   0.13519   0.13622
 Alpha virt. eigenvalues --    0.14110   0.14485   0.15682   0.15931   0.16470
 Alpha virt. eigenvalues --    0.17056   0.17536   0.18080   0.18372   0.19182
 Alpha virt. eigenvalues --    0.20104   0.21115   0.21640   0.22379   0.22761
 Alpha virt. eigenvalues --    0.23097   0.23577   0.23666   0.24327   0.24607
 Alpha virt. eigenvalues --    0.25280   0.25721   0.26376   0.27083   0.28923
 Alpha virt. eigenvalues --    0.29511   0.30341   0.31001   0.31455   0.32255
 Alpha virt. eigenvalues --    0.32372   0.33038   0.33622   0.34223   0.35420
 Alpha virt. eigenvalues --    0.35902   0.36724   0.37581   0.39836   0.41098
 Alpha virt. eigenvalues --    0.41440   0.42507   0.45021   0.47544   0.53162
 Alpha virt. eigenvalues --    0.57728   0.62535   0.65288   0.65571   0.67869
 Alpha virt. eigenvalues --    0.69612   0.70383   0.71396   0.73804   0.75288
 Alpha virt. eigenvalues --    0.75993   0.77212   0.78483   0.80416   0.83291
 Alpha virt. eigenvalues --    0.84294   0.88267   0.91162   0.91891   0.93552
 Alpha virt. eigenvalues --    0.95113   0.97108   0.99667   1.00602   1.01306
 Alpha virt. eigenvalues --    1.03292   1.04694   1.05887   1.05987   1.07942
 Alpha virt. eigenvalues --    1.09736   1.09767   1.11233   1.11935   1.12380
 Alpha virt. eigenvalues --    1.14063   1.14821   1.16605   1.17413   1.18939
 Alpha virt. eigenvalues --    1.20385   1.22395   1.28131   1.29367   1.30719
 Alpha virt. eigenvalues --    1.32066   1.34159   1.35786   1.36374   1.36959
 Alpha virt. eigenvalues --    1.38710   1.40771   1.45231   1.48284   1.49344
 Alpha virt. eigenvalues --    1.50718   1.51971   1.52854   1.54301   1.55107
 Alpha virt. eigenvalues --    1.58773   1.64641   1.74058   1.78131   1.79369
 Alpha virt. eigenvalues --    1.83514   1.84493   1.85378   1.86202   1.89275
 Alpha virt. eigenvalues --    1.91261   1.94156   1.94818   1.97155   1.99529
 Alpha virt. eigenvalues --    2.03397   2.05933   2.06241   2.11563   2.13232
 Alpha virt. eigenvalues --    2.14941   2.15684   2.16277   2.17440   2.19300
 Alpha virt. eigenvalues --    2.22193   2.25567   2.30089   2.32911   2.33887
 Alpha virt. eigenvalues --    2.35064   2.40597   2.44054   2.51159   2.55044
 Alpha virt. eigenvalues --    2.60522   2.65359   2.65960   2.69033   2.76297
 Alpha virt. eigenvalues --    2.77159   2.78759   2.86129   2.89219   2.95095
 Alpha virt. eigenvalues --    2.95458   3.11176   3.38815   3.91198   4.01592
 Alpha virt. eigenvalues --    4.05771   4.14218   4.21744   4.26815   4.30580
 Alpha virt. eigenvalues --    4.32490   4.40573   4.45179   4.73175
          Condensed to atoms (all electrons):
               1          2          3          4          5          6
     1  C   18.203544  -2.007059   0.077771  -0.990069   0.059358  -1.977858
     2  C   -2.007059  23.837535   0.214407  -2.913616  -0.056418   0.763096
     3  H    0.077771   0.214407   0.432469  -0.003626  -0.003273  -0.027124
     4  C   -0.990069  -2.913616  -0.003626  11.889729   0.387929  -0.799109
     5  H    0.059358  -0.056418  -0.003273   0.387929   0.432502  -0.087596
     6  C   -1.977858   0.763096  -0.027124  -0.799109  -0.087596   6.670730
     7  N   -0.041057  -0.051113  -0.000330  -0.126376   0.003609   0.509775
     8  C   -0.810051  -0.814209  -0.012062   0.470923   0.001946  -0.169636
     9  H    0.056522  -0.014322   0.000012   0.007875  -0.000096  -0.097397
    10  C   -4.947325 -11.794771   0.048950  -2.210282   0.000110   1.317841
    11  H    0.021134   0.036338  -0.000108  -0.018527   0.000011  -0.007531
    12  S   -0.724652  -0.668541  -0.000970   0.145888   0.000482  -0.023898
    13  O    0.024001   0.349968  -0.001428  -0.032258  -0.000005   0.018279
    14  O   -0.370384   0.001582   0.000720   0.098334   0.000026  -0.025103
    15  N    0.419267  -1.074218   0.007114  -0.060952   0.000124  -0.008281
    16  H   -0.191657   0.173727   0.001482   0.081346  -0.000004  -0.000002
    17  H    0.004685  -0.010912  -0.000617  -0.030979  -0.000000   0.001711
    18  H   -0.000294  -0.005453  -0.000000  -0.062121   0.000304   0.055854
    19  H    0.001653  -0.002473   0.000002   0.102218  -0.000042  -0.063663
               7          8          9         10         11         12
     1  C   -0.041057  -0.810051   0.056522  -4.947325   0.021134  -0.724652
     2  C   -0.051113  -0.814209  -0.014322 -11.794771   0.036338  -0.668541
     3  H   -0.000330  -0.012062   0.000012   0.048950  -0.000108  -0.000970
     4  C   -0.126376   0.470923   0.007875  -2.210282  -0.018527   0.145888
     5  H    0.003609   0.001946  -0.000096   0.000110   0.000011   0.000482
     6  C    0.509775  -0.169636  -0.097397   1.317841  -0.007531  -0.023898
     7  N    7.316570  -0.213158  -0.004767  -0.052654  -0.000866   0.003751
     8  C   -0.213158  10.198743   0.415487  -3.363426  -0.029250   0.148232
     9  H   -0.004767   0.415487   0.433814  -0.057786  -0.002923  -0.000198
    10  C   -0.052654  -3.363426  -0.057786  26.280527   0.297828   0.853687
    11  H   -0.000866  -0.029250  -0.002923   0.297828   0.419684   0.002943
    12  S    0.003751   0.148232  -0.000198   0.853687   0.002943  14.262430
    13  O    0.000000  -0.057873   0.000017  -0.351881  -0.000264   0.286969
    14  O    0.000389   0.142077   0.000100  -0.072271   0.003928   0.302198
    15  N   -0.000197  -0.073469   0.000057   0.642225   0.000929   0.028413
    16  H    0.000008   0.004020   0.000000  -0.084841  -0.000004   0.029772
    17  H    0.000003   0.001692   0.000000   0.018947  -0.000001   0.031363
    18  H    0.300579   0.009145   0.000027  -0.015190   0.000002   0.000194
    19  H    0.314486  -0.079105   0.001533   0.012252  -0.000002   0.000184
              13         14         15         16         17         18
     1  C    0.024001  -0.370384   0.419267  -0.191657   0.004685  -0.000294
     2  C    0.349968   0.001582  -1.074218   0.173727  -0.010912  -0.005453
     3  H   -0.001428   0.000720   0.007114   0.001482  -0.000617  -0.000000
     4  C   -0.032258   0.098334  -0.060952   0.081346  -0.030979  -0.062121
     5  H   -0.000005   0.000026   0.000124  -0.000004  -0.000000   0.000304
     6  C    0.018279  -0.025103  -0.008281  -0.000002   0.001711   0.055854
     7  N    0.000000   0.000389  -0.000197   0.000008   0.000003   0.300579
     8  C   -0.057873   0.142077  -0.073469   0.004020   0.001692   0.009145
     9  H    0.000017   0.000100   0.000057   0.000000   0.000000   0.000027
    10  C   -0.351881  -0.072271   0.642225  -0.084841   0.018947  -0.015190
    11  H   -0.000264   0.003928   0.000929  -0.000004  -0.000001   0.000002
    12  S    0.286969   0.302198   0.028413   0.029772   0.031363   0.000194
    13  O    8.690059  -0.176261  -0.150441  -0.003056   0.008195  -0.000001
    14  O   -0.176261   8.850427  -0.118630   0.010001  -0.004513   0.000000
    15  N   -0.150441  -0.118630   7.976680   0.229367   0.228395   0.000000
    16  H   -0.003056   0.010001   0.229367   0.269245  -0.016673   0.000000
    17  H    0.008195  -0.004513   0.228395  -0.016673   0.254735   0.000000
    18  H   -0.000001   0.000000   0.000000   0.000000   0.000000   0.271193
    19  H    0.000000   0.000001   0.000001  -0.000000  -0.000000  -0.018417
              19
     1  C    0.001653
     2  C   -0.002473
     3  H    0.000002
     4  C    0.102218
     5  H   -0.000042
     6  C   -0.063663
     7  N    0.314486
     8  C   -0.079105
     9  H    0.001533
    10  C    0.012252
    11  H   -0.000002
    12  S    0.000184
    13  O    0.000000
    14  O    0.000001
    15  N    0.000001
    16  H   -0.000000
    17  H   -0.000000
    18  H   -0.018417
    19  H    0.293769
 Mulliken charges:
               1
     1  C   -0.807530
     2  C    0.036453
     3  H    0.266612
     4  C    0.063672
     5  H    0.261032
     6  C   -0.050091
     7  N   -0.958652
     8  C    0.229973
     9  H    0.262045
    10  C   -0.521939
    11  H    0.276678
    12  S    1.321752
    13  O   -0.604022
    14  O   -0.642621
    15  N   -1.046384
    16  H    0.497269
    17  H    0.513970
    18  H    0.464178
    19  H    0.437604
 Sum of Mulliken charges =  -0.00000
 Mulliken charges with hydrogens summed into heavy atoms:
               1
     1  C   -0.807530
     2  C    0.303065
     4  C    0.324704
     6  C   -0.050091
     7  N   -0.056870
     8  C    0.492018
    10  C   -0.245261
    12  S    1.321752
    13  O   -0.604022
    14  O   -0.642621
    15  N   -0.035145
 Electronic spatial extent (au):  <R**2>=           2187.6557
 Charge=             -0.0000 electrons
 Dipole moment (field-independent basis, Debye):
    X=             -8.1907    Y=              3.8731    Z=             -2.2106  Tot=              9.3261
 Quadrupole moment (field-independent basis, Debye-Ang):
   XX=            -74.3153   YY=            -61.9671   ZZ=            -76.8823
   XY=             16.3102   XZ=             -9.2877   YZ=             -2.6259
 Traceless Quadrupole moment (field-independent basis, Debye-Ang):
   XX=             -3.2604   YY=              9.0878   ZZ=             -5.8274
   XY=             16.3102   XZ=             -9.2877   YZ=             -2.6259
 Octapole moment (field-independent basis, Debye-Ang**2):
  XXX=           -114.4920  YYY=             17.6724  ZZZ=            -13.5458  XYY=             -0.3510
  XXY=             -6.9770  XXZ=              4.2126  XZZ=             -6.5067  YZZ=              6.3255
  YYZ=              0.4485  XYZ=            -16.0140
 Hexadecapole moment (field-independent basis, Debye-Ang**3):
 XXXX=          -2035.0358 YYYY=           -389.7852 ZZZZ=           -205.8629 XXXY=            154.3014
 XXXZ=            -86.9332 YYYX=             49.6806 YYYZ=             -6.7218 ZZZX=            -42.9123
 ZZZY=             -9.6636 XXYY=           -431.9995 XXZZ=           -398.0045 YYZZ=           -114.4517
 XXYZ=             13.9807 YYXZ=              2.4862 ZZXY=             15.9938
 N-N= 7.270206468355D+02 E-N=-3.548024288090D+03  KE= 8.857087995557D+02
 D1PCM: PCM CHGder 1st derivatives, ID1Alg=3 FixD1E=F DoIter=F DoCFld=F I1PDM=0.
 Calling FoFJK, ICntrl=      2127 FMM=F ISym2X=0 I1Cent= 0 IOpClX= 0 NMat=1 NMatS=1 NMatT=0.
 ***** Axes restored to original set *****
 -------------------------------------------------------------------
 Center     Atomic                   Forces (Hartrees/Bohr)
 Number     Number              X              Y              Z
 -------------------------------------------------------------------
      1        6          -0.002418875    0.002016115   -0.009526146
      2        6           0.001432954   -0.001670361    0.005498506
      3        1          -0.000776354   -0.000121779   -0.001597089
      4        6           0.005140382   -0.001629209   -0.006549459
      5        1           0.000691988    0.000040144   -0.000075364
      6        6           0.004953285   -0.008793130    0.027315595
      7        7          -0.011533776    0.012337529   -0.029482582
      8        6          -0.005768097    0.004725800   -0.000611382
      9        1          -0.000350027   -0.001006059   -0.000021664
     10        6           0.001487543    0.003234004    0.007177736
     11        1           0.000002095   -0.000279087    0.000516837
     12       16          -0.002456045    0.004131516    0.008837418
     13        8           0.001610513   -0.001428885    0.001008722
     14        8           0.001770494   -0.003331913   -0.001157467
     15        7           0.002159433   -0.002077392   -0.006437724
     16        1          -0.000936260    0.000374017    0.003085161
     17        1          -0.000339671    0.000478535    0.000432627
     18        1          -0.000413029    0.000308636   -0.000317213
     19        1           0.005743446   -0.007308482    0.001903487
 -------------------------------------------------------------------
 Cartesian Forces:  Max     0.029482582 RMS     0.006766519

 GradGradGradGradGradGradGradGradGradGradGradGradGradGradGradGradGradGrad
 Berny optimization.
 FormGI is forming the generalized inverse of G from B-inverse, IUseBI=4.
 Internal  Forces:  Max     0.027857217 RMS     0.003780348
 Search for a local minimum.
 Step number   1 out of a maximum of   99
 All quantities printed in internal units (Hartrees-Bohrs-Radians)
 Mixed Optimization -- RFO/linear search
 Second derivative matrix not updated -- first step.
 ITU=  0
     Eigenvalues ---    0.00889   0.01645   0.01837   0.01982   0.02009
     Eigenvalues ---    0.02033   0.02108   0.02128   0.02166   0.02179
     Eigenvalues ---    0.02215   0.02219   0.03986   0.04701   0.09343
     Eigenvalues ---    0.10332   0.14549   0.15999   0.15999   0.16000
     Eigenvalues ---    0.16000   0.16000   0.16000   0.16000   0.16000
     Eigenvalues ---    0.19960   0.22000   0.22966   0.23987   0.24969
     Eigenvalues ---    0.24974   0.25000   0.29470   0.35228   0.35228
     Eigenvalues ---    0.35273   0.35273   0.41202   0.41302   0.42112
     Eigenvalues ---    0.43964   0.43965   0.45114   0.45293   0.45304
     Eigenvalues ---    0.45304   0.46786   0.48192   0.49836   0.89311
     Eigenvalues ---    0.89327
 RFO step:  Lambda=-7.57962838D-03 EMin= 8.89496185D-03
 Linear search not attempted -- first point.
 Iteration  1 RMS(Cart)=  0.04966913 RMS(Int)=  0.00616388
 Iteration  2 RMS(Cart)=  0.00555556 RMS(Int)=  0.00078180
 Iteration  3 RMS(Cart)=  0.00011131 RMS(Int)=  0.00077435
 Iteration  4 RMS(Cart)=  0.00000038 RMS(Int)=  0.00077435
 Variable       Old X    -DE/DX   Delta X   Delta X   Delta X     New X
                                 (Linear)    (Quad)   (Total)
    R1        2.64076  -0.00122   0.00000  -0.00228  -0.00236   2.63840
    R2        2.64083  -0.00269   0.00000  -0.00541  -0.00547   2.63535
    R3        3.32734   0.00589   0.00000   0.01948   0.01948   3.34682
    R4        2.05234  -0.00009   0.00000  -0.00024  -0.00024   2.05210
    R5        2.61737   0.00419   0.00000   0.00853   0.00852   2.62589
    R6        2.05306  -0.00055   0.00000  -0.00152  -0.00152   2.05154
    R7        2.66215  -0.00557   0.00000  -0.01275  -0.01268   2.64946
    R8        2.60031   0.02786   0.00000   0.05506   0.05506   2.65537
    R9        2.66218  -0.00188   0.00000  -0.00450  -0.00443   2.65775
   R10        1.91624  -0.00008   0.00000  -0.00017  -0.00017   1.91607
   R11        1.91624  -0.00061   0.00000  -0.00132  -0.00132   1.91492
   R12        2.05306  -0.00030   0.00000  -0.00084  -0.00084   2.05222
   R13        2.61734   0.00354   0.00000   0.00725   0.00727   2.62460
   R14        2.05233   0.00028   0.00000   0.00078   0.00078   2.05311
   R15        2.76952   0.00142   0.00000   0.00158   0.00158   2.77110
   R16        2.76945  -0.00071   0.00000  -0.00079  -0.00079   2.76865
   R17        3.13522  -0.00236   0.00000  -0.00562  -0.00562   3.12960
   R18        1.93197  -0.00049   0.00000  -0.00110  -0.00110   1.93087
   R19        1.93197   0.00036   0.00000   0.00081   0.00081   1.93277
    A1        2.11073   0.00017   0.00000   0.00159   0.00149   2.11222
    A2        2.08574   0.00558   0.00000   0.02121   0.02125   2.10699
    A3        2.08562  -0.00575   0.00000  -0.02282  -0.02277   2.06285
    A4        2.10378   0.00223   0.00000   0.01246   0.01245   2.11623
    A5        2.08486  -0.00086   0.00000  -0.00350  -0.00355   2.08131
    A6        2.09450  -0.00137   0.00000  -0.00907  -0.00907   2.08543
    A7        2.09663  -0.00051   0.00000  -0.00104  -0.00109   2.09554
    A8        2.10420   0.00189   0.00000   0.00726   0.00735   2.11155
    A9        2.08234  -0.00138   0.00000  -0.00621  -0.00625   2.07609
   A10        2.10244  -0.00446   0.00000  -0.01587  -0.01650   2.08594
   A11        2.07748  -0.00202   0.00000  -0.00859  -0.00896   2.06852
   A12        2.10239   0.00654   0.00000   0.02686   0.02620   2.12860
   A13        2.02927   0.00004   0.00000  -0.02182  -0.02480   2.00447
   A14        2.02929  -0.00425   0.00000  -0.04742  -0.05044   1.97885
   A15        1.97909  -0.00096   0.00000  -0.03507  -0.03966   1.93942
   A16        2.08233  -0.00132   0.00000  -0.00560  -0.00566   2.07666
   A17        2.10420   0.00240   0.00000   0.00965   0.00976   2.11397
   A18        2.09664  -0.00107   0.00000  -0.00409  -0.00417   2.09247
   A19        2.08486  -0.00158   0.00000  -0.00638  -0.00647   2.07839
   A20        2.10377   0.00033   0.00000   0.00056   0.00049   2.10426
   A21        2.09451   0.00125   0.00000   0.00604   0.00596   2.10047
   A22        1.89255   0.00103   0.00000   0.00407   0.00398   1.89653
   A23        1.89255  -0.00218   0.00000  -0.01375  -0.01381   1.87874
   A24        1.91144  -0.00068   0.00000   0.00275   0.00275   1.91419
   A25        2.08144  -0.00225   0.00000  -0.01870  -0.01884   2.06260
   A26        1.84010   0.00104   0.00000   0.01003   0.00998   1.85009
   A27        1.84034   0.00323   0.00000   0.01812   0.01813   1.85847
   A28        1.93817   0.00407   0.00000   0.03082   0.03048   1.96865
   A29        1.93839   0.00052   0.00000   0.00964   0.00930   1.94769
   A30        1.91751  -0.00096   0.00000   0.00619   0.00560   1.92312
    D1       -3.13975   0.00013   0.00000   0.00523   0.00529  -3.13446
    D2       -0.00909  -0.00023   0.00000  -0.00670  -0.00653  -0.01563
    D3        0.05245   0.00031   0.00000   0.00642   0.00647   0.05892
    D4       -3.10007  -0.00005   0.00000  -0.00552  -0.00536  -3.10543
    D5        0.00905  -0.00054   0.00000  -0.01766  -0.01746  -0.00841
    D6        3.13981   0.00014   0.00000   0.00546   0.00544  -3.13794
    D7        3.10003  -0.00040   0.00000  -0.01758  -0.01736   3.08267
    D8       -0.05239   0.00028   0.00000   0.00554   0.00553  -0.04686
    D9        1.45171   0.00100   0.00000  -0.02801  -0.02805   1.42366
   D10       -2.54761  -0.00272   0.00000  -0.05903  -0.05897  -2.60658
   D11       -0.54781  -0.00044   0.00000  -0.04356  -0.04358  -0.59139
   D12       -1.64001   0.00101   0.00000  -0.02753  -0.02757  -1.66758
   D13        0.64386  -0.00271   0.00000  -0.05856  -0.05850   0.58536
   D14        2.64366  -0.00043   0.00000  -0.04308  -0.04311   2.60055
   D15       -3.13096   0.00070   0.00000   0.02227   0.02197  -3.10899
   D16        0.00506   0.00078   0.00000   0.02471   0.02460   0.02965
   D17       -0.00024   0.00037   0.00000   0.01054   0.01049   0.01025
   D18        3.13577   0.00045   0.00000   0.01297   0.01312  -3.13429
   D19        3.09593   0.00130   0.00000   0.04395   0.04311   3.13904
   D20       -0.00109  -0.00057   0.00000  -0.01836  -0.01824  -0.01932
   D21       -0.05120   0.00138   0.00000   0.04638   0.04573  -0.00547
   D22        3.13497  -0.00048   0.00000  -0.01593  -0.01562   3.11935
   D23       -1.39544  -0.00013   0.00000   0.04692   0.04835  -1.34709
   D24        2.48779   0.00685   0.00000   0.19407   0.19233   2.68012
   D25        1.70094   0.00154   0.00000   0.10919   0.11093   1.81187
   D26       -0.69902   0.00852   0.00000   0.25635   0.25491  -0.44411
   D27       -3.13499   0.00004   0.00000   0.00170   0.00181  -3.13318
   D28        0.00104  -0.00020   0.00000  -0.00629  -0.00636  -0.00532
   D29        0.05118  -0.00154   0.00000  -0.05948  -0.05996  -0.00879
   D30       -3.09598  -0.00178   0.00000  -0.06748  -0.06813   3.11908
   D31       -0.00497   0.00075   0.00000   0.02399   0.02390   0.01894
   D32       -3.13578   0.00008   0.00000   0.00102   0.00109  -3.13469
   D33        3.13102   0.00050   0.00000   0.01592   0.01566  -3.13651
   D34        0.00020  -0.00016   0.00000  -0.00704  -0.00715  -0.00695
   D35        1.07038   0.00241   0.00000   0.04503   0.04518   1.11555
   D36       -1.06893   0.00042   0.00000   0.00865   0.00850  -1.06042
   D37       -0.96259   0.00098   0.00000   0.03359   0.03375  -0.92884
   D38       -3.10190  -0.00101   0.00000  -0.00278  -0.00292  -3.10482
   D39        3.10347   0.00126   0.00000   0.03999   0.04012  -3.13959
   D40        0.96416  -0.00073   0.00000   0.00361   0.00345   0.96762
         Item               Value     Threshold  Converged?
 Maximum Force            0.027857     0.000450     NO 
 RMS     Force            0.003780     0.000300     NO 
 Maximum Displacement     0.197440     0.001800     NO 
 RMS     Displacement     0.051700     0.001200     NO 
 Predicted change in Energy=-4.350796D-03
 GradGradGradGradGradGradGradGradGradGradGradGradGradGradGradGradGradGrad

                          Input orientation:                          
 ---------------------------------------------------------------------
 Center     Atomic      Atomic             Coordinates (Angstroms)
 Number     Number       Type             X           Y           Z
 ---------------------------------------------------------------------
      1          6           0       -1.349277    0.743929   -0.891050
      2          6           0       -2.540396    0.787611   -1.618133
      3          1           0       -3.505267    0.774768   -1.120040
      4          6           0       -2.487146    0.876195   -3.003846
      5          1           0       -3.404741    0.941581   -3.580331
      6          6           0       -1.258826    0.886453   -3.679736
      7          7           0       -1.241024    0.973958   -5.082058
      8          6           0       -0.075162    0.828737   -2.922354
      9          1           0        0.880622    0.844215   -3.437721
     10          6           0       -0.112678    0.769180   -1.535260
     11          1           0        0.809646    0.731435   -0.962292
     12         16           0       -1.371026    0.576179    0.871914
     13          8           0       -1.551342   -0.840151    1.206337
     14          8           0       -0.190804    1.266516    1.398273
     15          7           0       -2.690453    1.362941    1.490648
     16          1           0       -3.575109    0.954587    1.182999
     17          1           0       -2.668702    2.362246    1.273870
     18          1           0       -1.463080    0.110885   -5.565666
     19          1           0       -0.392629    1.389843   -5.448265
 ---------------------------------------------------------------------
                    Distance matrix (angstroms):
                    1          2          3          4          5
     1  C    0.000000
     2  C    1.396181   0.000000
     3  H    2.168335   1.085927   0.000000
     4  C    2.403361   1.389563   2.143731   0.000000
     5  H    3.390608   2.149656   2.467988   1.085629   0.000000
     6  C    2.793790   2.429486   3.407494   1.402036   2.148923
     7  N    4.198712   3.704305   4.567720   2.425149   2.633991
     8  C    2.399324   2.789276   3.875160   2.413826   3.395844
     9  H    3.386449   3.875238   4.961098   3.395752   4.288841
    10  C    1.394568   2.429202   3.417908   2.793975   3.879396
    11  H    2.160134   3.414098   4.318013   3.880430   4.965817
    12  S    1.771061   2.759069   2.926141   4.044410   4.908360
    13  O    2.636128   3.406679   3.440612   4.641897   5.433400
    14  O    2.618426   3.853393   4.191584   4.980380   5.934767
    15  N    2.802573   3.165128   2.797420   4.525343   5.138343
    16  H    3.049653   2.990794   2.311104   4.326601   4.766393
    17  H    3.007775   3.295393   2.991777   4.532126   5.111096
    18  H    4.718657   4.147479   4.937090   2.863098   2.898561
    19  H    4.701126   4.432325   5.366597   3.259758   3.572525
                    6          7          8          9         10
     6  C    0.000000
     7  N    1.405162   0.000000
     8  C    1.406420   2.458586   0.000000
     9  H    2.153507   2.687389   1.085987   0.000000
    10  C    2.434376   3.727583   1.388879   2.147471   0.000000
    11  H    3.418641   4.608312   2.152718   2.479012   1.086461
    12  S    4.563593   5.968661   4.017402   4.869776   2.723082
    13  O    5.190418   6.552190   4.691522   5.506252   3.489420
    14  O    5.203008   6.571396   4.344288   4.971230   2.976417
    15  N    5.386044   6.741856   5.157490   6.108230   4.019153
    16  H    5.386651   6.685752   5.396238   6.420029   4.405875
    17  H    5.357605   6.660588   5.165887   6.091076   4.118534
    18  H    2.049379   1.013942   3.070623   3.249441   4.301292
    19  H    2.032583   1.013332   2.606886   2.441550   3.971802
                   11         12         13         14         15
    11  H    0.000000
    12  S    2.853726   0.000000
    13  O    3.570308   1.466405   0.000000
    14  O    2.619061   1.465109   2.515144   0.000000
    15  N    4.320464   1.656113   2.496401   2.503213   0.000000
    16  H    4.886527   2.257863   2.705044   3.405461   1.021771
    17  H    4.445095   2.244006   3.392403   2.712210   1.022779
    18  H    5.171210   6.455030   6.839026   7.172908   7.270877
    19  H    4.690727   6.447013   7.113313   6.850622   7.309530
                   16         17         18         19
    16  H    0.000000
    17  H    1.676703   0.000000
    18  H    7.121585   7.300781   0.000000
    19  H    7.368263   7.163322   1.671940   0.000000
 Stoichiometry    C6H8N2O2S
 Framework group  C1[X(C6H8N2O2S)]
 Deg. of freedom    51
 Full point group                 C1      NOp   1
 Largest Abelian subgroup         C1      NOp   1
 Largest concise Abelian subgroup C1      NOp   1
                         Standard orientation:                         
 ---------------------------------------------------------------------
 Center     Atomic      Atomic             Coordinates (Angstroms)
 Number     Number       Type             X           Y           Z
 ---------------------------------------------------------------------
      1          6           0        0.105972   -0.030519   -0.011654
      2          6           0       -0.551925    1.200597    0.017419
      3          1           0        0.001437    2.134777    0.035701
      4          6           0       -1.941027    1.228800   -0.004579
      5          1           0       -2.465669    2.179205   -0.013059
      6          6           0       -2.686872    0.041707   -0.019717
      7          7           0       -4.090426    0.106185   -0.038721
      8          6           0       -1.997663   -1.184156   -0.036036
      9          1           0       -2.567847   -2.108205   -0.055819
     10          6           0       -0.609470   -1.227157   -0.043573
     11          1           0       -0.089917   -2.181148   -0.062660
     12         16           0        1.873178   -0.114159    0.069862
     13          8           0        2.284096   -0.001005    1.472961
     14          8           0        2.296848   -1.298250   -0.681788
     15          7           0        2.529641    1.194007   -0.705037
     16          1           0        2.293562    2.080336   -0.254811
     17          1           0        2.264966    1.218328   -1.692677
     18          1           0       -4.518970    0.325936    0.853545
     19          1           0       -4.524559   -0.705609   -0.462231
 ---------------------------------------------------------------------
 Rotational constants (GHZ):           2.5788408           0.5558867           0.5059726
 Basis read from rwf:  (6D, 7F)
 There are   229 symmetry adapted cartesian basis functions of A   symmetry.
 There are   229 symmetry adapted basis functions of A   symmetry.
   229 basis functions,   408 primitive gaussians,   229 cartesian basis functions
    45 alpha electrons       45 beta electrons
       nuclear repulsion energy       725.4890211063 Hartrees.
 NAtoms=   19 NActive=   19 NUniq=   19 SFac= 1.00D+00 NAtFMM=   60 NAOKFM=F Big=F
 Integral buffers will be    131072 words long.
 Raffenetti 2 integral format.
 Two-electron integral symmetry is turned on.
 ------------------------------------------------------------------------------
 Polarizable Continuum Model (PCM)
 =================================
 Model                : PCM.
 Atomic radii         : SMD-Coulomb.
 Polarization charges : Total charges.
 Charge compensation  : None.
 Solution method      : On-the-fly selection.
 Cavity type          : VdW (van der Waals Surface) (Alpha=1.000).
 Cavity algorithm     : GePol (No added spheres)
                        Default sphere list used, NSphG=   19.
                        Lebedev-Laikov grids with approx.  5.0 points / Ang**2.
                        Smoothing algorithm: York/Karplus (Gamma=1.0000).
                        Polarization charges: spherical gaussians, with
                                              point-specific exponents (IZeta= 3).
                        Self-potential: point-specific (ISelfS= 7).
                        Self-field    : sphere-specific E.n sum rule (ISelfD= 2).
 1st derivatives      : Analytical E(r).r(x)/FMM algorithm (CHGder, D1EAlg=3).
                        Cavity 1st derivative terms included.
 Solvent              : Water, Eps=  78.355300 Eps(inf)=   1.777849
 ------------------------------------------------------------------------------
 Spheres list:
 ISph  on   Nord     Re0    Alpha      Xe            Ye            Ze
    1   C      1    1.8500  1.000      0.105972     -0.030519     -0.011654
    2   C      2    1.8500  1.000     -0.551925      1.200597      0.017419
    3   H      3    1.2000  1.000      0.001437      2.134777      0.035701
    4   C      4    1.8500  1.000     -1.941027      1.228800     -0.004579
    5   H      5    1.2000  1.000     -2.465669      2.179205     -0.013059
    6   C      6    1.8500  1.000     -2.686872      0.041707     -0.019717
    7   N      7    1.8900  1.000     -4.090426      0.106185     -0.038721
    8   C      8    1.8500  1.000     -1.997663     -1.184156     -0.036036
    9   H      9    1.2000  1.000     -2.567847     -2.108205     -0.055819
   10   C     10    1.8500  1.000     -0.609470     -1.227157     -0.043573
   11   H     11    1.2000  1.000     -0.089917     -2.181148     -0.062660
   12   S     12    2.4900  1.000      1.873178     -0.114159      0.069862
   13   O     13    1.5200  1.000      2.284096     -0.001005      1.472961
   14   O     14    1.5200  1.000      2.296848     -1.298250     -0.681788
   15   N     15    1.8900  1.000      2.529641      1.194007     -0.705037
   16   H     16    1.2000  1.000      2.293562      2.080336     -0.254811
   17   H     17    1.2000  1.000      2.264966      1.218328     -1.692677
   18   H     18    1.2000  1.000     -4.518970      0.325936      0.853545
   19   H     19    1.2000  1.000     -4.524559     -0.705609     -0.462231
 ------------------------------------------------------------------------------
 ------------------------------------------------------------------------------
 Atomic radii for non-electrostatic terms: SMD-CDS.
 ------------------------------------------------------------------------------
 Nuclear repulsion after PCM non-electrostatic terms =      725.4951126596 Hartrees.
 One-electron integrals computed using PRISM.
 NBasis=   229 RedAO= T EigKep=  3.04D-06  NBF=   229
 NBsUse=   229 1.00D-06 EigRej= -1.00D+00 NBFU=   229
 Initial guess from the checkpoint file:  "/jobfs/40662277.gadi-pbs/Gau-561050.chk"
 B after Tr=    -0.000000    0.000000    0.000000
         Rot=    0.999974    0.007168   -0.000356   -0.000558 Ang=   0.82 deg.
 ExpMin= 4.05D-02 ExpMax= 2.19D+04 ExpMxC= 3.30D+03 IAcc=3 IRadAn=         5 AccDes= 0.00D+00
 Harris functional with IExCor= 1009 and IRadAn=       5 diagonalized for initial guess.
 HarFok:  IExCor= 1009 AccDes= 0.00D+00 IRadAn=         5 IDoV= 1 UseB2=F ITyADJ=14
 ICtDFT=  3500011 ScaDFX=  1.000000  1.000000  1.000000  1.000000
 FoFCou: FMM=F IPFlag=           0 FMFlag=      100000 FMFlg1=           0
         NFxFlg=           0 DoJE=T BraDBF=F KetDBF=T FulRan=T
         wScrn=  0.000000 ICntrl=       500 IOpCl=  0 I1Cent=   200000004 NGrid=           0
         NMat0=    1 NMatS0=      1 NMatT0=    0 NMatD0=    1 NMtDS0=    0 NMtDT0=    0
 Petite list used in FoFCou.
 Requested convergence on RMS density matrix=1.00D-08 within 128 cycles.
 Requested convergence on MAX density matrix=1.00D-06.
 Requested convergence on             energy=1.00D-06.
 No special actions if energy rises.
 Inv3:  Mode=1 IEnd=     7207500.
 Iteration    1 A*A^-1 deviation from unit magnitude is 4.44D-15 for   1547.
 Iteration    1 A*A^-1 deviation from orthogonality  is 1.90D-15 for   1255    225.
 Iteration    1 A^-1*A deviation from unit magnitude is 4.22D-15 for   1537.
 Iteration    1 A^-1*A deviation from orthogonality  is 2.22D-13 for    930    894.
 Error on total polarization charges =  0.04206
 SCF Done:  E(RM062X) =  -891.328543867     A.U. after   14 cycles
            NFock= 14  Conv=0.38D-08     -V/T= 2.0064
 SMD-CDS (non-electrostatic) energy       (kcal/mol) =       3.82
 (included in total energy above)
 D1PCM: PCM CHGder 1st derivatives, ID1Alg=3 FixD1E=F DoIter=F DoCFld=F I1PDM=0.
 Calling FoFJK, ICntrl=      2127 FMM=F ISym2X=0 I1Cent= 0 IOpClX= 0 NMat=1 NMatS=1 NMatT=0.
 ***** Axes restored to original set *****
 -------------------------------------------------------------------
 Center     Atomic                   Forces (Hartrees/Bohr)
 Number     Number              X              Y              Z
 -------------------------------------------------------------------
      1        6          -0.001967248    0.001267532   -0.003201491
      2        6           0.000548911   -0.000637170    0.000824027
      3        1          -0.000416005    0.000121324    0.000098758
      4        6          -0.000324319   -0.003113827   -0.001424233
      5        1          -0.000450074   -0.000072561    0.000301944
      6        6           0.003352629   -0.003821288    0.006885532
      7        7          -0.004082140    0.009993213   -0.002067395
      8        6          -0.001258895    0.004050885   -0.003394226
      9        1           0.000575471   -0.000524102    0.000124563
     10        6           0.000495697    0.000477573    0.001127634
     11        1          -0.000224827    0.000319855   -0.000543207
     12       16          -0.000968516    0.001097885    0.002730845
     13        8          -0.001140910   -0.000344215    0.000428446
     14        8          -0.000745209   -0.000421361    0.000221730
     15        7           0.003124941    0.000157348   -0.003415019
     16        1           0.000253915   -0.001300080    0.000843810
     17        1           0.000133044   -0.000314878    0.000225764
     18        1          -0.001807471   -0.001527143    0.000073830
     19        1           0.004901007   -0.005408991    0.000158688
 -------------------------------------------------------------------
 Cartesian Forces:  Max     0.009993213 RMS     0.002480818

 GradGradGradGradGradGradGradGradGradGradGradGradGradGradGradGradGradGrad
 Berny optimization.
 Using GEDIIS/GDIIS optimizer.
 FormGI is forming the generalized inverse of G from B-inverse, IUseBI=4.
 Internal  Forces:  Max     0.006177201 RMS     0.001334602
 Search for a local minimum.
 Step number   2 out of a maximum of   99
 All quantities printed in internal units (Hartrees-Bohrs-Radians)
 Mixed Optimization -- RFO/linear search
 Update second derivatives using D2CorX and points    1    2
 DE= -5.51D-03 DEPred=-4.35D-03 R= 1.27D+00
 TightC=F SS=  1.41D+00  RLast= 4.03D-01 DXNew= 5.0454D-01 1.2101D+00
 Trust test= 1.27D+00 RLast= 4.03D-01 DXMaxT set to 5.05D-01
 ITU=  1  0
 Use linear search instead of GDIIS.
     Eigenvalues ---    0.00862   0.01113   0.01645   0.01841   0.02019
     Eigenvalues ---    0.02056   0.02108   0.02129   0.02167   0.02197
     Eigenvalues ---    0.02217   0.02246   0.04196   0.04483   0.09245
     Eigenvalues ---    0.10643   0.14737   0.15817   0.15997   0.15998
     Eigenvalues ---    0.15999   0.16000   0.16000   0.16000   0.16473
     Eigenvalues ---    0.20028   0.22015   0.23127   0.24004   0.24899
     Eigenvalues ---    0.24983   0.26664   0.29578   0.35228   0.35240
     Eigenvalues ---    0.35273   0.35290   0.40807   0.41280   0.42111
     Eigenvalues ---    0.43964   0.43969   0.44972   0.45223   0.45304
     Eigenvalues ---    0.45476   0.46785   0.48264   0.57009   0.89291
     Eigenvalues ---    0.89330
 RFO step:  Lambda=-4.05160879D-03 EMin= 8.61687463D-03
 Quartic linear search produced a step of  0.78645.
 Iteration  1 RMS(Cart)=  0.05299613 RMS(Int)=  0.03085229
 Iteration  2 RMS(Cart)=  0.03461736 RMS(Int)=  0.00409608
 Iteration  3 RMS(Cart)=  0.00310226 RMS(Int)=  0.00247038
 Iteration  4 RMS(Cart)=  0.00002653 RMS(Int)=  0.00247032
 Iteration  5 RMS(Cart)=  0.00000050 RMS(Int)=  0.00247032
 Variable       Old X    -DE/DX   Delta X   Delta X   Delta X     New X
                                 (Linear)    (Quad)   (Total)
    R1        2.63840  -0.00117  -0.00185  -0.00334  -0.00529   2.63311
    R2        2.63535   0.00053  -0.00431   0.00366  -0.00073   2.63462
    R3        3.34682   0.00114   0.01532   0.00034   0.01566   3.36248
    R4        2.05210   0.00041  -0.00019   0.00200   0.00181   2.05391
    R5        2.62589  -0.00066   0.00670  -0.00480   0.00190   2.62780
    R6        2.05154   0.00022  -0.00119   0.00147   0.00028   2.05182
    R7        2.64946   0.00007  -0.00998   0.00394  -0.00595   2.64352
    R8        2.65537   0.00201   0.04330  -0.00987   0.03343   2.68880
    R9        2.65775  -0.00302  -0.00348  -0.00998  -0.01337   2.64438
   R10        1.91607   0.00166  -0.00013   0.00605   0.00591   1.92199
   R11        1.91492   0.00182  -0.00104   0.00700   0.00596   1.92088
   R12        2.05222   0.00044  -0.00066   0.00229   0.00163   2.05385
   R13        2.62460   0.00001   0.00571  -0.00214   0.00358   2.62818
   R14        2.05311  -0.00049   0.00061  -0.00251  -0.00190   2.05122
   R15        2.77110   0.00058   0.00124   0.00060   0.00184   2.77294
   R16        2.76865  -0.00072  -0.00062  -0.00110  -0.00172   2.76694
   R17        3.12960  -0.00438  -0.00442  -0.01569  -0.02011   3.10949
   R18        1.93087   0.00003  -0.00087   0.00045  -0.00041   1.93045
   R19        1.93277  -0.00035   0.00063  -0.00155  -0.00091   1.93186
    A1        2.11222   0.00107   0.00117   0.00745   0.00852   2.12074
    A2        2.10699  -0.00061   0.01671  -0.01103   0.00573   2.11273
    A3        2.06285  -0.00046  -0.01791   0.00355  -0.01430   2.04855
    A4        2.11623   0.00058   0.00979   0.00017   0.00994   2.12617
    A5        2.08131  -0.00094  -0.00279  -0.00502  -0.00786   2.07345
    A6        2.08543   0.00036  -0.00713   0.00484  -0.00231   2.08312
    A7        2.09554  -0.00015  -0.00085  -0.00233  -0.00325   2.09229
    A8        2.11155  -0.00073   0.00578  -0.00742  -0.00151   2.11004
    A9        2.07609   0.00088  -0.00492   0.00973   0.00473   2.08082
   A10        2.08594  -0.00105  -0.01298  -0.00159  -0.01532   2.07062
   A11        2.06852   0.00224  -0.00705   0.01740   0.00993   2.07845
   A12        2.12860  -0.00119   0.02061  -0.01569   0.00407   2.13267
   A13        2.00447  -0.00203  -0.01950  -0.03826  -0.06527   1.93920
   A14        1.97885  -0.00258  -0.03967  -0.03574  -0.08331   1.89554
   A15        1.93942  -0.00025  -0.03119  -0.02638  -0.07339   1.86603
   A16        2.07666   0.00110  -0.00445   0.01097   0.00643   2.08310
   A17        2.11397  -0.00138   0.00768  -0.01301  -0.00519   2.10877
   A18        2.09247   0.00028  -0.00328   0.00215  -0.00122   2.09126
   A19        2.07839  -0.00026  -0.00508   0.00091  -0.00426   2.07414
   A20        2.10426   0.00050   0.00039   0.00418   0.00451   2.10877
   A21        2.10047  -0.00024   0.00469  -0.00494  -0.00031   2.10016
   A22        1.89653   0.00120   0.00313   0.00862   0.01167   1.90820
   A23        1.87874   0.00079  -0.01086   0.01147   0.00056   1.87929
   A24        1.91419  -0.00208   0.00216  -0.01756  -0.01539   1.89880
   A25        2.06260   0.00003  -0.01482   0.01218  -0.00277   2.05983
   A26        1.85009  -0.00035   0.00785  -0.00995  -0.00209   1.84800
   A27        1.85847   0.00011   0.01426  -0.00815   0.00612   1.86458
   A28        1.96865  -0.00067   0.02397  -0.01350   0.01001   1.97866
   A29        1.94769   0.00030   0.00731   0.00303   0.00987   1.95756
   A30        1.92312   0.00070   0.00441   0.01090   0.01454   1.93766
    D1       -3.13446   0.00007   0.00416   0.00259   0.00681  -3.12765
    D2       -0.01563  -0.00003  -0.00514   0.00205  -0.00293  -0.01856
    D3        0.05892   0.00010   0.00508   0.00325   0.00838   0.06730
    D4       -3.10543   0.00000  -0.00421   0.00271  -0.00136  -3.10679
    D5       -0.00841  -0.00002  -0.01373   0.00647  -0.00708  -0.01549
    D6       -3.13794  -0.00007   0.00427  -0.00699  -0.00278  -3.14072
    D7        3.08267  -0.00006  -0.01365   0.00540  -0.00805   3.07463
    D8       -0.04686  -0.00010   0.00435  -0.00806  -0.00374  -0.05060
    D9        1.42366  -0.00115  -0.02206  -0.03781  -0.05992   1.36374
   D10       -2.60658   0.00025  -0.04638  -0.00864  -0.05496  -2.66154
   D11       -0.59139  -0.00027  -0.03428  -0.02118  -0.05543  -0.64683
   D12       -1.66758  -0.00116  -0.02168  -0.03730  -0.05905  -1.72663
   D13        0.58536   0.00024  -0.04601  -0.00812  -0.05409   0.53127
   D14        2.60055  -0.00029  -0.03390  -0.02066  -0.05456   2.54599
   D15       -3.10899   0.00010   0.01728  -0.00353   0.01342  -3.09557
   D16        0.02965   0.00001   0.01934  -0.01102   0.00822   0.03787
   D17        0.01025   0.00000   0.00825  -0.00411   0.00409   0.01434
   D18       -3.13429  -0.00009   0.01032  -0.01160  -0.00111  -3.13540
   D19        3.13904   0.00035   0.03390   0.00313   0.03620  -3.10794
   D20       -0.01932   0.00002  -0.01434   0.01070  -0.00357  -0.02289
   D21       -0.00547   0.00025   0.03596  -0.00429   0.03102   0.02555
   D22        3.11935  -0.00007  -0.01228   0.00327  -0.00875   3.11061
   D23       -1.34709   0.00114   0.03802   0.12735   0.17188  -1.17521
   D24        2.68012   0.00587   0.15126   0.23535   0.38013   3.06025
   D25        1.81187   0.00145   0.08724   0.11918   0.21290   2.02477
   D26       -0.44411   0.00618   0.20048   0.22718   0.42115  -0.02295
   D27       -3.13318  -0.00014   0.00142  -0.01039  -0.00881   3.14119
   D28       -0.00532  -0.00007  -0.00500  -0.00183  -0.00684  -0.01216
   D29       -0.00879  -0.00047  -0.04716  -0.00247  -0.05025  -0.05904
   D30        3.11908  -0.00041  -0.05358   0.00609  -0.04828   3.07079
   D31        0.01894   0.00007   0.01880  -0.00666   0.01199   0.03093
   D32       -3.13469   0.00011   0.00086   0.00684   0.00774  -3.12695
   D33       -3.13651   0.00014   0.01231   0.00204   0.01403  -3.12248
   D34       -0.00695   0.00019  -0.00562   0.01554   0.00978   0.00283
   D35        1.11555   0.00077   0.03553   0.01817   0.05390   1.16946
   D36       -1.06042   0.00012   0.00669   0.01170   0.01823  -1.04219
   D37       -0.92884   0.00060   0.02654   0.02236   0.04908  -0.87976
   D38       -3.10482  -0.00005  -0.00230   0.01590   0.01340  -3.09141
   D39       -3.13959   0.00070   0.03156   0.01834   0.05007  -3.08952
   D40        0.96762   0.00005   0.00272   0.01188   0.01440   0.98202
         Item               Value     Threshold  Converged?
 Maximum Force            0.006177     0.000450     NO 
 RMS     Force            0.001335     0.000300     NO 
 Maximum Displacement     0.461691     0.001800     NO 
 RMS     Displacement     0.077204     0.001200     NO 
 Predicted change in Energy=-3.745815D-03
 GradGradGradGradGradGradGradGradGradGradGradGradGradGradGradGradGradGrad

                          Input orientation:                          
 ---------------------------------------------------------------------
 Center     Atomic      Atomic             Coordinates (Angstroms)
 Number     Number       Type             X           Y           Z
 ---------------------------------------------------------------------
      1          6           0       -1.360374    0.743483   -0.901366
      2          6           0       -2.547639    0.754436   -1.630609
      3          1           0       -3.519032    0.714501   -1.144688
      4          6           0       -2.482092    0.857861   -3.015778
      5          1           0       -3.396948    0.911246   -3.598099
      6          6           0       -1.249191    0.904270   -3.675089
      7          7           0       -1.237759    1.052190   -5.090184
      8          6           0       -0.071967    0.873053   -2.919226
      9          1           0        0.888301    0.908510   -3.427034
     10          6           0       -0.118119    0.811498   -1.530583
     11          1           0        0.799935    0.801348   -0.951538
     12         16           0       -1.372064    0.560685    0.868530
     13          8           0       -1.586823   -0.850220    1.209743
     14          8           0       -0.173952    1.220161    1.391502
     15          7           0       -2.667162    1.373260    1.476819
     16          1           0       -3.564186    0.963006    1.211095
     17          1           0       -2.638231    2.369738    1.250365
     18          1           0       -1.616342    0.226556   -5.547830
     19          1           0       -0.273745    1.145527   -5.398742
 ---------------------------------------------------------------------
                    Distance matrix (angstroms):
                    1          2          3          4          5
     1  C    0.000000
     2  C    1.393382   0.000000
     3  H    2.172521   1.086884   0.000000
     4  C    2.396262   1.390571   2.144009   0.000000
     5  H    3.383511   2.148705   2.464313   1.085776   0.000000
     6  C    2.780603   2.426585   3.404573   1.398888   2.149147
     7  N    4.201968   3.711213   4.570031   2.426786   2.628361
     8  C    2.397611   2.793485   3.880255   2.412106   3.393793
     9  H    3.385671   3.880279   4.967023   3.395768   4.288663
    10  C    1.394180   2.432247   3.424110   2.792189   3.877537
    11  H    2.161666   3.416078   4.324155   3.877625   4.962881
    12  S    1.779350   2.768612   2.947232   4.050720   4.916689
    13  O    2.654798   3.400837   3.424197   4.644791   5.430899
    14  O    2.625274   3.870975   4.228181   4.988276   5.948047
    15  N    2.785692   3.170700   2.834069   4.525850   5.147897
    16  H    3.060632   3.025252   2.369284   4.364452   4.812380
    17  H    2.984555   3.304152   3.041694   4.528811   5.119615
    18  H    4.682132   4.060861   4.821408   2.749428   2.727785
    19  H    4.644221   4.418413   5.367927   3.261605   3.612700
                    6          7          8          9         10
     6  C    0.000000
     7  N    1.422852   0.000000
     8  C    1.399343   2.470673   0.000000
     9  H    2.151841   2.703117   1.086849   0.000000
    10  C    2.426280   3.739290   1.390772   2.149144   0.000000
    11  H    3.409873   4.619904   2.153403   2.479389   1.085458
    12  S    4.558248   5.980460   4.016830   4.866426   2.718645
    13  O    5.201328   6.590152   4.723647   5.542479   3.525306
    14  O    5.189053   6.570553   4.325883   4.944067   2.951052
    15  N    5.364024   6.728434   5.129372   6.074956   3.982168
    16  H    5.407166   6.717614   5.409550   6.429607   4.406260
    17  H    5.323262   6.625694   5.119694   6.037357   4.063588
    18  H    2.025156   1.017073   3.116507   3.352025   4.327251
    19  H    1.995164   1.016486   2.502590   2.300904   3.885672
                   11         12         13         14         15
    11  H    0.000000
    12  S    2.843967   0.000000
    13  O    3.618760   1.467379   0.000000
    14  O    2.571712   1.464200   2.513110   0.000000
    15  N    4.271389   1.645470   2.486428   2.499363   0.000000
    16  H    4.873260   2.254908   2.682863   3.404756   1.021553
    17  H    4.373695   2.240904   3.387513   2.722887   1.022296
    18  H    5.224431   6.429697   6.842888   7.156960   7.194780
    19  H    4.587904   6.389605   7.027037   6.791388   7.283794
                   16         17         18         19
    16  H    0.000000
    17  H    1.684587   0.000000
    18  H    7.072448   7.200899   0.000000
    19  H    7.385815   7.162409   1.633800   0.000000
 Stoichiometry    C6H8N2O2S
 Framework group  C1[X(C6H8N2O2S)]
 Deg. of freedom    51
 Full point group                 C1      NOp   1
 Largest Abelian subgroup         C1      NOp   1
 Largest concise Abelian subgroup C1      NOp   1
                         Standard orientation:                         
 ---------------------------------------------------------------------
 Center     Atomic      Atomic             Coordinates (Angstroms)
 Number     Number       Type             X           Y           Z
 ---------------------------------------------------------------------
      1          6           0        0.099883   -0.019448   -0.009101
      2          6           0       -0.559608    1.207445    0.027192
      3          1           0       -0.017363    2.149250    0.044279
      4          6           0       -1.949881    1.221684    0.002208
      5          1           0       -2.480922    2.168603   -0.013540
      6          6           0       -2.680299    0.028724   -0.012793
      7          7           0       -4.099811    0.099055   -0.080236
      8          6           0       -1.992557   -1.189826   -0.030317
      9          1           0       -2.555728   -2.119315   -0.041635
     10          6           0       -0.602292   -1.223283   -0.047426
     11          1           0       -0.077137   -2.172856   -0.074673
     12         16           0        1.875029   -0.109999    0.073033
     13          8           0        2.306967    0.073469    1.463346
     14          8           0        2.290505   -1.330509   -0.620952
     15          7           0        2.509735    1.154971   -0.766354
     16          1           0        2.319379    2.062285   -0.337268
     17          1           0        2.226189    1.147110   -1.748509
     18          1           0       -4.487752    0.496317    0.771891
     19          1           0       -4.467853   -0.845043   -0.160665
 ---------------------------------------------------------------------
 Rotational constants (GHZ):           2.5813193           0.5561709           0.5058208
 Basis read from rwf:  (6D, 7F)
 There are   229 symmetry adapted cartesian basis functions of A   symmetry.
 There are   229 symmetry adapted basis functions of A   symmetry.
   229 basis functions,   408 primitive gaussians,   229 cartesian basis functions
    45 alpha electrons       45 beta electrons
       nuclear repulsion energy       725.7037420363 Hartrees.
 NAtoms=   19 NActive=   19 NUniq=   19 SFac= 1.00D+00 NAtFMM=   60 NAOKFM=F Big=F
 Integral buffers will be    131072 words long.
 Raffenetti 2 integral format.
 Two-electron integral symmetry is turned on.
 ------------------------------------------------------------------------------
 Polarizable Continuum Model (PCM)
 =================================
 Model                : PCM.
 Atomic radii         : SMD-Coulomb.
 Polarization charges : Total charges.
 Charge compensation  : None.
 Solution method      : On-the-fly selection.
 Cavity type          : VdW (van der Waals Surface) (Alpha=1.000).
 Cavity algorithm     : GePol (No added spheres)
                        Default sphere list used, NSphG=   19.
                        Lebedev-Laikov grids with approx.  5.0 points / Ang**2.
[...]
 30,0.01431697,0.00082655,-0.02906197,-0.07259956,0.02341274,-0.0006160
 0,0.00394272,0.01158281,0.19627201,0.20796993,-0.06653279,-0.01972112,
 -0.04893254,0.04851520,0.04863391,-0.37246469,-0.00101532,0.00093615,-
 0.00688234,0.05697816,-0.03846788,0.74854771,0.00246883,-0.00199169,0.
 00074460,0.00637283,0.00115498,0.00369826,-0.00016313,0.00190726,-0.00
 009416,-0.22594546,-0.06474221,-0.13274843,0.23498002,-0.00208509,0.00
 626143,0.00162245,0.00356741,0.00391224,0.00329454,0.00192776,-0.00402
 394,-0.00069692,-0.06495093,-0.05754653,-0.04192530,0.07189334,0.04932
 381,0.00150435,0.00150127,-0.00438134,-0.02377253,-0.00798131,-0.01440
 847,0.00023790,-0.00052007,0.00146856,-0.13281528,-0.04204156,-0.15903
 746,0.14172306,0.04374603,0.16602461,-0.06962874,-0.02437913,-0.008996
 01,0.03204641,0.00381204,0.08165278,0.00233070,-0.00215836,-0.00118609
 ,-0.25961508,-0.07896130,0.01673230,-0.01473821,-0.00874721,0.01103253
 ,0.63099296,-0.02433600,-0.01460396,-0.00870669,0.00973141,0.00013613,
 0.03662904,-0.00230939,0.00742663,0.00101195,-0.08138842,-0.10174843,0
 .01196759,-0.00633826,0.00157010,0.00397588,0.18251494,0.24394632,-0.0
 0913850,-0.00834402,0.02149802,0.03180823,0.01460000,-0.02309797,-0.00
 137122,0.00071293,-0.00489605,0.07251472,0.03528508,-0.13827337,-0.016
 47112,-0.00721683,0.00963566,0.01378201,-0.03757733,0.70976225,0.00658
 331,0.00309780,-0.00011178,-0.00794891,-0.00558835,-0.00590873,0.00003
 866,0.00001103,0.00162820,0.00140203,-0.00917175,0.04542606,0.00020251
 ,0.00178548,0.00063981,-0.11755363,-0.03327646,0.02461526,0.72332960,0
 .00249622,-0.00172963,0.00972764,-0.00493020,0.00392483,-0.00869418,-0
 .00000767,-0.00026794,0.00034835,-0.01284980,0.00009884,0.02782491,0.0
 0129691,-0.00189282,0.00017699,-0.02750249,-0.05538175,-0.00331156,0.2
 3110427,0.17952082,0.00180518,0.00477871,-0.02226950,0.00116338,-0.001
 02797,0.01422827,0.00025656,0.00017528,-0.00022147,0.02299403,0.015015
 30,-0.04070133,-0.00153955,-0.00047406,0.00183287,0.00624325,0.0441402
 2,-0.31925247,-0.02738670,0.10548628,0.69886287,0.02045732,0.00402423,
 0.02241996,-0.01202760,-0.00149399,-0.01664242,0.00035360,0.00053695,-
 0.00020163,-0.03440051,-0.01671293,0.00458836,-0.00223309,-0.00332040,
 0.00234093,-0.24103012,-0.06092191,-0.10451370,0.00468784,0.00685343,-
 0.01686470,0.63823027,-0.00212951,0.00709052,0.01203960,-0.00122220,-0
 .00328390,-0.00234907,0.00057151,-0.00080705,-0.00015675,-0.01340575,0
 .00006319,-0.00253987,-0.00347189,0.00407762,0.00157192,-0.06364553,-0
 .09067618,-0.03229901,0.00413064,0.01238749,0.00104309,0.20426495,0.21
 180554,0.07710172,0.03589250,-0.02722901,-0.02914279,-0.00602064,-0.05
 235253,-0.00015509,-0.00020425,-0.00084628,-0.02244505,-0.01341426,0.0
 5745787,0.00271779,0.00173806,-0.00085538,-0.04779204,-0.01140910,-0.1
 6793917,-0.04233222,-0.00392404,-0.05628024,-0.02235083,-0.06896693,0.
 72901255,0.00267433,-0.00174398,-0.00028735,-0.00016085,0.00035172,-0.
 00111675,-0.00011755,0.00023263,0.00013903,-0.00140292,-0.00238030,-0.
 00350044,-0.00085315,-0.00021329,0.00058953,-0.01491905,-0.00856272,0.
 01106800,0.00064049,0.00110759,0.00129254,-0.26182911,-0.09817129,0.09
 608234,0.27302983,-0.00173971,0.00646106,0.00125529,0.00015153,-0.0006
 6922,-0.00053536,0.00026779,-0.00066963,-0.00003120,-0.00253216,0.0046
 8111,-0.00061374,-0.00008584,-0.00049399,0.00013777,-0.00610228,0.0017
 6010,0.00377983,0.00059100,-0.00249378,0.00045663,-0.09798654,-0.07790
 763,0.04438133,0.10751372,0.07120902,-0.00076346,0.00064354,-0.0047857
 5,-0.00042960,-0.00017494,-0.00087177,0.00013110,-0.00004477,0.0001267
 4,-0.00312245,-0.00045059,-0.00228897,-0.00084385,-0.00043296,0.000588
 35,-0.01659968,-0.00698927,0.00962712,-0.00079858,-0.00042459,0.001996
 94,0.09622677,0.04429917,-0.10279122,-0.10224868,-0.04821206,0.1060864
 0,-0.26842951,-0.09299027,0.08587837,-0.04965653,-0.01960441,-0.033948
 91,-0.00095786,-0.00232517,-0.00332849,-0.01923660,-0.00897110,0.03190
 248,-0.00050713,0.00020760,0.00053082,0.04609607,0.01962419,-0.0169022
 3,-0.00880649,-0.00479521,-0.00549079,-0.12046603,-0.02323085,-0.01678
 876,0.00297131,-0.00233073,0.02646776,0.64531322,-0.08702225,-0.095612
 61,0.04082143,-0.02410810,0.00014874,-0.01929683,-0.00231270,0.0047021
 1,-0.00040234,-0.00895103,-0.00809250,0.01705754,-0.00000734,-0.000734
 86,0.00016964,0.02596132,0.01044074,-0.00223466,-0.00518271,0.00426147
 ,-0.00351523,-0.02962085,-0.07320713,0.02244126,0.00015348,0.00175034,
 0.01151710,0.19506801,0.22056307,0.03662356,0.01969539,-0.13164781,0.0
 1342401,-0.00039915,0.05632235,-0.00404850,-0.00063825,-0.00256595,0.0
 2020124,0.01131927,-0.04033558,0.00126447,0.00041003,-0.00046003,-0.06
 807722,-0.02082593,-0.04745081,0.00490971,-0.00444538,0.01474797,0.049
 48761,0.05060160,-0.37209679,-0.00123069,0.00082817,-0.00884507,0.0569
 6458,-0.03322402,0.72210376,-0.01432460,-0.00547015,-0.01486202,-0.001
 98553,-0.00328826,0.00326555,-0.00053881,-0.00034702,-0.00083597,0.000
 21295,0.00046235,0.00051883,-0.00008255,0.00026640,-0.00008864,0.00199
 541,-0.00272653,0.00177289,0.00024841,0.00035239,-0.00017834,0.0070635
 8,0.00047330,0.00313680,-0.00011840,0.00183213,-0.00000807,-0.23102646
 ,-0.06258031,-0.13341193,0.23962017,-0.00825744,0.00093420,-0.00639090
 ,-0.00328522,0.00410642,0.00212620,-0.00048031,0.00038074,-0.00036943,
 0.00050979,-0.00083866,0.00006012,0.00030285,-0.00064820,-0.00012298,-
 0.00282612,0.00705678,0.00186577,0.00025931,-0.00006363,0.00002686,0.0
 0289790,0.00616767,0.00311082,0.00184209,-0.00409305,-0.00062546,-0.06
 140798,-0.05990378,-0.04092969,0.06948192,0.04937944,0.00902397,0.0028
 1712,0.01181354,0.00257469,0.00181392,-0.00094272,0.00057492,0.0001932
 8,0.00063828,0.00052464,0.00011795,-0.00067376,-0.00010071,-0.00012589
 ,0.00007033,0.00142466,0.00198844,-0.00419107,-0.00131350,-0.00075703,
 -0.00063539,-0.02365162,-0.00759445,-0.01244346,0.00035759,-0.00053579
 ,0.00149289,-0.13309576,-0.04089774,-0.15901153,0.14254286,0.04230232,
 0.16557279,-0.07251893,-0.00813461,0.00581037,0.00961654,0.00524878,-0
 .01431445,-0.00250400,0.00000577,-0.00152950,-0.00156932,-0.00272376,-
 0.00614472,0.00035495,0.00003773,-0.00118562,-0.00450207,-0.00184331,0
 .00137428,0.00023782,0.00107869,-0.00182791,-0.00378907,-0.00372112,0.
 00192134,0.00040637,-0.00042995,0.00091186,0.00339336,0.00224107,0.020
 75516,-0.00296763,-0.00008940,0.00127291,0.91898031,-0.00928414,-0.054
 29725,0.01053368,0.00694995,-0.00128350,-0.00220088,-0.00060576,-0.002
 75544,-0.00083040,-0.00238150,0.00477517,-0.00252237,-0.00026404,0.000
 95141,-0.00040494,-0.00156272,-0.00169770,0.00217577,0.00024021,0.0005
 4396,-0.00232690,-0.00404284,0.00407747,0.00050479,-0.00018915,0.00079
 162,0.00041417,0.00050895,-0.00401070,0.01089164,0.00047342,-0.0023036
 6,0.00040854,0.14105067,0.63062054,0.00946931,0.00108148,-0.15630143,-
 0.01561004,-0.00305464,-0.03641725,0.00132717,0.00011514,-0.00104512,-
 0.00996279,-0.00394668,0.01493478,0.00056053,0.00001609,0.00134589,0.0
 0048160,0.00448354,-0.02328383,0.00084068,-0.00922281,0.02287550,0.005
 67464,0.00209225,0.01785178,-0.00064039,-0.00050841,0.00145415,0.02214
 434,0.01149625,-0.02746815,-0.00142669,-0.00094108,-0.00103134,0.07289
 541,-0.03980809,0.50948553,-0.00407270,-0.01212099,-0.00049511,-0.0032
 9264,-0.00093021,-0.00242890,0.00148867,0.00025154,0.00002733,-0.00011
 443,0.00045429,0.00206203,-0.00000509,0.00003102,0.00036940,-0.0000033
 4,0.00051182,-0.00356095,0.00027203,-0.00128334,0.00325681,-0.00028813
 ,0.00048496,0.00220972,-0.00013022,0.00016441,0.00058140,0.00383572,-0
 .00054015,0.00228494,0.00059924,-0.00007805,-0.00042360,-0.28481020,-0
 .21638585,0.05942859,0.30209295,-0.01222221,-0.00332458,-0.00362877,-0
 .00194453,-0.00021670,-0.00188731,0.00043974,-0.00013105,-0.00001562,-
 0.00025884,-0.00011350,0.00144646,0.00002248,-0.00002866,0.00029993,0.
 00030884,0.00054001,-0.00222497,0.00012075,-0.00081004,0.00218635,-0.0
 0106171,-0.00059695,0.00081996,0.00002369,-0.00015402,0.00061077,0.002
 56162,0.00127068,0.00468755,0.00026263,0.00013075,-0.00019449,-0.21780
 466,-0.29772343,0.06111080,0.25796561,0.33440197,0.02314180,0.02237762
 ,-0.00150445,0.00104923,0.00122305,0.00041685,0.00132878,0.00090915,-0
 .00071129,0.00198238,0.00031602,-0.00154480,-0.00012293,0.00000072,-0.
 00034650,0.00065847,-0.00031598,0.00426094,-0.00015641,0.00162479,-0.0
 0423377,0.00161735,-0.00027156,-0.00346299,0.00012994,-0.00014562,-0.0
 0096528,-0.00676284,0.00011262,-0.00415123,0.00005729,0.00035881,0.000
 45569,0.06475918,0.06804424,-0.09668220,-0.07048004,-0.07084859,0.0849
 1624,-0.00923972,0.00024887,0.00120252,0.00331233,0.00198106,-0.003113
 77,0.00044148,0.00030422,0.00046674,-0.00018814,-0.00019043,-0.0014997
 4,0.00008374,0.00002760,-0.00061736,0.00002631,-0.00051797,0.00318764,
 0.00003654,0.00122777,-0.00287094,0.00076762,0.00004266,-0.00200499,0.
 00007381,0.00001965,-0.00038478,-0.00343990,-0.00210787,0.00207107,0.0
 0133269,0.00086786,0.00050071,-0.45273657,0.03378235,-0.15887800,-0.02
 369692,0.00026106,-0.01430260,0.51204171,0.00386673,0.00846572,-0.0007
 7374,-0.00126738,0.00083928,0.00215668,0.00004832,0.00021926,0.0001316
 0,0.00113806,-0.00002085,-0.00035346,0.00004331,-0.00023103,0.00013910
 ,-0.00026300,-0.00008494,0.00031709,0.00001805,0.00015783,-0.00018764,
 0.00050830,-0.00010798,-0.00007625,0.00000531,-0.00005157,0.00000216,-
 0.00075035,-0.00018699,0.00000799,0.00077188,0.00025961,0.00021556,0.0
 3617968,-0.07743417,0.01539293,-0.02842659,0.00727319,-0.00739267,-0.0
 4978480,0.06473475,-0.03362736,0.00215010,-0.00812760,0.00639123,0.005
 54121,-0.00319570,-0.00028624,0.00028021,0.00052440,-0.00020665,-0.001
 06612,-0.00413805,0.00023232,-0.00013310,-0.00110159,-0.00119823,-0.00
 116190,0.00485574,-0.00007653,0.00197251,-0.00496624,-0.00113642,-0.00
 098350,-0.00243223,0.00018047,0.00011312,-0.00040246,-0.00249557,-0.00
 028591,0.00053540,-0.00109574,0.00005250,-0.00094623,-0.16733299,0.016
 52771,-0.14894734,0.00509578,0.00360354,0.01417718,0.18755948,-0.01827
 263,0.14454458,0.00761368,0.00656897,0.00320985,-0.00262254,0.00035915
 ,0.00031825,-0.00004944,0.00024164,-0.00001917,-0.00031289,-0.00077917
 ,0.00183472,0.00003756,-0.00018917,0.00025605,0.00096221,0.00075969,-0
 .00174406,-0.00005673,-0.00072875,0.00185576,0.00065580,-0.00027726,0.
 00043074,-0.00007857,-0.00001772,0.00005956,0.00064728,0.00056592,-0.0
 0084218,0.00005416,0.00022390,-0.00012627,-0.10704074,0.03487440,0.021
 39269,0.00584407,-0.03259227,-0.00526350,-0.02958468,0.03800062,0.0074
 7587,0.68292669,0.00430249,-0.00013023,-0.00143916,0.00209304,-0.00024
 525,0.00021923,0.00026299,-0.00024729,0.00024403,0.00037798,0.00098273
 ,-0.00132776,-0.00006555,0.00008210,-0.00026460,0.00025333,-0.00049415
 ,0.00281125,-0.00009404,0.00100503,-0.00278488,-0.00053285,0.00067890,
 -0.00202739,-0.00000022,0.00019101,-0.00032710,-0.00174205,-0.00213927
 ,-0.00084861,-0.00000705,-0.00037429,0.00016477,0.03845002,-0.17062496
 ,-0.06245075,0.00143446,-0.03806218,-0.01217422,0.00818469,-0.00284573
 ,-0.00475361,0.06221837,0.56470686,0.01041042,-0.02006471,-0.01127240,
 0.00553504,-0.00073082,0.00300449,0.00010719,-0.00071907,0.00001928,0.
 00167266,0.00279404,-0.00354539,-0.00018714,0.00022523,-0.00040188,-0.
 00013748,-0.00134957,0.00644654,-0.00016366,0.00243602,-0.00651730,-0.
 00228005,0.00127737,-0.00420691,0.00005353,0.00034423,-0.00039454,-0.0
 0422108,-0.00463539,0.00162654,0.00041861,-0.00060470,0.00004275,0.010
 09318,-0.03321274,-0.06834758,0.00215945,0.00670026,0.00706369,-0.0133
 4148,0.01096500,0.00725691,0.07810879,-0.02898252,0.16799184,0.0016183
 1,-0.00110203,-0.00089555,0.00064697,0.00010581,0.00042138,-0.00001251
 ,0.00002463,0.00011938,0.00016185,0.00022326,-0.00026333,-0.00002118,0
 .00000615,-0.00006196,0.00019175,-0.00011490,0.00087045,-0.00005214,0.
 00032821,-0.00090017,-0.00028884,0.00013225,-0.00070879,0.00000358,0.0
 0004811,-0.00007293,-0.00065802,-0.00069192,0.00024871,0.00001591,-0.0
 0006861,0.00001763,-0.01251425,0.00911885,-0.00226921,0.00064165,-0.00
 336192,0.00068802,0.00235171,-0.00001043,0.00007454,-0.35871146,0.0551
 7484,-0.12647578,0.38111909,-0.00131444,-0.00020035,0.00028290,-0.0000
 3301,0.00010691,-0.00035355,-0.00010406,-0.00002139,-0.00001308,-0.000
 11926,-0.00010845,0.00004255,0.00001518,0.00000440,0.00000066,-0.00011
 585,0.00001395,-0.00030912,0.00001358,-0.00011886,0.00030961,0.0001095
 7,-0.00009064,0.00030910,0.00000390,-0.00002337,0.00002208,0.00006582,
 0.00038207,-0.00008342,-0.00001812,-0.00000507,-0.00000874,0.02706076,
 -0.00401515,0.01358263,-0.00269952,0.00159987,-0.00121752,0.00633487,-
 0.00513637,-0.00176412,0.06512640,-0.07412727,0.01998452,-0.06678476,0
 .07198343,-0.00164983,0.00004515,-0.00000253,-0.00001292,-0.00004397,-
 0.00041333,-0.00011185,-0.00002846,0.00003555,-0.00019610,-0.00006933,
 -0.00000879,0.00000826,0.00002590,-0.00000250,-0.00014348,-0.00001590,
 -0.00038673,0.00001747,-0.00014040,0.00039600,0.00014508,-0.00009356,0
 .00039721,0.00000394,-0.00002714,0.00002613,0.00027242,0.00036138,-0.0
 0005536,-0.00002102,0.00003829,0.00004291,0.01763383,-0.00901709,-0.00
 212056,0.00020507,0.00130344,-0.00086098,0.00315303,-0.00355185,0.0032
 6927,-0.16624725,0.03081191,-0.07210013,0.13801179,-0.01944914,0.07249
 025,-0.00074495,0.00060438,0.00035674,-0.00035388,-0.00011428,-0.00019
 963,-0.00002999,0.00003110,-0.00002007,-0.00011061,-0.00009824,0.00019
 410,0.00000643,-0.00000852,0.00003370,0.00004183,0.00010446,-0.0003295
 0,-0.00000786,-0.00013975,0.00035333,0.00001182,-0.00007046,0.00016325
 ,-0.00000322,-0.00001536,0.00004375,0.00040285,0.00018885,0.00012243,-
 0.00005680,-0.00005908,-0.00010393,0.01185651,0.00750874,-0.00395475,0
 .00184360,0.00741799,0.00145423,-0.00174336,-0.00009670,0.00012449,-0.
 20015597,-0.17049908,0.03781171,-0.01455469,-0.02752199,0.00895509,0.2
 0361683,0.00082509,0.00163854,0.00113750,-0.00076066,0.00023987,-0.000
 37089,-0.00000518,0.00004527,-0.00001959,-0.00022864,-0.00033730,0.000
 60848,0.00001807,-0.00004022,0.00006490,0.00024867,0.00026236,-0.00072
 088,-0.00000127,-0.00031191,0.00078964,0.00023404,-0.00006234,0.000256
 94,-0.00002450,-0.00002192,0.00003581,0.00042211,0.00035095,-0.0004023
 1,0.00008224,0.00002499,-0.00007465,-0.01632119,-0.02508008,0.00648822
 ,0.00060848,-0.00440806,-0.00190285,-0.00018074,0.00420125,-0.00101457
 ,-0.17470058,-0.27783633,0.04677231,0.00713024,0.00969875,-0.00021714,
 0.18270386,0.29149291,0.00109629,0.00142390,0.00051769,-0.00057430,0.0
 0008969,-0.00021755,-0.00002677,0.00005022,0.00003822,-0.00017074,-0.0
 0025217,0.00046641,0.00001288,-0.00003075,0.00004015,0.00022966,0.0001
 6229,-0.00048435,-0.00000386,-0.00020742,0.00054455,0.00021502,0.00006
 168,0.00009425,-0.00002597,0.00000928,0.00000590,0.00024887,0.00007829
 ,-0.00041403,0.00008898,0.00004110,0.00003351,-0.00519068,-0.01919069,
 -0.00545960,-0.00015316,-0.00389222,0.00304413,-0.00124767,0.00125508,
 -0.00107307,0.05936512,0.08303425,-0.02689512,-0.00883396,-0.01132325,
 -0.00069822,-0.04499435,-0.05140326,0.03047041,-0.00018082,-0.00061127
 ,0.00258427,-0.00061744,0.00090010,-0.00159263,-0.00002790,-0.00007044
 ,0.00000924,-0.00084620,0.00018060,0.00464943,-0.00001106,-0.00052107,
 -0.00067313,0.00346737,0.00664378,-0.00671480,-0.20588007,-0.14636022,
 -0.12037091,0.00275451,-0.00110817,0.00343031,0.00014724,0.00020960,0.
 00008624,0.00086449,-0.00023222,-0.00164298,-0.00001646,0.00015840,0.0
 0004835,0.00023933,0.00015820,-0.00261975,-0.00037599,-0.00023903,0.00
 046356,0.00031279,0.00004530,0.00057816,-0.00019941,0.00030774,0.00070
 141,0.00010051,-0.00003370,-0.00004559,-0.00003390,-0.00008223,-0.0000
 5923,0.21354578,0.00053918,0.00057119,-0.00141295,-0.00005707,-0.00042
 407,0.00041040,-0.00000897,0.00005663,0.00002344,0.00236133,0.00047465
 ,-0.00018577,0.00000111,-0.00018354,-0.00040741,0.01028156,-0.00002336
 ,0.01615831,-0.17012068,-0.13242525,-0.14587310,-0.00248338,0.00158117
 ,0.00046419,0.00016617,-0.00045908,-0.00001305,-0.00034742,0.00111337,
 0.00198211,0.00004986,-0.00027287,0.00017303,-0.00002218,-0.00022739,0
 .00131278,0.00015841,0.00011657,-0.00020667,-0.00016573,-0.00002544,-0
 .00024915,0.00010672,-0.00018250,-0.00041406,-0.00005876,0.00002221,0.
 00002635,0.00002067,0.00004332,0.00002434,0.15562175,0.13393377,0.0003
 3123,-0.00007273,0.00095261,-0.00058247,0.00044312,-0.00067565,0.00001
 617,-0.00006644,0.00009331,-0.00225337,-0.00037145,0.00234314,0.001060
 40,0.00003431,-0.00011818,-0.02391230,-0.01930203,-0.02243806,-0.12806
 850,-0.11939684,-0.18294139,0.00332683,0.00123081,-0.00366799,0.000012
 55,-0.00011931,0.00011251,-0.00157637,-0.00008776,-0.00055204,0.000124
 49,0.00006387,-0.00037185,0.00010052,0.00002449,-0.00064722,-0.0000735
 4,-0.00003820,0.00010170,0.00012200,0.00002020,0.00014755,-0.00005531,
 0.00007109,0.00017266,0.00002127,-0.00001148,-0.00001100,-0.00001202,-
 0.00002053,-0.00000962,0.14194398,0.12702480,0.19580106,0.00039744,0.0
 0034318,-0.00102827,0.00041720,-0.00037069,0.00003342,0.00001275,0.000
 07780,-0.00006475,0.00149042,0.00045838,-0.00169692,0.00005318,0.00028
 520,-0.00004358,0.00383922,0.00244558,-0.00024739,-0.39737340,-0.04724
 805,0.13820916,0.00137014,0.00035375,-0.00347343,-0.00033391,0.0004423
 8,0.00076364,-0.00033977,-0.00082120,0.00089601,-0.00002528,0.00000820
 ,-0.00004754,-0.00013241,0.00005025,0.00114666,0.00017173,0.00010074,-
 0.00024191,-0.00015145,-0.00002630,-0.00025660,0.00007097,-0.00011910,
 -0.00026530,-0.00003823,0.00001465,0.00002208,0.00001538,0.00003219,0.
 00002388,-0.01324279,0.00395744,0.00947444,0.40379881,-0.00031590,0.00
 052306,-0.00294409,-0.00069672,0.00099111,0.00261087,0.00015461,-0.000
 26778,0.00014070,0.00196722,0.00410047,-0.00092046,0.00031132,-0.00035
 932,-0.00004122,-0.00711670,-0.00844263,0.01653233,-0.01793687,-0.0064
 0467,-0.01821820,-0.00125196,-0.00118977,-0.00387607,-0.00011483,0.000
 19300,0.00014998,0.00003723,-0.00109568,0.00137301,-0.00007108,0.00006
 262,-0.00000615,-0.00026298,-0.00030674,0.00276032,0.00039972,0.000236
 11,-0.00049135,-0.00033511,-0.00002583,-0.00055631,0.00023915,-0.00033
 718,-0.00078540,-0.00009902,0.00003531,0.00004159,0.00004342,0.0000999
 4,0.00006966,-0.01496713,-0.00368939,0.01057409,0.04001561,0.01587738,
 -0.00033923,-0.00024360,0.00042301,0.00136930,0.00105776,0.00001681,-0
 .00003991,-0.00001098,-0.00040600,-0.00201847,-0.00058971,-0.00492284,
 0.00008531,-0.00007755,0.00010691,0.03580528,0.00329475,-0.01439239,0.
 12824329,0.00092677,-0.11746585,0.00159884,0.00103720,0.00179053,-0.00
 085918,-0.00057702,-0.00017207,0.00020117,0.00052436,-0.00028164,0.000
 00213,-0.00006244,0.00008464,-0.00000217,-0.00001094,-0.00019603,-0.00
 006520,-0.00003890,0.00002709,-0.00000187,0.00000486,0.00001949,-0.000
 00969,0.00002408,0.00005655,0.00000851,-0.00000061,0.00000283,0.000001
 43,-0.00000713,-0.00000368,-0.02077593,0.00116242,0.01170847,-0.143203
 61,-0.00641332,0.12360416\\-0.00000286,-0.00000204,-0.00000213,-0.0000
 0246,0.00000115,-0.00000169,0.00000140,-0.00000061,0.00000051,-0.00000
 140,-0.00000007,-0.00000104,0.00000034,0.00000017,-0.00000052,0.000005
 30,-0.00000451,0.00000382,-0.00000221,0.00000547,0.00000087,-0.0000017
 0,0.00000245,-0.00000540,0.00000034,-0.00000016,0.00000035,0.00000074,
 0.00000109,0.00000508,-0.00000061,-0.00000091,-0.00000090,0.00000061,-
 0.00002217,-0.00001436,0.00000578,0.00000748,0.00000263,0.00000200,0.0
 0000481,0.00000185,-0.00001055,0.00001308,0.00001528,-0.00000220,0.000
 00181,-0.00000239,0.00000649,-0.00000372,-0.00000135,-0.00000039,-0.00
 000089,-0.00000076,0.00000139,-0.00000242,0.00000013\\\@
 The archive entry for this job was punched.


 A MATHEMATICIAN IS A MACHINE FOR TURNING COFFEE INTO THEOREMS.
     -- QUOTED BY PAUL ERDOS
 Job cpu time:       0 days  0 hours 47 minutes  8.8 seconds.
 Elapsed time:       0 days  0 hours  2 minutes 59.0 seconds.
 File lengths (MBytes):  RWF=    163 Int=      0 D2E=      0 Chk=     11 Scr=      1
 Normal termination of Gaussian 16 at Thu May 19 19:20:11 2022.
