 Entering Gaussian System, Link 0=g16
 AtFile(1): //home/561/yj5695//Basis/6-31pGd.gbs
 Initial command:
 /apps/gaussian/g16c01/g16/l1.exe "/jobfs/40645270.gadi-pbs/Gau-2891052.inp" -scrdir="/jobfs/40645270.gadi-pbs/"
 Entering Link 1 = /apps/gaussian/g16c01/g16/l1.exe PID=   2891053.
  
 Copyright (c) 1988-2019, Gaussian, Inc.  All Rights Reserved.
  
 This is part of the Gaussian(R) 16 program.  It is based on
 the Gaussian(R) 09 system (copyright 2009, Gaussian, Inc.),
 the Gaussian(R) 03 system (copyright 2003, Gaussian, Inc.),
 the Gaussian(R) 98 system (copyright 1998, Gaussian, Inc.),
 the Gaussian(R) 94 system (copyright 1995, Gaussian, Inc.),
 the Gaussian 92(TM) system (copyright 1992, Gaussian, Inc.),
 the Gaussian 90(TM) system (copyright 1990, Gaussian, Inc.),
 the Gaussian 88(TM) system (copyright 1988, Gaussian, Inc.),
 the Gaussian 86(TM) system (copyright 1986, Carnegie Mellon
 University), and the Gaussian 82(TM) system (copyright 1983,
 Carnegie Mellon University). Gaussian is a federally registered
 trademark of Gaussian, Inc.
  
 This software contains proprietary and confidential information,
 including trade secrets, belonging to Gaussian, Inc.
  
 This software is provided under written license and may be
 used, copied, transmitted, or stored only in accord with that
 written license.
  
 The following legend is applicable only to US Government
 contracts under FAR:
  
                    RESTRICTED RIGHTS LEGEND
  
 Use, reproduction and disclosure by the US Government is
 subject to restrictions as set forth in subparagraphs (a)
 and (c) of the Commercial Computer Software - Restricted
 Rights clause in FAR 52.227-19.
  
 Gaussian, Inc.
 340 Quinnipiac St., Bldg. 40, Wallingford CT 06492
  
  
 ---------------------------------------------------------------
 Warning -- This program may not be used in any manner that
 competes with the business of Gaussian, Inc. or will provide
 assistance to any competitor of Gaussian, Inc.  The licensee
 of this program is prohibited from giving any competitor of
 Gaussian, Inc. access to this program.  By using this program,
 the user acknowledges that Gaussian, Inc. is engaged in the
 business of creating and licensing software in the field of
 computational chemistry and represents and warrants to the
 licensee that it is not a competitor of Gaussian, Inc. and that
 it will not use this program in any manner prohibited above.
 ---------------------------------------------------------------
  

 Cite this work as:
 Gaussian 16, Revision C.01,
 M. J. Frisch, G. W. Trucks, H. B. Schlegel, G. E. Scuseria, 
 M. A. Robb, J. R. Cheeseman, G. Scalmani, V. Barone, 
 G. A. Petersson, H. Nakatsuji, X. Li, M. Caricato, A. V. Marenich, 
 J. Bloino, B. G. Janesko, R. Gomperts, B. Mennucci, H. P. Hratchian, 
 J. V. Ortiz, A. F. Izmaylov, J. L. Sonnenberg, D. Williams-Young, 
 F. Ding, F. Lipparini, F. Egidi, J. Goings, B. Peng, A. Petrone, 
 T. Henderson, D. Ranasinghe, V. G. Zakrzewski, J. Gao, N. Rega, 
 G. Zheng, W. Liang, M. Hada, M. Ehara, K. Toyota, R. Fukuda, 
 J. Hasegawa, M. Ishida, T. Nakajima, Y. Honda, O. Kitao, H. Nakai, 
 T. Vreven, K. Throssell, J. A. Montgomery, Jr., J. E. Peralta, 
 F. Ogliaro, M. J. Bearpark, J. J. Heyd, E. N. Brothers, K. N. Kudin, 
 V. N. Staroverov, T. A. Keith, R. Kobayashi, J. Normand, 
 K. Raghavachari, A. P. Rendell, J. C. Burant, S. S. Iyengar, 
 J. Tomasi, M. Cossi, J. M. Millam, M. Klene, C. Adamo, R. Cammi, 
 J. W. Ochterski, R. L. Martin, K. Morokuma, O. Farkas, 
 J. B. Foresman, and D. J. Fox, Gaussian, Inc., Wallingford CT, 2019.
 
 ******************************************
 Gaussian 16:  ES64L-G16RevC.01  3-Jul-2019
                19-May-2022 
 ******************************************
 %nproc=16
 Will use up to   16 processors via shared memory.
 %mem=20gb
 -----------------------------------------------------
 #m062X/gen 6D OPT Freq=noraman SCRF=(SMD,Solvent=h2o)
 -----------------------------------------------------
 1/18=20,19=15,26=3,38=1/1,3;
 2/9=110,12=2,17=6,18=5,40=1/2;
 3/5=7,8=2,11=2,25=1,30=1,70=32201,71=1,72=1,74=-55/1,2,3;
 4//1;
 5/5=2,38=5,53=1/2;
 6/7=2,8=2,9=2,10=2,28=1/1;
 7//1,2,3,16;
 1/18=20,19=15,26=3/3(2);
 2/9=110/2;
 99//99;
 2/9=110/2;
 3/5=7,6=1,8=2,11=2,25=1,30=1,70=32205,71=1,72=1,74=-55,82=7/1,2,3;
 4/5=5,16=3,69=1/1;
 5/5=2,38=5,53=1/2;
 7//1,2,3,16;
 1/18=20,19=15,26=3/3(-5);
 2/9=110/2;
 6/7=2,8=2,9=2,10=2,19=2,28=1/1;
 99/9=1/99;
 -----
 a3 b1
 -----
 Symbolic Z-matrix:
 Charge =  0 Multiplicity = 1
 C                    -1.36038   0.69541  -0.83382 
 C                    -2.57042   0.72113  -1.52635 
 H                    -3.51623   0.67552  -0.99574 
 C                    -2.55114   0.8158   -2.91387 
 H                    -3.46639   0.84622  -3.49515 
 C                    -1.31909   0.87633  -3.54877 
 C                    -0.10691   0.84906  -2.87447 
 H                     0.8254    0.90464  -3.42603 
 C                    -0.12975   0.75435  -1.48705 
 H                     0.7994    0.73429  -0.92625 
 S                    -1.38631   0.51799   0.93276 
 O                    -2.54014   1.25686   1.44517 
 O                    -1.24015  -0.90314   1.24723 
 N                    -0.05241   1.26328   1.56128 
 H                    -0.05123   2.26552   1.35964 
 H                     0.81212   0.83148   1.22768 
 F                    -1.29867   0.97023  -4.89324 
 

 GradGradGradGradGradGradGradGradGradGradGradGradGradGradGradGradGradGrad
 Berny optimization.
 Initialization pass.
                           ----------------------------
                           !    Initial Parameters    !
                           ! (Angstroms and Degrees)  !
 --------------------------                            --------------------------
 ! Name  Definition              Value          Derivative Info.                !
 --------------------------------------------------------------------------------
 ! R1    R(1,2)                  1.3944         estimate D2E/DX2                !
 ! R2    R(1,9)                  1.3945         estimate D2E/DX2                !
 ! R3    R(1,11)                 1.7757         estimate D2E/DX2                !
 ! R4    R(2,3)                  1.0854         estimate D2E/DX2                !
 ! R5    R(2,4)                  1.3909         estimate D2E/DX2                !
 ! R6    R(4,5)                  1.0847         estimate D2E/DX2                !
 ! R7    R(4,6)                  1.3873         estimate D2E/DX2                !
 ! R8    R(6,7)                  1.3874         estimate D2E/DX2                !
 ! R9    R(6,17)                 1.3479         estimate D2E/DX2                !
 ! R10   R(7,8)                  1.0847         estimate D2E/DX2                !
 ! R11   R(7,9)                  1.3908         estimate D2E/DX2                !
 ! R12   R(9,10)                 1.0855         estimate D2E/DX2                !
 ! R13   R(11,12)                1.4628         estimate D2E/DX2                !
 ! R14   R(11,13)                1.4628         estimate D2E/DX2                !
 ! R15   R(11,14)                1.6522         estimate D2E/DX2                !
 ! R16   R(14,15)                1.0223         estimate D2E/DX2                !
 ! R17   R(14,16)                1.0223         estimate D2E/DX2                !
 ! A1    A(2,1,9)              122.1657         estimate D2E/DX2                !
 ! A2    A(2,1,11)             118.8989         estimate D2E/DX2                !
 ! A3    A(9,1,11)             118.8914         estimate D2E/DX2                !
 ! A4    A(1,2,3)              120.836          estimate D2E/DX2                !
 ! A5    A(1,2,4)              118.9901         estimate D2E/DX2                !
 ! A6    A(3,2,4)              120.1724         estimate D2E/DX2                !
 ! A7    A(2,4,5)              121.6564         estimate D2E/DX2                !
 ! A8    A(2,4,6)              118.1525         estimate D2E/DX2                !
 ! A9    A(5,4,6)              120.1907         estimate D2E/DX2                !
 ! A10   A(4,6,7)              123.5481         estimate D2E/DX2                !
 ! A11   A(4,6,17)             118.2274         estimate D2E/DX2                !
 ! A12   A(7,6,17)             118.2242         estimate D2E/DX2                !
 ! A13   A(6,7,8)              120.1881         estimate D2E/DX2                !
 ! A14   A(6,7,9)              118.1528         estimate D2E/DX2                !
 ! A15   A(8,7,9)              121.6587         estimate D2E/DX2                !
 ! A16   A(1,9,7)              118.9898         estimate D2E/DX2                !
 ! A17   A(1,9,10)             120.8383         estimate D2E/DX2                !
 ! A18   A(7,9,10)             120.1704         estimate D2E/DX2                !
 ! A19   A(1,11,12)            108.0323         estimate D2E/DX2                !
 ! A20   A(1,11,13)            108.0281         estimate D2E/DX2                !
 ! A21   A(1,11,14)            108.7602         estimate D2E/DX2                !
 ! A22   A(12,11,13)           119.6178         estimate D2E/DX2                !
 ! A23   A(12,11,14)           106.0045         estimate D2E/DX2                !
 ! A24   A(13,11,14)           106.0088         estimate D2E/DX2                !
 ! A25   A(11,14,15)           111.6001         estimate D2E/DX2                !
 ! A26   A(11,14,16)           111.5965         estimate D2E/DX2                !
 ! A27   A(15,14,16)           110.4092         estimate D2E/DX2                !
 ! D1    D(9,1,2,3)           -179.9091         estimate D2E/DX2                !
 ! D2    D(9,1,2,4)             -0.3478         estimate D2E/DX2                !
 ! D3    D(11,1,2,3)             2.5301         estimate D2E/DX2                !
 ! D4    D(11,1,2,4)          -177.9086         estimate D2E/DX2                !
 ! D5    D(2,1,9,7)              0.3478         estimate D2E/DX2                !
 ! D6    D(2,1,9,10)           179.9072         estimate D2E/DX2                !
 ! D7    D(11,1,9,7)           177.9088         estimate D2E/DX2                !
 ! D8    D(11,1,9,10)           -2.5319         estimate D2E/DX2                !
 ! D9    D(2,1,11,12)          -36.4734         estimate D2E/DX2                !
 ! D10   D(2,1,11,13)           94.2589         estimate D2E/DX2                !
 ! D11   D(2,1,11,14)         -151.1059         estimate D2E/DX2                !
 ! D12   D(9,1,11,12)          145.8849         estimate D2E/DX2                !
 ! D13   D(9,1,11,13)          -83.3828         estimate D2E/DX2                !
 ! D14   D(9,1,11,14)           31.2524         estimate D2E/DX2                !
 ! D15   D(1,2,4,5)           -179.5628         estimate D2E/DX2                !
 ! D16   D(1,2,4,6)              0.2044         estimate D2E/DX2                !
 ! D17   D(3,2,4,5)              0.0015         estimate D2E/DX2                !
 ! D18   D(3,2,4,6)            179.7687         estimate D2E/DX2                !
 ! D19   D(2,4,6,7)             -0.0766         estimate D2E/DX2                !
 ! D20   D(2,4,6,17)          -179.8967         estimate D2E/DX2                !
 ! D21   D(5,4,6,7)            179.6942         estimate D2E/DX2                !
 ! D22   D(5,4,6,17)            -0.1259         estimate D2E/DX2                !
 ! D23   D(4,6,7,8)           -179.6938         estimate D2E/DX2                !
 ! D24   D(4,6,7,9)              0.0767         estimate D2E/DX2                !
 ! D25   D(17,6,7,8)             0.1263         estimate D2E/DX2                !
 ! D26   D(17,6,7,9)           179.8967         estimate D2E/DX2                !
 ! D27   D(6,7,9,1)             -0.2045         estimate D2E/DX2                !
 ! D28   D(6,7,9,10)          -179.7668         estimate D2E/DX2                !
 ! D29   D(8,7,9,1)            179.5624         estimate D2E/DX2                !
 ! D30   D(8,7,9,10)             0.0001         estimate D2E/DX2                !
 ! D31   D(1,11,14,15)          62.0525         estimate D2E/DX2                !
 ! D32   D(1,11,14,16)         -62.0109         estimate D2E/DX2                !
 ! D33   D(12,11,14,15)        -53.8937         estimate D2E/DX2                !
 ! D34   D(12,11,14,16)       -177.957          estimate D2E/DX2                !
 ! D35   D(13,11,14,15)        177.996          estimate D2E/DX2                !
 ! D36   D(13,11,14,16)         53.9327         estimate D2E/DX2                !
 --------------------------------------------------------------------------------
 Trust Radius=3.00D-01 FncErr=1.00D-07 GrdErr=1.00D-06 EigMax=2.50D+02 EigMin=1.00D-04
 Number of steps in this run=     90 maximum allowed number of steps=    102.
 GradGradGradGradGradGradGradGradGradGradGradGradGradGradGradGradGradGrad

                          Input orientation:                          
 ---------------------------------------------------------------------
 Center     Atomic      Atomic             Coordinates (Angstroms)
 Number     Number       Type             X           Y           Z
 ---------------------------------------------------------------------
      1          6           0       -1.360375    0.695409   -0.833817
      2          6           0       -2.570422    0.721132   -1.526346
      3          1           0       -3.516233    0.675522   -0.995735
      4          6           0       -2.551137    0.815797   -2.913869
      5          1           0       -3.466389    0.846222   -3.495151
      6          6           0       -1.319094    0.876327   -3.548773
      7          6           0       -0.106912    0.849062   -2.874469
      8          1           0        0.825397    0.904642   -3.426026
      9          6           0       -0.129752    0.754351   -1.487046
     10          1           0        0.799401    0.734293   -0.926254
     11         16           0       -1.386308    0.517988    0.932761
     12          8           0       -2.540142    1.256856    1.445174
     13          8           0       -1.240148   -0.903142    1.247227
     14          7           0       -0.052413    1.263275    1.561284
     15          1           0       -0.051228    2.265516    1.359636
     16          1           0        0.812115    0.831480    1.227676
     17          9           0       -1.298673    0.970225   -4.893242
 ---------------------------------------------------------------------
                    Distance matrix (angstroms):
                    1          2          3          4          5
     1  C    0.000000
     2  C    1.394443   0.000000
     3  H    2.162021   1.085443   0.000000
     4  C    2.399797   1.390882   2.151819   0.000000
     5  H    3.397166   2.166702   2.505734   1.084666   0.000000
     6  C    2.721290   2.383300   3.374277   1.387334   2.148175
     7  C    2.399800   2.811171   3.896566   2.444769   3.416334
     8  H    3.397194   3.895388   4.980819   3.416311   4.292740
     9  C    1.394495   2.441212   3.422843   2.811175   3.895391
    10  H    2.162103   3.422863   4.316593   3.896583   4.980836
    11  S    1.775654   2.736896   2.877585   4.030146   4.903150
    12  O    2.626951   3.019577   2.692348   4.381314   5.043150
    13  O    2.626892   3.478592   3.564214   4.689154   5.523276
    14  N    2.787426   4.020914   4.345325   5.144983   6.115284
    15  H    2.998389   4.130418   4.481307   5.158883   6.103006
    16  H    2.997996   4.363298   4.868519   5.335176   6.372669
    17  F    4.069184   3.607684   4.493883   2.347431   2.582446
                    6          7          8          9         10
     6  C    0.000000
     7  C    1.387377   0.000000
     8  H    2.148188   1.084668   0.000000
     9  C    2.383302   1.390839   2.166689   0.000000
    10  H    3.374285   2.151771   2.505704   1.085456   0.000000
    11  S    4.496340   4.030070   4.903077   2.736835   2.877507
    12  O    5.155120   4.974557   5.931231   3.828891   4.129079
    13  O    5.116088   4.619829   5.419765   3.384747   3.400731
    14  N    5.278910   4.455384   5.076655   3.091488   2.682024
    15  H    5.256406   4.465097   5.052030   3.223877   2.879845
    16  H    5.230538   4.203869   4.654296   2.874505   2.156159
    17  F    1.347899   2.347428   2.582382   3.607651   4.493837
                   11         12         13         14         15
    11  S    0.000000
    12  O    1.462814   0.000000
    13  O    1.462827   2.528786   0.000000
    14  N    1.652201   2.490445   2.490524   0.000000
    15  H    2.240204   2.686895   3.386231   1.022326   0.000000
    16  H    2.240160   3.386130   2.687207   1.022326   1.679057
    17  F    5.844186   6.465208   6.420147   6.580270   6.506334
                   16         17
    16  H    0.000000
    17  F    6.476134   0.000000
 Stoichiometry    C6H6FNO2S
 Framework group  C1[X(C6H6FNO2S)]
 Deg. of freedom    45
 Full point group                 C1      NOp   1
 Largest Abelian subgroup         C1      NOp   1
 Largest concise Abelian subgroup C1      NOp   1
                         Standard orientation:                         
 ---------------------------------------------------------------------
 Center     Atomic      Atomic             Coordinates (Angstroms)
 Number     Number       Type             X           Y           Z
 ---------------------------------------------------------------------
      1          6           0       -0.076675   -0.058413   -0.000041
      2          6           0        0.637074   -1.256007   -0.028387
      3          1           0        0.121201   -2.210714   -0.052803
      4          6           0        2.027255   -1.212245   -0.034294
      5          1           0        2.625153   -2.116785   -0.063038
      6          6           0        2.643150    0.030588   -0.007162
      7          6           0        1.947454    1.230527    0.023957
      8          1           0        2.485088    2.172450    0.039237
      9          6           0        0.557432    1.183213    0.029779
     10          1           0       -0.019613    2.102357    0.050015
     11         16           0       -1.850176   -0.117753    0.064165
     12          8           0       -2.295145   -1.249082   -0.749420
     13          8           0       -2.255509   -0.032483    1.467125
     14          7           0       -2.453933    1.234948   -0.667578
     15          1           0       -2.189975    1.278681   -1.654271
     16          1           0       -2.163124    2.086666   -0.182648
     17          9           0        3.990301    0.074811   -0.014983
 ---------------------------------------------------------------------
 Rotational constants (GHZ):           2.5837261           0.5466160           0.4978760
 General basis read from cards:  (6D, 7F)
 There are   225 symmetry adapted cartesian basis functions of A   symmetry.
 There are   225 symmetry adapted basis functions of A   symmetry.
   225 basis functions,   400 primitive gaussians,   225 cartesian basis functions
    45 alpha electrons       45 beta electrons
       nuclear repulsion energy       726.3663518653 Hartrees.
 NAtoms=   17 NActive=   17 NUniq=   17 SFac= 1.00D+00 NAtFMM=   60 NAOKFM=F Big=F
 Integral buffers will be    131072 words long.
 Raffenetti 2 integral format.
 Two-electron integral symmetry is turned on.
 ------------------------------------------------------------------------------
 Polarizable Continuum Model (PCM)
 =================================
 Model                : PCM.
 Atomic radii         : SMD-Coulomb.
 Polarization charges : Total charges.
 Charge compensation  : None.
 Solution method      : On-the-fly selection.
 Cavity type          : VdW (van der Waals Surface) (Alpha=1.000).
 Cavity algorithm     : GePol (No added spheres)
                        Default sphere list used, NSphG=   17.
                        Lebedev-Laikov grids with approx.  5.0 points / Ang**2.
                        Smoothing algorithm: York/Karplus (Gamma=1.0000).
                        Polarization charges: spherical gaussians, with
                                              point-specific exponents (IZeta= 3).
                        Self-potential: point-specific (ISelfS= 7).
                        Self-field    : sphere-specific E.n sum rule (ISelfD= 2).
 1st derivatives      : Analytical E(r).r(x)/FMM algorithm (CHGder, D1EAlg=3).
                        Cavity 1st derivative terms included.
 Solvent              : Water, Eps=  78.355300 Eps(inf)=   1.777849
 ------------------------------------------------------------------------------
 Spheres list:
 ISph  on   Nord     Re0    Alpha      Xe            Ye            Ze
    1   C      1    1.8500  1.000     -0.076675     -0.058413     -0.000041
    2   C      2    1.8500  1.000      0.637074     -1.256007     -0.028387
    3   H      3    1.2000  1.000      0.121201     -2.210714     -0.052803
    4   C      4    1.8500  1.000      2.027255     -1.212245     -0.034294
    5   H      5    1.2000  1.000      2.625153     -2.116785     -0.063038
    6   C      6    1.8500  1.000      2.643150      0.030588     -0.007162
    7   C      7    1.8500  1.000      1.947454      1.230527      0.023957
    8   H      8    1.2000  1.000      2.485088      2.172450      0.039237
    9   C      9    1.8500  1.000      0.557432      1.183213      0.029779
   10   H     10    1.2000  1.000     -0.019613      2.102357      0.050015
   11   S     11    2.4900  1.000     -1.850176     -0.117753      0.064165
   12   O     12    1.5200  1.000     -2.295145     -1.249082     -0.749420
   13   O     13    1.5200  1.000     -2.255509     -0.032483      1.467125
   14   N     14    1.8900  1.000     -2.453933      1.234948     -0.667578
   15   H     15    1.2000  1.000     -2.189975      1.278681     -1.654271
   16   H     16    1.2000  1.000     -2.163124      2.086666     -0.182648
   17   F     17    1.7300  1.000      3.990301      0.074811     -0.014983
 ------------------------------------------------------------------------------
 ------------------------------------------------------------------------------
 Atomic radii for non-electrostatic terms: SMD-CDS.
 ------------------------------------------------------------------------------
 Nuclear repulsion after PCM non-electrostatic terms =      726.3728836899 Hartrees.
 One-electron integrals computed using PRISM.
 NBasis=   225 RedAO= T EigKep=  3.25D-06  NBF=   225
 NBsUse=   225 1.00D-06 EigRej= -1.00D+00 NBFU=   225
 ExpMin= 4.05D-02 ExpMax= 2.19D+04 ExpMxC= 3.30D+03 IAcc=3 IRadAn=         5 AccDes= 0.00D+00
 Harris functional with IExCor= 1009 and IRadAn=       5 diagonalized for initial guess.
 HarFok:  IExCor= 1009 AccDes= 0.00D+00 IRadAn=         5 IDoV= 1 UseB2=F ITyADJ=14
 ICtDFT=  3500011 ScaDFX=  1.000000  1.000000  1.000000  1.000000
 FoFCou: FMM=F IPFlag=           0 FMFlag=      100000 FMFlg1=           0
         NFxFlg=           0 DoJE=T BraDBF=F KetDBF=T FulRan=T
         wScrn=  0.000000 ICntrl=       500 IOpCl=  0 I1Cent=   200000004 NGrid=           0
         NMat0=    1 NMatS0=      1 NMatT0=    0 NMatD0=    1 NMtDS0=    0 NMtDT0=    0
 Petite list used in FoFCou.
 Requested convergence on RMS density matrix=1.00D-08 within 128 cycles.
 Requested convergence on MAX density matrix=1.00D-06.
 Requested convergence on             energy=1.00D-06.
 No special actions if energy rises.
 Inv3:  Mode=1 IEnd=     6151872.
 Iteration    1 A*A^-1 deviation from unit magnitude is 5.55D-15 for   1430.
 Iteration    1 A*A^-1 deviation from orthogonality  is 1.54D-15 for   1304    344.
 Iteration    1 A^-1*A deviation from unit magnitude is 5.55D-15 for   1430.
 Iteration    1 A^-1*A deviation from orthogonality  is 4.20D-15 for    833    807.
 Error on total polarization charges =  0.03642
 SCF Done:  E(RM062X) =  -935.201786652     A.U. after   14 cycles
            NFock= 14  Conv=0.58D-08     -V/T= 2.0063
 SMD-CDS (non-electrostatic) energy       (kcal/mol) =       4.10
 (included in total energy above)

 **********************************************************************

            Population analysis using the SCF Density.

 **********************************************************************

 Orbital symmetries:
       Occupied  (A) (A) (A) (A) (A) (A) (A) (A) (A) (A) (A) (A)
                 (A) (A) (A) (A) (A) (A) (A) (A) (A) (A) (A) (A)
                 (A) (A) (A) (A) (A) (A) (A) (A) (A) (A) (A) (A)
                 (A) (A) (A) (A) (A) (A) (A) (A) (A)
       Virtual   (A) (A) (A) (A) (A) (A) (A) (A) (A) (A) (A) (A)
                 (A) (A) (A) (A) (A) (A) (A) (A) (A) (A) (A) (A)
                 (A) (A) (A) (A) (A) (A) (A) (A) (A) (A) (A) (A)
                 (A) (A) (A) (A) (A) (A) (A) (A) (A) (A) (A) (A)
                 (A) (A) (A) (A) (A) (A) (A) (A) (A) (A) (A) (A)
                 (A) (A) (A) (A) (A) (A) (A) (A) (A) (A) (A) (A)
                 (A) (A) (A) (A) (A) (A) (A) (A) (A) (A) (A) (A)
                 (A) (A) (A) (A) (A) (A) (A) (A) (A) (A) (A) (A)
                 (A) (A) (A) (A) (A) (A) (A) (A) (A) (A) (A) (A)
                 (A) (A) (A) (A) (A) (A) (A) (A) (A) (A) (A) (A)
                 (A) (A) (A) (A) (A) (A) (A) (A) (A) (A) (A) (A)
                 (A) (A) (A) (A) (A) (A) (A) (A) (A) (A) (A) (A)
                 (A) (A) (A) (A) (A) (A) (A) (A) (A) (A) (A) (A)
                 (A) (A) (A) (A) (A) (A) (A) (A) (A) (A) (A) (A)
                 (A) (A) (A) (A) (A) (A) (A) (A) (A) (A) (A) (A)
 The electronic state is 1-A.
 Alpha  occ. eigenvalues --  -90.18342 -25.29317 -19.66285 -19.66249 -14.80514
 Alpha  occ. eigenvalues --  -10.65971 -10.60346 -10.58949 -10.58851 -10.57689
 Alpha  occ. eigenvalues --  -10.57659  -8.49339  -6.41540  -6.41523  -6.41397
 Alpha  occ. eigenvalues --   -1.38727  -1.26220  -1.14717  -1.03480  -0.99611
 Alpha  occ. eigenvalues --   -0.88776  -0.87753  -0.77509  -0.73407  -0.70466
 Alpha  occ. eigenvalues --   -0.64953  -0.63759  -0.61793  -0.60223  -0.58506
 Alpha  occ. eigenvalues --   -0.58020  -0.54702  -0.53719  -0.51927  -0.50252
 Alpha  occ. eigenvalues --   -0.49976  -0.46747  -0.43867  -0.42918  -0.42224
 Alpha  occ. eigenvalues --   -0.40449  -0.40177  -0.38745  -0.33509  -0.32336
 Alpha virt. eigenvalues --   -0.00932  -0.00352   0.01204   0.03065   0.03725
 Alpha virt. eigenvalues --    0.04127   0.04748   0.05336   0.05896   0.07857
 Alpha virt. eigenvalues --    0.08106   0.08404   0.08593   0.09814   0.10024
 Alpha virt. eigenvalues --    0.11626   0.12275   0.12701   0.13368   0.13788
 Alpha virt. eigenvalues --    0.13980   0.14426   0.15781   0.16183   0.16283
 Alpha virt. eigenvalues --    0.17449   0.18076   0.18328   0.18580   0.19848
 Alpha virt. eigenvalues --    0.20478   0.21416   0.21755   0.22722   0.23281
 Alpha virt. eigenvalues --    0.23486   0.24325   0.24892   0.25335   0.25873
 Alpha virt. eigenvalues --    0.26823   0.27919   0.28328   0.29101   0.30436
 Alpha virt. eigenvalues --    0.30794   0.31677   0.32811   0.33302   0.34049
 Alpha virt. eigenvalues --    0.34303   0.34874   0.35546   0.36642   0.37554
 Alpha virt. eigenvalues --    0.39396   0.40088   0.41592   0.42877   0.43445
 Alpha virt. eigenvalues --    0.44727   0.47444   0.53088   0.58027   0.62136
 Alpha virt. eigenvalues --    0.65150   0.65421   0.66914   0.69319   0.69610
 Alpha virt. eigenvalues --    0.70708   0.73814   0.75094   0.75757   0.76863
 Alpha virt. eigenvalues --    0.77846   0.79872   0.82260   0.84405   0.88371
 Alpha virt. eigenvalues --    0.91525   0.92800   0.94091   0.95104   0.96906
 Alpha virt. eigenvalues --    0.99423   1.02454   1.03098   1.04908   1.06788
 Alpha virt. eigenvalues --    1.08201   1.09184   1.10552   1.11151   1.12137
 Alpha virt. eigenvalues --    1.13298   1.16140   1.18287   1.20503   1.21998
 Alpha virt. eigenvalues --    1.26402   1.27704   1.29770   1.31401   1.33583
 Alpha virt. eigenvalues --    1.35147   1.35885   1.36419   1.37815   1.38598
 Alpha virt. eigenvalues --    1.40176   1.45021   1.48029   1.48249   1.48591
 Alpha virt. eigenvalues --    1.50917   1.52977   1.57740   1.64247   1.68313
 Alpha virt. eigenvalues --    1.70237   1.74710   1.77719   1.79091   1.79860
 Alpha virt. eigenvalues --    1.81697   1.82776   1.83731   1.85608   1.86706
 Alpha virt. eigenvalues --    1.87019   1.90737   1.93091   1.93712   1.97231
 Alpha virt. eigenvalues --    1.99100   2.01968   2.04274   2.05272   2.07160
 Alpha virt. eigenvalues --    2.12030   2.13907   2.15772   2.16430   2.17972
 Alpha virt. eigenvalues --    2.18227   2.21435   2.27499   2.28758   2.30945
 Alpha virt. eigenvalues --    2.32535   2.33285   2.36368   2.44279   2.50831
 Alpha virt. eigenvalues --    2.55113   2.55838   2.65315   2.67091   2.69298
 Alpha virt. eigenvalues --    2.73358   2.76906   2.83434   2.87964   2.90786
 Alpha virt. eigenvalues --    2.95604   3.15788   3.23846   3.42746   3.91073
 Alpha virt. eigenvalues --    4.05177   4.13843   4.20485   4.25672   4.29602
 Alpha virt. eigenvalues --    4.30237   4.39581   4.46050   4.73205   5.96896
          Condensed to atoms (all electrons):
               1          2          3          4          5          6
     1  C   17.471145  -4.936369   0.021919  -0.577977   0.034919  -1.727546
     2  C   -4.936369  25.722684   0.312382  -2.445811  -0.029277   0.999618
     3  H    0.021919   0.312382   0.403362  -0.044895  -0.002831   0.001800
     4  C   -0.577977  -2.445811  -0.044895   9.107801   0.363370  -0.047916
     5  H    0.034919  -0.029277  -0.002831   0.363370   0.405963  -0.050694
     6  C   -1.727546   0.999618   0.001800  -0.047916  -0.050694   5.932705
     7  C   -1.067260  -1.355102  -0.021290  -0.281460   0.010095   0.124149
     8  H    0.040968  -0.004476   0.000009   0.002907  -0.000084  -0.053184
     9  C   -1.922414 -13.014194   0.035617   0.006879  -0.015090   0.324778
    10  H    0.065672   0.041248  -0.000100  -0.013741   0.000010  -0.009585
    11  S   -0.516731   0.867633   0.000757   0.041001  -0.000223   0.012479
    12  O   -0.342800  -0.039200   0.003710   0.111567   0.000089  -0.012112
    13  O    0.028875  -0.372826  -0.000434  -0.044858   0.000019   0.014379
    14  N    0.444492   0.663811   0.000982  -0.055198   0.000044  -0.020626
    15  H    0.007230   0.020638  -0.000001   0.000582   0.000000   0.001727
    16  H   -0.188341  -0.085191  -0.000003   0.003684   0.000000   0.002123
    17  F   -0.033488  -0.019324  -0.000330  -0.136772  -0.003161   0.319970
               7          8          9         10         11         12
     1  C   -1.067260   0.040968  -1.922414   0.065672  -0.516731  -0.342800
     2  C   -1.355102  -0.004476 -13.014194   0.041248   0.867633  -0.039200
     3  H   -0.021290   0.000009   0.035617  -0.000100   0.000757   0.003710
     4  C   -0.281460   0.002907   0.006879  -0.013741   0.041001   0.111567
     5  H    0.010095  -0.000084  -0.015090   0.000010  -0.000223   0.000089
     6  C    0.124149  -0.053184   0.324778  -0.009585   0.012479  -0.012112
     7  C    9.665298   0.338159  -1.245068  -0.025625   0.010070   0.069744
     8  H    0.338159   0.406015  -0.011526  -0.003002   0.000373   0.000021
     9  C   -1.245068  -0.011526  22.582347   0.248107  -0.527566   0.024763
    10  H   -0.025625  -0.003002   0.248107   0.417045  -0.004751   0.000581
    11  S    0.010070   0.000373  -0.527566  -0.004751  14.171324   0.279325
    12  O    0.069744   0.000021   0.024763   0.000581   0.279325   8.832163
    13  O   -0.036632   0.000000   0.348354  -0.001278   0.305792  -0.175183
    14  N   -0.046428   0.000172  -1.158011   0.006812   0.035653  -0.116837
    15  H   -0.029320  -0.000000  -0.014811  -0.000606   0.031578  -0.004700
    16  H    0.070579  -0.000003   0.186580   0.001643   0.025029   0.009641
    17  F   -0.147521  -0.003252  -0.014940  -0.000348   0.000341   0.000019
              13         14         15         16         17
     1  C    0.028875   0.444492   0.007230  -0.188341  -0.033488
     2  C   -0.372826   0.663811   0.020638  -0.085191  -0.019324
     3  H   -0.000434   0.000982  -0.000001  -0.000003  -0.000330
     4  C   -0.044858  -0.055198   0.000582   0.003684  -0.136772
     5  H    0.000019   0.000044   0.000000   0.000000  -0.003161
     6  C    0.014379  -0.020626   0.001727   0.002123   0.319970
     7  C   -0.036632  -0.046428  -0.029320   0.070579  -0.147521
     8  H    0.000000   0.000172  -0.000000  -0.000003  -0.003252
     9  C    0.348354  -1.158011  -0.014811   0.186580  -0.014940
    10  H   -0.001278   0.006812  -0.000606   0.001643  -0.000348
    11  S    0.305792   0.035653   0.031578   0.025029   0.000341
    12  O   -0.175183  -0.116837  -0.004700   0.009641   0.000019
    13  O    8.677950  -0.145047   0.007760  -0.003197   0.000004
    14  N   -0.145047   7.977921   0.228478   0.228061  -0.000053
    15  H    0.007760   0.228478   0.251238  -0.015880   0.000000
    16  H   -0.003197   0.228061  -0.015880   0.267562   0.000000
    17  F    0.000004  -0.000053   0.000000   0.000000   9.376926
 Mulliken charges:
               1
     1  C   -0.802294
     2  C   -0.326245
     3  H    0.289346
     4  C    0.010837
     5  H    0.286849
     6  C    0.187935
     7  C   -0.032387
     8  H    0.286902
     9  C    0.166195
    10  H    0.277917
    11  S    1.267916
    12  O   -0.640791
    13  O   -0.603679
    14  N   -1.044227
    15  H    0.516086
    16  H    0.497712
    17  F   -0.338072
 Sum of Mulliken charges =  -0.00000
 Mulliken charges with hydrogens summed into heavy atoms:
               1
     1  C   -0.802294
     2  C   -0.036899
     4  C    0.297686
     6  C    0.187935
     7  C    0.254515
     9  C    0.444112
    11  S    1.267916
    12  O   -0.640791
    13  O   -0.603679
    14  N   -0.030429
    17  F   -0.338072
 Electronic spatial extent (au):  <R**2>=           2132.6914
 Charge=             -0.0000 electrons
 Dipole moment (field-independent basis, Debye):
    X=              4.6556    Y=              5.0083    Z=             -2.8609  Tot=              7.4123
 Quadrupole moment (field-independent basis, Debye-Ang):
   XX=            -90.9155   YY=            -56.7321   ZZ=            -75.6772
   XY=            -10.7828   XZ=              5.7104   YZ=             -4.0137
 Traceless Quadrupole moment (field-independent basis, Debye-Ang):
   XX=            -16.4739   YY=             17.7095   ZZ=             -1.2356
   XY=            -10.7828   XZ=              5.7104   YZ=             -4.0137
 Octapole moment (field-independent basis, Debye-Ang**2):
  XXX=             28.8037  YYY=             19.7908  ZZZ=            -15.5326  XYY=             13.8052
  XXY=             17.2442  XXZ=            -10.3096  XZZ=              7.2891  YZZ=              7.1800
  YYZ=              0.3819  XYZ=              9.1883
 Hexadecapole moment (field-independent basis, Debye-Ang**3):
 XXXX=          -2287.3317 YYYY=           -367.8974 ZZZZ=           -197.3852 XXXY=            -32.9371
 XXXZ=             14.7320 YYYX=            -39.1197 YYYZ=             -7.1226 ZZZX=             32.6611
 ZZZY=            -12.0342 XXYY=           -365.1215 XXZZ=           -384.5919 YYZZ=           -110.5747
 XXYZ=            -15.6587 YYXZ=             -2.4658 ZZXY=            -13.7207
 N-N= 7.263728836899D+02 E-N=-3.653385552058D+03  KE= 9.293468099753D+02
 D1PCM: PCM CHGder 1st derivatives, ID1Alg=3 FixD1E=F DoIter=F DoCFld=F I1PDM=0.
 Calling FoFJK, ICntrl=      2127 FMM=F ISym2X=0 I1Cent= 0 IOpClX= 0 NMat=1 NMatS=1 NMatT=0.
 ***** Axes restored to original set *****
 -------------------------------------------------------------------
 Center     Atomic                   Forces (Hartrees/Bohr)
 Number     Number              X              Y              Z
 -------------------------------------------------------------------
      1        6           0.001736475    0.001358283   -0.001069039
      2        6           0.000066779    0.000514476    0.001101800
      3        1          -0.000128592    0.000256610   -0.000024329
      4        6           0.000256356   -0.000178986    0.000118723
      5        1          -0.000033248   -0.000120408    0.000048035
      6        6           0.000090835   -0.000096411    0.000212408
      7        6           0.000313259   -0.000111809   -0.000245517
      8        1          -0.000000601   -0.000018650    0.000023865
      9        6          -0.001920967   -0.000495429   -0.000851772
     10        1           0.000916532   -0.000168671   -0.002328550
     11       16           0.002254460    0.004633814    0.001617528
     12        8          -0.002256755   -0.002394876    0.000009632
     13        8          -0.001102754   -0.002286815    0.001728293
     14        7          -0.001002284   -0.001653525   -0.003735811
     15        1           0.000254333    0.000219356    0.000203379
     16        1           0.000450080    0.000433720    0.003296226
     17        9           0.000106094    0.000109321   -0.000104870
 -------------------------------------------------------------------
 Cartesian Forces:  Max     0.004633814 RMS     0.001382358

 GradGradGradGradGradGradGradGradGradGradGradGradGradGradGradGradGradGrad
 Berny optimization.
 FormGI is forming the generalized inverse of G from B-inverse, IUseBI=4.
 Internal  Forces:  Max     0.007336861 RMS     0.001566992
 Search for a local minimum.
 Step number   1 out of a maximum of   90
 All quantities printed in internal units (Hartrees-Bohrs-Radians)
 Mixed Optimization -- RFO/linear search
 Second derivative matrix not updated -- first step.
 ITU=  0
     Eigenvalues ---    0.00692   0.01603   0.01928   0.02168   0.02184
     Eigenvalues ---    0.02188   0.02209   0.02229   0.02234   0.02246
     Eigenvalues ---    0.02256   0.04616   0.09467   0.10388   0.14313
     Eigenvalues ---    0.15999   0.16000   0.16000   0.16000   0.16000
     Eigenvalues ---    0.16000   0.19826   0.22000   0.23007   0.23994
     Eigenvalues ---    0.24979   0.25000   0.25000   0.28132   0.35343
     Eigenvalues ---    0.35345   0.35436   0.35436   0.42317   0.42780
     Eigenvalues ---    0.42857   0.43969   0.43969   0.46671   0.47169
     Eigenvalues ---    0.47232   0.47689   0.55471   0.90433   0.90438
 RFO step:  Lambda=-1.56331048D-03 EMin= 6.92347056D-03
 Linear search not attempted -- first point.
 Iteration  1 RMS(Cart)=  0.06662814 RMS(Int)=  0.00163911
 Iteration  2 RMS(Cart)=  0.00212689 RMS(Int)=  0.00011223
 Iteration  3 RMS(Cart)=  0.00000131 RMS(Int)=  0.00011223
 Iteration  4 RMS(Cart)=  0.00000000 RMS(Int)=  0.00011223
 Variable       Old X    -DE/DX   Delta X   Delta X   Delta X     New X
                                 (Linear)    (Quad)   (Total)
    R1        2.63512  -0.00021   0.00000  -0.00037  -0.00037   2.63475
    R2        2.63521   0.00156   0.00000   0.00349   0.00350   2.63871
    R3        3.35550   0.00325   0.00000   0.01147   0.01147   3.36697
    R4        2.05119   0.00009   0.00000   0.00024   0.00024   2.05143
    R5        2.62839  -0.00011   0.00000  -0.00030  -0.00030   2.62809
    R6        2.04972  -0.00000   0.00000  -0.00001  -0.00001   2.04972
    R7        2.62168  -0.00048   0.00000  -0.00114  -0.00115   2.62054
    R8        2.62176  -0.00077   0.00000  -0.00169  -0.00170   2.62007
    R9        2.54716   0.00012   0.00000   0.00021   0.00021   2.54737
   R10        2.04973  -0.00001   0.00000  -0.00003  -0.00003   2.04969
   R11        2.62831   0.00005   0.00000   0.00017   0.00017   2.62848
   R12        2.05122  -0.00041   0.00000  -0.00117  -0.00117   2.05005
   R13        2.76432   0.00056   0.00000   0.00062   0.00062   2.76494
   R14        2.76434   0.00250   0.00000   0.00276   0.00276   2.76711
   R15        3.12221  -0.00081   0.00000  -0.00190  -0.00190   3.12030
   R16        1.93192   0.00016   0.00000   0.00037   0.00037   1.93228
   R17        1.93192  -0.00088   0.00000  -0.00200  -0.00200   1.92991
    A1        2.13219  -0.00157   0.00000  -0.00609  -0.00609   2.12610
    A2        2.07518  -0.00577   0.00000  -0.02320  -0.02321   2.05197
    A3        2.07505   0.00734   0.00000   0.02894   0.02891   2.10396
    A4        2.10899  -0.00032   0.00000  -0.00124  -0.00125   2.10774
    A5        2.07677   0.00085   0.00000   0.00373   0.00374   2.08051
    A6        2.09740  -0.00053   0.00000  -0.00250  -0.00250   2.09490
    A7        2.12330  -0.00019   0.00000  -0.00068  -0.00068   2.12262
    A8        2.06215   0.00026   0.00000   0.00057   0.00057   2.06272
    A9        2.09772  -0.00007   0.00000   0.00011   0.00011   2.09783
   A10        2.15632  -0.00027   0.00000  -0.00162  -0.00163   2.15470
   A11        2.06346   0.00027   0.00000   0.00137   0.00137   2.06483
   A12        2.06340  -0.00001   0.00000   0.00025   0.00026   2.06366
   A13        2.09768  -0.00009   0.00000  -0.00028  -0.00028   2.09740
   A14        2.06216   0.00023   0.00000   0.00086   0.00085   2.06301
   A15        2.12335  -0.00014   0.00000  -0.00057  -0.00057   2.12277
   A16        2.07676   0.00049   0.00000   0.00254   0.00254   2.07930
   A17        2.10903   0.00227   0.00000   0.01431   0.01430   2.12333
   A18        2.09737  -0.00276   0.00000  -0.01681  -0.01681   2.08056
   A19        1.88552  -0.00235   0.00000  -0.01264  -0.01278   1.87274
   A20        1.88545   0.00072   0.00000   0.00561   0.00542   1.89087
   A21        1.89822   0.00364   0.00000   0.02177   0.02166   1.91988
   A22        2.08772  -0.00184   0.00000  -0.02164  -0.02168   2.06604
   A23        1.85013   0.00118   0.00000   0.00892   0.00897   1.85909
   A24        1.85020  -0.00067   0.00000   0.00279   0.00265   1.85285
   A25        1.94779   0.00013   0.00000   0.00815   0.00777   1.95556
   A26        1.94773   0.00394   0.00000   0.03170   0.03133   1.97905
   A27        1.92700  -0.00088   0.00000   0.00740   0.00678   1.93378
    D1       -3.14001   0.00009   0.00000   0.00078   0.00083  -3.13917
    D2       -0.00607   0.00004   0.00000  -0.00025  -0.00021  -0.00628
    D3        0.04416   0.00008   0.00000   0.00970   0.00958   0.05374
    D4       -3.10509   0.00003   0.00000   0.00867   0.00854  -3.09655
    D5        0.00607   0.00004   0.00000   0.00286   0.00285   0.00892
    D6        3.13997   0.00021   0.00000   0.00909   0.00916  -3.13405
    D7        3.10509  -0.00025   0.00000  -0.00728  -0.00741   3.09769
    D8       -0.04419  -0.00009   0.00000  -0.00105  -0.00110  -0.04529
    D9       -0.63658   0.00247   0.00000   0.09666   0.09657  -0.54001
   D10        1.64513  -0.00102   0.00000   0.06421   0.06417   1.70930
   D11       -2.63729   0.00044   0.00000   0.08161   0.08168  -2.55561
   D12        2.54617   0.00266   0.00000   0.10610   0.10605   2.65222
   D13       -1.45530  -0.00082   0.00000   0.07365   0.07365  -1.38165
   D14        0.54546   0.00064   0.00000   0.09105   0.09116   0.63662
   D15       -3.13396  -0.00004   0.00000  -0.00143  -0.00144  -3.13540
   D16        0.00357  -0.00011   0.00000  -0.00297  -0.00301   0.00056
   D17        0.00003  -0.00008   0.00000  -0.00245  -0.00247  -0.00244
   D18        3.13756  -0.00015   0.00000  -0.00399  -0.00404   3.13352
   D19       -0.00134   0.00010   0.00000   0.00382   0.00383   0.00249
   D20       -3.13979   0.00012   0.00000   0.00444   0.00446  -3.13533
   D21        3.13625   0.00004   0.00000   0.00230   0.00228   3.13854
   D22       -0.00220   0.00006   0.00000   0.00292   0.00291   0.00071
   D23       -3.13625  -0.00007   0.00000  -0.00256  -0.00255  -3.13880
   D24        0.00134  -0.00001   0.00000  -0.00123  -0.00121   0.00013
   D25        0.00220  -0.00009   0.00000  -0.00318  -0.00318  -0.00098
   D26        3.13979  -0.00003   0.00000  -0.00185  -0.00184   3.13795
   D27       -0.00357  -0.00006   0.00000  -0.00211  -0.00214  -0.00571
   D28       -3.13752  -0.00025   0.00000  -0.00844  -0.00843   3.13723
   D29        3.13396  -0.00001   0.00000  -0.00077  -0.00078   3.13318
   D30        0.00000  -0.00019   0.00000  -0.00709  -0.00707  -0.00707
   D31        1.08302  -0.00058   0.00000  -0.01758  -0.01740   1.06562
   D32       -1.08229  -0.00246   0.00000  -0.05697  -0.05710  -1.13939
   D33       -0.94062  -0.00023   0.00000  -0.01804  -0.01797  -0.95859
   D34       -3.10594  -0.00211   0.00000  -0.05744  -0.05766   3.11959
   D35        3.10662   0.00167   0.00000   0.00093   0.00114   3.10775
   D36        0.94130  -0.00021   0.00000  -0.03846  -0.03856   0.90275
         Item               Value     Threshold  Converged?
 Maximum Force            0.007337     0.000450     NO 
 RMS     Force            0.001567     0.000300     NO 
 Maximum Displacement     0.251961     0.001800     NO 
 RMS     Displacement     0.067077     0.001200     NO 
 Predicted change in Energy=-8.303645D-04
 GradGradGradGradGradGradGradGradGradGradGradGradGradGradGradGradGradGrad

                          Input orientation:                          
 ---------------------------------------------------------------------
 Center     Atomic      Atomic             Coordinates (Angstroms)
 Number     Number       Type             X           Y           Z
 ---------------------------------------------------------------------
      1          6           0       -1.325410    0.691764   -0.845305
      2          6           0       -2.545049    0.751577   -1.518231
      3          1           0       -3.482537    0.733720   -0.971180
      4          6           0       -2.550598    0.845467   -2.905771
      5          1           0       -3.476376    0.900101   -3.468304
      6          6           0       -1.331014    0.875054   -3.565133
      7          6           0       -0.108449    0.813114   -2.914116
      8          1           0        0.814385    0.843033   -3.483282
      9          6           0       -0.106780    0.716063   -1.526577
     10          1           0        0.840620    0.662434   -1.000808
     11         16           0       -1.369202    0.501246    0.925664
     12          8           0       -2.584905    1.159915    1.404208
     13          8           0       -1.174771   -0.915273    1.241598
     14          7           0       -0.099473    1.303583    1.611581
     15          1           0       -0.129449    2.307015    1.417221
     16          1           0        0.810149    0.912704    1.361008
     17          9           0       -1.333452    0.973438   -4.909543
 ---------------------------------------------------------------------
                    Distance matrix (angstroms):
                    1          2          3          4          5
     1  C    0.000000
     2  C    1.394248   0.000000
     3  H    2.161204   1.085573   0.000000
     4  C    2.402131   1.390724   2.150266   0.000000
     5  H    3.398556   2.166151   2.502668   1.084663   0.000000
     6  C    2.726002   2.383051   3.373072   1.386729   2.147692
     7  C    2.403268   2.808790   3.894326   2.442377   3.414326
     8  H    3.400078   3.893018   4.978569   3.414182   4.291167
     9  C    1.396345   2.438542   3.421186   2.809122   3.893373
    10  H    2.171802   3.426139   4.323846   3.893937   4.978100
    11  S    1.781725   2.723583   2.849253   4.024186   4.889399
    12  O    2.620267   2.951098   2.574850   4.321571   4.960201
    13  O    2.638262   3.503243   3.597408   4.711027   5.547625
    14  N    2.813100   4.010147   4.294243   5.159880   6.113224
    15  H    3.026282   4.107480   4.407144   5.165883   6.086845
    16  H    3.078513   4.424176   4.888588   5.431809   6.457299
    17  F    4.073996   3.608073   4.492966   2.347961   2.583539
                    6          7          8          9         10
     6  C    0.000000
     7  C    1.386480   0.000000
     8  H    2.147199   1.084651   0.000000
     9  C    2.383220   1.390930   2.166417   0.000000
    10  H    3.367041   2.141070   2.489173   1.084839   0.000000
    11  S    4.506489   4.053476   4.931904   2.766467   2.936084
    12  O    5.133004   4.990093   5.961807   3.863626   4.214951
    13  O    5.131700   4.625400   5.419675   3.385949   3.402844
    14  N    5.338417   4.552205   5.196622   3.192690   2.849460
    15  H    5.321477   4.581775   5.200865   3.346280   3.080997
    16  H    5.371486   4.373834   4.844793   3.036045   2.375234
    17  F    1.348008   2.346927   2.581556   3.607690   4.483472
                   11         12         13         14         15
    11  S    0.000000
    12  O    1.463142   0.000000
    13  O    1.464289   2.514225   0.000000
    14  N    1.651194   2.498203   2.493286   0.000000
    15  H    2.244865   2.710217   3.392150   1.022521   0.000000
    16  H    2.260176   3.404317   2.701049   1.021267   1.682292
    17  F    5.854390   6.439283   6.436533   6.645056   6.576929
                   16         17
    16  H    0.000000
    17  F    6.627105   0.000000
 Stoichiometry    C6H6FNO2S
 Framework group  C1[X(C6H6FNO2S)]
 Deg. of freedom    45
 Full point group                 C1      NOp   1
 Largest Abelian subgroup         C1      NOp   1
 Largest concise Abelian subgroup C1      NOp   1
                         Standard orientation:                         
 ---------------------------------------------------------------------
 Center     Atomic      Atomic             Coordinates (Angstroms)
 Number     Number       Type             X           Y           Z
 ---------------------------------------------------------------------
      1          6           0       -0.073256   -0.025687   -0.003863
      2          6           0        0.627576   -1.230533   -0.037153
      3          1           0        0.100313   -2.178924   -0.069043
      4          6           0        2.018097   -1.206870   -0.039663
      5          1           0        2.602293   -2.120239   -0.070740
      6          6           0        2.652254    0.025953   -0.007958
      7          6           0        1.973080    1.234128    0.028938
      8          1           0        2.523502    2.168505    0.050033
      9          6           0        0.582435    1.206537    0.034545
     10          1           0        0.034527    2.142270    0.067354
     11         16           0       -1.851587   -0.107876    0.069118
     12          8           0       -2.260392   -1.322203   -0.637332
     13          8           0       -2.263561    0.057529    1.464490
     14          7           0       -2.510005    1.160573   -0.757904
     15          1           0       -2.249803    1.150535   -1.746713
     16          1           0       -2.304685    2.068649   -0.338110
     17          9           0        3.999977    0.051936   -0.017743
 ---------------------------------------------------------------------
 Rotational constants (GHZ):           2.5900808           0.5432641           0.4949595
 Basis read from rwf:  (6D, 7F)
 There are   225 symmetry adapted cartesian basis functions of A   symmetry.
 There are   225 symmetry adapted basis functions of A   symmetry.
   225 basis functions,   400 primitive gaussians,   225 cartesian basis functions
    45 alpha electrons       45 beta electrons
       nuclear repulsion energy       725.2287299783 Hartrees.
 NAtoms=   17 NActive=   17 NUniq=   17 SFac= 1.00D+00 NAtFMM=   60 NAOKFM=F Big=F
 Integral buffers will be    131072 words long.
 Raffenetti 2 integral format.
 Two-electron integral symmetry is turned on.
 ------------------------------------------------------------------------------
 Polarizable Continuum Model (PCM)
 =================================
 Model                : PCM.
 Atomic radii         : SMD-Coulomb.
 Polarization charges : Total charges.
 Charge compensation  : None.
 Solution method      : On-the-fly selection.
 Cavity type          : VdW (van der Waals Surface) (Alpha=1.000).
 Cavity algorithm     : GePol (No added spheres)
                        Default sphere list used, NSphG=   17.
                        Lebedev-Laikov grids with approx.  5.0 points / Ang**2.
                        Smoothing algorithm: York/Karplus (Gamma=1.0000).
                        Polarization charges: spherical gaussians, with
                                              point-specific exponents (IZeta= 3).
                        Self-potential: point-specific (ISelfS= 7).
                        Self-field    : sphere-specific E.n sum rule (ISelfD= 2).
 1st derivatives      : Analytical E(r).r(x)/FMM algorithm (CHGder, D1EAlg=3).
                        Cavity 1st derivative terms included.
 Solvent              : Water, Eps=  78.355300 Eps(inf)=   1.777849
 ------------------------------------------------------------------------------
 Spheres list:
 ISph  on   Nord     Re0    Alpha      Xe            Ye            Ze
    1   C      1    1.8500  1.000     -0.073256     -0.025687     -0.003863
    2   C      2    1.8500  1.000      0.627576     -1.230533     -0.037153
    3   H      3    1.2000  1.000      0.100313     -2.178924     -0.069043
    4   C      4    1.8500  1.000      2.018097     -1.206870     -0.039663
    5   H      5    1.2000  1.000      2.602293     -2.120239     -0.070740
    6   C      6    1.8500  1.000      2.652254      0.025953     -0.007958
    7   C      7    1.8500  1.000      1.973080      1.234128      0.028938
    8   H      8    1.2000  1.000      2.523502      2.168505      0.050033
    9   C      9    1.8500  1.000      0.582435      1.206537      0.034545
   10   H     10    1.2000  1.000      0.034527      2.142270      0.067354
   11   S     11    2.4900  1.000     -1.851587     -0.107876      0.069118
   12   O     12    1.5200  1.000     -2.260392     -1.322203     -0.637332
   13   O     13    1.5200  1.000     -2.263561      0.057529      1.464490
   14   N     14    1.8900  1.000     -2.510005      1.160573     -0.757904
   15   H     15    1.2000  1.000     -2.249803      1.150535     -1.746713
   16   H     16    1.2000  1.000     -2.304685      2.068649     -0.338110
   17   F     17    1.7300  1.000      3.999977      0.051936     -0.017743
 ------------------------------------------------------------------------------
 ------------------------------------------------------------------------------
 Atomic radii for non-electrostatic terms: SMD-CDS.
 ------------------------------------------------------------------------------
 Nuclear repulsion after PCM non-electrostatic terms =      725.2353554816 Hartrees.
 One-electron integrals computed using PRISM.
 NBasis=   225 RedAO= T EigKep=  3.35D-06  NBF=   225
 NBsUse=   225 1.00D-06 EigRej= -1.00D+00 NBFU=   225
 Initial guess from the checkpoint file:  "/jobfs/40645270.gadi-pbs/Gau-2891053.chk"
 B after Tr=    -0.000000   -0.000000    0.000000
         Rot=    0.999827    0.018598   -0.000317   -0.000741 Ang=   2.13 deg.
 ExpMin= 4.05D-02 ExpMax= 2.19D+04 ExpMxC= 3.30D+03 IAcc=3 IRadAn=         5 AccDes= 0.00D+00
 Harris functional with IExCor= 1009 and IRadAn=       5 diagonalized for initial guess.
 HarFok:  IExCor= 1009 AccDes= 0.00D+00 IRadAn=         5 IDoV= 1 UseB2=F ITyADJ=14
 ICtDFT=  3500011 ScaDFX=  1.000000  1.000000  1.000000  1.000000
 FoFCou: FMM=F IPFlag=           0 FMFlag=      100000 FMFlg1=           0
         NFxFlg=           0 DoJE=T BraDBF=F KetDBF=T FulRan=T
         wScrn=  0.000000 ICntrl=       500 IOpCl=  0 I1Cent=   200000004 NGrid=           0
         NMat0=    1 NMatS0=      1 NMatT0=    0 NMatD0=    1 NMtDS0=    0 NMtDT0=    0
 Petite list used in FoFCou.
 Requested convergence on RMS density matrix=1.00D-08 within 128 cycles.
 Requested convergence on MAX density matrix=1.00D-06.
 Requested convergence on             energy=1.00D-06.
 No special actions if energy rises.
 Inv3:  Mode=1 IEnd=     6203532.
 Iteration    1 A*A^-1 deviation from unit magnitude is 2.78D-15 for   1433.
 Iteration    1 A*A^-1 deviation from orthogonality  is 1.66D-15 for    781    160.
 Iteration    1 A^-1*A deviation from unit magnitude is 3.22D-15 for   1433.
 Iteration    1 A^-1*A deviation from orthogonality  is 3.90D-13 for    536    506.
 Error on total polarization charges =  0.03645
 SCF Done:  E(RM062X) =  -935.202440471     A.U. after   13 cycles
            NFock= 13  Conv=0.76D-08     -V/T= 2.0063
 SMD-CDS (non-electrostatic) energy       (kcal/mol) =       4.16
 (included in total energy above)
 D1PCM: PCM CHGder 1st derivatives, ID1Alg=3 FixD1E=F DoIter=F DoCFld=F I1PDM=0.
 Calling FoFJK, ICntrl=      2127 FMM=F ISym2X=0 I1Cent= 0 IOpClX= 0 NMat=1 NMatS=1 NMatT=0.
 ***** Axes restored to original set *****
 -------------------------------------------------------------------
 Center     Atomic                   Forces (Hartrees/Bohr)
 Number     Number              X              Y              Z
 -------------------------------------------------------------------
      1        6           0.001848513    0.000967633   -0.000514129
      2        6          -0.000631271    0.000663257    0.000628823
      3        1           0.000240021    0.000137573   -0.000139122
      4        6           0.000152845    0.000047700   -0.000502343
      5        1          -0.000045967   -0.000069239    0.000044244
      6        6          -0.000695958    0.000078378   -0.000258106
      7        6           0.000191050   -0.000062607    0.000398939
      8        1           0.000074178   -0.000025035    0.000160683
      9        6          -0.001355359   -0.000791955    0.000655649
     10        1           0.000708683    0.000168279    0.001008751
     11       16           0.000846305    0.000772011    0.001383740
     12        8           0.000125735    0.000244821    0.000088367
     13        8           0.001492316   -0.001163647    0.000145105
     14        7          -0.002690512    0.000639442   -0.003133699
     15        1          -0.000042322   -0.000283152    0.000018599
     16        1          -0.000212248   -0.001271996    0.000059879
     17        9          -0.000006009   -0.000051462   -0.000045381
 -------------------------------------------------------------------
 Cartesian Forces:  Max     0.003133699 RMS     0.000858626

 GradGradGradGradGradGradGradGradGradGradGradGradGradGradGradGradGradGrad
 Berny optimization.
 Using GEDIIS/GDIIS optimizer.
 FormGI is forming the generalized inverse of G from B-inverse, IUseBI=4.
 Internal  Forces:  Max     0.004173617 RMS     0.000882647
 Search for a local minimum.
 Step number   2 out of a maximum of   90
 All quantities printed in internal units (Hartrees-Bohrs-Radians)
 Mixed Optimization -- En-DIIS/RFO-DIIS
 Update second derivatives using D2CorX and points    1    2
 DE= -6.54D-04 DEPred=-8.30D-04 R= 7.87D-01
 TightC=F SS=  1.41D+00  RLast= 2.42D-01 DXNew= 5.0454D-01 7.2712D-01
 Trust test= 7.87D-01 RLast= 2.42D-01 DXMaxT set to 5.05D-01
 ITU=  1  0
 Use linear search instead of GDIIS.
     Eigenvalues ---    0.00557   0.01603   0.01837   0.02167   0.02186
     Eigenvalues ---    0.02191   0.02209   0.02229   0.02234   0.02246
     Eigenvalues ---    0.02257   0.04276   0.09171   0.11388   0.14634
     Eigenvalues ---    0.15952   0.15999   0.16000   0.16000   0.16000
     Eigenvalues ---    0.16720   0.19855   0.21998   0.23034   0.24021
     Eigenvalues ---    0.24217   0.25000   0.27674   0.31275   0.35345
     Eigenvalues ---    0.35436   0.35436   0.35657   0.42487   0.42832
     Eigenvalues ---    0.43849   0.43967   0.44960   0.47147   0.47207
     Eigenvalues ---    0.47311   0.48237   0.55470   0.90095   0.90445
 RFO step:  Lambda=-3.28578235D-04 EMin= 5.57332431D-03
 Quartic linear search produced a step of -0.06515.
 Iteration  1 RMS(Cart)=  0.03804988 RMS(Int)=  0.00052612
 Iteration  2 RMS(Cart)=  0.00073489 RMS(Int)=  0.00000753
 Iteration  3 RMS(Cart)=  0.00000022 RMS(Int)=  0.00000753
 Variable       Old X    -DE/DX   Delta X   Delta X   Delta X     New X
                                 (Linear)    (Quad)   (Total)
    R1        2.63475   0.00020   0.00002   0.00023   0.00025   2.63500
    R2        2.63871  -0.00185  -0.00023  -0.00292  -0.00315   2.63556
    R3        3.36697  -0.00130  -0.00075  -0.00131  -0.00205   3.36492
    R4        2.05143  -0.00028  -0.00002  -0.00067  -0.00069   2.05075
    R5        2.62809   0.00035   0.00002   0.00067   0.00069   2.62878
    R6        2.04972   0.00001   0.00000   0.00003   0.00003   2.04975
    R7        2.62054  -0.00004   0.00007  -0.00023  -0.00016   2.62038
    R8        2.62007   0.00083   0.00011   0.00124   0.00135   2.62142
    R9        2.54737   0.00004  -0.00001   0.00012   0.00011   2.54748
   R10        2.04969  -0.00002   0.00000  -0.00006  -0.00006   2.04963
   R11        2.62848  -0.00015  -0.00001  -0.00032  -0.00033   2.62815
   R12        2.05005   0.00110   0.00008   0.00258   0.00266   2.05270
   R13        2.76494   0.00003  -0.00004   0.00019   0.00015   2.76509
   R14        2.76711   0.00136  -0.00018   0.00211   0.00193   2.76904
   R15        3.12030  -0.00399   0.00012  -0.00923  -0.00910   3.11120
   R16        1.93228  -0.00029  -0.00002  -0.00051  -0.00054   1.93175
   R17        1.92991   0.00028   0.00013   0.00008   0.00021   1.93012
    A1        2.12610   0.00097   0.00040   0.00176   0.00215   2.12826
    A2        2.05197   0.00113   0.00151  -0.00161  -0.00010   2.05187
    A3        2.10396  -0.00210  -0.00188  -0.00016  -0.00204   2.10192
    A4        2.10774   0.00022   0.00008   0.00058   0.00066   2.10840
    A5        2.08051  -0.00043  -0.00024  -0.00073  -0.00098   2.07953
    A6        2.09490   0.00021   0.00016   0.00016   0.00033   2.09523
    A7        2.12262   0.00005   0.00004  -0.00031  -0.00027   2.12235
    A8        2.06272  -0.00024  -0.00004  -0.00034  -0.00038   2.06234
    A9        2.09783   0.00019  -0.00001   0.00066   0.00065   2.09848
   A10        2.15470  -0.00011   0.00011  -0.00038  -0.00027   2.15443
   A11        2.06483   0.00005  -0.00009   0.00031   0.00022   2.06504
   A12        2.06366   0.00006  -0.00002   0.00007   0.00005   2.06371
   A13        2.09740   0.00015   0.00002   0.00082   0.00084   2.09824
   A14        2.06301   0.00006  -0.00006   0.00052   0.00046   2.06347
   A15        2.12277  -0.00021   0.00004  -0.00134  -0.00131   2.12147
   A16        2.07930  -0.00026  -0.00017  -0.00081  -0.00097   2.07833
   A17        2.12333  -0.00041  -0.00093   0.00128   0.00035   2.12368
   A18        2.08056   0.00067   0.00110  -0.00048   0.00062   2.08117
   A19        1.87274   0.00108   0.00083   0.00127   0.00210   1.87484
   A20        1.89087   0.00115  -0.00035   0.00531   0.00494   1.89580
   A21        1.91988  -0.00417  -0.00141  -0.01355  -0.01497   1.90492
   A22        2.06604   0.00029   0.00141   0.00278   0.00418   2.07022
   A23        1.85909   0.00073  -0.00058   0.00334   0.00275   1.86184
   A24        1.85285   0.00038  -0.00017  -0.00096  -0.00112   1.85173
   A25        1.95556   0.00033  -0.00051   0.00435   0.00386   1.95942
   A26        1.97905  -0.00139  -0.00204   0.00048  -0.00155   1.97751
   A27        1.93378   0.00074  -0.00044   0.00671   0.00629   1.94008
    D1       -3.13917   0.00006  -0.00005   0.00386   0.00380  -3.13537
    D2       -0.00628   0.00009   0.00001   0.00439   0.00441  -0.00187
    D3        0.05374   0.00010  -0.00062   0.00421   0.00360   0.05734
    D4       -3.09655   0.00012  -0.00056   0.00475   0.00420  -3.09235
    D5        0.00892  -0.00007  -0.00019  -0.00284  -0.00302   0.00590
    D6       -3.13405  -0.00016  -0.00060  -0.00473  -0.00533  -3.13938
    D7        3.09769  -0.00001   0.00048  -0.00324  -0.00275   3.09494
    D8       -0.04529  -0.00010   0.00007  -0.00513  -0.00506  -0.05035
    D9       -0.54001  -0.00041  -0.00629   0.06555   0.05926  -0.48075
   D10        1.70930   0.00145  -0.00418   0.07343   0.06927   1.77857
   D11       -2.55561   0.00029  -0.00532   0.06792   0.06259  -2.49302
   D12        2.65222  -0.00047  -0.00691   0.06584   0.05893   2.71115
   D13       -1.38165   0.00139  -0.00480   0.07372   0.06894  -1.31272
   D14        0.63662   0.00023  -0.00594   0.06821   0.06226   0.69888
   D15       -3.13540  -0.00007   0.00009  -0.00317  -0.00308  -3.13848
   D16        0.00056  -0.00004   0.00020  -0.00300  -0.00280  -0.00223
   D17       -0.00244  -0.00004   0.00016  -0.00264  -0.00248  -0.00492
   D18        3.13352  -0.00002   0.00026  -0.00246  -0.00220   3.13132
   D19        0.00249  -0.00002  -0.00025   0.00016  -0.00008   0.00241
   D20       -3.13533  -0.00002  -0.00029   0.00058   0.00029  -3.13504
   D21        3.13854   0.00000  -0.00015   0.00034   0.00019   3.13873
   D22        0.00071   0.00001  -0.00019   0.00075   0.00056   0.00128
   D23       -3.13880   0.00005   0.00017   0.00143   0.00160  -3.13720
   D24        0.00013   0.00003   0.00008   0.00138   0.00145   0.00158
   D25       -0.00098   0.00005   0.00021   0.00102   0.00123   0.00025
   D26        3.13795   0.00003   0.00012   0.00096   0.00108   3.13903
   D27       -0.00571   0.00001   0.00014  -0.00004   0.00010  -0.00561
   D28        3.13723   0.00010   0.00055   0.00180   0.00235   3.13958
   D29        3.13318  -0.00000   0.00005  -0.00010  -0.00005   3.13313
   D30       -0.00707   0.00009   0.00046   0.00175   0.00220  -0.00487
   D31        1.06562  -0.00013   0.00113  -0.01308  -0.01196   1.05365
   D32       -1.13939  -0.00027   0.00372  -0.02625  -0.02254  -1.16193
   D33       -0.95859   0.00030   0.00117  -0.00954  -0.00837  -0.96696
   D34        3.11959   0.00017   0.00376  -0.02271  -0.01895   3.10064
   D35        3.10775  -0.00070  -0.00007  -0.01426  -0.01433   3.09342
   D36        0.90275  -0.00083   0.00251  -0.02744  -0.02491   0.87784
         Item               Value     Threshold  Converged?
 Maximum Force            0.004174     0.000450     NO 
 RMS     Force            0.000883     0.000300     NO 
 Maximum Displacement     0.137580     0.001800     NO 
 RMS     Displacement     0.038073     0.001200     NO 
 Predicted change in Energy=-1.919598D-04
 GradGradGradGradGradGradGradGradGradGradGradGradGradGradGradGradGradGrad

                          Input orientation:                          
 ---------------------------------------------------------------------
 Center     Atomic      Atomic             Coordinates (Angstroms)
 Number     Number       Type             X           Y           Z
 ---------------------------------------------------------------------
      1          6           0       -1.320051    0.681981   -0.843437
      2          6           0       -2.540684    0.772981   -1.511328
      3          1           0       -3.476262    0.774494   -0.961446
      4          6           0       -2.548078    0.872305   -2.898848
      5          1           0       -3.474233    0.948002   -3.458345
      6          6           0       -1.329772    0.879085   -3.561017
      7          6           0       -0.106771    0.789327   -2.912543
      8          1           0        0.815798    0.803644   -3.482683
      9          6           0       -0.103642    0.685298   -1.525686
     10          1           0        0.844766    0.612158   -1.001186
     11         16           0       -1.361627    0.479247    0.925134
     12          8           0       -2.601801    1.088295    1.406846
     13          8           0       -1.101967   -0.927853    1.241029
     14          7           0       -0.124238    1.333479    1.595738
     15          1           0       -0.188474    2.333117    1.391855
     16          1           0        0.797748    0.966430    1.354019
     17          9           0       -1.333024    0.982964   -4.905072
 ---------------------------------------------------------------------
                    Distance matrix (angstroms):
                    1          2          3          4          5
     1  C    0.000000
     2  C    1.394382   0.000000
     3  H    2.161418   1.085209   0.000000
     4  C    2.401871   1.391091   2.150493   0.000000
     5  H    3.398383   2.166339   2.502921   1.084680   0.000000
     6  C    2.724736   2.383022   3.372852   1.386645   2.148023
     7  C    2.400994   2.808488   3.893645   2.442755   3.415096
     8  H    3.397392   3.892706   4.977878   3.414856   4.292529
     9  C    1.394678   2.438662   3.420657   2.809949   3.894236
    10  H    2.171680   3.427445   4.324259   3.896176   4.980379
    11  S    1.780639   2.722646   2.849217   4.023059   4.888530
    12  O    2.621401   2.935795   2.544004   4.311442   4.944785
    13  O    2.642750   3.540933   3.658710   4.740294   5.588434
    14  N    2.793563   3.975830   4.252966   5.127279   6.075757
    15  H    3.000541   4.049122   4.333230   5.109974   6.019900
    16  H    3.065093   4.403721   4.864707   5.412050   6.434983
    17  F    4.072792   3.608329   4.493230   2.348092   2.584379
                    6          7          8          9         10
     6  C    0.000000
     7  C    1.387194   0.000000
     8  H    2.148325   1.084619   0.000000
     9  C    2.384014   1.390757   2.165459   0.000000
    10  H    3.369363   2.142452   2.489043   1.086245   0.000000
    11  S    4.504047   4.049516   4.926994   2.762518   2.931986
    12  O    5.132396   4.997167   5.972311   3.873364   4.231329
    13  O    5.135812   4.603399   5.384177   3.354642   3.344986
    14  N    5.315253   4.541037   5.191797   3.188080   2.864138
    15  H    5.286560   4.573599   5.206628   3.351798   3.123448
    16  H    5.356450   4.364983   4.839474   3.030551   2.382164
    17  F    1.348067   2.347629   2.583173   3.608356   4.485599
                   11         12         13         14         15
    11  S    0.000000
    12  O    1.463221   0.000000
    13  O    1.465313   2.518303   0.000000
    14  N    1.646376   2.496821   2.489055   0.000000
    15  H    2.242978   2.715503   3.389859   1.022238   0.000000
    16  H    2.254814   3.402143   2.685142   1.021378   1.685793
    17  F    5.851995   6.439037   6.440432   6.621522   6.540963
                   16         17
    16  H    0.000000
    17  F    6.611859   0.000000
 Stoichiometry    C6H6FNO2S
 Framework group  C1[X(C6H6FNO2S)]
 Deg. of freedom    45
 Full point group                 C1      NOp   1
 Largest Abelian subgroup         C1      NOp   1
 Largest concise Abelian subgroup C1      NOp   1
                         Standard orientation:                         
 ---------------------------------------------------------------------
 Center     Atomic      Atomic             Coordinates (Angstroms)
 Number     Number       Type             X           Y           Z
 ---------------------------------------------------------------------
      1          6           0       -0.074565   -0.025483   -0.002054
      2          6           0        0.624259   -1.231573   -0.038051
      3          1           0        0.096166   -2.179001   -0.072346
      4          6           0        2.015165   -1.208963   -0.039376
      5          1           0        2.598458   -2.122957   -0.069610
      6          6           0        2.649725    0.023549   -0.007241
      7          6           0        1.970302    1.232427    0.028869
      8          1           0        2.519995    2.167219    0.048881
      9          6           0        0.579817    1.205591    0.034960
     10          1           0        0.031126    2.142588    0.064967
     11         16           0       -1.851721   -0.104923    0.075900
     12          8           0       -2.262405   -1.358294   -0.557675
     13          8           0       -2.271611    0.154497    1.455587
     14          7           0       -2.486938    1.113314   -0.831267
     15          1           0       -2.211712    1.048767   -1.813638
     16          1           0       -2.291658    2.042141   -0.453964
     17          9           0        3.997516    0.049323   -0.016196
 ---------------------------------------------------------------------
 Rotational constants (GHZ):           2.5888676           0.5444288           0.4959233
 Basis read from rwf:  (6D, 7F)
 There are   225 symmetry adapted cartesian basis functions of A   symmetry.
 There are   225 symmetry adapted basis functions of A   symmetry.
   225 basis functions,   400 primitive gaussians,   225 cartesian basis functions
    45 alpha electrons       45 beta electrons
       nuclear repulsion energy       725.6662671493 Hartrees.
 NAtoms=   17 NActive=   17 NUniq=   17 SFac= 1.00D+00 NAtFMM=   60 NAOKFM=F Big=F
 Integral buffers will be    131072 words long.
 Raffenetti 2 integral format.
 Two-electron integral symmetry is turned on.
 ------------------------------------------------------------------------------
 Polarizable Continuum Model (PCM)
 =================================
 Model                : PCM.
 Atomic radii         : SMD-Coulomb.
 Polarization charges : Total charges.
 Charge compensation  : None.
 Solution method      : On-the-fly selection.
 Cavity type          : VdW (van der Waals Surface) (Alpha=1.000).
 Cavity algorithm     : GePol (No added spheres)
                        Default sphere list used, NSphG=   17.
                        Lebedev-Laikov grids with approx.  5.0 points / Ang**2.
                        Smoothing algorithm: York/Karplus (Gamma=1.0000).
                        Polarization charges: spherical gaussians, with
                                              point-specific exponents (IZeta= 3).
                        Self-potential: point-specific (ISelfS= 7).
                        Self-field    : sphere-specific E.n sum rule (ISelfD= 2).
 1st derivatives      : Analytical E(r).r(x)/FMM algorithm (CHGder, D1EAlg=3).
                        Cavity 1st derivative terms included.
 Solvent              : Water, Eps=  78.355300 Eps(inf)=   1.777849
 ------------------------------------------------------------------------------
 Spheres list:
 ISph  on   Nord     Re0    Alpha      Xe            Ye            Ze
    1   C      1    1.8500  1.000     -0.074565     -0.025483     -0.002054
    2   C      2    1.8500  1.000      0.624259     -1.231573     -0.038051
    3   H      3    1.2000  1.000      0.096166     -2.179001     -0.072346
    4   C      4    1.8500  1.000      2.015165     -1.208963     -0.039376
    5   H      5    1.2000  1.000      2.598458     -2.122957     -0.069610
    6   C      6    1.8500  1.000      2.649725      0.023549     -0.007241
    7   C      7    1.8500  1.000      1.970302      1.232427      0.028869
    8   H      8    1.2000  1.000      2.519995      2.167219      0.048881
    9   C      9    1.8500  1.000      0.579817      1.205591      0.034960
   10   H     10    1.2000  1.000      0.031126      2.142588      0.064967
   11   S     11    2.4900  1.000     -1.851721     -0.104923      0.075900
   12   O     12    1.5200  1.000     -2.262405     -1.358294     -0.557675
   13   O     13    1.5200  1.000     -2.271611      0.154497      1.455587
   14   N     14    1.8900  1.000     -2.486938      1.113314     -0.831267
   15   H     15    1.2000  1.000     -2.211712      1.048767     -1.813638
   16   H     16    1.2000  1.000     -2.291658      2.042141     -0.453964
   17   F     17    1.7300  1.000      3.997516      0.049323     -0.016196
 ------------------------------------------------------------------------------
 ------------------------------------------------------------------------------
 Atomic radii for non-electrostatic terms: SMD-CDS.
 ------------------------------------------------------------------------------
 Nuclear repulsion after PCM non-electrostatic terms =      725.6728863779 Hartrees.
 One-electron integrals computed using PRISM.
 NBasis=   225 RedAO= T EigKep=  3.34D-06  NBF=   225
 NBsUse=   225 1.00D-06 EigRej= -1.00D+00 NBFU=   225
 Initial guess from the checkpoint file:  "/jobfs/40645270.gadi-pbs/Gau-2891053.chk"
 B after Tr=     0.000000   -0.000000   -0.000000
         Rot=    0.999874    0.015868    0.000606    0.000522 Ang=   1.82 deg.
 ExpMin= 4.05D-02 ExpMax= 2.19D+04 ExpMxC= 3.30D+03 IAcc=3 IRadAn=         5 AccDes= 0.00D+00
 Harris functional with IExCor= 1009 and IRadAn=       5 diagonalized for initial guess.
 HarFok:  IExCor= 1009 AccDes= 0.00D+00 IRadAn=         5 IDoV= 1 UseB2=F ITyADJ=14
 ICtDFT=  3500011 ScaDFX=  1.000000  1.000000  1.000000  1.000000
 FoFCou: FMM=F IPFlag=           0 FMFlag=      100000 FMFlg1=           0
         NFxFlg=           0 DoJE=T BraDBF=F KetDBF=T FulRan=T
         wScrn=  0.000000 ICntrl=       500 IOpCl=  0 I1Cent=   200000004 NGrid=           0
         NMat0=    1 NMatS0=      1 NMatT0=    0 NMatD0=    1 NMtDS0=    0 NMtDT0=    0
 Petite list used in FoFCou.
 Requested convergence on RMS density matrix=1.00D-08 within 128 cycles.
 Requested convergence on MAX density matrix=1.00D-06.
 Requested convergence on             energy=1.00D-06.
 No special actions if energy rises.
 Inv3:  Mode=1 IEnd=     6126123.
 Iteration    1 A*A^-1 deviation from unit magnitude is 4.66D-15 for   1414.
 Iteration    1 A*A^-1 deviation from orthogonality  is 2.10D-15 for    881    114.
 Iteration    1 A^-1*A deviation from unit magnitude is 4.22D-15 for   1414.
 Iteration    1 A^-1*A deviation from orthogonality  is 4.97D-13 for    546    505.
 Error on total polarization charges =  0.03646
 SCF Done:  E(RM062X) =  -935.202749001     A.U. after   13 cycles
            NFock= 13  Conv=0.56D-08     -V/T= 2.0063
 SMD-CDS (non-electrostatic) energy       (kcal/mol) =       4.15
 (included in total energy above)
 D1PCM: PCM CHGder 1st derivatives, ID1Alg=3 FixD1E=F DoIter=F DoCFld=F I1PDM=0.
 Calling FoFJK, ICntrl=      2127 FMM=F ISym2X=0 I1Cent= 0 IOpClX= 0 NMat=1 NMatS=1 NMatT=0.
 ***** Axes restored to original set *****
 -------------------------------------------------------------------
 Center     Atomic                   Forces (Hartrees/Bohr)
 Number     Number              X              Y              Z
 -------------------------------------------------------------------
      1        6          -0.001393944    0.000119533    0.000208225
      2        6           0.000017132    0.000446624   -0.000191921
      3        1           0.000190354   -0.000036419    0.000011754
      4        6           0.000156158    0.000209191   -0.000400159
      5        1           0.000006418    0.000018841   -0.000015824
      6        6          -0.000435024    0.000022164   -0.000042011
      7        6           0.000121706    0.000027894    0.000220691
      8        1           0.000011157   -0.000015107    0.000011042
      9        6           0.000374057   -0.000728673    0.000169351
     10        1          -0.000101357   -0.000024774    0.000594003
     11       16           0.000586730    0.000145794    0.000291881
     12        8           0.000332183   -0.000461988   -0.000009265
     13        8           0.000872908    0.000255539   -0.000403801
     14        7          -0.000800733    0.001038024   -0.000534307
     15        1           0.000239639   -0.000305375   -0.000004747
     16        1          -0.000217462   -0.000637080    0.000061711
     17        9           0.000040079   -0.000074188    0.000033377
 -------------------------------------------------------------------
 Cartesian Forces:  Max     0.001393944 RMS     0.000401186

 GradGradGradGradGradGradGradGradGradGradGradGradGradGradGradGradGradGrad
 Berny optimization.
 Using GEDIIS/GDIIS optimizer.
 FormGI is forming the generalized inverse of G from B-inverse, IUseBI=4.
 Internal  Forces:  Max     0.002568375 RMS     0.000476908
 Search for a local minimum.
 Step number   3 out of a maximum of   90
 All quantities printed in internal units (Hartrees-Bohrs-Radians)
 Mixed Optimization -- En-DIIS/RFO-DIIS
 Swapping is turned off.
 Update second derivatives using D2CorX and points    1    2    3
 DE= -3.09D-04 DEPred=-1.92D-04 R= 1.61D+00
 TightC=F SS=  1.41D+00  RLast= 1.64D-01 DXNew= 8.4853D-01 4.9185D-01
[...]
   zy         0.354694D+02      0.525602D+01      0.584811D+01
   zz         0.125427D+03      0.185864D+02      0.206801D+02

 ----------------------------------------------------------------------
 Unable to Open any file for archive entry.
 1\1\GINC-GADI-CPU-CLX-0569\Freq\RM062X\Gen\C6H6F1N1O2S1\YJ5695\19-May-
 2022\0\\#N Geom=AllCheck Guess=TCheck SCRF=Check GenChk RM062X/ChkBas 
 Freq\\a3 b1\\0,1\C,-1.2203593352,0.5098599602,-0.8517197984\C,-2.38021
 09995,1.0403818708,-1.4155096396\H,-3.240758252,1.2776964786,-0.797980
 4563\C,-2.4250097438,1.2546148033,-2.789024322\H,-3.3073049009,1.65850
 15038,-3.2737256722\C,-1.3031943783,0.9319182987,-3.5388214936\C,-0.14
 1236883,0.4062183973,-2.9927002493\H,0.7027710937,0.1688185569,-3.6312
 869775\C,-0.0997758668,0.1931863729,-1.6188745161\H,0.7915566301,-0.22
 03115963,-1.1576173398\S,-1.1451330372,0.2897386701,0.9086254773\O,-2.
 512559671,0.1337401757,1.4042469971\O,-0.1505347807,-0.7444035944,1.19
 35154133\N,-0.5678716104,1.6781128694,1.5935418986\H,-1.1875878863,2.4
 714202131,1.4153023943\H,0.3806590794,1.888417492,1.2753878252\F,-1.34
 57624583,1.1370445278,-4.8703295409\\Version=ES64L-G16RevC.01\State=1-
 A\HF=-935.2043874\RMSD=5.371e-09\RMSF=4.948e-06\ZeroPoint=0.120536\The
 rmal=0.1301818\ETot=-935.0742056\HTot=-935.0732614\GTot=-935.1203547\D
 ipole=0.6952393,2.2789628,-1.7041051\DipoleDeriv=-0.3420995,-0.0177094
 ,0.013207,-0.0137019,-0.3954463,0.0911959,-0.0034478,0.0464116,-0.5689
 133,0.0213965,-0.0706298,0.1817705,-0.0285774,-0.0784706,-0.1418501,-0
 .103687,-0.0124306,0.0894807,0.1039921,0.0285229,0.0359701,0.0260755,0
 .1771635,-0.0061678,0.0490787,-0.0126775,0.1180767,-0.1477279,-0.04355
 49,0.247242,-0.0223683,-0.1611603,-0.058147,0.1055017,-0.0142038,-0.40
 4155,0.0890734,0.0554972,-0.0410052,0.0530216,0.1940649,0.039691,-0.03
 75943,0.032381,0.0825373,0.52869,-0.1250593,0.0291636,-0.1268249,0.298
 9749,-0.282361,0.03651,-0.26255,2.0751988,-0.1759575,0.0327505,-0.2592
 115,0.0132185,-0.1988413,0.1277551,-0.124323,0.0653121,-0.3383126,0.09
 70069,0.0394008,0.0571217,0.0427833,0.202756,0.0038956,0.0499208,0.001
 0437,0.0659315,0.0043747,-0.0206057,-0.2184008,-0.0657165,-0.0809109,0
 .0106801,0.0797636,-0.0844896,0.1089756,0.0969319,0.0359576,-0.0258121
 ,0.0386125,0.1707191,0.0159029,-0.0398442,0.0199345,0.1315367,3.072955
 4,-0.057132,0.0377432,-0.0403686,2.9831334,-0.0033823,-0.0321761,-0.19
 14369,3.5279701,-1.6081523,-0.1865947,0.5012594,-0.0659124,-0.8461173,
 0.0546453,0.3295674,0.1041314,-1.2783821,-1.2377241,0.5150369,-0.31890
 51,0.3982659,-1.3306886,0.305863,-0.1634894,0.2125701,-1.1641849,-0.82
 35253,-0.2084466,-0.2317571,-0.2360704,-1.2463414,-0.4750419,-0.116641
 8,-0.1654238,-1.3432336,0.2530996,-0.0946748,-0.0854053,-0.0119203,0.3
 179183,0.0703837,-0.046415,0.0415724,0.4169606,0.362445,0.0728354,0.12
 36925,-0.0065301,0.2385373,-0.011455,0.0706455,-0.0205076,0.3869891,-0
 .2947788,0.044406,-0.0466728,0.0460133,-0.2452908,0.2583925,-0.0533694
 ,0.2403628,-1.9064755\Polar=144.8417524,-19.8876937,100.4432653,-1.038
 7719,-6.8811959,169.3273915\Quadrupole=7.4846769,3.5651647,-11.0498416
 ,-0.6068973,1.9525312,9.7118717\PG=C01 [X(C6H6F1N1O2S1)]\NImag=0\\0.63
 838281,-0.18840630,0.21276926,-0.02918399,-0.03722129,0.53900716,-0.27
 101422,0.09487899,-0.09171894,0.65957574,0.08544532,-0.09943305,0.0467
 3767,-0.18910288,0.22049370,-0.03693235,0.02482924,-0.14377265,-0.0685
 2039,-0.05395812,0.70698892,-0.01455541,0.00486428,0.01370745,-0.24359
 741,0.05867476,0.13428421,0.25255556,0.00845007,0.00134154,-0.00617369
 ,0.05769080,-0.05657260,-0.03497289,-0.06505229,0.04571349,-0.01004794
 ,0.00268587,0.01210425,0.13393692,-0.03502697,-0.15221914,-0.14282411,
 0.03532914,0.15808446,0.03084136,-0.00652611,-0.02507540,-0.12223580,0
 .02944011,-0.04027873,0.00683488,-0.00389364,0.02416204,0.67879503,0.0
 0245782,0.00506317,0.01370963,0.01903302,-0.07773009,0.05704006,-0.000
 25172,0.00630336,-0.00674059,-0.21091874,0.22151335,-0.07931775,0.0353
 0988,-0.02129473,0.02981503,0.02941406,-0.35668775,-0.00285209,0.00367
 902,-0.01226477,0.00930801,-0.08727515,0.71351631,0.00230114,0.0016693
 7,0.00106752,0.00547005,-0.00099899,0.00182408,-0.00017680,-0.00161766
 ,-0.00049136,-0.25597455,0.09832155,-0.10610794,0.26407358,0.00175555,
 0.00627299,0.00144647,0.00258161,0.00223053,0.00112338,-0.00163826,-0.
 00387167,-0.00075673,0.09835810,-0.08090649,0.05153853,-0.10670366,0.0
 7365724,0.00097062,0.00114792,-0.00464713,-0.02490818,0.01108186,-0.00
 833010,-0.00001697,-0.00087126,0.00155538,-0.10694296,0.05195739,-0.11
 481369,0.11370145,-0.05620589,0.11603407,-0.07840226,0.02676049,0.0066
 7951,0.04656273,-0.03040972,0.08162521,0.00182925,0.00268471,-0.001369
 42,-0.28080218,0.07462237,0.04849196,-0.01464051,0.00551536,0.01517050
 ,0.66112773,0.02678324,-0.01577343,-0.00445664,-0.01978184,0.01268505,
 -0.02534464,0.00247187,0.00685433,0.00218453,0.06355806,-0.09069931,-0
 .00477872,0.00931003,0.00250025,-0.00655148,-0.19007900,0.23739371,0.0
 0658042,-0.00471739,0.00450232,0.01865569,-0.00120615,-0.03803512,-0.0
 0093883,0.00189062,-0.00298086,0.12845001,-0.03481579,-0.16627250,-0.0
 1263115,0.00392569,0.01060915,-0.02918539,-0.06129528,0.66216109,0.037
 76471,-0.01292052,0.01788344,-0.02138033,0.01214074,-0.03005229,0.0001
 7218,-0.00056733,-0.00051319,-0.04357155,0.01552485,0.03160723,-0.0017
 4856,0.00223409,0.00328472,-0.28943651,0.09912755,-0.09473226,0.671522
 72,-0.02200481,0.01557185,-0.00029713,0.01185987,-0.01012149,0.0181326
 8,-0.00046897,-0.00107120,0.00007754,0.02283309,0.00291151,-0.02032255
 ,0.00221499,0.00455014,-0.00017801,0.08816523,-0.10774832,0.04717467,-
 0.20042826,0.21472394,0.07254844,-0.02076658,-0.03872560,-0.03366528,0
 .02049329,-0.04906959,-0.00060326,0.00009108,-0.00073904,-0.01821269,-
 0.00116199,0.06855752,0.00350592,-0.00030553,-0.00215836,-0.01520022,0
 .01599620,-0.14062750,-0.06952275,-0.05868861,0.72756843,0.00217277,0.
 00203604,-0.00081250,-0.00015653,-0.00018097,-0.00111426,-0.00006551,-
 0.00022412,0.00007418,-0.00209644,0.00326254,-0.00266883,-0.00062320,0
 .00010472,0.00074641,-0.01454464,0.00532468,0.01640804,-0.23886109,0.0
 5946109,0.13713721,0.24585854,0.00200341,0.00606199,0.00212717,-0.0003
 3788,-0.00095224,0.00040925,-0.00020566,-0.00050924,-0.00012396,0.0032
 3687,0.00383702,0.00191047,0.00029937,-0.00013311,-0.00037488,0.009090
 23,0.00263901,-0.00718439,0.05940823,-0.05436201,-0.03591598,-0.065036
 18,0.04521269,-0.00093759,0.00182875,-0.00430837,-0.00053088,0.0001116
 0,-0.00056519,0.00007002,-0.00012350,0.00007355,-0.00241933,0.00185931
 ,-0.00109634,-0.00061023,0.00014648,0.00053534,-0.01126999,0.00362287,
 0.01037695,0.13803764,-0.03615001,-0.15847152,-0.14718238,0.03759537,0
 .16269224,-0.26081914,0.05906047,0.12199867,-0.05091351,0.02572404,-0.
 01955422,-0.00171640,0.00328343,-0.00251161,-0.01762714,0.00107605,0.0
 3401767,-0.00000679,-0.00036389,0.00036509,0.04021461,-0.01141296,-0.0
 2791146,-0.12269215,0.02847721,-0.03844909,0.00691731,-0.00452288,0.02
 344001,0.66393225,0.06860423,-0.08127749,-0.03149275,0.01779962,0.0018
 5660,-0.00186371,0.00323481,0.00415686,0.00207486,0.00095721,-0.002478
 64,-0.00377752,-0.00053143,-0.00083324,-0.00019496,-0.00081699,-0.0005
 4145,0.01366479,0.01796748,-0.07691938,0.05581253,-0.00098695,0.004665
 63,-0.00692767,-0.20327381,0.23042621,0.06674820,-0.01083128,-0.172168
 58,0.03300571,-0.02209625,0.06573135,-0.00299453,0.00224967,-0.0010785
 0,0.02972664,-0.00323801,-0.06046614,0.00099202,-0.00037591,-0.0008340
 9,-0.09074969,0.03815697,-0.01846063,0.03207474,0.02933470,-0.35699684
 ,-0.00310437,0.00354000,-0.01221442,0.01114772,-0.08243460,0.69269485,
 -0.01443525,0.00850944,-0.00973031,-0.00130613,0.00221368,0.00390777,-
 0.00050399,0.00044447,-0.00060769,0.00027457,-0.00064891,0.00031784,-0
 .00008270,-0.00019704,-0.00012100,0.00201245,0.00225496,0.00129652,0.0
 0536978,-0.00020244,0.00177877,-0.00021984,-0.00169438,-0.00037899,-0.
 25716923,0.09875943,-0.10211353,0.26644737,0.00496898,0.00126395,0.002
 83986,0.00216471,0.00489591,-0.00022905,0.00025500,0.00032341,0.000167
 79,-0.00055543,-0.00102284,-0.00025512,-0.00017897,-0.00052684,-0.0000
 5597,0.00202439,0.00715396,0.00111320,0.00344916,0.00375988,0.00135259
 ,-0.00170490,-0.00381198,-0.00072768,0.09975727,-0.08521938,0.04954527
 ,-0.10921458,0.07660854,0.01384123,-0.00651792,0.01206336,0.00342496,-
 0.00005295,-0.00222675,0.00076761,-0.00036004,0.00065593,0.00024631,-0
 .00019198,-0.00088965,-0.00012339,-0.00005077,0.00010836,0.00180202,0.
 00101984,-0.00346477,-0.02527506,0.01166954,-0.00825888,0.00005386,-0.
 00095289,0.00153936,-0.10182566,0.04943138,-0.10999280,0.10764811,-0.0
 5424171,0.11328908,-0.07121318,0.00684841,-0.00263126,0.00557036,-0.00
 146050,-0.01913460,-0.00302829,0.00014088,-0.00146336,-0.00302336,0.00
 367188,-0.00323289,0.00039678,0.00032630,-0.00091892,-0.00460169,0.001
 73334,-0.00001016,-0.00224719,0.00276077,0.00538384,0.00034051,-0.0002
 1865,0.00104933,0.00837993,-0.00502737,0.01665227,-0.00252276,-0.00009
 763,0.00160652,0.94457767,0.00750680,-0.05671469,0.01415563,-0.0002192
 1,-0.00286603,0.01045886,-0.00055028,-0.00240425,0.00033719,0.00366630
 ,0.00448077,0.00147934,0.00003721,0.00045712,0.00032549,0.00171222,-0.
 00095329,0.00131835,0.00277237,0.00504432,-0.00166805,0.00010840,0.000
 64092,-0.00041021,-0.00618143,0.00028552,-0.00239726,0.00062912,-0.002
 82351,-0.00092493,-0.13594628,0.64442386,-0.00537707,0.00677308,-0.161
 98795,-0.01683117,0.00915241,-0.01945546,0.00107624,-0.00089410,-0.000
 71937,-0.00210464,0.00101863,0.00919350,0.00025240,-0.00037914,0.00131
 388,0.00007798,0.00155922,-0.01084865,0.00423006,-0.00127912,0.0078555
 8,-0.00028009,-0.00013089,0.00118627,0.01398179,-0.00207025,-0.0254185
 9,-0.00107895,-0.00008891,-0.00080471,-0.05937701,-0.04042751,0.503433
 99,-0.01068911,-0.00045481,-0.00344210,-0.00287621,0.00186887,-0.00100
 046,0.00127117,-0.00086253,-0.00031883,0.00121598,-0.00012278,0.001107
 81,-0.00000617,-0.00003033,0.00037575,0.00006621,0.00024151,-0.0019159
 5,-0.00086704,0.00054823,0.00087820,0.00012601,-0.00008906,0.00058390,
 0.00286886,-0.00211093,0.00450738,0.00052291,-0.00033425,-0.00044150,-
 0.47683755,-0.04399225,0.14570761,0.53703356,-0.00510599,0.00829325,0.
 00002625,0.00054505,-0.00016429,-0.00014527,-0.00081331,0.00025457,0.0
 0020620,-0.00061732,-0.00009088,0.00013702,0.00000596,-0.00002112,0.00
 000682,0.00021434,-0.00008783,-0.00010867,-0.00109662,-0.00004322,-0.0
 0016213,-0.00000028,-0.00017731,0.00015771,0.00126908,0.00028506,0.002
 26573,-0.00003760,0.00021245,0.00012402,-0.04674457,-0.07945327,0.0168
 8762,0.06149385,0.06730221,0.03280577,0.00296879,-0.00371643,0.0014732
 3,0.00041700,-0.00110623,0.00125179,0.00003861,-0.00102905,0.00039397,
 -0.00075176,-0.00079157,-0.00005545,0.00009742,-0.00031873,0.00110477,
 -0.00068080,0.00260717,0.00116869,-0.00148873,-0.00282972,-0.00026932,
 0.00000596,-0.00093797,-0.00538724,0.00493274,-0.00485825,0.00020180,0
 .00033846,0.00047901,0.15265912,0.01908332,-0.13507131,-0.16930677,-0.
 02030712,0.12601726,-0.00294610,0.01090316,0.00313543,0.00282933,0.000
 67378,-0.00308733,0.00064553,0.00005782,0.00039235,-0.00070647,-0.0003
 6277,-0.00112667,-0.00000411,-0.00009667,-0.00049033,-0.00014285,-0.00
 019263,0.00179879,0.00073890,-0.00082201,-0.00103678,-0.00003488,0.000
 03694,-0.00032207,-0.00288666,0.00065102,0.00097725,0.00151398,-0.0002
 2358,-0.00003777,-0.28842529,0.22104340,-0.06176755,-0.02399123,0.0289
 9888,-0.00561554,0.30510982,0.01293471,-0.00370434,-0.00428616,-0.0025
 0366,0.00065537,0.00542685,-0.00030589,0.00014931,-0.00016601,0.001450
 29,-0.00067254,0.00035080,-0.00011122,-0.00011505,0.00057133,-0.000251
 66,0.00027551,-0.00144100,-0.00015439,0.00006277,0.00090874,0.00001201
 ,-0.00004445,0.00026662,0.00172654,-0.00014882,-0.00098508,-0.00033765
 ,-0.00019314,0.00005134,0.22301551,-0.30430707,0.06370391,-0.00169875,
 0.00768778,0.00330319,-0.26243425,0.34019931,-0.02219190,0.02214268,0.
 00054074,0.00595482,0.00047299,-0.00518935,0.00002590,0.00036519,0.000
 41924,-0.00211171,-0.00019488,-0.00235999,0.00005347,-0.00010921,-0.00
 086981,-0.00086309,0.00009588,0.00245320,-0.00104232,-0.00014026,-0.00
 046849,0.00006185,0.00004879,-0.00026675,-0.00045782,0.00124335,-0.001
 10861,-0.00134056,0.00093679,-0.00082422,-0.06546028,0.07027873,-0.098
 59186,0.01244346,-0.00614921,0.01482730,0.07085473,-0.07299872,0.08499
 797,0.00799647,-0.00606922,-0.00142718,0.00015426,-0.00015302,0.000163
 60,0.00009280,-0.00021032,0.00012567,0.00022333,0.00032202,0.00038500,
 -0.00005488,-0.00002195,-0.00003663,0.00096033,-0.00049167,0.00069113,
 0.00013003,0.00058372,-0.00123844,-0.00000699,0.00015363,-0.00021561,-
 0.00196966,-0.00006814,-0.00118100,-0.00006865,-0.00021913,-0.00002720
 ,-0.10781952,-0.03435959,-0.02461748,-0.02897012,-0.03855546,-0.010119
 67,0.00573148,0.03247829,0.00637376,0.69664255,-0.00410267,-0.00078631
 ,0.00055613,0.00133767,-0.00134017,-0.00186434,0.00004873,-0.00039596,
 0.00012045,0.00007576,0.00086867,-0.00105229,0.00004614,0.00011950,-0.
 00029624,-0.00032941,-0.00013819,0.00138886,0.00033241,0.00068885,-0.0
 0046857,0.00000740,0.00006195,-0.00022779,-0.00149338,-0.00002602,-0.0
 0104066,-0.00031769,-0.00023422,0.00021525,-0.03710986,-0.17577387,-0.
 07040414,-0.00841580,-0.00330675,-0.00540527,-0.00070933,-0.03737469,-
 0.01337479,-0.05653812,0.57390601,-0.00962517,-0.02149018,-0.00793514,
 0.00312953,-0.00324759,-0.00087477,-0.00036870,-0.00069816,-0.00005976
 ,0.00132090,0.00176803,-0.00170367,0.00000313,0.00019734,-0.00037068,0
 .00001271,-0.00043280,0.00303872,-0.00010574,0.00227686,-0.00142907,0.
 00007043,0.00015490,-0.00036098,-0.00441368,-0.00038102,-0.00006485,-0
 .00019743,-0.00075534,-0.00006001,-0.01318632,-0.03965264,-0.07543387,
 0.01073760,0.00911448,0.00813542,-0.00177769,0.00627869,0.00750452,-0.
 05591346,-0.01385614,0.15365128,-0.00066906,-0.00071542,-0.00021476,0.
 00034272,-0.00014457,-0.00025570,-0.00005303,0.00004977,0.00009804,-0.
 00003641,0.00008177,-0.00003448,0.00000297,0.00001079,-0.00004228,0.00
 004685,-0.00005561,0.00017623,-0.00004160,0.00008108,-0.00010760,0.000
 00232,0.00000977,-0.00003184,-0.00032324,0.00012015,0.00004793,-0.0000
 4050,-0.00003952,0.00001392,0.01172364,-0.00651364,0.00436288,-0.00185
 648,-0.00003410,-0.00013862,0.00190645,-0.00724178,-0.00173652,-0.2001
 9191,0.17001774,-0.03895785,0.20336576,-0.00079817,0.00155757,0.000602
 08,-0.00024481,0.00024509,-0.00010363,-0.00008790,0.00003545,-0.000074
 93,-0.00009734,-0.00009294,-0.00002563,0.00001234,-0.00001273,0.000030
 48,-0.00022724,0.00014399,-0.00032912,0.00005414,-0.00027894,0.0003475
 9,-0.00000505,-0.00003250,0.00005399,0.00059212,0.00020397,-0.00002084
 ,0.00001815,0.00004359,-0.00001217,0.01592196,-0.02489896,0.00659066,0
 .00025328,0.00421305,-0.00088707,-0.00058198,-0.00391290,-0.00212576,0
 .17601906,-0.27966495,0.04381709,-0.18336955,0.29205318,-0.00119698,0.
 00137111,0.00013287,-0.00010592,0.00003504,-0.00024005,-0.00010522,0.0
 0004507,0.00003251,-0.00012153,0.00004474,-0.00012290,0.00001925,0.000
 01074,0.00000055,-0.00024246,0.00010958,-0.00021739,0.00006347,-0.0002
 2317,0.00030924,-0.00000351,-0.00002582,0.00003379,0.00046115,0.000029
 56,0.00001493,0.00003239,0.00005354,0.00004993,0.00645495,-0.02016047,
 -0.00555744,0.00125884,0.00143927,-0.00103830,0.00007312,-0.00424815,0
 .00287333,-0.05969412,0.07903344,-0.02477720,0.04539409,-0.04809144,0.
 02937921,0.00138184,0.00116658,0.00042929,-0.00049578,0.00049051,0.000
 05951,0.00000617,0.00008121,-0.00000684,-0.00018058,-0.00018086,0.0003
 7684,-0.00000691,-0.00003189,0.00006412,0.00020375,-0.00000555,-0.0004
 1636,-0.00003474,-0.00012144,-0.00001212,-0.00000804,-0.00000838,0.000
 05284,0.00051074,-0.00007766,0.00000226,0.00000240,-0.00002074,-0.0001
 1995,-0.01129295,-0.00927570,0.00139690,0.00281094,0.00048587,-0.00004
 825,0.00053702,0.00343043,-0.00052646,-0.37273707,-0.06276067,0.109503
 69,-0.01416014,-0.00749157,0.00768670,0.39344814,0.00118548,-0.0001631
 9,0.00011757,-0.00000668,0.00031270,0.00003404,0.00001307,-0.00000591,
 -0.00000549,-0.00007506,-0.00011438,0.00018371,-0.00000648,-0.00001523
 ,0.00001875,0.00011966,-0.00002513,-0.00014490,0.00004903,-0.00007185,
 -0.00004718,-0.00001039,0.00000437,-0.00000249,-0.00000954,0.00010926,
 -0.00022634,0.00010834,-0.00001890,-0.00001318,-0.02735197,-0.00460686
 ,0.01231705,-0.00585556,-0.00494989,-0.00231301,0.00270494,0.00168355,
 -0.00104099,-0.07296640,-0.07672100,0.01655890,0.02770950,0.01046134,-
 0.00937486,0.07438473,0.07414308,0.00167864,0.00006591,-0.00019747,-0.
 00024875,0.00026618,0.00007865,0.00001832,0.00004635,0.00005264,-0.000
 12178,-0.00012647,0.00028379,-0.00000829,-0.00002004,0.00002574,0.0001
 9605,-0.00006290,-0.00020480,0.00011016,-0.00002311,-0.00014581,-0.000
 00673,0.00002247,-0.00000552,-0.00001634,-0.00001022,-0.00027281,0.000
 12036,-0.00003431,0.00003144,-0.01884213,-0.00974506,-0.00284703,-0.00
 318363,-0.00375647,0.00300593,-0.00009415,0.00155406,-0.00090220,0.147
 73581,0.02840512,-0.05515250,-0.00830842,-0.00028797,-0.00124318,-0.11
 903440,-0.01626065,0.05719803,0.00390263,-0.00160485,-0.00066487,-0.00
 652927,0.00577885,-0.00193406,0.00028930,-0.00045527,0.00136515,0.0080
 6932,-0.00588809,0.03991326,0.00108067,-0.00180282,-0.00120140,-0.0704
 5327,0.01121401,-0.00631526,0.00518243,0.00706265,-0.04318415,0.001199
 69,-0.00212538,0.00066518,-0.00669978,0.00479932,0.00426097,0.00020559
 ,-0.00003078,-0.00155403,0.00002289,-0.00043743,0.00034811,0.00017827,
 -0.00000778,-0.00011829,0.00012508,-0.00000852,-0.00003733,-0.00011244
 ,-0.00008890,-0.00023196,-0.00001836,0.00003255,0.00002579,0.00001521,
 0.00000733,0.00000527,0.06354205,-0.00167766,-0.00034307,0.00160921,0.
 00430562,0.00580501,0.00102728,-0.00018824,-0.00030148,-0.00028887,-0.
 00089215,0.00883027,-0.00651586,-0.00176855,-0.00335229,-0.00041135,0.
 01120500,-0.05367886,0.04076650,0.00210705,0.00330317,0.02418260,-0.00
 216805,-0.00310074,-0.00107333,0.00629168,0.00545530,-0.00144609,-0.00
 028730,-0.00041085,0.00080716,-0.00046223,-0.00053072,-0.00232853,-0.0
 0043868,0.00004620,0.00064827,0.00035330,-0.00024059,0.00054940,0.0000
 9630,0.00011713,0.00034757,0.00003364,-0.00006330,-0.00004817,-0.00006
 486,-0.00002196,-0.00003289,-0.01644488,0.03848678,-0.00036257,0.00242
 141,-0.00959665,0.00713362,-0.00259406,0.00497323,-0.00049782,0.000358
 90,-0.00188749,0.00378090,0.00709883,-0.05278742,-0.00139143,-0.000282
 84,0.00216013,-0.00628046,0.04085816,-0.31463638,-0.00721657,0.0101247
 2,-0.04437036,0.00089000,-0.00110557,0.00178956,-0.00488497,0.00196349
 ,0.00549399,0.00026490,0.00004058,-0.00169468,0.00045088,-0.00205077,0
 .01375302,0.00200870,0.00026376,-0.00337453,-0.00187579,0.00170958,-0.
 00303503,-0.00100419,-0.00172904,-0.00410745,-0.00026502,0.00051667,0.
 00037009,0.00059222,0.00019908,0.00029511,0.00865760,-0.05779289,0.406
 65485\\0.00000717,-0.00000175,-0.00000031,-0.00000752,0.00000367,-0.00
 000628,0.00000231,-0.00000045,0.00000223,-0.00000446,-0.00000293,0.000
 00914,-0.00000046,-0.00000436,-0.00000273,0.00000601,-0.00000591,0.000
 00119,-0.00000352,0.00000054,-0.00000925,-0.00000021,-0.00000397,0.000
 00225,-0.00000625,-0.00000274,0.00001032,0.00000220,0.00000046,-0.0000
 0029,-0.00000382,-0.00000479,-0.00000169,0.00000473,0.00000525,0.00000
 048,0.00000101,0.00000325,0.00000178,-0.00000022,0.00000151,0.00000837
 ,0.00000834,0.00000638,-0.00000691,-0.00000085,0.00001195,-0.00000684,
 -0.00000448,-0.00000612,-0.00000146\\\@
 The archive entry for this job was punched.


 YOU KNOW YOU'RE A TEACHER WHEN YOU SAY 2, WRITE 3, AND MEAN 4.
 -- RONALD ANSTROM, HIGH SCHOOL TEACHER, UNDERWOOD, N.D. 1974
 Job cpu time:       0 days  0 hours 47 minutes 19.1 seconds.
 Elapsed time:       0 days  0 hours  3 minutes 18.4 seconds.
 File lengths (MBytes):  RWF=    145 Int=      0 D2E=      0 Chk=     10 Scr=      1
 Normal termination of Gaussian 16 at Thu May 19 15:09:32 2022.
