 Entering Gaussian System, Link 0=g16
 AtFile(1): //home/561/yj5695//Basis/6-31pGd.gbs
 Initial command:
 /apps/gaussian/g16c01/g16/l1.exe "/jobfs/40645538.gadi-pbs/Gau-134906.inp" -scrdir="/jobfs/40645538.gadi-pbs/"
 Entering Link 1 = /apps/gaussian/g16c01/g16/l1.exe PID=    134907.
  
 Copyright (c) 1988-2019, Gaussian, Inc.  All Rights Reserved.
  
 This is part of the Gaussian(R) 16 program.  It is based on
 the Gaussian(R) 09 system (copyright 2009, Gaussian, Inc.),
 the Gaussian(R) 03 system (copyright 2003, Gaussian, Inc.),
 the Gaussian(R) 98 system (copyright 1998, Gaussian, Inc.),
 the Gaussian(R) 94 system (copyright 1995, Gaussian, Inc.),
 the Gaussian 92(TM) system (copyright 1992, Gaussian, Inc.),
 the Gaussian 90(TM) system (copyright 1990, Gaussian, Inc.),
 the Gaussian 88(TM) system (copyright 1988, Gaussian, Inc.),
 the Gaussian 86(TM) system (copyright 1986, Carnegie Mellon
 University), and the Gaussian 82(TM) system (copyright 1983,
 Carnegie Mellon University). Gaussian is a federally registered
 trademark of Gaussian, Inc.
  
 This software contains proprietary and confidential information,
 including trade secrets, belonging to Gaussian, Inc.
  
 This software is provided under written license and may be
 used, copied, transmitted, or stored only in accord with that
 written license.
  
 The following legend is applicable only to US Government
 contracts under FAR:
  
                    RESTRICTED RIGHTS LEGEND
  
 Use, reproduction and disclosure by the US Government is
 subject to restrictions as set forth in subparagraphs (a)
 and (c) of the Commercial Computer Software - Restricted
 Rights clause in FAR 52.227-19.
  
 Gaussian, Inc.
 340 Quinnipiac St., Bldg. 40, Wallingford CT 06492
  
  
 ---------------------------------------------------------------
 Warning -- This program may not be used in any manner that
 competes with the business of Gaussian, Inc. or will provide
 assistance to any competitor of Gaussian, Inc.  The licensee
 of this program is prohibited from giving any competitor of
 Gaussian, Inc. access to this program.  By using this program,
 the user acknowledges that Gaussian, Inc. is engaged in the
 business of creating and licensing software in the field of
 computational chemistry and represents and warrants to the
 licensee that it is not a competitor of Gaussian, Inc. and that
 it will not use this program in any manner prohibited above.
 ---------------------------------------------------------------
  

 Cite this work as:
 Gaussian 16, Revision C.01,
 M. J. Frisch, G. W. Trucks, H. B. Schlegel, G. E. Scuseria, 
 M. A. Robb, J. R. Cheeseman, G. Scalmani, V. Barone, 
 G. A. Petersson, H. Nakatsuji, X. Li, M. Caricato, A. V. Marenich, 
 J. Bloino, B. G. Janesko, R. Gomperts, B. Mennucci, H. P. Hratchian, 
 J. V. Ortiz, A. F. Izmaylov, J. L. Sonnenberg, D. Williams-Young, 
 F. Ding, F. Lipparini, F. Egidi, J. Goings, B. Peng, A. Petrone, 
 T. Henderson, D. Ranasinghe, V. G. Zakrzewski, J. Gao, N. Rega, 
 G. Zheng, W. Liang, M. Hada, M. Ehara, K. Toyota, R. Fukuda, 
 J. Hasegawa, M. Ishida, T. Nakajima, Y. Honda, O. Kitao, H. Nakai, 
 T. Vreven, K. Throssell, J. A. Montgomery, Jr., J. E. Peralta, 
 F. Ogliaro, M. J. Bearpark, J. J. Heyd, E. N. Brothers, K. N. Kudin, 
 V. N. Staroverov, T. A. Keith, R. Kobayashi, J. Normand, 
 K. Raghavachari, A. P. Rendell, J. C. Burant, S. S. Iyengar, 
 J. Tomasi, M. Cossi, J. M. Millam, M. Klene, C. Adamo, R. Cammi, 
 J. W. Ochterski, R. L. Martin, K. Morokuma, O. Farkas, 
 J. B. Foresman, and D. J. Fox, Gaussian, Inc., Wallingford CT, 2019.
 
 ******************************************
 Gaussian 16:  ES64L-G16RevC.01  3-Jul-2019
                19-May-2022 
 ******************************************
 %nproc=16
 Will use up to   16 processors via shared memory.
 %mem=20gb
 -----------------------------------------------------
 #m062X/gen 6D OPT Freq=noraman SCRF=(SMD,Solvent=h2o)
 -----------------------------------------------------
 1/18=20,19=15,26=3,38=1/1,3;
 2/9=110,12=2,17=6,18=5,40=1/2;
 3/5=7,8=2,11=2,25=1,30=1,70=32201,71=1,72=1,74=-55/1,2,3;
 4//1;
 5/5=2,38=5,53=1/2;
 6/7=2,8=2,9=2,10=2,28=1/1;
 7//1,2,3,16;
 1/18=20,19=15,26=3/3(2);
 2/9=110/2;
 99//99;
 2/9=110/2;
 3/5=7,6=1,8=2,11=2,25=1,30=1,70=32205,71=1,72=1,74=-55,82=7/1,2,3;
 4/5=5,16=3,69=1/1;
 5/5=2,38=5,53=1/2;
 7//1,2,3,16;
 1/18=20,19=15,26=3/3(-5);
 2/9=110/2;
 6/7=2,8=2,9=2,10=2,19=2,28=1/1;
 99/9=1/99;
 -----
 a1 b1
 -----
 Symbolic Z-matrix:
 Charge =  0 Multiplicity = 1
 C                    -1.52175   0.6461   -0.82242 
 C                    -2.63793   0.93493  -1.6094 
 F                    -3.83563   1.10506  -1.03651 
 C                    -2.55005   1.06261  -2.98678 
 H                    -3.44747   1.28992  -3.55171 
 C                    -1.31311   0.8978   -3.60234 
 C                    -0.17004   0.60932  -2.85686 
 H                     0.80372   0.47636  -3.31502 
 C                    -0.30354   0.49297  -1.48915 
 F                     0.78189   0.20797  -0.7458 
 S                    -1.54469   0.48552   0.95467 
 O                    -0.59471   1.457     1.48701 
 O                    -2.93107   0.51507   1.39868 
 N                    -0.95888  -1.00015   1.33452 
 H                     0.0238   -1.1156    1.08057 
 H                    -1.23609   0.99591  -4.67997 
 H                    -1.53598  -1.75636   0.96047 
 

 GradGradGradGradGradGradGradGradGradGradGradGradGradGradGradGradGradGrad
 Berny optimization.
 Initialization pass.
                           ----------------------------
                           !    Initial Parameters    !
                           ! (Angstroms and Degrees)  !
 --------------------------                            --------------------------
 ! Name  Definition              Value          Derivative Info.                !
 --------------------------------------------------------------------------------
 ! R1    R(1,2)                  1.3959         estimate D2E/DX2                !
 ! R2    R(1,9)                  1.3971         estimate D2E/DX2                !
 ! R3    R(1,11)                 1.7845         estimate D2E/DX2                !
 ! R4    R(2,3)                  1.3385         estimate D2E/DX2                !
 ! R5    R(2,4)                  1.3861         estimate D2E/DX2                !
 ! R6    R(4,5)                  1.0845         estimate D2E/DX2                !
 ! R7    R(4,6)                  1.3914         estimate D2E/DX2                !
 ! R8    R(6,7)                  1.3948         estimate D2E/DX2                !
 ! R9    R(6,16)                 1.0848         estimate D2E/DX2                !
 ! R10   R(7,8)                  1.0843         estimate D2E/DX2                !
 ! R11   R(7,9)                  1.3791         estimate D2E/DX2                !
 ! R12   R(9,10)                 1.3461         estimate D2E/DX2                !
 ! R13   R(11,12)                1.4593         estimate D2E/DX2                !
 ! R14   R(11,13)                1.456          estimate D2E/DX2                !
 ! R15   R(11,14)                1.6415         estimate D2E/DX2                !
 ! R16   R(14,15)                1.0215         estimate D2E/DX2                !
 ! R17   R(14,17)                1.0222         estimate D2E/DX2                !
 ! A1    A(2,1,9)              116.7974         estimate D2E/DX2                !
 ! A2    A(2,1,11)             124.7345         estimate D2E/DX2                !
 ! A3    A(9,1,11)             118.4619         estimate D2E/DX2                !
 ! A4    A(1,2,3)              120.032          estimate D2E/DX2                !
 ! A5    A(1,2,4)              121.9106         estimate D2E/DX2                !
 ! A6    A(3,2,4)              118.0562         estimate D2E/DX2                !
 ! A7    A(2,4,5)              118.9787         estimate D2E/DX2                !
 ! A8    A(2,4,6)              119.0172         estimate D2E/DX2                !
 ! A9    A(5,4,6)              122.0039         estimate D2E/DX2                !
 ! A10   A(4,6,7)              121.1018         estimate D2E/DX2                !
 ! A11   A(4,6,16)             119.4636         estimate D2E/DX2                !
 ! A12   A(7,6,16)             119.4346         estimate D2E/DX2                !
 ! A13   A(6,7,8)              122.3751         estimate D2E/DX2                !
 ! A14   A(6,7,9)              117.9143         estimate D2E/DX2                !
 ! A15   A(8,7,9)              119.7106         estimate D2E/DX2                !
 ! A16   A(1,9,7)              123.2584         estimate D2E/DX2                !
 ! A17   A(1,9,10)             117.5661         estimate D2E/DX2                !
 ! A18   A(7,9,10)             119.1736         estimate D2E/DX2                !
 ! A19   A(1,11,12)            107.1578         estimate D2E/DX2                !
 ! A20   A(1,11,13)            108.3059         estimate D2E/DX2                !
 ! A21   A(1,11,14)            107.8966         estimate D2E/DX2                !
 ! A22   A(12,11,13)           119.6748         estimate D2E/DX2                !
 ! A23   A(12,11,14)           106.6052         estimate D2E/DX2                !
 ! A24   A(13,11,14)           106.7138         estimate D2E/DX2                !
 ! A25   A(11,14,15)           112.8333         estimate D2E/DX2                !
 ! A26   A(11,14,17)           112.5451         estimate D2E/DX2                !
 ! A27   A(15,14,17)           111.6254         estimate D2E/DX2                !
 ! D1    D(9,1,2,3)           -179.4776         estimate D2E/DX2                !
 ! D2    D(9,1,2,4)              0.1196         estimate D2E/DX2                !
 ! D3    D(11,1,2,3)            -0.3956         estimate D2E/DX2                !
 ! D4    D(11,1,2,4)           179.2017         estimate D2E/DX2                !
 ! D5    D(2,1,9,7)             -0.2154         estimate D2E/DX2                !
 ! D6    D(2,1,9,10)          -179.6962         estimate D2E/DX2                !
 ! D7    D(11,1,9,7)          -179.3573         estimate D2E/DX2                !
 ! D8    D(11,1,9,10)            1.1619         estimate D2E/DX2                !
 ! D9    D(2,1,11,12)         -122.3654         estimate D2E/DX2                !
 ! D10   D(2,1,11,13)            8.0178         estimate D2E/DX2                !
 ! D11   D(2,1,11,14)          123.1785         estimate D2E/DX2                !
 ! D12   D(9,1,11,12)           56.7025         estimate D2E/DX2                !
 ! D13   D(9,1,11,13)         -172.9142         estimate D2E/DX2                !
 ! D14   D(9,1,11,14)          -57.7535         estimate D2E/DX2                !
 ! D15   D(1,2,4,5)           -179.8713         estimate D2E/DX2                !
 ! D16   D(1,2,4,6)              0.0093         estimate D2E/DX2                !
 ! D17   D(3,2,4,5)             -0.2664         estimate D2E/DX2                !
 ! D18   D(3,2,4,6)            179.6142         estimate D2E/DX2                !
 ! D19   D(2,4,6,7)             -0.0556         estimate D2E/DX2                !
 ! D20   D(2,4,6,16)           179.9849         estimate D2E/DX2                !
 ! D21   D(5,4,6,7)            179.8212         estimate D2E/DX2                !
 ! D22   D(5,4,6,16)            -0.1383         estimate D2E/DX2                !
 ! D23   D(4,6,7,8)            179.9706         estimate D2E/DX2                !
 ! D24   D(4,6,7,9)             -0.0321         estimate D2E/DX2                !
 ! D25   D(16,6,7,8)            -0.0699         estimate D2E/DX2                !
 ! D26   D(16,6,7,9)           179.9274         estimate D2E/DX2                !
 ! D27   D(6,7,9,1)              0.1736         estimate D2E/DX2                !
 ! D28   D(6,7,9,10)           179.6465         estimate D2E/DX2                !
 ! D29   D(8,7,9,1)           -179.8291         estimate D2E/DX2                !
 ! D30   D(8,7,9,10)            -0.3561         estimate D2E/DX2                !
 ! D31   D(1,11,14,15)          65.1178         estimate D2E/DX2                !
 ! D32   D(1,11,14,17)         -62.3092         estimate D2E/DX2                !
 ! D33   D(12,11,14,15)        -49.7039         estimate D2E/DX2                !
 ! D34   D(12,11,14,17)       -177.1309         estimate D2E/DX2                !
 ! D35   D(13,11,14,15)       -178.677          estimate D2E/DX2                !
 ! D36   D(13,11,14,17)         53.896          estimate D2E/DX2                !
 --------------------------------------------------------------------------------
 Trust Radius=3.00D-01 FncErr=1.00D-07 GrdErr=1.00D-06 EigMax=2.50D+02 EigMin=1.00D-04
 Number of steps in this run=     90 maximum allowed number of steps=    102.
 GradGradGradGradGradGradGradGradGradGradGradGradGradGradGradGradGradGrad

                          Input orientation:                          
 ---------------------------------------------------------------------
 Center     Atomic      Atomic             Coordinates (Angstroms)
 Number     Number       Type             X           Y           Z
 ---------------------------------------------------------------------
      1          6           0       -1.521749    0.646102   -0.822422
      2          6           0       -2.637926    0.934928   -1.609398
      3          9           0       -3.835632    1.105058   -1.036512
      4          6           0       -2.550047    1.062607   -2.986776
      5          1           0       -3.447466    1.289919   -3.551712
      6          6           0       -1.313113    0.897802   -3.602341
      7          6           0       -0.170037    0.609318   -2.856856
      8          1           0        0.803719    0.476359   -3.315023
      9          6           0       -0.303541    0.492974   -1.489145
     10          9           0        0.781892    0.207969   -0.745802
     11         16           0       -1.544685    0.485520    0.954667
     12          8           0       -0.594707    1.457000    1.487009
     13          8           0       -2.931070    0.515072    1.398677
     14          7           0       -0.958883   -1.000150    1.334524
     15          1           0        0.023798   -1.115596    1.080571
     16          1           0       -1.236087    0.995908   -4.679973
     17          1           0       -1.535975   -1.756360    0.960473
 ---------------------------------------------------------------------
                    Distance matrix (angstroms):
                    1          2          3          4          5
     1  C    0.000000
     2  C    1.395924   0.000000
     3  F    2.368656   1.338522   0.000000
     4  C    2.432139   1.386072   2.336249   0.000000
     5  H    3.401751   2.134000   2.551681   1.084520   0.000000
     6  C    2.799077   2.393393   3.604100   1.391433   2.170664
     7  C    2.442826   2.784358   4.122620   2.426272   3.418711
     8  H    3.413162   3.868380   5.206770   3.420406   4.334798
     9  C    1.397139   2.378894   3.613197   2.759378   3.843640
    10  F    2.346187   3.601308   4.712834   4.105385   5.189529
    11  S    1.784477   2.823397   3.097912   4.108376   4.957326
    12  O    2.617333   3.746337   4.122574   4.898332   5.792656
    13  O    2.633749   3.051349   2.663918   4.435896   5.037202
    14  N    2.771169   3.902613   4.281285   5.045830   5.942454
    15  H    3.018887   4.304109   4.930370   5.283234   6.268510
    16  H    3.883898   3.375989   4.477092   2.144261   2.499922
    17  H    2.991779   3.880923   4.179005   4.955370   5.770046
                    6          7          8          9         10
     6  C    0.000000
     7  C    1.394845   0.000000
     8  H    2.177417   1.084341   0.000000
     9  C    2.376703   1.379127   2.135446   0.000000
    10  F    3.608979   2.350276   2.583294   1.346087   0.000000
    11  S    4.581476   4.053726   4.872919   2.740933   2.895098
    12  O    5.170135   4.446130   5.096740   3.141913   2.905262
    13  O    5.270147   5.073632   6.014076   3.904345   4.298743
    14  N    5.300975   4.558545   5.187016   3.260675   2.969445
    15  H    5.269798   4.303049   4.739604   3.049277   2.379531
    16  H    1.084826   2.147014   2.508750   3.362137   4.491190
    17  H    5.283324   4.694062   5.360883   3.546692   3.484605
                   11         12         13         14         15
    11  S    0.000000
    12  O    1.459322   0.000000
    13  O    1.456050   2.520639   0.000000
    14  N    1.641545   2.488667   2.487878   0.000000
    15  H    2.244897   2.676937   3.389914   1.021510   0.000000
    16  H    5.666118   6.217366   6.328835   6.343127   6.263356
    17  H    2.241904   3.389529   2.701429   1.022156   1.690531
                   16         17
    16  H    0.000000
    17  H    6.283275   0.000000
 Stoichiometry    C6H5F2NO2S
 Framework group  C1[X(C6H5F2NO2S)]
 Deg. of freedom    45
 Full point group                 C1      NOp   1
 Largest Abelian subgroup         C1      NOp   1
 Largest concise Abelian subgroup C1      NOp   1
                         Standard orientation:                         
 ---------------------------------------------------------------------
 Center     Atomic      Atomic             Coordinates (Angstroms)
 Number     Number       Type             X           Y           Z
 ---------------------------------------------------------------------
      1          6           0       -0.239392    0.058657   -0.030393
      2          6           0       -1.085815    1.168103    0.005685
      3          9           0       -0.571408    2.403788   -0.004771
      4          6           0       -2.465071    1.036430    0.044552
      5          1           0       -3.077794    1.930931    0.069476
      6          6           0       -3.021507   -0.238895    0.047876
      7          6           0       -2.215554   -1.376755    0.011722
      8          1           0       -2.626990   -2.380006    0.014018
      9          6           0       -0.848552   -1.198688   -0.028151
     10          9           0       -0.046613   -2.279452   -0.056346
     11         16           0        1.541768    0.140581   -0.101933
     12          8           0        1.958295   -0.583167   -1.298726
     13          8           0        1.943311    1.528632    0.077393
     14          7           0        2.137009   -0.692593    1.181103
     15          1           0        1.925582   -1.691052    1.137975
     16          1           0       -4.100159   -0.350363    0.078435
     17          1           0        1.856697   -0.286504    2.076267
 ---------------------------------------------------------------------
 Rotational constants (GHZ):           1.2834527           0.8073729           0.5526157
 General basis read from cards:  (6D, 7F)
 There are   242 symmetry adapted cartesian basis functions of A   symmetry.
 There are   242 symmetry adapted basis functions of A   symmetry.
   242 basis functions,   428 primitive gaussians,   242 cartesian basis functions
    49 alpha electrons       49 beta electrons
       nuclear repulsion energy       874.7230034564 Hartrees.
 NAtoms=   17 NActive=   17 NUniq=   17 SFac= 1.00D+00 NAtFMM=   60 NAOKFM=F Big=F
 Integral buffers will be    131072 words long.
 Raffenetti 2 integral format.
 Two-electron integral symmetry is turned on.
 ------------------------------------------------------------------------------
 Polarizable Continuum Model (PCM)
 =================================
 Model                : PCM.
 Atomic radii         : SMD-Coulomb.
 Polarization charges : Total charges.
 Charge compensation  : None.
 Solution method      : On-the-fly selection.
 Cavity type          : VdW (van der Waals Surface) (Alpha=1.000).
 Cavity algorithm     : GePol (No added spheres)
                        Default sphere list used, NSphG=   17.
                        Lebedev-Laikov grids with approx.  5.0 points / Ang**2.
                        Smoothing algorithm: York/Karplus (Gamma=1.0000).
                        Polarization charges: spherical gaussians, with
                                              point-specific exponents (IZeta= 3).
                        Self-potential: point-specific (ISelfS= 7).
                        Self-field    : sphere-specific E.n sum rule (ISelfD= 2).
 1st derivatives      : Analytical E(r).r(x)/FMM algorithm (CHGder, D1EAlg=3).
                        Cavity 1st derivative terms included.
 Solvent              : Water, Eps=  78.355300 Eps(inf)=   1.777849
 ------------------------------------------------------------------------------
 Spheres list:
 ISph  on   Nord     Re0    Alpha      Xe            Ye            Ze
    1   C      1    1.8500  1.000     -0.239392      0.058657     -0.030393
    2   C      2    1.8500  1.000     -1.085815      1.168103      0.005685
    3   F      3    1.7300  1.000     -0.571408      2.403788     -0.004771
    4   C      4    1.8500  1.000     -2.465071      1.036430      0.044552
    5   H      5    1.2000  1.000     -3.077794      1.930931      0.069476
    6   C      6    1.8500  1.000     -3.021507     -0.238895      0.047876
    7   C      7    1.8500  1.000     -2.215554     -1.376755      0.011722
    8   H      8    1.2000  1.000     -2.626990     -2.380006      0.014018
    9   C      9    1.8500  1.000     -0.848552     -1.198688     -0.028151
   10   F     10    1.7300  1.000     -0.046613     -2.279452     -0.056346
   11   S     11    2.4900  1.000      1.541768      0.140581     -0.101933
   12   O     12    1.5200  1.000      1.958295     -0.583167     -1.298726
   13   O     13    1.5200  1.000      1.943311      1.528632      0.077393
   14   N     14    1.8900  1.000      2.137009     -0.692593      1.181103
   15   H     15    1.2000  1.000      1.925582     -1.691052      1.137975
   16   H     16    1.2000  1.000     -4.100159     -0.350363      0.078435
   17   H     17    1.2000  1.000      1.856697     -0.286504      2.076267
 ------------------------------------------------------------------------------
 ------------------------------------------------------------------------------
 Atomic radii for non-electrostatic terms: SMD-CDS.
 ------------------------------------------------------------------------------
 Nuclear repulsion after PCM non-electrostatic terms =      874.7301659317 Hartrees.
 One-electron integrals computed using PRISM.
 NBasis=   242 RedAO= T EigKep=  2.44D-06  NBF=   242
 NBsUse=   242 1.00D-06 EigRej= -1.00D+00 NBFU=   242
 ExpMin= 4.05D-02 ExpMax= 2.19D+04 ExpMxC= 3.30D+03 IAcc=3 IRadAn=         5 AccDes= 0.00D+00
 Harris functional with IExCor= 1009 and IRadAn=       5 diagonalized for initial guess.
 HarFok:  IExCor= 1009 AccDes= 0.00D+00 IRadAn=         5 IDoV= 1 UseB2=F ITyADJ=14
 ICtDFT=  3500011 ScaDFX=  1.000000  1.000000  1.000000  1.000000
 FoFCou: FMM=F IPFlag=           0 FMFlag=      100000 FMFlg1=           0
         NFxFlg=           0 DoJE=T BraDBF=F KetDBF=T FulRan=T
         wScrn=  0.000000 ICntrl=       500 IOpCl=  0 I1Cent=   200000004 NGrid=           0
         NMat0=    1 NMatS0=      1 NMatT0=    0 NMatD0=    1 NMtDS0=    0 NMtDT0=    0
 Petite list used in FoFCou.
 Requested convergence on RMS density matrix=1.00D-08 within 128 cycles.
 Requested convergence on MAX density matrix=1.00D-06.
 Requested convergence on             energy=1.00D-06.
 No special actions if energy rises.
 Inv3:  Mode=1 IEnd=     6015168.
 Iteration    1 A*A^-1 deviation from unit magnitude is 6.11D-15 for   1414.
 Iteration    1 A*A^-1 deviation from orthogonality  is 2.10D-15 for   1289    264.
 Iteration    1 A^-1*A deviation from unit magnitude is 6.11D-15 for   1414.
 Iteration    1 A^-1*A deviation from orthogonality  is 1.17D-15 for    225    219.
 Error on total polarization charges =  0.03365
 SCF Done:  E(RM062X) =  -1034.40207963     A.U. after   15 cycles
            NFock= 15  Conv=0.32D-08     -V/T= 2.0063
 SMD-CDS (non-electrostatic) energy       (kcal/mol) =       4.49
 (included in total energy above)

 **********************************************************************

            Population analysis using the SCF Density.

 **********************************************************************

 Orbital symmetries:
       Occupied  (A) (A) (A) (A) (A) (A) (A) (A) (A) (A) (A) (A)
                 (A) (A) (A) (A) (A) (A) (A) (A) (A) (A) (A) (A)
                 (A) (A) (A) (A) (A) (A) (A) (A) (A) (A) (A) (A)
                 (A) (A) (A) (A) (A) (A) (A) (A) (A) (A) (A) (A)
                 (A)
       Virtual   (A) (A) (A) (A) (A) (A) (A) (A) (A) (A) (A) (A)
                 (A) (A) (A) (A) (A) (A) (A) (A) (A) (A) (A) (A)
                 (A) (A) (A) (A) (A) (A) (A) (A) (A) (A) (A) (A)
                 (A) (A) (A) (A) (A) (A) (A) (A) (A) (A) (A) (A)
                 (A) (A) (A) (A) (A) (A) (A) (A) (A) (A) (A) (A)
                 (A) (A) (A) (A) (A) (A) (A) (A) (A) (A) (A) (A)
                 (A) (A) (A) (A) (A) (A) (A) (A) (A) (A) (A) (A)
                 (A) (A) (A) (A) (A) (A) (A) (A) (A) (A) (A) (A)
                 (A) (A) (A) (A) (A) (A) (A) (A) (A) (A) (A) (A)
                 (A) (A) (A) (A) (A) (A) (A) (A) (A) (A) (A) (A)
                 (A) (A) (A) (A) (A) (A) (A) (A) (A) (A) (A) (A)
                 (A) (A) (A) (A) (A) (A) (A) (A) (A) (A) (A) (A)
                 (A) (A) (A) (A) (A) (A) (A) (A) (A) (A) (A) (A)
                 (A) (A) (A) (A) (A) (A) (A) (A) (A) (A) (A) (A)
                 (A) (A) (A) (A) (A) (A) (A) (A) (A) (A) (A) (A)
                 (A) (A) (A) (A) (A) (A) (A) (A) (A) (A) (A) (A)
                 (A)
 The electronic state is 1-A.
 Alpha  occ. eigenvalues --  -90.19551 -25.30892 -25.30208 -19.66777 -19.66698
 Alpha  occ. eigenvalues --  -14.80753 -10.67855 -10.67713 -10.61535 -10.58640
 Alpha  occ. eigenvalues --  -10.57655 -10.57563  -8.50390  -6.42586  -6.42578
 Alpha  occ. eigenvalues --   -6.42503  -1.40456  -1.39974  -1.27005  -1.15426
 Alpha  occ. eigenvalues --   -1.03918  -1.00411  -0.89955  -0.87760  -0.78491
 Alpha  occ. eigenvalues --   -0.74368  -0.72756  -0.67531  -0.64732  -0.64075
 Alpha  occ. eigenvalues --   -0.61893  -0.60320  -0.59693  -0.58805  -0.58563
 Alpha  occ. eigenvalues --   -0.55978  -0.55298  -0.54968  -0.48970  -0.46823
 Alpha  occ. eigenvalues --   -0.46531  -0.45748  -0.44299  -0.42747  -0.41015
 Alpha  occ. eigenvalues --   -0.40689  -0.39230  -0.33702  -0.32322
 Alpha virt. eigenvalues --   -0.02175   0.00896   0.01047   0.03258   0.03350
 Alpha virt. eigenvalues --    0.03702   0.03929   0.05179   0.06178   0.07437
 Alpha virt. eigenvalues --    0.07866   0.08041   0.08307   0.08811   0.09612
 Alpha virt. eigenvalues --    0.10653   0.11413   0.11866   0.12935   0.13245
 Alpha virt. eigenvalues --    0.14176   0.14938   0.15276   0.15731   0.16725
 Alpha virt. eigenvalues --    0.17096   0.18037   0.18335   0.18729   0.19682
 Alpha virt. eigenvalues --    0.20382   0.21081   0.21328   0.21953   0.22506
 Alpha virt. eigenvalues --    0.23313   0.23854   0.24676   0.24891   0.25734
 Alpha virt. eigenvalues --    0.26209   0.26777   0.27806   0.28821   0.29596
 Alpha virt. eigenvalues --    0.30210   0.31494   0.31672   0.32030   0.32412
 Alpha virt. eigenvalues --    0.33009   0.34120   0.36299   0.36822   0.37540
 Alpha virt. eigenvalues --    0.38185   0.39780   0.39903   0.41431   0.43347
 Alpha virt. eigenvalues --    0.44589   0.44932   0.46151   0.46765   0.48753
 Alpha virt. eigenvalues --    0.50064   0.54886   0.59370   0.61818   0.65800
 Alpha virt. eigenvalues --    0.67358   0.68725   0.69657   0.70613   0.73030
 Alpha virt. eigenvalues --    0.73191   0.74795   0.76039   0.77402   0.79148
 Alpha virt. eigenvalues --    0.79309   0.81181   0.86622   0.89186   0.92828
 Alpha virt. eigenvalues --    0.93580   0.96334   0.97834   0.98712   1.00353
 Alpha virt. eigenvalues --    1.02994   1.05088   1.06734   1.07981   1.08784
 Alpha virt. eigenvalues --    1.12159   1.12615   1.13760   1.14274   1.15666
 Alpha virt. eigenvalues --    1.17582   1.22240   1.24100   1.25843   1.27828
 Alpha virt. eigenvalues --    1.29170   1.31504   1.32448   1.34629   1.36413
 Alpha virt. eigenvalues --    1.37736   1.38099   1.38411   1.39657   1.40988
 Alpha virt. eigenvalues --    1.43235   1.46068   1.49241   1.49848   1.50021
 Alpha virt. eigenvalues --    1.53609   1.63971   1.65576   1.69837   1.70621
 Alpha virt. eigenvalues --    1.71521   1.75550   1.76004   1.78450   1.79237
 Alpha virt. eigenvalues --    1.80126   1.81209   1.83550   1.84275   1.85793
 Alpha virt. eigenvalues --    1.86948   1.88528   1.89473   1.91508   1.93829
 Alpha virt. eigenvalues --    1.95292   1.97319   1.98860   2.00851   2.01170
 Alpha virt. eigenvalues --    2.01672   2.02723   2.05722   2.06919   2.08941
 Alpha virt. eigenvalues --    2.15120   2.16008   2.18133   2.19284   2.21097
 Alpha virt. eigenvalues --    2.22418   2.28518   2.29621   2.31182   2.34027
 Alpha virt. eigenvalues --    2.35992   2.39397   2.43072   2.47637   2.49453
 Alpha virt. eigenvalues --    2.50496   2.59736   2.60421   2.63041   2.65255
 Alpha virt. eigenvalues --    2.69064   2.70693   2.82770   2.84071   2.89269
 Alpha virt. eigenvalues --    2.96044   3.04382   3.19191   3.23020   3.32143
 Alpha virt. eigenvalues --    3.43772   3.89578   4.05054   4.20602   4.25733
 Alpha virt. eigenvalues --    4.26628   4.30638   4.34262   4.43849   4.47565
 Alpha virt. eigenvalues --    4.77165   6.18153   6.34695
          Condensed to atoms (all electrons):
               1          2          3          4          5          6
     1  C   21.078295  -5.439957  -0.037420  -1.461014   0.051388  -1.680367
     2  C   -5.439957  20.117968   0.240253  -0.897260  -0.093650   0.622939
     3  F   -0.037420   0.240253   9.363330  -0.135049  -0.004220  -0.034927
     4  C   -1.461014  -0.897260  -0.135049   8.491427   0.370423   0.271960
     5  H    0.051388  -0.093650  -0.004220   0.370423   0.405474  -0.011454
     6  C   -1.680367   0.622939  -0.034927   0.271960  -0.011454   5.827369
     7  C    0.064597  -1.887128  -0.004317   0.974753   0.018311   0.061135
     8  H    0.049459  -0.001638   0.000023   0.005701  -0.000077  -0.016950
     9  C   -4.948446  -7.071082  -0.027724  -1.661688  -0.020559   0.821339
    10  F   -0.009347   0.044118  -0.000784  -0.005084   0.000035  -0.014835
    11  S   -0.638493   0.295664  -0.027817  -0.053883  -0.000219   0.079298
    12  O   -0.038494   0.169840  -0.002429   0.009840   0.000016   0.013805
    13  O   -0.250657  -0.303615  -0.009020   0.109880   0.000155  -0.000526
    14  N   -0.114483   0.220223  -0.003491   0.020024   0.000054  -0.002426
    15  H   -0.063220  -0.031659   0.000006   0.002601  -0.000000  -0.000063
    16  H   -0.023925   0.021768  -0.000404  -0.027362  -0.002583   0.348064
    17  H   -0.016893  -0.030350   0.000185  -0.005838   0.000000   0.001449
               7          8          9         10         11         12
     1  C    0.064597   0.049459  -4.948446  -0.009347  -0.638493  -0.038494
     2  C   -1.887128  -0.001638  -7.071082   0.044118   0.295664   0.169840
     3  F   -0.004317   0.000023  -0.027724  -0.000784  -0.027817  -0.002429
     4  C    0.974753   0.005701  -1.661688  -0.005084  -0.053883   0.009840
     5  H    0.018311  -0.000077  -0.020559   0.000035  -0.000219   0.000016
     6  C    0.061135  -0.016950   0.821339  -0.014835   0.079298   0.013805
     7  C   10.546267   0.332930  -3.903168  -0.057418  -0.068623  -0.124423
     8  H    0.332930   0.403303  -0.057140  -0.004184   0.001158   0.000020
     9  C   -3.903168  -0.057140  22.269439   0.020726   0.207280  -0.143055
    10  F   -0.057418  -0.004184   0.020726   9.367941  -0.001079  -0.018836
    11  S   -0.068623   0.001158   0.207280  -0.001079  14.219161   0.345300
    12  O   -0.124423   0.000020  -0.143055  -0.018836   0.345300   8.673755
    13  O    0.088670   0.000023   0.249223   0.000484   0.186391  -0.146402
    14  N   -0.059952  -0.000015  -0.299521   0.016011   0.004455  -0.144438
    15  H    0.039003   0.000000   0.047176   0.002982   0.018089  -0.003690
    16  H   -0.029317  -0.002545   0.029621  -0.000403  -0.000212   0.000000
    17  H   -0.011025   0.000000   0.043591  -0.001392   0.042833   0.007335
              13         14         15         16         17
     1  C   -0.250657  -0.114483  -0.063220  -0.023925  -0.016893
     2  C   -0.303615   0.220223  -0.031659   0.021768  -0.030350
     3  F   -0.009020  -0.003491   0.000006  -0.000404   0.000185
     4  C    0.109880   0.020024   0.002601  -0.027362  -0.005838
     5  H    0.000155   0.000054  -0.000000  -0.002583   0.000000
     6  C   -0.000526  -0.002426  -0.000063   0.348064   0.001449
     7  C    0.088670  -0.059952   0.039003  -0.029317  -0.011025
     8  H    0.000023  -0.000015   0.000000  -0.002545   0.000000
     9  C    0.249223  -0.299521   0.047176   0.029621   0.043591
    10  F    0.000484   0.016011   0.002982  -0.000403  -0.001392
    11  S    0.186391   0.004455   0.018089  -0.000212   0.042833
    12  O   -0.146402  -0.144438  -0.003690   0.000000   0.007335
    13  O    8.814910  -0.092355   0.009872  -0.000000  -0.008248
    14  N   -0.092355   8.018544   0.230351   0.000003   0.235665
    15  H    0.009872   0.230351   0.258788   0.000000  -0.012948
    16  H   -0.000000   0.000003   0.000000   0.406140  -0.000000
    17  H   -0.008248   0.235665  -0.012948  -0.000000   0.247323
 Mulliken charges:
               1
     1  C   -0.521023
     2  C    0.023565
     3  F   -0.316194
     4  C   -0.009430
     5  H    0.286904
     6  C   -0.285809
     7  C    0.019704
     8  H    0.289931
     9  C    0.443988
    10  F   -0.338934
    11  S    1.390697
    12  O   -0.598144
    13  O   -0.648785
    14  N   -1.028649
    15  H    0.502711
    16  H    0.281154
    17  H    0.508313
 Sum of Mulliken charges =  -0.00000
 Mulliken charges with hydrogens summed into heavy atoms:
               1
     1  C   -0.521023
     2  C    0.023565
     3  F   -0.316194
     4  C    0.277474
     6  C   -0.004655
     7  C    0.309635
     9  C    0.443988
    10  F   -0.338934
    11  S    1.390697
    12  O   -0.598144
    13  O   -0.648785
    14  N   -0.017624
 Electronic spatial extent (au):  <R**2>=           1975.4275
 Charge=              0.0000 electrons
 Dipole moment (field-independent basis, Debye):
    X=             -8.2042    Y=             -3.5985    Z=              5.0157  Tot=             10.2672
 Quadrupole moment (field-independent basis, Debye-Ang):
   XX=            -70.0553   YY=            -77.5834   ZZ=            -73.8008
   XY=             -4.1869   XZ=              8.1232   YZ=             -4.3602
 Traceless Quadrupole moment (field-independent basis, Debye-Ang):
   XX=              3.7579   YY=             -3.7702   ZZ=              0.0123
   XY=             -4.1869   XZ=              8.1232   YZ=             -4.3602
 Octapole moment (field-independent basis, Debye-Ang**2):
  XXX=            -79.4637  YYY=            -20.8996  ZZZ=             19.5295  XYY=            -16.0494
  XXY=            -11.2886  XXZ=             13.9079  XZZ=             12.2023  YZZ=              0.8101
  YYZ=              5.4699  XYZ=             -7.9151
 Hexadecapole moment (field-independent basis, Debye-Ang**3):
 XXXX=          -1390.6472 YYYY=           -751.6428 ZZZZ=           -178.2057 XXXY=            -15.8851
 XXXZ=              7.2132 YYYX=            -24.1301 YYYZ=            -10.7426 ZZZX=             36.0652
 ZZZY=             -8.3066 XXYY=           -340.4851 XXZZ=           -306.6639 YYZZ=           -155.1681
 XXYZ=            -12.0079 YYXZ=              8.8086 ZZXY=             -3.5728
 N-N= 8.747301659317D+02 E-N=-4.186713124325D+03  KE= 1.027887322910D+03
 D1PCM: PCM CHGder 1st derivatives, ID1Alg=3 FixD1E=F DoIter=F DoCFld=F I1PDM=0.
 Calling FoFJK, ICntrl=      2127 FMM=F ISym2X=0 I1Cent= 0 IOpClX= 0 NMat=1 NMatS=1 NMatT=0.
 ***** Axes restored to original set *****
 -------------------------------------------------------------------
 Center     Atomic                   Forces (Hartrees/Bohr)
 Number     Number              X              Y              Z
 -------------------------------------------------------------------
      1        6           0.000010175    0.000002060   -0.000002730
      2        6           0.000000567    0.000006331    0.000000538
      3        9           0.000006105    0.000023375    0.000005863
      4        6          -0.000000885    0.000012818    0.000007011
      5        1           0.000002166    0.000019946    0.000005214
      6        6           0.000003579    0.000000787   -0.000000371
      7        6          -0.000004569   -0.000008192   -0.000006635
      8        1          -0.000003717   -0.000015953   -0.000003754
      9        6          -0.000008238   -0.000006535    0.000001129
     10        9           0.000001547   -0.000018763   -0.000003362
     11       16           0.000005157   -0.000001839    0.000002938
     12        8           0.000013130   -0.000007924   -0.000000803
     13        8           0.000008253    0.000010003    0.000001890
     14        7          -0.000008730   -0.000004065    0.000000485
     15        1          -0.000008177   -0.000014149   -0.000005230
     16        1          -0.000002966    0.000002107    0.000000857
     17        1          -0.000013397   -0.000000007   -0.000003038
 -------------------------------------------------------------------
 Cartesian Forces:  Max     0.000023375 RMS     0.000008116

 GradGradGradGradGradGradGradGradGradGradGradGradGradGradGradGradGradGrad
 Berny optimization.
 FormGI is forming the generalized inverse of G from B-inverse, IUseBI=4.
 Internal  Forces:  Max     0.000005793 RMS     0.000001216
 Search for a local minimum.
 Step number   1 out of a maximum of   90
 All quantities printed in internal units (Hartrees-Bohrs-Radians)
 Mixed Optimization -- En-DIIS/RFO-DIIS
 Second derivative matrix not updated -- first step.
 ITU=  0
     Eigenvalues ---    0.00576   0.01488   0.02069   0.02146   0.02178
     Eigenvalues ---    0.02200   0.02208   0.02237   0.02243   0.02251
     Eigenvalues ---    0.02287   0.04396   0.09626   0.10480   0.14093
     Eigenvalues ---    0.16000   0.16000   0.16000   0.16000   0.16000
     Eigenvalues ---    0.19695   0.22082   0.23509   0.24903   0.24996
     Eigenvalues ---    0.24999   0.24999   0.25000   0.27379   0.35417
     Eigenvalues ---    0.35454   0.35475   0.42423   0.43241   0.43956
     Eigenvalues ---    0.43996   0.44098   0.46395   0.46561   0.47349
     Eigenvalues ---    0.48815   0.55862   0.57537   0.91895   0.93288
 RFO step:  Lambda= 0.00000000D+00 EMin= 5.75641804D-03
 Linear search not attempted -- first point.
 Iteration  1 RMS(Cart)=  0.00004786 RMS(Int)=  0.00000000
 Iteration  2 RMS(Cart)=  0.00000000 RMS(Int)=  0.00000000
 Variable       Old X    -DE/DX   Delta X   Delta X   Delta X     New X
                                 (Linear)    (Quad)   (Total)
    R1        2.63791   0.00000   0.00000   0.00000   0.00000   2.63792
    R2        2.64021  -0.00001   0.00000  -0.00001  -0.00001   2.64020
    R3        3.37217   0.00000   0.00000   0.00000   0.00000   3.37218
    R4        2.52944   0.00000   0.00000   0.00000   0.00000   2.52944
    R5        2.61930  -0.00000   0.00000  -0.00000  -0.00000   2.61929
    R6        2.04945   0.00000   0.00000   0.00000   0.00000   2.04945
    R7        2.62943   0.00000   0.00000   0.00001   0.00001   2.62943
    R8        2.63588  -0.00000   0.00000  -0.00001  -0.00001   2.63587
    R9        2.05002  -0.00000   0.00000  -0.00000  -0.00000   2.05002
   R10        2.04911   0.00000   0.00000   0.00000   0.00000   2.04911
   R11        2.60617   0.00000   0.00000   0.00000   0.00000   2.60618
   R12        2.54374   0.00000   0.00000   0.00001   0.00001   2.54374
   R13        2.75772  -0.00000   0.00000  -0.00000  -0.00000   2.75772
   R14        2.75154  -0.00000   0.00000  -0.00000  -0.00000   2.75153
   R15        3.10207  -0.00000   0.00000  -0.00000  -0.00000   3.10207
   R16        1.93037   0.00000   0.00000   0.00000   0.00000   1.93037
   R17        1.93159   0.00000   0.00000   0.00000   0.00000   1.93159
    A1        2.03850   0.00000   0.00000   0.00000   0.00000   2.03850
    A2        2.17703  -0.00000   0.00000  -0.00001  -0.00001   2.17702
    A3        2.06755   0.00000   0.00000   0.00001   0.00001   2.06756
    A4        2.09495   0.00000   0.00000   0.00000   0.00000   2.09496
    A5        2.12774  -0.00000   0.00000  -0.00000  -0.00000   2.12774
    A6        2.06047  -0.00000   0.00000  -0.00000  -0.00000   2.06047
    A7        2.07657   0.00000   0.00000  -0.00000  -0.00000   2.07657
    A8        2.07724  -0.00000   0.00000   0.00000   0.00000   2.07724
    A9        2.12937   0.00000   0.00000  -0.00000  -0.00000   2.12937
   A10        2.11363  -0.00000   0.00000  -0.00000  -0.00000   2.11362
   A11        2.08503   0.00000   0.00000  -0.00000  -0.00000   2.08503
   A12        2.08453   0.00000   0.00000   0.00000   0.00000   2.08453
   A13        2.13585   0.00000   0.00000   0.00001   0.00001   2.13585
   A14        2.05799   0.00000   0.00000   0.00000   0.00000   2.05799
   A15        2.08934  -0.00000   0.00000  -0.00001  -0.00001   2.08934
   A16        2.15126   0.00000   0.00000   0.00000   0.00000   2.15127
   A17        2.05192   0.00000   0.00000   0.00000   0.00000   2.05192
   A18        2.07997  -0.00000   0.00000  -0.00000  -0.00000   2.07997
   A19        1.87026   0.00000   0.00000   0.00000   0.00000   1.87026
   A20        1.89030  -0.00000   0.00000  -0.00001  -0.00001   1.89028
   A21        1.88315   0.00000   0.00000   0.00000   0.00000   1.88315
   A22        2.08872   0.00000   0.00000   0.00000   0.00000   2.08872
   A23        1.86061   0.00000   0.00000   0.00001   0.00001   1.86062
   A24        1.86251  -0.00000   0.00000  -0.00001  -0.00001   1.86250
   A25        1.96931   0.00000   0.00000  -0.00000  -0.00000   1.96931
   A26        1.96428  -0.00000   0.00000  -0.00001  -0.00001   1.96427
   A27        1.94823  -0.00000   0.00000  -0.00001  -0.00001   1.94822
    D1       -3.13248   0.00000   0.00000   0.00007   0.00007  -3.13240
    D2        0.00209  -0.00000   0.00000  -0.00002  -0.00002   0.00207
    D3       -0.00690   0.00000   0.00000   0.00009   0.00009  -0.00681
    D4        3.12766  -0.00000   0.00000   0.00000   0.00000   3.12766
    D5       -0.00376  -0.00000   0.00000  -0.00001  -0.00001  -0.00377
    D6       -3.13629   0.00000   0.00000   0.00000   0.00000  -3.13629
    D7       -3.13037  -0.00000   0.00000  -0.00003  -0.00003  -3.13040
    D8        0.02028  -0.00000   0.00000  -0.00001  -0.00001   0.02026
    D9       -2.13568   0.00000   0.00000   0.00005   0.00005  -2.13563
   D10        0.13994   0.00000   0.00000   0.00005   0.00005   0.13999
   D11        2.14987  -0.00000   0.00000   0.00004   0.00004   2.14991
   D12        0.98965   0.00000   0.00000   0.00008   0.00008   0.98972
   D13       -3.01792   0.00000   0.00000   0.00007   0.00007  -3.01785
   D14       -1.00799  -0.00000   0.00000   0.00006   0.00006  -1.00793
   D15       -3.13935   0.00000   0.00000   0.00004   0.00004  -3.13931
   D16        0.00016   0.00000   0.00000   0.00003   0.00003   0.00020
   D17       -0.00465  -0.00000   0.00000  -0.00005  -0.00005  -0.00470
   D18        3.13486  -0.00000   0.00000  -0.00005  -0.00005   3.13480
   D19       -0.00097  -0.00000   0.00000  -0.00002  -0.00002  -0.00100
   D20        3.14133  -0.00000   0.00000  -0.00001  -0.00001   3.14132
   D21        3.13847  -0.00000   0.00000  -0.00003  -0.00003   3.13845
   D22       -0.00241  -0.00000   0.00000  -0.00001  -0.00001  -0.00242
   D23        3.14108   0.00000   0.00000   0.00001   0.00001   3.14109
   D24       -0.00056  -0.00000   0.00000  -0.00000  -0.00000  -0.00056
   D25       -0.00122   0.00000   0.00000  -0.00000  -0.00000  -0.00122
   D26        3.14033  -0.00000   0.00000  -0.00002  -0.00002   3.14031
   D27        0.00303   0.00000   0.00000   0.00002   0.00002   0.00304
   D28        3.13542   0.00000   0.00000   0.00001   0.00001   3.13543
   D29       -3.13861   0.00000   0.00000   0.00000   0.00000  -3.13861
   D30       -0.00622  -0.00000   0.00000  -0.00001  -0.00001  -0.00622
   D31        1.13652   0.00000   0.00000   0.00000   0.00000   1.13652
   D32       -1.08750   0.00000   0.00000   0.00003   0.00003  -1.08747
   D33       -0.86750  -0.00000   0.00000  -0.00001  -0.00001  -0.86751
   D34       -3.09152   0.00000   0.00000   0.00002   0.00002  -3.09150
   D35       -3.11850  -0.00000   0.00000  -0.00002  -0.00002  -3.11852
   D36        0.94066   0.00000   0.00000   0.00001   0.00001   0.94068
         Item               Value     Threshold  Converged?
 Maximum Force            0.000006     0.000450     YES
 RMS     Force            0.000001     0.000300     YES
 Maximum Displacement     0.000191     0.001800     YES
 RMS     Displacement     0.000048     0.001200     YES
 Predicted change in Energy=-5.319462D-10
 Optimization completed.
    -- Stationary point found.
                           ----------------------------
                           !   Optimized Parameters   !
                           ! (Angstroms and Degrees)  !
 --------------------------                            --------------------------
 ! Name  Definition              Value          Derivative Info.                !
 --------------------------------------------------------------------------------
 ! R1    R(1,2)                  1.3959         -DE/DX =    0.0                 !
 ! R2    R(1,9)                  1.3971         -DE/DX =    0.0                 !
 ! R3    R(1,11)                 1.7845         -DE/DX =    0.0                 !
 ! R4    R(2,3)                  1.3385         -DE/DX =    0.0                 !
 ! R5    R(2,4)                  1.3861         -DE/DX =    0.0                 !
 ! R6    R(4,5)                  1.0845         -DE/DX =    0.0                 !
 ! R7    R(4,6)                  1.3914         -DE/DX =    0.0                 !
 ! R8    R(6,7)                  1.3948         -DE/DX =    0.0                 !
 ! R9    R(6,16)                 1.0848         -DE/DX =    0.0                 !
 ! R10   R(7,8)                  1.0843         -DE/DX =    0.0                 !
 ! R11   R(7,9)                  1.3791         -DE/DX =    0.0                 !
 ! R12   R(9,10)                 1.3461         -DE/DX =    0.0                 !
 ! R13   R(11,12)                1.4593         -DE/DX =    0.0                 !
 ! R14   R(11,13)                1.456          -DE/DX =    0.0                 !
 ! R15   R(11,14)                1.6415         -DE/DX =    0.0                 !
 ! R16   R(14,15)                1.0215         -DE/DX =    0.0                 !
 ! R17   R(14,17)                1.0222         -DE/DX =    0.0                 !
 ! A1    A(2,1,9)              116.7974         -DE/DX =    0.0                 !
 ! A2    A(2,1,11)             124.7345         -DE/DX =    0.0                 !
 ! A3    A(9,1,11)             118.4619         -DE/DX =    0.0                 !
 ! A4    A(1,2,3)              120.032          -DE/DX =    0.0                 !
 ! A5    A(1,2,4)              121.9106         -DE/DX =    0.0                 !
 ! A6    A(3,2,4)              118.0562         -DE/DX =    0.0                 !
 ! A7    A(2,4,5)              118.9787         -DE/DX =    0.0                 !
 ! A8    A(2,4,6)              119.0172         -DE/DX =    0.0                 !
 ! A9    A(5,4,6)              122.0039         -DE/DX =    0.0                 !
 ! A10   A(4,6,7)              121.1018         -DE/DX =    0.0                 !
 ! A11   A(4,6,16)             119.4636         -DE/DX =    0.0                 !
 ! A12   A(7,6,16)             119.4346         -DE/DX =    0.0                 !
 ! A13   A(6,7,8)              122.3751         -DE/DX =    0.0                 !
 ! A14   A(6,7,9)              117.9143         -DE/DX =    0.0                 !
 ! A15   A(8,7,9)              119.7106         -DE/DX =    0.0                 !
 ! A16   A(1,9,7)              123.2584         -DE/DX =    0.0                 !
 ! A17   A(1,9,10)             117.5661         -DE/DX =    0.0                 !
 ! A18   A(7,9,10)             119.1736         -DE/DX =    0.0                 !
 ! A19   A(1,11,12)            107.1578         -DE/DX =    0.0                 !
 ! A20   A(1,11,13)            108.3059         -DE/DX =    0.0                 !
 ! A21   A(1,11,14)            107.8966         -DE/DX =    0.0                 !
 ! A22   A(12,11,13)           119.6748         -DE/DX =    0.0                 !
 ! A23   A(12,11,14)           106.6052         -DE/DX =    0.0                 !
 ! A24   A(13,11,14)           106.7138         -DE/DX =    0.0                 !
 ! A25   A(11,14,15)           112.8333         -DE/DX =    0.0                 !
 ! A26   A(11,14,17)           112.5451         -DE/DX =    0.0                 !
 ! A27   A(15,14,17)           111.6254         -DE/DX =    0.0                 !
 ! D1    D(9,1,2,3)           -179.4776         -DE/DX =    0.0                 !
 ! D2    D(9,1,2,4)              0.1196         -DE/DX =    0.0                 !
 ! D3    D(11,1,2,3)            -0.3956         -DE/DX =    0.0                 !
 ! D4    D(11,1,2,4)           179.2017         -DE/DX =    0.0                 !
 ! D5    D(2,1,9,7)             -0.2154         -DE/DX =    0.0                 !
 ! D6    D(2,1,9,10)          -179.6962         -DE/DX =    0.0                 !
 ! D7    D(11,1,9,7)          -179.3573         -DE/DX =    0.0                 !
 ! D8    D(11,1,9,10)            1.1619         -DE/DX =    0.0                 !
 ! D9    D(2,1,11,12)         -122.3654         -DE/DX =    0.0                 !
 ! D10   D(2,1,11,13)            8.0178         -DE/DX =    0.0                 !
 ! D11   D(2,1,11,14)          123.1785         -DE/DX =    0.0                 !
 ! D12   D(9,1,11,12)           56.7025         -DE/DX =    0.0                 !
 ! D13   D(9,1,11,13)         -172.9142         -DE/DX =    0.0                 !
 ! D14   D(9,1,11,14)          -57.7535         -DE/DX =    0.0                 !
 ! D15   D(1,2,4,5)           -179.8713         -DE/DX =    0.0                 !
 ! D16   D(1,2,4,6)              0.0093         -DE/DX =    0.0                 !
 ! D17   D(3,2,4,5)             -0.2664         -DE/DX =    0.0                 !
 ! D18   D(3,2,4,6)            179.6142         -DE/DX =    0.0                 !
 ! D19   D(2,4,6,7)             -0.0556         -DE/DX =    0.0                 !
 ! D20   D(2,4,6,16)           179.9849         -DE/DX =    0.0                 !
 ! D21   D(5,4,6,7)            179.8212         -DE/DX =    0.0                 !
 ! D22   D(5,4,6,16)            -0.1383         -DE/DX =    0.0                 !
 ! D23   D(4,6,7,8)            179.9706         -DE/DX =    0.0                 !
 ! D24   D(4,6,7,9)             -0.0321         -DE/DX =    0.0                 !
 ! D25   D(16,6,7,8)            -0.0699         -DE/DX =    0.0                 !
 ! D26   D(16,6,7,9)           179.9274         -DE/DX =    0.0                 !
 ! D27   D(6,7,9,1)              0.1736         -DE/DX =    0.0                 !
 ! D28   D(6,7,9,10)           179.6465         -DE/DX =    0.0                 !
 ! D29   D(8,7,9,1)           -179.8291         -DE/DX =    0.0                 !
 ! D30   D(8,7,9,10)            -0.3561         -DE/DX =    0.0                 !
 ! D31   D(1,11,14,15)          65.1178         -DE/DX =    0.0                 !
 ! D32   D(1,11,14,17)         -62.3092         -DE/DX =    0.0                 !
 ! D33   D(12,11,14,15)        -49.7039         -DE/DX =    0.0                 !
 ! D34   D(12,11,14,17)       -177.1309         -DE/DX =    0.0                 !
 ! D35   D(13,11,14,15)       -178.677          -DE/DX =    0.0                 !
 ! D36   D(13,11,14,17)         53.896          -DE/DX =    0.0                 !
 --------------------------------------------------------------------------------
 GradGradGradGradGradGradGradGradGradGradGradGradGradGradGradGradGradGrad

                          Input orientation:                          
 ---------------------------------------------------------------------
 Center     Atomic      Atomic             Coordinates (Angstroms)
 Number     Number       Type             X           Y           Z
 ---------------------------------------------------------------------
      1          6           0       -1.521749    0.646102   -0.822422
      2          6           0       -2.637926    0.934928   -1.609398
      3          9           0       -3.835632    1.105058   -1.036512
      4          6           0       -2.550047    1.062607   -2.986776
      5          1           0       -3.447466    1.289919   -3.551712
      6          6           0       -1.313113    0.897802   -3.602341
      7          6           0       -0.170037    0.609318   -2.856856
      8          1           0        0.803719    0.476359   -3.315023
      9          6           0       -0.303541    0.492974   -1.489145
     10          9           0        0.781892    0.207969   -0.745802
     11         16           0       -1.544685    0.485520    0.954667
     12          8           0       -0.594707    1.457000    1.487009
     13          8           0       -2.931070    0.515072    1.398677
     14          7           0       -0.958883   -1.000150    1.334524
     15          1           0        0.023798   -1.115596    1.080571
     16          1           0       -1.236087    0.995908   -4.679973
     17          1           0       -1.535975   -1.756360    0.960473
 ---------------------------------------------------------------------
                    Distance matrix (angstroms):
                    1          2          3          4          5
     1  C    0.000000
     2  C    1.395924   0.000000
     3  F    2.368656   1.338522   0.000000
     4  C    2.432139   1.386072   2.336249   0.000000
     5  H    3.401751   2.134000   2.551681   1.084520   0.000000
     6  C    2.799077   2.393393   3.604100   1.391433   2.170664
     7  C    2.442826   2.784358   4.122620   2.426272   3.418711
     8  H    3.413162   3.868380   5.206770   3.420406   4.334798
     9  C    1.397139   2.378894   3.613197   2.759378   3.843640
    10  F    2.346187   3.601308   4.712834   4.105385   5.189529
    11  S    1.784477   2.823397   3.097912   4.108376   4.957326
    12  O    2.617333   3.746337   4.122574   4.898332   5.792656
    13  O    2.633749   3.051349   2.663918   4.435896   5.037202
    14  N    2.771169   3.902613   4.281285   5.045830   5.942454
    15  H    3.018887   4.304109   4.930370   5.283234   6.268510
    16  H    3.883898   3.375989   4.477092   2.144261   2.499922
    17  H    2.991779   3.880923   4.179005   4.955370   5.770046
                    6          7          8          9         10
     6  C    0.000000
     7  C    1.394845   0.000000
     8  H    2.177417   1.084341   0.000000
     9  C    2.376703   1.379127   2.135446   0.000000
    10  F    3.608979   2.350276   2.583294   1.346087   0.000000
    11  S    4.581476   4.053726   4.872919   2.740933   2.895098
    12  O    5.170135   4.446130   5.096740   3.141913   2.905262
    13  O    5.270147   5.073632   6.014076   3.904345   4.298743
    14  N    5.300975   4.558545   5.187016   3.260675   2.969445
    15  H    5.269798   4.303049   4.739604   3.049277   2.379531
    16  H    1.084826   2.147014   2.508750   3.362137   4.491190
    17  H    5.283324   4.694062   5.360883   3.546692   3.484605
                   11         12         13         14         15
    11  S    0.000000
    12  O    1.459322   0.000000
    13  O    1.456050   2.520639   0.000000
    14  N    1.641545   2.488667   2.487878   0.000000
    15  H    2.244897   2.676937   3.389914   1.021510   0.000000
    16  H    5.666118   6.217366   6.328835   6.343127   6.263356
    17  H    2.241904   3.389529   2.701429   1.022156   1.690531
                   16         17
    16  H    0.000000
    17  H    6.283275   0.000000
 Stoichiometry    C6H5F2NO2S
 Framework group  C1[X(C6H5F2NO2S)]
 Deg. of freedom    45
 Full point group                 C1      NOp   1
 Largest Abelian subgroup         C1      NOp   1
 Largest concise Abelian subgroup C1      NOp   1
                         Standard orientation:                         
 ---------------------------------------------------------------------
 Center     Atomic      Atomic             Coordinates (Angstroms)
 Number     Number       Type             X           Y           Z
 ---------------------------------------------------------------------
      1          6           0       -0.239392    0.058657   -0.030393
      2          6           0       -1.085815    1.168103    0.005685
      3          9           0       -0.571408    2.403788   -0.004771
      4          6           0       -2.465071    1.036430    0.044552
      5          1           0       -3.077794    1.930931    0.069476
      6          6           0       -3.021507   -0.238895    0.047876
      7          6           0       -2.215554   -1.376755    0.011722
      8          1           0       -2.626990   -2.380006    0.014018
      9          6           0       -0.848552   -1.198688   -0.028151
     10          9           0       -0.046613   -2.279452   -0.056346
     11         16           0        1.541768    0.140581   -0.101933
     12          8           0        1.958295   -0.583167   -1.298726
     13          8           0        1.943311    1.528632    0.077393
     14          7           0        2.137009   -0.692593    1.181103
     15          1           0        1.925582   -1.691052    1.137975
     16          1           0       -4.100159   -0.350363    0.078435
     17          1           0        1.856697   -0.286504    2.076267
 ---------------------------------------------------------------------
 Rotational constants (GHZ):           1.2834527           0.8073729           0.5526157
 Unable to Open any file for archive entry.
 1\1\GINC-GADI-CPU-CLX-0611\FOpt\RM062X\Gen\C6H5F2N1O2S1\YJ5695\19-May-
 2022\0\\#m062X/gen 6D OPT Freq=noraman SCRF=(SMD,Solvent=h2o)\\a1 b1\\
 0,1\C,-1.521749,0.646102,-0.822422\C,-2.637926,0.934928,-1.609398\F,-3
 .835632,1.105058,-1.036512\C,-2.550047,1.062607,-2.986776\H,-3.447466,
 1.289919,-3.551712\C,-1.313113,0.897802,-3.602341\C,-0.170037,0.609318
 ,-2.856856\H,0.803719,0.476359,-3.315023\C,-0.303541,0.492974,-1.48914
 5\F,0.781892,0.207969,-0.745802\S,-1.544685,0.48552,0.954667\O,-0.5947
 07,1.457,1.487009\O,-2.93107,0.515072,1.398677\N,-0.958883,-1.00015,1.
 334524\H,0.023798,-1.115596,1.080571\H,-1.236087,0.995908,-4.679973\H,
 -1.535975,-1.75636,0.960473\\Version=ES64L-G16RevC.01\State=1-A\HF=-10
 34.4020796\RMSD=3.249e-09\RMSF=8.116e-06\Dipole=0.9310791,-1.7390587,-
 3.5249974\Quadrupole=-3.8238642,2.9215051,0.902359,-2.8908394,1.675488
 4,-6.4307105\PG=C01 [X(C6H5F2N1O2S1)]\\@
 The archive entry for this job was punched.


 THE WORLD IS MADE UP OF THE WILLS, THE WON'TS, AND THE CANT'S:
 THE WILLS DO EVERYTHING,
 THE WON'TS DO NOTHING,
 THE CAN'TS CAN'T DO ANYTHING.

                               -- FROM WALT DISNEY'S "BLACK HOLE"
 Job cpu time:       0 days  0 hours  9 minutes  4.1 seconds.
 Elapsed time:       0 days  0 hours  0 minutes 35.2 seconds.
 File lengths (MBytes):  RWF=     70 Int=      0 D2E=      0 Chk=      6 Scr=      1
 Normal termination of Gaussian 16 at Thu May 19 15:05:18 2022.
 Link1:  Proceeding to internal job step number  2.
 ------------------------------------------------------------------
 #N Geom=AllCheck Guess=TCheck SCRF=Check GenChk RM062X/ChkBas Freq
 ------------------------------------------------------------------
 1/10=4,29=7,30=1,38=1,40=1/1,3;
 2/12=2,40=1/2;
 3/5=7,6=2,8=2,11=2,14=-4,25=1,30=1,67=1,70=2,71=2,74=-55,82=7,116=1,140=1/1,2,3;
 4/5=101/1;
 5/5=2,38=6,98=1/2;
 8/6=4,10=90,11=11/1;
 11/6=1,8=1,9=11,15=111,16=1/1,2,10;
 10/6=1/2;
 6/7=2,8=2,9=2,10=2,28=1/1;
 7/8=1,10=1,25=1/1,2,3,16;
 1/10=4,30=1/3;
 99//99;
 Structure from the checkpoint file:  "/jobfs/40645538.gadi-pbs/Gau-134907.chk"
 -----
 a1 b1
 -----
 Charge =  0 Multiplicity = 1
 Redundant internal coordinates found in file.  (old form).
 C,0,-1.521749,0.646102,-0.822422
 C,0,-2.637926,0.934928,-1.609398
 F,0,-3.835632,1.105058,-1.036512
 C,0,-2.550047,1.062607,-2.986776
 H,0,-3.447466,1.289919,-3.551712
 C,0,-1.313113,0.897802,-3.602341
 C,0,-0.170037,0.609318,-2.856856
 H,0,0.803719,0.476359,-3.315023
 C,0,-0.303541,0.492974,-1.489145
 F,0,0.781892,0.207969,-0.745802
 S,0,-1.544685,0.48552,0.954667
 O,0,-0.594707,1.457,1.487009
 O,0,-2.93107,0.515072,1.398677
 N,0,-0.958883,-1.00015,1.334524
 H,0,0.023798,-1.115596,1.080571
 H,0,-1.236087,0.995908,-4.679973
 H,0,-1.535975,-1.75636,0.960473
 Recover connectivity data from disk.

 GradGradGradGradGradGradGradGradGradGradGradGradGradGradGradGradGradGrad
 Berny optimization.
 Initialization pass.
                           ----------------------------
                           !    Initial Parameters    !
                           ! (Angstroms and Degrees)  !
 --------------------------                            --------------------------
 ! Name  Definition              Value          Derivative Info.                !
 --------------------------------------------------------------------------------
 ! R1    R(1,2)                  1.3959         calculate D2E/DX2 analytically  !
 ! R2    R(1,9)                  1.3971         calculate D2E/DX2 analytically  !
 ! R3    R(1,11)                 1.7845         calculate D2E/DX2 analytically  !
 ! R4    R(2,3)                  1.3385         calculate D2E/DX2 analytically  !
 ! R5    R(2,4)                  1.3861         calculate D2E/DX2 analytically  !
 ! R6    R(4,5)                  1.0845         calculate D2E/DX2 analytically  !
 ! R7    R(4,6)                  1.3914         calculate D2E/DX2 analytically  !
 ! R8    R(6,7)                  1.3948         calculate D2E/DX2 analytically  !
 ! R9    R(6,16)                 1.0848         calculate D2E/DX2 analytically  !
 ! R10   R(7,8)                  1.0843         calculate D2E/DX2 analytically  !
 ! R11   R(7,9)                  1.3791         calculate D2E/DX2 analytically  !
 ! R12   R(9,10)                 1.3461         calculate D2E/DX2 analytically  !
 ! R13   R(11,12)                1.4593         calculate D2E/DX2 analytically  !
 ! R14   R(11,13)                1.456          calculate D2E/DX2 analytically  !
 ! R15   R(11,14)                1.6415         calculate D2E/DX2 analytically  !
 ! R16   R(14,15)                1.0215         calculate D2E/DX2 analytically  !
 ! R17   R(14,17)                1.0222         calculate D2E/DX2 analytically  !
 ! A1    A(2,1,9)              116.7974         calculate D2E/DX2 analytically  !
 ! A2    A(2,1,11)             124.7345         calculate D2E/DX2 analytically  !
 ! A3    A(9,1,11)             118.4619         calculate D2E/DX2 analytically  !
 ! A4    A(1,2,3)              120.032          calculate D2E/DX2 analytically  !
 ! A5    A(1,2,4)              121.9106         calculate D2E/DX2 analytically  !
 ! A6    A(3,2,4)              118.0562         calculate D2E/DX2 analytically  !
 ! A7    A(2,4,5)              118.9787         calculate D2E/DX2 analytically  !
 ! A8    A(2,4,6)              119.0172         calculate D2E/DX2 analytically  !
 ! A9    A(5,4,6)              122.0039         calculate D2E/DX2 analytically  !
 ! A10   A(4,6,7)              121.1018         calculate D2E/DX2 analytically  !
 ! A11   A(4,6,16)             119.4636         calculate D2E/DX2 analytically  !
 ! A12   A(7,6,16)             119.4346         calculate D2E/DX2 analytically  !
 ! A13   A(6,7,8)              122.3751         calculate D2E/DX2 analytically  !
 ! A14   A(6,7,9)              117.9143         calculate D2E/DX2 analytically  !
 ! A15   A(8,7,9)              119.7106         calculate D2E/DX2 analytically  !
 ! A16   A(1,9,7)              123.2584         calculate D2E/DX2 analytically  !
 ! A17   A(1,9,10)             117.5661         calculate D2E/DX2 analytically  !
 ! A18   A(7,9,10)             119.1736         calculate D2E/DX2 analytically  !
 ! A19   A(1,11,12)            107.1578         calculate D2E/DX2 analytically  !
 ! A20   A(1,11,13)            108.3059         calculate D2E/DX2 analytically  !
 ! A21   A(1,11,14)            107.8966         calculate D2E/DX2 analytically  !
 ! A22   A(12,11,13)           119.6748         calculate D2E/DX2 analytically  !
 ! A23   A(12,11,14)           106.6052         calculate D2E/DX2 analytically  !
 ! A24   A(13,11,14)           106.7138         calculate D2E/DX2 analytically  !
 ! A25   A(11,14,15)           112.8333         calculate D2E/DX2 analytically  !
 ! A26   A(11,14,17)           112.5451         calculate D2E/DX2 analytically  !
 ! A27   A(15,14,17)           111.6254         calculate D2E/DX2 analytically  !
 ! D1    D(9,1,2,3)           -179.4776         calculate D2E/DX2 analytically  !
 ! D2    D(9,1,2,4)              0.1196         calculate D2E/DX2 analytically  !
 ! D3    D(11,1,2,3)            -0.3956         calculate D2E/DX2 analytically  !
 ! D4    D(11,1,2,4)           179.2017         calculate D2E/DX2 analytically  !
 ! D5    D(2,1,9,7)             -0.2154         calculate D2E/DX2 analytically  !
 ! D6    D(2,1,9,10)          -179.6962         calculate D2E/DX2 analytically  !
 ! D7    D(11,1,9,7)          -179.3573         calculate D2E/DX2 analytically  !
 ! D8    D(11,1,9,10)            1.1619         calculate D2E/DX2 analytically  !
 ! D9    D(2,1,11,12)         -122.3654         calculate D2E/DX2 analytically  !
 ! D10   D(2,1,11,13)            8.0178         calculate D2E/DX2 analytically  !
 ! D11   D(2,1,11,14)          123.1785         calculate D2E/DX2 analytically  !
 ! D12   D(9,1,11,12)           56.7025         calculate D2E/DX2 analytically  !
 ! D13   D(9,1,11,13)         -172.9142         calculate D2E/DX2 analytically  !
 ! D14   D(9,1,11,14)          -57.7535         calculate D2E/DX2 analytically  !
 ! D15   D(1,2,4,5)           -179.8713         calculate D2E/DX2 analytically  !
 ! D16   D(1,2,4,6)              0.0093         calculate D2E/DX2 analytically  !
 ! D17   D(3,2,4,5)             -0.2664         calculate D2E/DX2 analytically  !
 ! D18   D(3,2,4,6)            179.6142         calculate D2E/DX2 analytically  !
 ! D19   D(2,4,6,7)             -0.0556         calculate D2E/DX2 analytically  !
 ! D20   D(2,4,6,16)           179.9849         calculate D2E/DX2 analytically  !
 ! D21   D(5,4,6,7)            179.8212         calculate D2E/DX2 analytically  !
 ! D22   D(5,4,6,16)            -0.1383         calculate D2E/DX2 analytically  !
 ! D23   D(4,6,7,8)            179.9706         calculate D2E/DX2 analytically  !
 ! D24   D(4,6,7,9)             -0.0321         calculate D2E/DX2 analytically  !
 ! D25   D(16,6,7,8)            -0.0699         calculate D2E/DX2 analytically  !
 ! D26   D(16,6,7,9)           179.9274         calculate D2E/DX2 analytically  !
 ! D27   D(6,7,9,1)              0.1736         calculate D2E/DX2 analytically  !
 ! D28   D(6,7,9,10)           179.6465         calculate D2E/DX2 analytically  !
 ! D29   D(8,7,9,1)           -179.8291         calculate D2E/DX2 analytically  !
 ! D30   D(8,7,9,10)            -0.3561         calculate D2E/DX2 analytically  !
 ! D31   D(1,11,14,15)          65.1178         calculate D2E/DX2 analytically  !
 ! D32   D(1,11,14,17)         -62.3092         calculate D2E/DX2 analytically  !
 ! D33   D(12,11,14,15)        -49.7039         calculate D2E/DX2 analytically  !
 ! D34   D(12,11,14,17)       -177.1309         calculate D2E/DX2 analytically  !
 ! D35   D(13,11,14,15)       -178.677          calculate D2E/DX2 analytically  !
 ! D36   D(13,11,14,17)         53.896          calculate D2E/DX2 analytically  !
 --------------------------------------------------------------------------------
 Trust Radius=3.00D-01 FncErr=1.00D-07 GrdErr=1.00D-07 EigMax=2.50D+02 EigMin=1.00D-04
 Number of steps in this run=      2 maximum allowed number of steps=      2.
 GradGradGradGradGradGradGradGradGradGradGradGradGradGradGradGradGradGrad

                          Input orientation:                          
 ---------------------------------------------------------------------
 Center     Atomic      Atomic             Coordinates (Angstroms)
 Number     Number       Type             X           Y           Z
 ---------------------------------------------------------------------
      1          6           0       -1.521749    0.646102   -0.822422
      2          6           0       -2.637926    0.934928   -1.609398
      3          9           0       -3.835632    1.105058   -1.036512
      4          6           0       -2.550047    1.062607   -2.986776
      5          1           0       -3.447466    1.289919   -3.551712
      6          6           0       -1.313113    0.897802   -3.602341
      7          6           0       -0.170037    0.609318   -2.856856
      8          1           0        0.803719    0.476359   -3.315023
      9          6           0       -0.303541    0.492974   -1.489145
     10          9           0        0.781892    0.207969   -0.745802
     11         16           0       -1.544685    0.485520    0.954667
     12          8           0       -0.594707    1.457000    1.487009
     13          8           0       -2.931070    0.515072    1.398677
     14          7           0       -0.958883   -1.000150    1.334524
     15          1           0        0.023798   -1.115596    1.080571
     16          1           0       -1.236087    0.995908   -4.679973
     17          1           0       -1.535975   -1.756360    0.960473
 ---------------------------------------------------------------------
                    Distance matrix (angstroms):
                    1          2          3          4          5
     1  C    0.000000
     2  C    1.395924   0.000000
     3  F    2.368656   1.338522   0.000000
     4  C    2.432139   1.386072   2.336249   0.000000
     5  H    3.401751   2.134000   2.551681   1.084520   0.000000
     6  C    2.799077   2.393393   3.604100   1.391433   2.170664
     7  C    2.442826   2.784358   4.122620   2.426272   3.418711
     8  H    3.413162   3.868380   5.206770   3.420406   4.334798
     9  C    1.397139   2.378894   3.613197   2.759378   3.843640
    10  F    2.346187   3.601308   4.712834   4.105385   5.189529
    11  S    1.784477   2.823397   3.097912   4.108376   4.957326
    12  O    2.617333   3.746337   4.122574   4.898332   5.792656
    13  O    2.633749   3.051349   2.663918   4.435896   5.037202
    14  N    2.771169   3.902613   4.281285   5.045830   5.942454
    15  H    3.018887   4.304109   4.930370   5.283234   6.268510
    16  H    3.883898   3.375989   4.477092   2.144261   2.499922
    17  H    2.991779   3.880923   4.179005   4.955370   5.770046
                    6          7          8          9         10
     6  C    0.000000
     7  C    1.394845   0.000000
     8  H    2.177417   1.084341   0.000000
     9  C    2.376703   1.379127   2.135446   0.000000
    10  F    3.608979   2.350276   2.583294   1.346087   0.000000
    11  S    4.581476   4.053726   4.872919   2.740933   2.895098
    12  O    5.170135   4.446130   5.096740   3.141913   2.905262
    13  O    5.270147   5.073632   6.014076   3.904345   4.298743
    14  N    5.300975   4.558545   5.187016   3.260675   2.969445
    15  H    5.269798   4.303049   4.739604   3.049277   2.379531
    16  H    1.084826   2.147014   2.508750   3.362137   4.491190
    17  H    5.283324   4.694062   5.360883   3.546692   3.484605
                   11         12         13         14         15
    11  S    0.000000
    12  O    1.459322   0.000000
    13  O    1.456050   2.520639   0.000000
    14  N    1.641545   2.488667   2.487878   0.000000
    15  H    2.244897   2.676937   3.389914   1.021510   0.000000
    16  H    5.666118   6.217366   6.328835   6.343127   6.263356
    17  H    2.241904   3.389529   2.701429   1.022156   1.690531
                   16         17
    16  H    0.000000
    17  H    6.283275   0.000000
 Stoichiometry    C6H5F2NO2S
 Framework group  C1[X(C6H5F2NO2S)]
 Deg. of freedom    45
 Full point group                 C1      NOp   1
 Largest Abelian subgroup         C1      NOp   1
 Largest concise Abelian subgroup C1      NOp   1
                         Standard orientation:                         
 ---------------------------------------------------------------------
 Center     Atomic      Atomic             Coordinates (Angstroms)
 Number     Number       Type             X           Y           Z
 ---------------------------------------------------------------------
      1          6           0       -0.239392    0.058657   -0.030393
      2          6           0       -1.085815    1.168103    0.005685
      3          9           0       -0.571408    2.403788   -0.004771
      4          6           0       -2.465071    1.036430    0.044552
      5          1           0       -3.077794    1.930931    0.069476
      6          6           0       -3.021507   -0.238895    0.047876
      7          6           0       -2.215554   -1.376755    0.011722
      8          1           0       -2.626990   -2.380006    0.014018
      9          6           0       -0.848552   -1.198688   -0.028151
     10          9           0       -0.046613   -2.279452   -0.056346
     11         16           0        1.541768    0.140581   -0.101933
     12          8           0        1.958295   -0.583167   -1.298726
     13          8           0        1.943311    1.528632    0.077393
     14          7           0        2.137009   -0.692593    1.181103
     15          1           0        1.925582   -1.691052    1.137975
     16          1           0       -4.100159   -0.350363    0.078435
     17          1           0        1.856697   -0.286504    2.076267
 ---------------------------------------------------------------------
 Rotational constants (GHZ):           1.2834527           0.8073729           0.5526157
 Basis read from chk: "/jobfs/40645538.gadi-pbs/Gau-134907.chk" (6D, 7F)
 There are   242 symmetry adapted cartesian basis functions of A   symmetry.
 There are   242 symmetry adapted basis functions of A   symmetry.
   242 basis functions,   428 primitive gaussians,   242 cartesian basis functions
    49 alpha electrons       49 beta electrons
       nuclear repulsion energy       874.7230034564 Hartrees.
 NAtoms=   17 NActive=   17 NUniq=   17 SFac= 1.00D+00 NAtFMM=   60 NAOKFM=F Big=F
 Integral buffers will be    131072 words long.
 Raffenetti 2 integral format.
 Two-electron integral symmetry is turned on.
 Force inversion solution in PCM.
 ------------------------------------------------------------------------------
 Polarizable Continuum Model (PCM)
 =================================
 Model                : PCM.
 Atomic radii         : SMD-Coulomb.
 Polarization charges : Total charges.
 Charge compensation  : None.
 Solution method      : Matrix inversion.
 Cavity type          : VdW (van der Waals Surface) (Alpha=1.000).
 Cavity algorithm     : GePol (No added spheres)
                        Default sphere list used, NSphG=   17.
                        Lebedev-Laikov grids with approx.  5.0 points / Ang**2.
                        Smoothing algorithm: York/Karplus (Gamma=1.0000).
                        Polarization charges: spherical gaussians, with
                                              point-specific exponents (IZeta= 3).
                        Self-potential: point-specific (ISelfS= 7).
                        Self-field    : sphere-specific E.n sum rule (ISelfD= 2).
 1st derivatives      : Analytical E(r).r(x)/FMM algorithm (CHGder, D1EAlg=3).
                        Cavity 1st derivative terms included.
 2nd derivatives      : Analytical E(r).r(xy)/FMM algorithm (CHGder, D2EAlg=3).
                        Cavity 2nd derivative terms included.
 Solvent              : Water, Eps=  78.355300 Eps(inf)=   1.777849
 ------------------------------------------------------------------------------
 Spheres list:
 ISph  on   Nord     Re0    Alpha      Xe            Ye            Ze
    1   C      1    1.8500  1.000     -0.239392      0.058657     -0.030393
    2   C      2    1.8500  1.000     -1.085815      1.168103      0.005685
    3   F      3    1.7300  1.000     -0.571408      2.403788     -0.004771
    4   C      4    1.8500  1.000     -2.465071      1.036430      0.044552
    5   H      5    1.2000  1.000     -3.077794      1.930931      0.069476
    6   C      6    1.8500  1.000     -3.021507     -0.238895      0.047876
    7   C      7    1.8500  1.000     -2.215554     -1.376755      0.011722
    8   H      8    1.2000  1.000     -2.626990     -2.380006      0.014018
    9   C      9    1.8500  1.000     -0.848552     -1.198688     -0.028151
   10   F     10    1.7300  1.000     -0.046613     -2.279452     -0.056346
   11   S     11    2.4900  1.000      1.541768      0.140581     -0.101933
   12   O     12    1.5200  1.000      1.958295     -0.583167     -1.298726
   13   O     13    1.5200  1.000      1.943311      1.528632      0.077393
   14   N     14    1.8900  1.000      2.137009     -0.692593      1.181103
   15   H     15    1.2000  1.000      1.925582     -1.691052      1.137975
   16   H     16    1.2000  1.000     -4.100159     -0.350363      0.078435
   17   H     17    1.2000  1.000      1.856697     -0.286504      2.076267
 ------------------------------------------------------------------------------
 ------------------------------------------------------------------------------
 Atomic radii for non-electrostatic terms: SMD-CDS.
 ------------------------------------------------------------------------------
 Nuclear repulsion after PCM non-electrostatic terms =      874.7301659317 Hartrees.
 One-electron integrals computed using PRISM.
 NBasis=   242 RedAO= T EigKep=  2.44D-06  NBF=   242
 NBsUse=   242 1.00D-06 EigRej= -1.00D+00 NBFU=   242
 Initial guess from the checkpoint file:  "/jobfs/40645538.gadi-pbs/Gau-134907.chk"
 B after Tr=     0.000000   -0.000000   -0.000000
         Rot=    1.000000    0.000000   -0.000000   -0.000000 Ang=   0.00 deg.
 Requested convergence on RMS density matrix=1.00D-08 within 128 cycles.
 Requested convergence on MAX density matrix=1.00D-06.
 Requested convergence on             energy=1.00D-06.
 No special actions if energy rises.
 Inv3:  Mode=1 IEnd=     6015168.
 Iteration    1 A*A^-1 deviation from unit magnitude is 5.33D-15 for   1414.
 Iteration    1 A*A^-1 deviation from orthogonality  is 1.77D-15 for   1146     56.
 Iteration    1 A^-1*A deviation from unit magnitude is 5.55D-15 for   1414.
 Iteration    1 A^-1*A deviation from orthogonality  is 1.52D-15 for   1387   1081.
 Error on total polarization charges =  0.03365
 SCF Done:  E(RM062X) =  -1034.40207963     A.U. after    1 cycles
            NFock=  1  Conv=0.22D-08     -V/T= 2.0063
 SMD-CDS (non-electrostatic) energy       (kcal/mol) =       4.49
 (included in total energy above)
 DoSCS=F DFT=T ScalE2(SS,OS)=  1.000000  1.000000
 Range of M.O.s used for correlation:     1   242
 NBasis=   242 NAE=    49 NBE=    49 NFC=     0 NFV=     0
 NROrb=    242 NOA=    49 NOB=    49 NVA=   193 NVB=   193

 **** Warning!!: The largest alpha MO coefficient is  0.18056053D+03

 Symmetrizing basis deriv contribution to polar:
 IMax=3 JMax=2 DiffMx= 0.00D+00
 G2DrvN: will do    18 centers at a time, making    1 passes.
[...]
   xx         0.147952D+03      0.219242D+02      0.243939D+02
   yx         0.141455D+02      0.209615D+01      0.233228D+01
   yy         0.116257D+03      0.172275D+02      0.191682D+02
   zx         0.271574D+01      0.402430D+00      0.447764D+00
   zy        -0.332517D+02     -0.492740D+01     -0.548247D+01
   zz         0.149125D+03      0.220980D+02      0.245873D+02

 ----------------------------------------------------------------------
 Unable to Open any file for archive entry.
 1\1\GINC-GADI-CPU-CLX-0611\Freq\RM062X\Gen\C6H5F2N1O2S1\YJ5695\19-May-
 2022\0\\#N Geom=AllCheck Guess=TCheck SCRF=Check GenChk RM062X/ChkBas 
 Freq\\a1 b1\\0,1\C,-1.521749,0.646102,-0.822422\C,-2.637926,0.934928,-
 1.609398\F,-3.835632,1.105058,-1.036512\C,-2.550047,1.062607,-2.986776
 \H,-3.447466,1.289919,-3.551712\C,-1.313113,0.897802,-3.602341\C,-0.17
 0037,0.609318,-2.856856\H,0.803719,0.476359,-3.315023\C,-0.303541,0.49
 2974,-1.489145\F,0.781892,0.207969,-0.745802\S,-1.544685,0.48552,0.954
 667\O,-0.594707,1.457,1.487009\O,-2.93107,0.515072,1.398677\N,-0.95888
 3,-1.00015,1.334524\H,0.023798,-1.115596,1.080571\H,-1.236087,0.995908
 ,-4.679973\H,-1.535975,-1.75636,0.960473\\Version=ES64L-G16RevC.01\Sta
 te=1-A\HF=-1034.4020796\RMSD=2.174e-09\RMSF=8.116e-06\ZeroPoint=0.1123
 814\Thermal=0.1228304\ETot=-1034.2792492\HTot=-1034.278305\GTot=-1034.
 3262819\Dipole=0.931079,-1.7390587,-3.5249974\DipoleDeriv=-0.5808448,0
 .0622605,0.0330449,0.0544675,-0.4479511,0.1139135,0.0104309,0.0868328,
 -0.9570579,1.5897678,-0.2830897,-0.0596469,-0.1788462,0.2758127,-0.037
 3207,-0.7390503,0.0809081,0.8792884,-1.4212098,0.2040731,0.4388675,0.1
 905853,-0.2040513,-0.0475022,0.5147074,-0.0644885,-0.5074828,-0.302086
 4,0.0199229,0.0148941,-0.036701,-0.198739,0.0197689,0.462612,-0.055740
 6,-0.4425746,0.0616663,0.0323843,-0.0173835,0.0360936,0.2186051,0.0144
 35,-0.0309799,0.0205931,0.1017576,0.4431096,-0.106692,0.0253615,-0.104
 5673,-0.1014178,-0.0396957,0.0048909,-0.0322036,0.2028455,-0.2263951,0
 .0035539,0.0003715,0.0494003,-0.2157523,0.0265497,-0.4158751,0.1106353
 ,-0.5105274,0.0605207,0.0295703,0.0147537,0.0294616,0.2219805,0.010183
 1,0.0276061,0.0078351,0.1142414,1.2927672,-0.1997755,0.1477911,-0.2824
 546,0.2823452,-0.123231,0.7128103,-0.2068614,1.0162512,-1.1935708,0.24
 0099,-0.5274533,0.2639518,-0.2470316,0.180297,-0.5841983,0.1690847,-0.
 7172718,3.0374685,0.0960118,-0.0196412,0.1002453,3.0342479,-0.1350973,
 -0.1039316,0.0006892,3.7420709,-1.1477892,-0.4269415,-0.4260154,-0.338
 7706,-1.2099173,-0.3631666,-0.2029742,-0.204769,-1.3528145,-1.5714736,
 0.0412722,0.5297062,-0.0459933,-0.8118413,0.0048383,0.3371729,-0.00627
 47,-1.2047036,-0.8229115,0.2422889,-0.1748211,0.2396757,-1.3952601,0.4
 782938,-0.0347568,0.1598457,-1.1819075,0.3784536,-0.0960508,0.0838616,
 -0.0132583,0.2461935,-0.0381717,0.0767799,-0.038891,0.4200012,0.134522
 1,0.0093306,0.0082275,0.0082572,0.1847616,0.0198915,0.009834,0.017499,
 0.0051297,0.2680053,0.131782,-0.0719182,0.0284529,0.3680151,-0.0839856
 ,-0.0450783,-0.0446944,0.3927542\Polar=148.4970982,-9.0088522,95.16592
 69,-0.7642024,-10.2567157,169.6703649\Quadrupole=-3.8238641,2.9215053,
 0.9023588,-2.8908394,1.6754887,-6.4307104\PG=C01 [X(C6H5F2N1O2S1)]\NIm
 ag=0\\0.68122451,-0.10063250,0.14864094,0.00961655,-0.04605262,0.56810
 809,-0.24132888,0.04603116,-0.12474680,0.67431587,0.04075050,-0.067242
 94,0.03894445,-0.09794209,0.17556727,-0.06346920,0.02724865,-0.1996144
 2,-0.00411855,-0.05522190,0.69428745,-0.04631623,0.00858176,0.01405875
 ,-0.28821888,0.03601680,0.10589497,0.35766381,0.01124598,0.00365303,-0
 .00392116,0.03609973,-0.04744414,-0.01177896,-0.04944077,0.02984055,-0
 .01491727,0.00131296,0.01841850,0.10450781,-0.01170098,-0.12159646,-0.
 14182290,0.01300725,0.14957908,0.03944615,-0.00364620,-0.01714332,-0.1
 1790181,0.01478084,-0.05272842,-0.02126177,-0.00025627,0.05865503,0.75
 060310,0.00169891,0.00760566,0.00685708,0.00586399,-0.07365705,0.03811
 683,0.00358437,0.00931347,-0.00731840,-0.11887473,0.15463264,-0.073385
 13,0.01725058,-0.02786768,0.03292610,0.02192610,-0.33846533,0.02250483
 ,-0.00055688,-0.02670471,0.01907752,-0.06403152,0.70577182,0.00051082,
 0.00059287,0.00086027,0.00501180,-0.00041716,0.00399532,0.00102158,-0.
 00098327,-0.00051213,-0.26076078,0.05609275,-0.13092973,0.27144862,0.0
 0059376,0.00411073,0.00076920,0.00263680,0.00428922,0.00124253,-0.0009
 0492,-0.00423292,-0.00069802,0.05608316,-0.04882799,0.03539247,-0.0606
 4325,0.04022562,0.00128233,0.00080694,-0.00482613,-0.02525224,0.006599
 43,-0.01323703,-0.00130862,-0.00051678,0.00302257,-0.12969727,0.035270
 79,-0.14078948,0.13795673,-0.03810619,0.14308248,-0.07237133,0.0132648
 5,-0.00229560,0.02661615,-0.01534137,0.10215643,0.00743838,0.00097936,
 -0.01066618,-0.31206608,0.04127649,0.05266476,-0.01558322,0.00187245,0
 .01368485,0.67364682,0.01380180,-0.00315865,0.00074053,-0.00811290,0.0
 0402908,-0.01741091,-0.00002403,0.00706720,0.00344869,0.03330483,-0.06
 785047,0.00274301,0.00503200,0.00250270,-0.00362639,-0.09617852,0.1683
 8564,-0.00375681,0.00099816,-0.00296231,0.03323232,-0.00443318,-0.0150
 8337,0.00050599,0.00142169,-0.00683436,0.12675607,-0.01152963,-0.17784
 277,-0.01469172,0.00170574,0.01307973,-0.01838984,-0.06066741,0.760192
 58,0.02622962,-0.00511222,0.02347436,-0.00934045,0.00468000,-0.0310656
 9,-0.00528200,0.00039570,0.00421734,-0.05081988,0.00884732,0.01620975,
 -0.00243388,0.00142095,0.00334723,-0.28146772,0.05414150,-0.13126410,0
 .75419316,-0.01166367,0.01189876,-0.00103112,0.00445706,-0.00359688,0.
 01323271,0.00092862,-0.00127156,-0.00145526,0.01394294,0.00473646,-0.0
 1009874,0.00143066,0.00668306,0.00020454,0.04664999,-0.07414775,0.0379
 6754,-0.11213186,0.15151955,0.08052303,-0.01150576,-0.01924629,-0.0298
 8399,0.01318280,-0.07458051,-0.00151172,-0.00033531,0.00569355,-0.0333
 3474,-0.00101029,0.07469586,0.00309764,0.00032329,-0.00076508,-0.05701
 586,0.02407930,-0.19496870,-0.04424177,-0.05236632,0.70966954,0.000803
 86,0.00076228,-0.00008909,0.00013336,-0.00008224,-0.00084610,-0.000023
 21,-0.00011069,0.00016133,-0.00148895,0.00182662,-0.00291831,-0.000593
 15,0.00007720,0.00063020,-0.01490949,0.00214054,0.01116746,-0.29771171
 ,0.03666279,0.11683761,0.31019815,0.00084427,0.00474360,0.00107344,-0.
 00009107,-0.00087515,0.00026496,-0.00008437,-0.00050431,-0.00015223,0.
 00188798,0.00630401,0.00134219,0.00021979,0.00015130,-0.00014770,0.004
 98051,0.00230034,-0.00313096,0.03677405,-0.04009593,-0.01348399,-0.040
 10207,0.03079817,-0.00053423,0.00106190,-0.00484955,-0.00089630,0.0002
 1708,-0.00126237,-0.00009876,-0.00007354,0.00036052,-0.00313064,0.0014
 4188,-0.00153907,-0.00077159,0.00010242,0.00053554,-0.01704024,0.00213
 135,0.01291411,0.11580525,-0.01342147,-0.11273448,-0.12349092,0.013812
 10,0.11289607,-0.26254723,0.02420827,0.12426262,-0.05705166,0.01533134
 ,-0.04606334,0.00193496,0.00067061,0.00175825,-0.02169389,-0.00016197,
 0.03900007,-0.00010464,-0.00028453,0.00101475,0.04638014,-0.00586302,-
 0.02587143,-0.12775482,0.01095385,0.00659451,0.00167384,-0.00226649,0.
 02766979,0.65544940,0.03106149,-0.06668755,-0.01181298,0.00832937,-0.0
 0189456,-0.00150076,0.00106649,0.00601756,0.00154588,-0.00038566,-0.00
 106961,-0.00045503,-0.00028390,-0.00099290,-0.00019213,0.00157915,-0.0
 0026400,0.00825462,0.00172200,-0.07018408,0.02779405,0.00074476,0.0050
 3654,-0.00351955,-0.09157225,0.17382772,0.05842632,0.00086943,-0.17584
 582,0.02339683,-0.01431949,0.09402685,-0.00191998,0.00198088,-0.010325
 38,0.03975088,-0.00046038,-0.06620074,0.00105299,-0.00027128,-0.001106
 54,-0.09495175,0.02081540,-0.03053060,0.09182617,0.01218743,-0.3490771
 1,-0.00152034,0.00174665,-0.01016358,-0.02781341,-0.05556070,0.7231224
 3,-0.04807753,0.01227184,-0.02433902,0.00102940,0.00043380,0.00456007,
 -0.00558660,0.00117043,-0.00042852,-0.00414908,0.00045819,-0.00000673,
 -0.00001660,-0.00004501,0.00004627,0.00503382,0.00034719,0.00146274,-0
 .00678524,0.00463754,-0.01736570,0.00058713,-0.00104699,0.00056774,-0.
 24046561,0.04926196,-0.11289648,0.30088998,0.00946334,0.00377156,0.003
 61933,0.00081183,0.00581219,0.00090820,0.00125668,0.00010338,-0.000110
 83,0.00118845,-0.00157980,-0.00067645,-0.00003906,-0.00037446,-0.00009
 290,-0.00094612,0.00762207,0.00110268,0.00877184,0.00566088,0.00793917
 ,-0.00097625,-0.00430124,-0.00095122,0.04790740,-0.05343044,0.03137735
 ,-0.06674561,0.04173833,0.00620224,-0.00218657,0.01593908,0.00033713,0
 .00150258,-0.00950599,-0.00079931,0.00002830,0.00159443,-0.00546927,0.
 00031341,0.00483320,-0.00025776,-0.00000498,0.00039093,0.01234935,-0.0
 0088966,-0.00568259,-0.05438203,0.01463973,-0.03400873,0.00023012,-0.0
 0087214,0.00319673,-0.11096745,0.03221186,-0.14834899,0.15157860,-0.04
 427232,0.17920216,-0.07522140,0.00584964,0.00019731,0.01534065,-0.0008
 3765,-0.02436535,-0.00307496,-0.00068223,0.00789108,-0.00310364,0.0018
 7539,-0.00297027,0.00024956,0.00014067,-0.00090268,-0.00279678,0.00029
 498,-0.00055643,-0.00479505,0.00131025,0.00300405,0.00020057,-0.000048
 79,0.00117891,0.01250617,-0.00525817,0.03063967,-0.00257462,0.00034176
 ,-0.00570848,0.96830553,0.00562853,-0.05298723,0.00770839,0.00035687,-
 0.00027493,0.00624808,-0.00171136,-0.00291549,-0.00033693,0.00186765,0
 .00477018,0.00060066,-0.00000296,0.00056791,0.00015502,0.00045384,-0.0
 0118121,-0.00030758,0.00160322,0.00428350,-0.00081091,0.00011813,0.000
 67773,-0.00023490,-0.00547824,0.00229052,-0.00381325,0.00125600,-0.005
 04657,0.00047219,0.13708176,0.63892692,-0.00004348,0.00985795,-0.14394
 618,-0.03386285,0.00755259,-0.01660719,0.01505121,-0.00215235,-0.00671
 237,-0.00019462,-0.00004579,0.00650095,0.00025537,-0.00012775,0.001426
 57,-0.00103945,-0.00022826,0.00275316,-0.00022540,-0.00055165,0.008167
 64,-0.00034313,-0.00004664,0.00135742,0.03465678,-0.00370514,-0.018710
 91,-0.01246562,0.00245099,-0.00755634,-0.01794541,0.07751818,0.4972804
 3,0.00185957,-0.00905126,-0.00409417,0.00394673,-0.00079913,0.00017378
 ,-0.00122428,-0.00002235,-0.00067073,-0.00046011,0.00063374,-0.0005478
 1,0.00009720,0.00007828,-0.00030109,0.00011960,-0.00008753,-0.00019249
 ,0.00123099,0.00025894,-0.00074616,0.00000717,0.00011978,-0.00037345,-
 0.00762130,0.00151560,-0.00413834,0.00180074,0.00048555,0.00492910,-0.
 27800870,-0.20495705,-0.10992619,0.29228835,-0.00838249,0.00298851,0.0
 0071518,0.00398019,-0.00120468,-0.00229905,-0.00083834,0.00016975,-0.0
 0007544,-0.00136664,0.00036871,-0.00053758,0.00013695,0.00008394,-0.00
 036684,0.00003279,-0.00005660,-0.00005754,0.00042073,-0.00001523,-0.00
 050576,-0.00000581,-0.00000645,-0.00018043,-0.00152806,0.00053809,0.00
 091478,0.00162888,-0.00029811,-0.00105923,-0.20711286,-0.28132443,-0.1
 1063025,0.24117479,0.31301730,-0.02256666,-0.01835175,-0.01305589,0.01
 159125,-0.00458939,-0.00276141,-0.00387092,-0.00020486,0.00166534,-0.0
 0102549,0.00214875,-0.00212181,0.00019872,0.00034309,-0.00069046,-0.00
 067448,-0.00016751,-0.00077243,0.00053618,0.00106875,-0.00075506,0.000
 04942,0.00010075,-0.00033714,-0.00657000,0.00109629,0.00128932,0.00356
 931,-0.00216600,-0.00101726,-0.12144997,-0.12328980,-0.13853758,0.1311
 9781,0.13568335,0.13211448,-0.01077121,0.00157177,0.00206158,-0.009789
 50,0.00168235,0.00328188,0.00418964,0.00067846,-0.00934664,0.00132868,
 -0.00034878,0.00028018,-0.00000283,-0.00003748,0.00037479,-0.00034808,
 0.00003859,0.00021507,-0.00161913,0.00022425,0.00091456,0.00011487,-0.
 00009608,0.00058194,0.00599053,-0.00136951,0.00274585,-0.00117550,0.00
 034197,0.00039348,-0.51584963,0.00508778,0.13596717,-0.02300053,-0.000
 67358,0.01182924,0.57909202,-0.00191085,0.00765635,0.00046989,0.000648
 66,-0.00051545,-0.00107346,0.00056739,0.00098283,0.00281992,-0.0002122
 4,-0.00053616,0.00017485,-0.00001007,-0.00002269,0.00000656,0.00012139
 ,0.00014219,-0.00001590,-0.00051902,-0.00055018,-0.00006861,-0.0000304
 8,-0.00019375,0.00006201,0.00120721,0.00129996,0.00110326,-0.00023522,
 0.00051380,-0.00002959,0.00757355,-0.07268610,-0.00078437,-0.02919212,
 0.00669619,0.00276548,-0.01764611,0.06045827,0.03420111,-0.00281891,-0
 .00403988,0.00249109,-0.00113798,0.00460703,-0.00481375,0.00234680,-0.
 00892672,-0.00012653,-0.00003635,-0.00085469,0.00001238,0.00002807,-0.
 00024084,0.00045601,0.00000102,-0.00020097,0.00321281,-0.00064409,-0.0
 0162780,-0.00012437,0.00005681,-0.00093146,-0.01003520,0.00317199,-0.0
 0721221,0.00204212,-0.00050519,0.00177954,0.14937919,-0.00301697,-0.12
 255518,-0.01368791,-0.00617752,0.01526266,-0.15897612,0.00205549,0.114
 90704,0.00708224,0.00613736,-0.00158203,0.00119864,-0.00019569,0.00121
 576,-0.00048649,0.00046809,-0.00083339,0.00001416,-0.00045470,-0.00036
 954,0.00001610,-0.00004643,-0.00009598,0.00002360,0.00013589,-0.000111
 87,0.00058039,-0.00041025,-0.00048376,-0.00002438,-0.00002377,-0.00021
 662,-0.00382424,0.00098922,-0.00239509,0.00108050,-0.00086616,0.002032
 32,-0.11283025,0.04423913,-0.01989261,0.00667525,-0.03151500,-0.001394
 18,-0.02945780,0.04084520,-0.00355945,0.71447269,0.00905316,-0.0061155
 3,0.00274090,-0.00676477,-0.00045190,0.00152610,0.00186691,-0.00046547
 ,-0.00026778,0.00114122,0.00023970,0.00114842,-0.00009803,0.00011340,0
 .00047741,0.00015646,-0.00025204,0.00040943,-0.00028385,0.00037235,0.0
 0064020,-0.00002703,-0.00001422,0.00023375,0.00375176,-0.00084937,0.00
 005494,-0.00257831,-0.00005455,0.00084774,0.04222120,-0.20250086,0.042
 28970,0.00187948,-0.03860523,0.00393013,0.00496419,-0.00137055,0.00424
 293,0.05994981,0.56815996,-0.01223714,0.02229604,-0.00591391,0.0096035
 1,0.00125458,-0.00137779,-0.00275598,0.00094633,0.00153777,-0.00084577
 ,-0.00129153,-0.00209841,0.00004362,-0.00024832,-0.00053354,-0.0007479
 6,0.00051714,-0.00072402,-0.00023782,-0.00087539,-0.00034639,0.0000597
 3,-0.00000595,-0.00016898,-0.00417418,0.00047743,0.00041417,0.00246448
 ,0.00148970,-0.00008251,-0.00891627,0.01290610,-0.05674340,-0.00106209
 ,-0.01695217,0.00712679,0.00966018,-0.00842851,0.00704653,0.00130816,0
 .10235087,0.15757688,0.00122039,-0.00148109,0.00024712,-0.00123043,0.0
 0005033,0.00021811,0.00038573,-0.00010705,-0.00011636,0.00016359,0.000
 07583,0.00027516,-0.00001034,0.00001023,0.00008441,0.00008897,-0.00006
 573,0.00008139,-0.00013705,0.00013883,0.00008735,-0.00000062,-0.000007
 10,0.00004494,0.00084465,0.00029664,-0.00065403,-0.00116011,-0.0010358
 3,0.00137625,-0.01032621,0.00946181,0.00214386,0.00057989,-0.00346540,
 -0.00099870,0.00325556,-0.00097438,-0.00020993,-0.40201022,0.03343969,
 0.08724800,0.42022941,-0.00197373,-0.00029671,-0.00000777,0.00054166,0
 .00020366,-0.00021392,-0.00031727,0.00003151,0.00025515,-0.00014737,-0
 .00003013,-0.00009229,-0.00000045,-0.00000605,-0.00002542,0.00007140,0
 .00002831,-0.00010613,-0.00038028,-0.00000475,-0.00022457,0.00000393,0
 .00000772,0.00002914,0.00192494,-0.00066764,0.00224146,-0.00116903,0.0
 0042447,-0.00120037,0.03184054,-0.00308575,-0.01026531,-0.00272398,0.0
 0170768,0.00153395,0.00623577,-0.00581694,0.00061097,0.03340781,-0.065
 45996,-0.01250466,-0.04114775,0.06493050,0.00161883,0.00008092,-0.0006
 0443,-0.00047558,-0.00015317,0.00006318,0.00027249,-0.00001465,-0.0000
 0290,0.00018980,-0.00000901,0.00014358,-0.00000287,0.00000941,0.000024
 42,-0.00002063,-0.00001836,0.00006769,0.00028794,-0.00009721,0.0002166
 1,0.00000039,-0.00000195,-0.00001865,-0.00221625,0.00145909,-0.0026528
 3,0.00148870,-0.00048605,0.00089093,-0.01323572,0.01033403,-0.00346201
 ,-0.00051074,-0.00153011,-0.00142533,-0.00098606,0.00100035,0.00374283
 ,0.12474266,-0.02422522,-0.03832056,-0.09653448,0.01094282,0.04092909,
 -0.00095586,-0.00003590,-0.00006261,-0.00350847,0.00195889,0.00132347,
 -0.00090498,-0.00014222,0.00202347,0.00220821,-0.00237885,0.02832502,0
 .00114352,-0.00095843,-0.00081695,-0.05976531,0.00108844,0.02150133,0.
 00585540,0.00265105,-0.02645026,0.00102976,-0.00105783,0.00073449,-0.0
 0305890,0.00210629,-0.00155368,-0.00051382,0.00025488,-0.00213665,-0.0
 0003658,-0.00008352,-0.00001146,0.00002860,0.00001294,-0.00001712,0.00
 006869,0.00000585,-0.00001061,0.00003018,-0.00002216,0.00002680,-0.000
 00637,-0.00002628,0.00002926,0.05838446,0.00004628,-0.00103744,-0.0001
 3003,0.00192194,0.00733315,0.00038052,-0.00002144,-0.00054086,-0.00034
 759,0.00068793,0.00577385,-0.00384672,-0.00102456,-0.00425581,-0.00038
 728,0.00108557,-0.04522622,0.02855207,-0.00034299,0.00481069,0.0065138
 8,-0.00100439,-0.00402691,-0.00065848,0.00206844,0.00686365,0.00095805
 ,0.00005662,-0.00050585,0.00043749,-0.00004957,-0.00048091,-0.00007451
 ,-0.00006220,-0.00000278,-0.00012718,-0.00001411,0.00007076,0.00003011
 ,0.00003421,-0.00004843,0.00014612,-0.00001402,0.00000994,-0.00000544,
 -0.00337414,0.03124511,-0.00009159,-0.00013099,0.00034504,0.00145766,0
 .00038221,0.00138548,0.00042887,-0.00006901,-0.00070588,-0.00056701,0.
 00146883,-0.00753076,-0.00031838,-0.00047190,0.00063268,0.02149329,0.0
 2856216,-0.35350218,0.00246723,0.00117594,-0.01033087,0.00019919,-0.00
 055812,0.00073228,-0.00181769,0.00100519,0.00100450,-0.00035422,0.0001
 3694,-0.00099483,-0.00000250,-0.00006271,0.00030764,-0.00004673,-0.000
 06086,-0.00011859,0.00006178,0.00002150,-0.00012500,-0.00001321,0.0000
 6517,-0.00005317,0.00000981,-0.00002099,0.00002952,-0.02290092,-0.0314
 3174,0.36892694,-0.00078748,0.00068738,-0.00042593,0.00077749,-0.00006
 952,-0.00016314,-0.00025470,0.00003651,0.00009983,-0.00005791,-0.00001
 457,-0.00013586,0.00000624,0.00000655,-0.00004673,-0.00003948,0.000005
 97,-0.00008769,0.00005736,-0.00004099,-0.00002480,0.00000279,-0.000001
 83,-0.00003031,-0.00065740,0.00019654,0.00000439,0.00008314,-0.0002146
 9,0.00029237,0.01201534,0.00507842,0.00787584,0.00168082,0.00750093,-0
 .00040440,-0.00202577,-0.00023877,-0.00025084,-0.18254040,-0.14864974,
 -0.07943728,-0.01188684,-0.02613991,-0.01464774,0.00000146,0.00000641,
 -0.00000559,0.18362535,0.00037522,0.00245692,-0.00068273,0.00123159,-0
 .00007690,0.00033038,-0.00052653,0.00019548,0.00007362,0.00000412,-0.0
 0019347,-0.00028306,-0.00000231,-0.00001506,-0.00005907,-0.00005825,0.
 00005942,-0.00016361,-0.00000708,-0.00009889,-0.00016118,0.00000270,-0
 .00000145,-0.00005204,-0.00086925,0.00016610,0.00017548,0.00029773,-0.
 00005565,0.00006155,-0.01454046,-0.02903326,-0.01105740,0.00074946,-0.
 00405668,0.00022594,-0.00063948,0.00387147,0.00179281,-0.15269472,-0.2
 5269729,-0.10207778,0.00482499,0.00802415,0.00271457,0.00000099,0.0000
 1805,-0.00001162,0.16185129,0.27143707,-0.00086891,-0.00073694,-0.0000
 3822,-0.00030741,-0.00000572,-0.00027811,0.00018484,-0.00010776,-0.000
 06297,-0.00016623,0.00011534,0.00007003,0.00001113,0.00001222,-0.00000
 582,0.00003730,-0.00003009,0.00009702,0.00003256,0.00006458,-0.0000021
 8,-0.00000318,0.00000278,0.00001261,0.00057219,-0.00027010,0.00031742,
 0.00007626,0.00023658,-0.00062976,0.00376286,0.01593038,-0.00296267,-0
 .00000279,0.00311948,0.00413437,0.00094111,-0.00007886,-0.00063086,-0.
 09835116,-0.13646470,-0.06733947,0.00669711,0.00904794,0.00037886,-0.0
 0000356,-0.00000926,-0.00000281,0.08738788,0.10917412,0.06694255\\-0.0
 0001017,-0.00000206,0.00000272,-0.00000058,-0.00000633,-0.00000053,-0.
 00000610,-0.00002338,-0.00000586,0.00000088,-0.00001282,-0.00000701,-0
 .00000217,-0.00001995,-0.00000521,-0.00000356,-0.00000079,0.00000037,0
 .00000456,0.00000819,0.00000663,0.00000372,0.00001595,0.00000375,0.000
 00825,0.00000654,-0.00000112,-0.00000155,0.00001876,0.00000336,-0.0000
 0515,0.00000183,-0.00000293,-0.00001313,0.00000793,0.00000080,-0.00000
 826,-0.00001000,-0.00000189,0.00000873,0.00000407,-0.00000049,0.000008
 18,0.00001415,0.00000523,0.00000296,-0.00000211,-0.00000085,0.00001340
 ,0.,0.00000304\\\@
 The archive entry for this job was punched.


 THAT'S WHAT MAKES US A GREAT COUNTRY.
 THE LITTLE THINGS ARE SERIOUS AND THE BIG ONES ARE NOT.
           WILL ROGERS
 Job cpu time:       0 days  0 hours 51 minutes 16.1 seconds.
 Elapsed time:       0 days  0 hours  3 minutes 14.8 seconds.
 File lengths (MBytes):  RWF=    159 Int=      0 D2E=      0 Chk=     11 Scr=      1
 Normal termination of Gaussian 16 at Thu May 19 15:08:33 2022.
