 Entering Gaussian System, Link 0=g16
 AtFile(1): //home/561/yj5695//Basis/6-31pGd.gbs
 Initial command:
 /apps/gaussian/g16c01/g16/l1.exe "/jobfs/40645849.gadi-pbs/Gau-29103.inp" -scrdir="/jobfs/40645849.gadi-pbs/"
 Entering Link 1 = /apps/gaussian/g16c01/g16/l1.exe PID=     29104.
  
 Copyright (c) 1988-2019, Gaussian, Inc.  All Rights Reserved.
  
 This is part of the Gaussian(R) 16 program.  It is based on
 the Gaussian(R) 09 system (copyright 2009, Gaussian, Inc.),
 the Gaussian(R) 03 system (copyright 2003, Gaussian, Inc.),
 the Gaussian(R) 98 system (copyright 1998, Gaussian, Inc.),
 the Gaussian(R) 94 system (copyright 1995, Gaussian, Inc.),
 the Gaussian 92(TM) system (copyright 1992, Gaussian, Inc.),
 the Gaussian 90(TM) system (copyright 1990, Gaussian, Inc.),
 the Gaussian 88(TM) system (copyright 1988, Gaussian, Inc.),
 the Gaussian 86(TM) system (copyright 1986, Carnegie Mellon
 University), and the Gaussian 82(TM) system (copyright 1983,
 Carnegie Mellon University). Gaussian is a federally registered
 trademark of Gaussian, Inc.
  
 This software contains proprietary and confidential information,
 including trade secrets, belonging to Gaussian, Inc.
  
 This software is provided under written license and may be
 used, copied, transmitted, or stored only in accord with that
 written license.
  
 The following legend is applicable only to US Government
 contracts under FAR:
  
                    RESTRICTED RIGHTS LEGEND
  
 Use, reproduction and disclosure by the US Government is
 subject to restrictions as set forth in subparagraphs (a)
 and (c) of the Commercial Computer Software - Restricted
 Rights clause in FAR 52.227-19.
  
 Gaussian, Inc.
 340 Quinnipiac St., Bldg. 40, Wallingford CT 06492
  
  
 ---------------------------------------------------------------
 Warning -- This program may not be used in any manner that
 competes with the business of Gaussian, Inc. or will provide
 assistance to any competitor of Gaussian, Inc.  The licensee
 of this program is prohibited from giving any competitor of
 Gaussian, Inc. access to this program.  By using this program,
 the user acknowledges that Gaussian, Inc. is engaged in the
 business of creating and licensing software in the field of
 computational chemistry and represents and warrants to the
 licensee that it is not a competitor of Gaussian, Inc. and that
 it will not use this program in any manner prohibited above.
 ---------------------------------------------------------------
  

 Cite this work as:
 Gaussian 16, Revision C.01,
 M. J. Frisch, G. W. Trucks, H. B. Schlegel, G. E. Scuseria, 
 M. A. Robb, J. R. Cheeseman, G. Scalmani, V. Barone, 
 G. A. Petersson, H. Nakatsuji, X. Li, M. Caricato, A. V. Marenich, 
 J. Bloino, B. G. Janesko, R. Gomperts, B. Mennucci, H. P. Hratchian, 
 J. V. Ortiz, A. F. Izmaylov, J. L. Sonnenberg, D. Williams-Young, 
 F. Ding, F. Lipparini, F. Egidi, J. Goings, B. Peng, A. Petrone, 
 T. Henderson, D. Ranasinghe, V. G. Zakrzewski, J. Gao, N. Rega, 
 G. Zheng, W. Liang, M. Hada, M. Ehara, K. Toyota, R. Fukuda, 
 J. Hasegawa, M. Ishida, T. Nakajima, Y. Honda, O. Kitao, H. Nakai, 
 T. Vreven, K. Throssell, J. A. Montgomery, Jr., J. E. Peralta, 
 F. Ogliaro, M. J. Bearpark, J. J. Heyd, E. N. Brothers, K. N. Kudin, 
 V. N. Staroverov, T. A. Keith, R. Kobayashi, J. Normand, 
 K. Raghavachari, A. P. Rendell, J. C. Burant, S. S. Iyengar, 
 J. Tomasi, M. Cossi, J. M. Millam, M. Klene, C. Adamo, R. Cammi, 
 J. W. Ochterski, R. L. Martin, K. Morokuma, O. Farkas, 
 J. B. Foresman, and D. J. Fox, Gaussian, Inc., Wallingford CT, 2019.
 
 ******************************************
 Gaussian 16:  ES64L-G16RevC.01  3-Jul-2019
                19-May-2022 
 ******************************************
 %nproc=16
 Will use up to   16 processors via shared memory.
 %mem=20gb
 -----------------------------------------------------
 #m062X/gen 6D OPT Freq=noraman SCRF=(SMD,Solvent=h2o)
 -----------------------------------------------------
 1/18=20,19=15,26=3,38=1/1,3;
 2/9=110,12=2,17=6,18=5,40=1/2;
 3/5=7,8=2,11=2,25=1,30=1,70=32201,71=1,72=1,74=-55/1,2,3;
 4//1;
 5/5=2,38=5,53=1/2;
 6/7=2,8=2,9=2,10=2,28=1/1;
 7//1,2,3,16;
 1/18=20,19=15,26=3/3(2);
 2/9=110/2;
 99//99;
 2/9=110/2;
 3/5=7,6=1,8=2,11=2,25=1,30=1,70=32205,71=1,72=1,74=-55,82=7/1,2,3;
 4/5=5,16=3,69=1/1;
 5/5=2,38=5,53=1/2;
 7//1,2,3,16;
 1/18=20,19=15,26=3/3(-5);
 2/9=110/2;
 6/7=2,8=2,9=2,10=2,19=2,28=1/1;
 99/9=1/99;
 -----
 a3 b1
 -----
 Symbolic Z-matrix:
 Charge =  0 Multiplicity = 1
 C                    -1.51607   0.64883  -0.78465 
 C                    -2.64654   0.91817  -1.55227 
 F                    -3.85067   1.07847  -1.01502 
 C                    -2.55116   1.03739  -2.93277 
 F                    -3.63936   1.29604  -3.65315 
 C                    -1.32622   0.88793  -3.56254 
 C                    -0.18785   0.61857  -2.81463 
 F                     0.98844   0.47262  -3.41718 
 C                    -0.29482   0.50484  -1.44148 
 F                     0.80854   0.23791  -0.74059 
 S                    -1.53225   0.49303   1.00211 
 O                    -2.89078   0.79449   1.43077 
 O                    -0.92294  -0.78418   1.33301 
 N                    -0.56778   1.66305   1.61127 
 H                    -0.92602   2.60723   1.45707 
 F                    -1.23994   1.0016   -4.88025 
 H                     0.40926   1.56829   1.32659 
 

 GradGradGradGradGradGradGradGradGradGradGradGradGradGradGradGradGradGrad
 Berny optimization.
 Initialization pass.
                           ----------------------------
                           !    Initial Parameters    !
                           ! (Angstroms and Degrees)  !
 --------------------------                            --------------------------
 ! Name  Definition              Value          Derivative Info.                !
 --------------------------------------------------------------------------------
 ! R1    R(1,2)                  1.3927         estimate D2E/DX2                !
 ! R2    R(1,9)                  1.3941         estimate D2E/DX2                !
 ! R3    R(1,11)                 1.7936         estimate D2E/DX2                !
 ! R4    R(2,3)                  1.3283         estimate D2E/DX2                !
 ! R5    R(2,4)                  1.3889         estimate D2E/DX2                !
 ! R6    R(4,5)                  1.3304         estimate D2E/DX2                !
 ! R7    R(4,6)                  1.3854         estimate D2E/DX2                !
 ! R8    R(6,7)                  1.3885         estimate D2E/DX2                !
 ! R9    R(6,16)                 1.3254         estimate D2E/DX2                !
 ! R10   R(7,8)                  1.3297         estimate D2E/DX2                !
 ! R11   R(7,9)                  1.382          estimate D2E/DX2                !
 ! R12   R(9,10)                 1.3341         estimate D2E/DX2                !
 ! R13   R(11,12)                1.4561         estimate D2E/DX2                !
 ! R14   R(11,13)                1.4533         estimate D2E/DX2                !
 ! R15   R(11,14)                1.6341         estimate D2E/DX2                !
 ! R16   R(14,15)                1.0216         estimate D2E/DX2                !
 ! R17   R(14,17)                1.0221         estimate D2E/DX2                !
 ! A1    A(2,1,9)              118.1206         estimate D2E/DX2                !
 ! A2    A(2,1,11)             123.9536         estimate D2E/DX2                !
 ! A3    A(9,1,11)             117.9224         estimate D2E/DX2                !
 ! A4    A(1,2,3)              122.4282         estimate D2E/DX2                !
 ! A5    A(1,2,4)              120.5757         estimate D2E/DX2                !
 ! A6    A(3,2,4)              116.9953         estimate D2E/DX2                !
 ! A7    A(2,4,5)              119.9147         estimate D2E/DX2                !
 ! A8    A(2,4,6)              120.2163         estimate D2E/DX2                !
 ! A9    A(5,4,6)              119.869          estimate D2E/DX2                !
 ! A10   A(4,6,7)              120.0645         estimate D2E/DX2                !
 ! A11   A(4,6,16)             120.0153         estimate D2E/DX2                !
 ! A12   A(7,6,16)             119.9203         estimate D2E/DX2                !
 ! A13   A(6,7,8)              120.1655         estimate D2E/DX2                !
 ! A14   A(6,7,9)              119.1906         estimate D2E/DX2                !
 ! A15   A(8,7,9)              120.6439         estimate D2E/DX2                !
 ! A16   A(1,9,7)              121.832          estimate D2E/DX2                !
 ! A17   A(1,9,10)             119.8422         estimate D2E/DX2                !
 ! A18   A(7,9,10)             118.3231         estimate D2E/DX2                !
 ! A19   A(1,11,12)            106.481          estimate D2E/DX2                !
 ! A20   A(1,11,13)            107.42           estimate D2E/DX2                !
 ! A21   A(1,11,14)            107.6884         estimate D2E/DX2                !
 ! A22   A(12,11,13)           120.4041         estimate D2E/DX2                !
 ! A23   A(12,11,14)           107.0192         estimate D2E/DX2                !
 ! A24   A(13,11,14)           107.2729         estimate D2E/DX2                !
 ! A25   A(11,14,15)           113.4858         estimate D2E/DX2                !
 ! A26   A(11,14,17)           113.2031         estimate D2E/DX2                !
 ! A27   A(15,14,17)           112.2644         estimate D2E/DX2                !
 ! D1    D(9,1,2,3)           -179.6285         estimate D2E/DX2                !
 ! D2    D(9,1,2,4)              0.0469         estimate D2E/DX2                !
 ! D3    D(11,1,2,3)            -0.3142         estimate D2E/DX2                !
 ! D4    D(11,1,2,4)           179.3612         estimate D2E/DX2                !
 ! D5    D(2,1,9,7)             -0.1809         estimate D2E/DX2                !
 ! D6    D(2,1,9,10)          -179.5715         estimate D2E/DX2                !
 ! D7    D(11,1,9,7)          -179.5372         estimate D2E/DX2                !
 ! D8    D(11,1,9,10)            1.0721         estimate D2E/DX2                !
 ! D9    D(2,1,11,12)           -3.9382         estimate D2E/DX2                !
 ! D10   D(2,1,11,13)          126.3009         estimate D2E/DX2                !
 ! D11   D(2,1,11,14)         -118.4406         estimate D2E/DX2                !
 ! D12   D(9,1,11,12)          175.3774         estimate D2E/DX2                !
 ! D13   D(9,1,11,13)          -54.3835         estimate D2E/DX2                !
 ! D14   D(9,1,11,14)           60.875          estimate D2E/DX2                !
 ! D15   D(1,2,4,5)           -179.9415         estimate D2E/DX2                !
 ! D16   D(1,2,4,6)              0.0543         estimate D2E/DX2                !
 ! D17   D(3,2,4,5)             -0.249          estimate D2E/DX2                !
 ! D18   D(3,2,4,6)            179.7468         estimate D2E/DX2                !
 ! D19   D(2,4,6,7)             -0.0264         estimate D2E/DX2                !
 ! D20   D(2,4,6,16)           179.9537         estimate D2E/DX2                !
 ! D21   D(5,4,6,7)            179.9694         estimate D2E/DX2                !
 ! D22   D(5,4,6,16)            -0.0506         estimate D2E/DX2                !
 ! D23   D(4,6,7,8)            179.8921         estimate D2E/DX2                !
 ! D24   D(4,6,7,9)             -0.103          estimate D2E/DX2                !
 ! D25   D(16,6,7,8)            -0.0879         estimate D2E/DX2                !
 ! D26   D(16,6,7,9)           179.9169         estimate D2E/DX2                !
 ! D27   D(6,7,9,1)              0.2099         estimate D2E/DX2                !
 ! D28   D(6,7,9,10)           179.6095         estimate D2E/DX2                !
 ! D29   D(8,7,9,1)           -179.7852         estimate D2E/DX2                !
 ! D30   D(8,7,9,10)            -0.3857         estimate D2E/DX2                !
 ! D31   D(1,11,14,15)          66.4892         estimate D2E/DX2                !
 ! D32   D(1,11,14,17)         -62.9843         estimate D2E/DX2                !
 ! D33   D(12,11,14,15)        -47.6549         estimate D2E/DX2                !
 ! D34   D(12,11,14,17)       -177.1284         estimate D2E/DX2                !
 ! D35   D(13,11,14,15)       -178.1551         estimate D2E/DX2                !
 ! D36   D(13,11,14,17)         52.3714         estimate D2E/DX2                !
 --------------------------------------------------------------------------------
 Trust Radius=3.00D-01 FncErr=1.00D-07 GrdErr=1.00D-06 EigMax=2.50D+02 EigMin=1.00D-04
 Number of steps in this run=     90 maximum allowed number of steps=    102.
 GradGradGradGradGradGradGradGradGradGradGradGradGradGradGradGradGradGrad

                          Input orientation:                          
 ---------------------------------------------------------------------
 Center     Atomic      Atomic             Coordinates (Angstroms)
 Number     Number       Type             X           Y           Z
 ---------------------------------------------------------------------
      1          6           0       -1.516067    0.648829   -0.784650
      2          6           0       -2.646538    0.918171   -1.552269
      3          9           0       -3.850672    1.078471   -1.015019
      4          6           0       -2.551163    1.037391   -2.932768
      5          9           0       -3.639361    1.296042   -3.653153
      6          6           0       -1.326222    0.887927   -3.562542
      7          6           0       -0.187850    0.618565   -2.814632
      8          9           0        0.988435    0.472616   -3.417185
      9          6           0       -0.294821    0.504838   -1.441483
     10          9           0        0.808539    0.237913   -0.740589
     11         16           0       -1.532253    0.493031    1.002111
     12          8           0       -2.890781    0.794492    1.430767
     13          8           0       -0.922938   -0.784182    1.333007
     14          7           0       -0.567778    1.663054    1.611274
     15          1           0       -0.926019    2.607234    1.457069
     16          9           0       -1.239938    1.001598   -4.880248
     17          1           0        0.409260    1.568285    1.326590
 ---------------------------------------------------------------------
                    Distance matrix (angstroms):
                    1          2          3          4          5
     1  C    0.000000
     2  C    1.392749   0.000000
     3  F    2.384962   1.328259   0.000000
     4  C    2.415950   1.388916   2.316932   0.000000
     5  F    3.627061   2.354187   2.655511   1.330425   0.000000
     6  C    2.794619   2.405275   3.591522   1.385437   2.350613
     7  C    2.426088   2.780013   4.106871   2.403044   3.615940
     8  F    3.637832   4.109679   5.436398   3.616958   4.706401
     9  C    1.394132   2.390333   3.626983   2.756560   4.086984
    10  F    2.361056   3.613742   4.742372   4.090527   5.420930
    11  S    1.793614   2.819084   3.128357   4.100948   5.172641
    12  O    2.611346   2.995573   2.642708   4.383466   5.163155
    13  O    2.624842   3.767442   4.189789   4.915901   6.047154
    14  N    2.769180   3.857991   4.244590   4.997358   6.106023
    15  H    3.034602   3.856065   4.123340   4.937223   5.932606
    16  F    4.120026   3.613991   4.664958   2.348035   2.711031
    17  H    3.001603   4.248338   4.885701   5.214219   6.423651
                    6          7          8          9         10
     6  C    0.000000
     7  C    1.388458   0.000000
     8  F    2.356109   1.329668   0.000000
     9  C    2.389443   1.381997   2.356095   0.000000
    10  F    3.597658   2.332240   2.692882   1.334131   0.000000
    11  S    4.586333   4.048544   5.087677   2.739074   2.929402
    12  O    5.233518   5.035891   6.217279   3.882361   4.325452
    13  O    5.188929   4.439703   5.272306   3.123123   2.888337
    14  N    5.286249   4.563326   5.396697   3.276476   3.075148
    15  H    5.320965   4.769395   5.655093   3.635943   3.667707
    16  F    1.325411   2.349547   2.717724   3.600711   4.681479
    17  H    5.232437   4.290481   4.902993   3.047766   2.490490
                   11         12         13         14         15
    11  S    0.000000
    12  O    1.456099   0.000000
    13  O    1.453282   2.524713   0.000000
    14  N    1.634089   2.486629   2.488480   0.000000
    15  H    2.245965   2.673390   3.393686   1.021563   0.000000
    16  F    5.911534   6.526644   6.472560   6.559663   6.545090
    17  H    2.242974   3.391147   2.703497   1.022071   1.696882
                   16         17
    16  F    0.000000
    17  H    6.447156   0.000000
 Stoichiometry    C6H2F5NO2S
 Framework group  C1[X(C6H2F5NO2S)]
 Deg. of freedom    45
 Full point group                 C1      NOp   1
 Largest Abelian subgroup         C1      NOp   1
 Largest concise Abelian subgroup C1      NOp   1
                         Standard orientation:                         
 ---------------------------------------------------------------------
 Center     Atomic      Atomic             Coordinates (Angstroms)
 Number     Number       Type             X           Y           Z
 ---------------------------------------------------------------------
      1          6           0       -0.446339    0.088657   -0.059906
      2          6           0        0.337101    1.239861   -0.033448
      3          9           0       -0.188768    2.459576   -0.038899
      4          6           0        1.722569    1.150814    0.006994
      5          9           0        2.458184    2.259065    0.033097
      6          6           0        2.341497   -0.088615    0.020341
      7          6           0        1.577725   -1.247824   -0.006152
      8          9           0        2.169703   -2.438399    0.004430
      9          6           0        0.199955   -1.146513   -0.043601
     10          9           0       -0.516766   -2.271290   -0.076644
     11         16           0       -2.239566    0.097884   -0.095972
     12          8           0       -2.647597    1.492018    0.004636
     13          8           0       -2.656093   -0.710403   -1.229642
     14          7           0       -2.767226   -0.653636    1.255708
     15          1           0       -2.549452   -0.146074    2.115095
     16          9           0        3.663935   -0.168945    0.058033
     17          1           0       -2.489029   -1.635881    1.305013
 ---------------------------------------------------------------------
 Rotational constants (GHZ):           0.8451136           0.4363123           0.3062189
 General basis read from cards:  (6D, 7F)
 There are   293 symmetry adapted cartesian basis functions of A   symmetry.
 There are   293 symmetry adapted basis functions of A   symmetry.
   293 basis functions,   512 primitive gaussians,   293 cartesian basis functions
    61 alpha electrons       61 beta electrons
       nuclear repulsion energy      1244.6811595069 Hartrees.
 NAtoms=   17 NActive=   17 NUniq=   17 SFac= 1.00D+00 NAtFMM=   60 NAOKFM=F Big=F
 Integral buffers will be    131072 words long.
 Raffenetti 2 integral format.
 Two-electron integral symmetry is turned on.
 ------------------------------------------------------------------------------
 Polarizable Continuum Model (PCM)
 =================================
 Model                : PCM.
 Atomic radii         : SMD-Coulomb.
 Polarization charges : Total charges.
 Charge compensation  : None.
 Solution method      : On-the-fly selection.
 Cavity type          : VdW (van der Waals Surface) (Alpha=1.000).
 Cavity algorithm     : GePol (No added spheres)
                        Default sphere list used, NSphG=   17.
                        Lebedev-Laikov grids with approx.  5.0 points / Ang**2.
                        Smoothing algorithm: York/Karplus (Gamma=1.0000).
                        Polarization charges: spherical gaussians, with
                                              point-specific exponents (IZeta= 3).
                        Self-potential: point-specific (ISelfS= 7).
                        Self-field    : sphere-specific E.n sum rule (ISelfD= 2).
 1st derivatives      : Analytical E(r).r(x)/FMM algorithm (CHGder, D1EAlg=3).
                        Cavity 1st derivative terms included.
 Solvent              : Water, Eps=  78.355300 Eps(inf)=   1.777849
 ------------------------------------------------------------------------------
 Spheres list:
 ISph  on   Nord     Re0    Alpha      Xe            Ye            Ze
    1   C      1    1.8500  1.000     -0.446339      0.088657     -0.059906
    2   C      2    1.8500  1.000      0.337101      1.239861     -0.033448
    3   F      3    1.7300  1.000     -0.188768      2.459576     -0.038899
    4   C      4    1.8500  1.000      1.722569      1.150814      0.006994
    5   F      5    1.7300  1.000      2.458184      2.259065      0.033097
    6   C      6    1.8500  1.000      2.341497     -0.088615      0.020341
    7   C      7    1.8500  1.000      1.577725     -1.247824     -0.006152
    8   F      8    1.7300  1.000      2.169703     -2.438399      0.004430
    9   C      9    1.8500  1.000      0.199955     -1.146513     -0.043601
   10   F     10    1.7300  1.000     -0.516766     -2.271290     -0.076644
   11   S     11    2.4900  1.000     -2.239566      0.097884     -0.095972
   12   O     12    1.5200  1.000     -2.647597      1.492018      0.004636
   13   O     13    1.5200  1.000     -2.656093     -0.710403     -1.229642
   14   N     14    1.8900  1.000     -2.767226     -0.653636      1.255708
   15   H     15    1.2000  1.000     -2.549452     -0.146074      2.115095
   16   F     16    1.7300  1.000      3.663935     -0.168945      0.058033
   17   H     17    1.2000  1.000     -2.489029     -1.635881      1.305013
 ------------------------------------------------------------------------------
 ------------------------------------------------------------------------------
 Atomic radii for non-electrostatic terms: SMD-CDS.
 ------------------------------------------------------------------------------
 Nuclear repulsion after PCM non-electrostatic terms =     1244.6913955481 Hartrees.
 One-electron integrals computed using PRISM.
 NBasis=   293 RedAO= T EigKep=  1.49D-06  NBF=   293
 NBsUse=   293 1.00D-06 EigRej= -1.00D+00 NBFU=   293
 ExpMin= 4.05D-02 ExpMax= 2.19D+04 ExpMxC= 3.30D+03 IAcc=3 IRadAn=         5 AccDes= 0.00D+00
 Harris functional with IExCor= 1009 and IRadAn=       5 diagonalized for initial guess.
 HarFok:  IExCor= 1009 AccDes= 0.00D+00 IRadAn=         5 IDoV= 1 UseB2=F ITyADJ=14
 ICtDFT=  3500011 ScaDFX=  1.000000  1.000000  1.000000  1.000000
 FoFCou: FMM=F IPFlag=           0 FMFlag=      100000 FMFlg1=           0
         NFxFlg=           0 DoJE=T BraDBF=F KetDBF=T FulRan=T
         wScrn=  0.000000 ICntrl=       500 IOpCl=  0 I1Cent=   200000004 NGrid=           0
         NMat0=    1 NMatS0=      1 NMatT0=    0 NMatD0=    1 NMtDS0=    0 NMtDT0=    0
 Petite list used in FoFCou.
 Requested convergence on RMS density matrix=1.00D-08 within 128 cycles.
 Requested convergence on MAX density matrix=1.00D-06.
 Requested convergence on             energy=1.00D-06.
 No special actions if energy rises.
 Inv3:  Mode=1 IEnd=     6858432.
 Iteration    1 A*A^-1 deviation from unit magnitude is 3.33D-15 for   1492.
 Iteration    1 A*A^-1 deviation from orthogonality  is 1.74D-15 for   1510   1509.
 Iteration    1 A^-1*A deviation from unit magnitude is 3.55D-15 for   1492.
 Iteration    1 A^-1*A deviation from orthogonality  is 1.88D-15 for   1510   1509.
 Error on total polarization charges =  0.02281
 SCF Done:  E(RM062X) =  -1331.99563552     A.U. after   15 cycles
            NFock= 15  Conv=0.43D-08     -V/T= 2.0064
 SMD-CDS (non-electrostatic) energy       (kcal/mol) =       6.42
 (included in total energy above)

 **********************************************************************

            Population analysis using the SCF Density.

 **********************************************************************

 Orbital symmetries:
       Occupied  (A) (A) (A) (A) (A) (A) (A) (A) (A) (A) (A) (A)
                 (A) (A) (A) (A) (A) (A) (A) (A) (A) (A) (A) (A)
                 (A) (A) (A) (A) (A) (A) (A) (A) (A) (A) (A) (A)
                 (A) (A) (A) (A) (A) (A) (A) (A) (A) (A) (A) (A)
                 (A) (A) (A) (A) (A) (A) (A) (A) (A) (A) (A) (A)
                 (A)
       Virtual   (A) (A) (A) (A) (A) (A) (A) (A) (A) (A) (A) (A)
                 (A) (A) (A) (A) (A) (A) (A) (A) (A) (A) (A) (A)
                 (A) (A) (A) (A) (A) (A) (A) (A) (A) (A) (A) (A)
                 (A) (A) (A) (A) (A) (A) (A) (A) (A) (A) (A) (A)
                 (A) (A) (A) (A) (A) (A) (A) (A) (A) (A) (A) (A)
                 (A) (A) (A) (A) (A) (A) (A) (A) (A) (A) (A) (A)
                 (A) (A) (A) (A) (A) (A) (A) (A) (A) (A) (A) (A)
                 (A) (A) (A) (A) (A) (A) (A) (A) (A) (A) (A) (A)
                 (A) (A) (A) (A) (A) (A) (A) (A) (A) (A) (A) (A)
                 (A) (A) (A) (A) (A) (A) (A) (A) (A) (A) (A) (A)
                 (A) (A) (A) (A) (A) (A) (A) (A) (A) (A) (A) (A)
                 (A) (A) (A) (A) (A) (A) (A) (A) (A) (A) (A) (A)
                 (A) (A) (A) (A) (A) (A) (A) (A) (A) (A) (A) (A)
                 (A) (A) (A) (A) (A) (A) (A) (A) (A) (A) (A) (A)
                 (A) (A) (A) (A) (A) (A) (A) (A) (A) (A) (A) (A)
                 (A) (A) (A) (A) (A) (A) (A) (A) (A) (A) (A) (A)
                 (A) (A) (A) (A) (A) (A) (A) (A) (A) (A) (A) (A)
                 (A) (A) (A) (A) (A) (A) (A) (A) (A) (A) (A) (A)
                 (A) (A) (A) (A) (A) (A) (A) (A) (A) (A) (A) (A)
                 (A) (A) (A) (A)
 The electronic state is 1-A.
 Alpha  occ. eigenvalues --  -90.20389 -25.32771 -25.32753 -25.32297 -25.32188
 Alpha  occ. eigenvalues --  -25.32075 -19.67484 -19.67285 -14.81332 -10.70014
 Alpha  occ. eigenvalues --  -10.69839 -10.69705 -10.68827 -10.68722 -10.63359
 Alpha  occ. eigenvalues --   -8.51187  -6.43379  -6.43371  -6.43322  -1.43465
 Alpha  occ. eigenvalues --   -1.42862  -1.42350  -1.41341  -1.40893  -1.27806
 Alpha  occ. eigenvalues --   -1.16226  -1.04698  -1.03513  -0.92451  -0.90668
 Alpha  occ. eigenvalues --   -0.81474  -0.78390  -0.75420  -0.71150  -0.71007
 Alpha  occ. eigenvalues --   -0.69398  -0.65563  -0.65414  -0.64576  -0.64138
 Alpha  occ. eigenvalues --   -0.63713  -0.62437  -0.61647  -0.60887  -0.60160
 Alpha  occ. eigenvalues --   -0.58890  -0.58370  -0.56586  -0.56121  -0.55620
 Alpha  occ. eigenvalues --   -0.52531  -0.52292  -0.48772  -0.46191  -0.45148
 Alpha  occ. eigenvalues --   -0.43373  -0.41708  -0.41290  -0.40155  -0.34407
 Alpha  occ. eigenvalues --   -0.33158
 Alpha virt. eigenvalues --   -0.03020  -0.01578   0.00170   0.01778   0.02156
 Alpha virt. eigenvalues --    0.03642   0.03869   0.04871   0.05774   0.06232
 Alpha virt. eigenvalues --    0.07258   0.07394   0.07690   0.08429   0.08668
 Alpha virt. eigenvalues --    0.10020   0.10675   0.10787   0.12100   0.12642
 Alpha virt. eigenvalues --    0.12910   0.13608   0.13857   0.14194   0.14990
 Alpha virt. eigenvalues --    0.15462   0.16410   0.16997   0.17342   0.17914
 Alpha virt. eigenvalues --    0.19035   0.19378   0.19775   0.20051   0.21202
 Alpha virt. eigenvalues --    0.21338   0.21725   0.22488   0.23194   0.23719
 Alpha virt. eigenvalues --    0.25058   0.26443   0.26936   0.28290   0.28420
 Alpha virt. eigenvalues --    0.29052   0.29600   0.30819   0.31276   0.31655
 Alpha virt. eigenvalues --    0.32524   0.32667   0.33349   0.34335   0.34909
 Alpha virt. eigenvalues --    0.35457   0.35786   0.36354   0.38222   0.38651
 Alpha virt. eigenvalues --    0.38929   0.39991   0.40296   0.40909   0.41238
 Alpha virt. eigenvalues --    0.42159   0.42644   0.42945   0.44415   0.45355
 Alpha virt. eigenvalues --    0.46204   0.47274   0.49029   0.50407   0.53762
 Alpha virt. eigenvalues --    0.54155   0.55098   0.55911   0.57258   0.60683
 Alpha virt. eigenvalues --    0.61474   0.65229   0.67344   0.68632   0.69543
 Alpha virt. eigenvalues --    0.70697   0.72270   0.72739   0.75846   0.76357
 Alpha virt. eigenvalues --    0.79115   0.80422   0.83512   0.87723   0.92614
 Alpha virt. eigenvalues --    0.93505   0.97580   0.97990   1.00170   1.01667
 Alpha virt. eigenvalues --    1.04112   1.05044   1.06890   1.08733   1.12306
 Alpha virt. eigenvalues --    1.12620   1.13971   1.16138   1.17445   1.20639
 Alpha virt. eigenvalues --    1.21630   1.22621   1.24026   1.26943   1.28385
 Alpha virt. eigenvalues --    1.28723   1.29884   1.30948   1.32294   1.32888
 Alpha virt. eigenvalues --    1.34444   1.35067   1.37019   1.37324   1.38342
 Alpha virt. eigenvalues --    1.40839   1.41665   1.45128   1.48473   1.51433
 Alpha virt. eigenvalues --    1.59386   1.64475   1.64942   1.65641   1.66879
 Alpha virt. eigenvalues --    1.67491   1.68116   1.69316   1.71111   1.71678
 Alpha virt. eigenvalues --    1.72420   1.73395   1.74071   1.75131   1.75826
 Alpha virt. eigenvalues --    1.77241   1.77954   1.78756   1.80130   1.80832
 Alpha virt. eigenvalues --    1.81074   1.81520   1.81802   1.82623   1.83805
 Alpha virt. eigenvalues --    1.84294   1.85361   1.85706   1.85945   1.87396
 Alpha virt. eigenvalues --    1.87973   1.88675   1.88817   1.91322   1.91950
 Alpha virt. eigenvalues --    1.92603   1.93935   1.94588   1.96577   1.98887
 Alpha virt. eigenvalues --    2.00060   2.02674   2.04817   2.08069   2.09958
 Alpha virt. eigenvalues --    2.11964   2.15176   2.15727   2.17403   2.17961
 Alpha virt. eigenvalues --    2.20833   2.23119   2.26461   2.27684   2.28535
 Alpha virt. eigenvalues --    2.29637   2.32838   2.35503   2.36010   2.37064
 Alpha virt. eigenvalues --    2.37769   2.40250   2.40686   2.42610   2.45687
 Alpha virt. eigenvalues --    2.47400   2.50017   2.52054   2.58893   2.59737
 Alpha virt. eigenvalues --    2.64415   2.64751   2.75886   2.76176   2.84233
 Alpha virt. eigenvalues --    2.89452   2.94842   3.02401   3.05626   3.09100
 Alpha virt. eigenvalues --    3.18862   3.21296   3.27118   3.34505   3.37046
 Alpha virt. eigenvalues --    3.40859   3.58725   3.89382   4.04825   4.20792
 Alpha virt. eigenvalues --    4.25925   4.27225   4.30499   4.33825   4.49032
 Alpha virt. eigenvalues --    4.52947   4.89455   5.33874   5.88308   6.42234
 Alpha virt. eigenvalues --    6.91970   8.00658
          Condensed to atoms (all electrons):
               1          2          3          4          5          6
     1  C   24.473745  -5.349203   0.037620  -1.316270  -0.136722  -4.061300
     2  C   -5.349203  23.644771   0.114677  -3.042445   0.019932  -0.021001
     3  F    0.037620   0.114677   9.355777   0.007250  -0.009522  -0.076359
     4  C   -1.316270  -3.042445   0.007250  13.989412   0.058445  -1.681303
     5  F   -0.136722   0.019932  -0.009522   0.058445   9.392056   0.061115
     6  C   -4.061300  -0.021001  -0.076359  -1.681303   0.061115  12.054897
     7  C    0.586775  -2.565704   0.023277   1.231299  -0.095265  -2.078756
     8  F   -0.095208   0.042719   0.000081  -0.089135  -0.000078   0.037877
     9  C   -6.389515  -6.702352  -0.096520  -3.652052   0.040227   1.055860
    10  F    0.058532   0.023692  -0.000647   0.016183   0.000091  -0.047888
    11  S   -0.870097   0.165283  -0.034897  -0.223202   0.001077   0.198911
    12  O   -0.288551  -0.242323  -0.012786   0.128908   0.000447   0.016961
    13  O   -0.021925   0.184270  -0.001970   0.004887   0.000083   0.018620
    14  N   -0.247644   0.184877  -0.002799   0.001806   0.000199   0.004821
    15  H   -0.024394  -0.051194   0.000096  -0.006661   0.000000   0.001942
    16  F    0.026209  -0.096058  -0.000150   0.027426  -0.008998   0.040780
    17  H   -0.018860  -0.013120   0.000008   0.003276  -0.000001  -0.000361
               7          8          9         10         11         12
     1  C    0.586775  -0.095208  -6.389515   0.058532  -0.870097  -0.288551
     2  C   -2.565704   0.042719  -6.702352   0.023692   0.165283  -0.242323
     3  F    0.023277   0.000081  -0.096520  -0.000647  -0.034897  -0.012786
     4  C    1.231299  -0.089135  -3.652052   0.016183  -0.223202   0.128908
     5  F   -0.095265  -0.000078   0.040227   0.000091   0.001077   0.000447
     6  C   -2.078756   0.037877   1.055860  -0.047888   0.198911   0.016961
     7  C   15.614559   0.022449  -7.172797   0.067323  -0.111946   0.085329
     8  F    0.022449   9.393867   0.027386  -0.008731   0.000132   0.000054
     9  C   -7.172797   0.027386  28.092428  -0.136039   0.564565   0.228493
    10  F    0.067323  -0.008731  -0.136039   9.357005  -0.003232   0.000476
    11  S   -0.111946   0.000132   0.564565  -0.003232  14.260630   0.187013
    12  O    0.085329   0.000054   0.228493   0.000476   0.187013   8.789408
    13  O   -0.159159   0.000003  -0.166151  -0.017047   0.364120  -0.148348
    14  N   -0.038203   0.000269  -0.173882   0.014320   0.019810  -0.099106
    15  H   -0.008358  -0.000002   0.062570  -0.000779   0.043788  -0.007703
    16  F    0.044970  -0.009477  -0.081709  -0.000241  -0.000424   0.000000
    17  H    0.033657  -0.000007   0.003043   0.002106   0.016393   0.009564
              13         14         15         16         17
     1  C   -0.021925  -0.247644  -0.024394   0.026209  -0.018860
     2  C    0.184270   0.184877  -0.051194  -0.096058  -0.013120
     3  F   -0.001970  -0.002799   0.000096  -0.000150   0.000008
     4  C    0.004887   0.001806  -0.006661   0.027426   0.003276
     5  F    0.000083   0.000199   0.000000  -0.008998  -0.000001
     6  C    0.018620   0.004821   0.001942   0.040780  -0.000361
     7  C   -0.159159  -0.038203  -0.008358   0.044970   0.033657
     8  F    0.000003   0.000269  -0.000002  -0.009477  -0.000007
     9  C   -0.166151  -0.173882   0.062570  -0.081709   0.003043
    10  F   -0.017047   0.014320  -0.000779  -0.000241   0.002106
    11  S    0.364120   0.019810   0.043788  -0.000424   0.016393
    12  O   -0.148348  -0.099106  -0.007703   0.000000   0.009564
    13  O    8.642858  -0.146282   0.007510   0.000006  -0.005792
    14  N   -0.146282   8.044894   0.240217   0.000018   0.218921
    15  H    0.007510   0.240217   0.241056  -0.000000  -0.011349
    16  F    0.000006   0.000018  -0.000000   9.375541  -0.000000
    17  H   -0.005792   0.218921  -0.011349  -0.000000   0.255008
 Mulliken charges:
               1
     1  C   -0.363194
     2  C   -0.296822
     3  F   -0.303136
     4  C    0.542178
     5  F   -0.323085
     6  C    0.475183
     7  C    0.520551
     8  F   -0.322199
     9  C    0.496444
    10  F   -0.325124
    11  S    1.422077
    12  O   -0.647835
    13  O   -0.555684
    14  N   -1.022235
    15  H    0.513260
    16  F   -0.317892
    17  H    0.507513
 Sum of Mulliken charges =  -0.00000
 Mulliken charges with hydrogens summed into heavy atoms:
               1
     1  C   -0.363194
     2  C   -0.296822
     3  F   -0.303136
     4  C    0.542178
     5  F   -0.323085
     6  C    0.475183
     7  C    0.520551
     8  F   -0.322199
     9  C    0.496444
    10  F   -0.325124
    11  S    1.422077
    12  O   -0.647835
    13  O   -0.555684
    14  N   -0.001462
    16  F   -0.317892
 Electronic spatial extent (au):  <R**2>=           3212.5347
 Charge=              0.0000 electrons
 Dipole moment (field-independent basis, Debye):
    X=              3.3853    Y=             -2.7048    Z=              5.0813  Tot=              6.6780
 Quadrupole moment (field-independent basis, Debye-Ang):
   XX=           -108.2075   YY=            -98.2606   ZZ=            -82.3297
   XY=              6.2003   XZ=            -12.4510   YZ=             -4.2525
 Traceless Quadrupole moment (field-independent basis, Debye-Ang):
   XX=            -11.9416   YY=             -1.9947   ZZ=             13.9363
   XY=              6.2003   XZ=            -12.4510   YZ=             -4.2525
 Octapole moment (field-independent basis, Debye-Ang**2):
  XXX=             60.5799  YYY=            -15.8890  ZZZ=             20.8527  XYY=              7.8103
  XXY=            -15.2182  XXZ=             27.0765  XZZ=              3.9590  YZZ=             -0.3061
  YYZ=              6.6947  XYZ=              9.8670
 Hexadecapole moment (field-independent basis, Debye-Ang**3):
 XXXX=          -2633.6424 YYYY=          -1103.2843 ZZZZ=           -173.9895 XXXY=             30.0659
 XXXZ=            -55.6059 YYYX=             37.9528 YYYZ=            -11.1105 ZZZX=            -48.2720
 ZZZY=             -7.3995 XXYY=           -617.2163 XXZZ=           -407.3172 YYZZ=           -198.7889
 XXYZ=            -22.2722 YYXZ=            -15.5167 ZZXY=             -0.4661
 N-N= 1.244691395548D+03 E-N=-5.633366845286D+03  KE= 1.323519612201D+03
 D1PCM: PCM CHGder 1st derivatives, ID1Alg=3 FixD1E=F DoIter=F DoCFld=F I1PDM=0.
 Calling FoFJK, ICntrl=      2127 FMM=F ISym2X=0 I1Cent= 0 IOpClX= 0 NMat=1 NMatS=1 NMatT=0.
 ***** Axes restored to original set *****
 -------------------------------------------------------------------
 Center     Atomic                   Forces (Hartrees/Bohr)
 Number     Number              X              Y              Z
 -------------------------------------------------------------------
      1        6           0.002271320   -0.000517608    0.000127958
      2        6          -0.000308305    0.000905471    0.000499452
      3        9          -0.000110740   -0.000353445   -0.000803065
      4        6          -0.000048883   -0.000467226    0.000019307
      5        9           0.000001615    0.000063157    0.000041869
      6        6           0.000069719    0.000154893   -0.000007534
      7        6           0.000113033    0.000440896   -0.000007941
      8        9           0.000023389    0.000005423   -0.000064540
      9        6          -0.000482118   -0.002061905   -0.000620169
     10        9           0.000086900    0.001064343    0.000114846
     11       16          -0.007101721    0.004948961    0.000265548
     12        8           0.002500569   -0.001315081    0.001368249
     13        8           0.001572454   -0.001813398   -0.001067749
     14        7           0.001589151   -0.001298145   -0.000124665
     15        1          -0.000324304   -0.000342240   -0.001028505
     16        9          -0.000033942   -0.000003458   -0.000016596
     17        1           0.000181862    0.000589361    0.001303534
 -------------------------------------------------------------------
 Cartesian Forces:  Max     0.007101721 RMS     0.001489962

 GradGradGradGradGradGradGradGradGradGradGradGradGradGradGradGradGradGrad
 Berny optimization.
 FormGI is forming the generalized inverse of G from B-inverse, IUseBI=4.
 Internal  Forces:  Max     0.002638193 RMS     0.000769876
 Search for a local minimum.
 Step number   1 out of a maximum of   90
 All quantities printed in internal units (Hartrees-Bohrs-Radians)
 Mixed Optimization -- En-DIIS/RFO-DIIS
 Second derivative matrix not updated -- first step.
 ITU=  0
     Eigenvalues ---    0.00455   0.01472   0.02168   0.02186   0.02208
     Eigenvalues ---    0.02240   0.02248   0.02255   0.02264   0.02275
     Eigenvalues ---    0.02293   0.04282   0.09711   0.10587   0.13967
     Eigenvalues ---    0.16000   0.16000   0.19639   0.24998   0.24999
     Eigenvalues ---    0.24999   0.25000   0.25000   0.25000   0.25000
     Eigenvalues ---    0.25000   0.25000   0.25000   0.26626   0.43285
     Eigenvalues ---    0.43592   0.44009   0.44090   0.45153   0.46956
     Eigenvalues ---    0.47289   0.47802   0.48408   0.58541   0.59405
     Eigenvalues ---    0.59584   0.59919   0.60603   0.93267   0.94489
 RFO step:  Lambda=-4.08297005D-04 EMin= 4.54780847D-03
 Linear search not attempted -- first point.
 Iteration  1 RMS(Cart)=  0.02067150 RMS(Int)=  0.00018033
 Iteration  2 RMS(Cart)=  0.00022493 RMS(Int)=  0.00003652
 Iteration  3 RMS(Cart)=  0.00000001 RMS(Int)=  0.00003652
 Variable       Old X    -DE/DX   Delta X   Delta X   Delta X     New X
                                 (Linear)    (Quad)   (Total)
    R1        2.63191   0.00074   0.00000   0.00163   0.00164   2.63355
    R2        2.63453   0.00018   0.00000   0.00043   0.00045   2.63498
    R3        3.38944   0.00064   0.00000   0.00240   0.00240   3.39183
    R4        2.51005  -0.00027   0.00000  -0.00044  -0.00044   2.50960
    R5        2.62467   0.00004   0.00000   0.00011   0.00010   2.62477
    R6        2.51414  -0.00001   0.00000  -0.00002  -0.00002   2.51411
    R7        2.61810  -0.00006   0.00000  -0.00015  -0.00017   2.61792
    R8        2.62381  -0.00019   0.00000  -0.00047  -0.00048   2.62333
    R9        2.50466   0.00001   0.00000   0.00002   0.00002   2.50468
   R10        2.51271   0.00005   0.00000   0.00008   0.00008   2.51279
   R11        2.61160   0.00001   0.00000  -0.00001   0.00000   2.61160
   R12        2.52114  -0.00008   0.00000  -0.00013  -0.00013   2.52101
   R13        2.75163  -0.00218   0.00000  -0.00234  -0.00234   2.74929
   R14        2.74631   0.00198   0.00000   0.00209   0.00209   2.74840
   R15        3.08798   0.00020   0.00000   0.00044   0.00044   3.08842
   R16        1.93047  -0.00004   0.00000  -0.00008  -0.00008   1.93039
   R17        1.93143  -0.00023   0.00000  -0.00053  -0.00053   1.93091
    A1        2.06159  -0.00044   0.00000  -0.00153  -0.00151   2.06009
    A2        2.16340   0.00071   0.00000   0.00278   0.00273   2.16613
    A3        2.05813  -0.00027   0.00000  -0.00111  -0.00117   2.05697
    A4        2.13677   0.00099   0.00000   0.00389   0.00384   2.14062
    A5        2.10444  -0.00013   0.00000  -0.00037  -0.00038   2.10406
    A6        2.04195  -0.00085   0.00000  -0.00345  -0.00350   2.03846
    A7        2.09291  -0.00017   0.00000  -0.00067  -0.00066   2.09224
    A8        2.09817   0.00029   0.00000   0.00113   0.00112   2.09929
    A9        2.09211  -0.00012   0.00000  -0.00047  -0.00047   2.09164
   A10        2.09552  -0.00005   0.00000  -0.00039  -0.00039   2.09513
   A11        2.09466   0.00000   0.00000   0.00011   0.00011   2.09478
   A12        2.09300   0.00004   0.00000   0.00027   0.00028   2.09328
   A13        2.09728  -0.00000   0.00000   0.00008   0.00007   2.09735
   A14        2.08027  -0.00007   0.00000  -0.00046  -0.00043   2.07984
   A15        2.10563   0.00007   0.00000   0.00038   0.00036   2.10600
   A16        2.12637   0.00039   0.00000   0.00164   0.00156   2.12793
   A17        2.09164  -0.00029   0.00000  -0.00107  -0.00123   2.09041
   A18        2.06513  -0.00010   0.00000  -0.00030  -0.00046   2.06467
   A19        1.85844   0.00264   0.00000   0.01928   0.01926   1.87770
   A20        1.87483  -0.00227   0.00000  -0.01607  -0.01608   1.85875
   A21        1.87952   0.00033   0.00000   0.00167   0.00160   1.88112
   A22        2.10145  -0.00011   0.00000  -0.00123  -0.00117   2.10028
   A23        1.86784  -0.00053   0.00000   0.00280   0.00271   1.87054
   A24        1.87226   0.00001   0.00000  -0.00592  -0.00597   1.86629
   A25        1.98070  -0.00177   0.00000  -0.01063  -0.01061   1.97009
   A26        1.97577   0.00219   0.00000   0.01405   0.01407   1.98983
   A27        1.95938  -0.00021   0.00000  -0.00066  -0.00063   1.95875
    D1       -3.13511  -0.00030   0.00000  -0.01536  -0.01539   3.13268
    D2        0.00082   0.00006   0.00000   0.00091   0.00092   0.00173
    D3       -0.00548  -0.00009   0.00000  -0.00134  -0.00135  -0.00684
    D4        3.13044   0.00027   0.00000   0.01494   0.01496  -3.13779
    D5       -0.00316   0.00014   0.00000   0.00808   0.00807   0.00491
    D6       -3.13411  -0.00055   0.00000  -0.02272  -0.02273   3.12634
    D7       -3.13352  -0.00006   0.00000  -0.00512  -0.00511  -3.13862
    D8        0.01871  -0.00076   0.00000  -0.03592  -0.03590  -0.01719
    D9       -0.06873   0.00005   0.00000  -0.01925  -0.01920  -0.08794
   D10        2.20437   0.00017   0.00000  -0.01852  -0.01857   2.18580
   D11       -2.06718  -0.00078   0.00000  -0.03261  -0.03264  -2.09982
   D12        3.06091   0.00026   0.00000  -0.00526  -0.00519   3.05572
   D13       -0.94917   0.00038   0.00000  -0.00452  -0.00455  -0.95372
   D14        1.06247  -0.00057   0.00000  -0.01861  -0.01862   1.04384
   D15       -3.14057  -0.00009   0.00000  -0.00329  -0.00328   3.13933
   D16        0.00095  -0.00018   0.00000  -0.00696  -0.00695  -0.00600
   D17       -0.00435   0.00027   0.00000   0.01215   0.01213   0.00778
   D18        3.13717   0.00017   0.00000   0.00848   0.00845  -3.13756
   D19       -0.00046   0.00009   0.00000   0.00418   0.00417   0.00371
   D20        3.14078   0.00008   0.00000   0.00353   0.00353  -3.13887
   D21        3.14106  -0.00000   0.00000   0.00051   0.00050   3.14156
   D22       -0.00088  -0.00001   0.00000  -0.00013  -0.00014  -0.00102
   D23        3.13971   0.00007   0.00000   0.00271   0.00271  -3.14076
   D24       -0.00180   0.00011   0.00000   0.00458   0.00458   0.00278
   D25       -0.00153   0.00008   0.00000   0.00335   0.00335   0.00182
   D26        3.14014   0.00012   0.00000   0.00522   0.00522  -3.13783
   D27        0.00366  -0.00023   0.00000  -0.01086  -0.01085  -0.00719
   D28        3.13478   0.00045   0.00000   0.01949   0.01950  -3.12891
   D29       -3.13784  -0.00019   0.00000  -0.00898  -0.00898   3.13636
   D30       -0.00673   0.00050   0.00000   0.02137   0.02138   0.01465
   D31        1.16045   0.00141   0.00000  -0.00391  -0.00392   1.15654
   D32       -1.09928   0.00131   0.00000  -0.00614  -0.00614  -1.10542
   D33       -0.83174  -0.00154   0.00000  -0.02831  -0.02832  -0.86006
   D34       -3.09147  -0.00164   0.00000  -0.03054  -0.03054  -3.12202
   D35       -3.10939  -0.00106   0.00000  -0.02470  -0.02470  -3.13409
   D36        0.91405  -0.00115   0.00000  -0.02693  -0.02692   0.88714
         Item               Value     Threshold  Converged?
 Maximum Force            0.002638     0.000450     NO 
 RMS     Force            0.000770     0.000300     NO 
 Maximum Displacement     0.083080     0.001800     NO 
 RMS     Displacement     0.020645     0.001200     NO 
 Predicted change in Energy=-2.063133D-04
 GradGradGradGradGradGradGradGradGradGradGradGradGradGradGradGradGradGrad

                          Input orientation:                          
 ---------------------------------------------------------------------
 Center     Atomic      Atomic             Coordinates (Angstroms)
 Number     Number       Type             X           Y           Z
 ---------------------------------------------------------------------
      1          6           0       -1.523349    0.662634   -0.784895
      2          6           0       -2.653057    0.923115   -1.558249
      3          9           0       -3.863318    1.070458   -1.031746
      4          6           0       -2.554164    1.028218   -2.939703
      5          9           0       -3.641820    1.274661   -3.665145
      6          6           0       -1.326815    0.881911   -3.565314
      7          6           0       -0.189239    0.624730   -2.812392
      8          9           0        0.990257    0.484786   -3.410170
      9          6           0       -0.301033    0.514587   -1.439333
     10          9           0        0.805483    0.281877   -0.731391
     11         16           0       -1.542362    0.502333    1.002713
     12          8           0       -2.889435    0.811017    1.457385
     13          8           0       -0.941133   -0.786235    1.308274
     14          7           0       -0.551383    1.647571    1.617041
     15          1           0       -0.894521    2.596508    1.458046
     16          9           0       -1.237836    0.986271   -4.883621
     17          1           0        0.427558    1.539833    1.344779
 ---------------------------------------------------------------------
                    Distance matrix (angstroms):
                    1          2          3          4          5
     1  C    0.000000
     2  C    1.393616   0.000000
     3  F    2.388034   1.328024   0.000000
     4  C    2.416490   1.388971   2.314296   0.000000
     5  F    3.627442   2.353773   2.650576   1.330412   0.000000
     6  C    2.795968   2.406018   3.590037   1.385345   2.350206
     7  C    2.427350   2.780702   4.107095   2.402474   3.615234
     8  F    3.638944   4.110411   5.436645   3.616570   4.705853
     9  C    1.394369   2.390200   3.628360   2.755272   4.085683
    10  F    2.360360   3.613362   4.744447   4.089119   5.419506
    11  S    1.794882   2.822982   3.138251   4.104015   5.176206
    12  O    2.629834   3.026960   2.685429   4.415196   5.198207
    13  O    2.611428   3.750936   4.178775   4.892792   6.022948
    14  N    2.772023   3.876124   4.279958   5.015838   6.131178
    15  H    3.027553   3.871787   4.164330   4.955214   5.961712
    16  F    4.121385   3.614546   4.662316   2.348042   2.710534
    17  H    3.018449   4.277629   4.927454   5.244921   6.459837
                    6          7          8          9         10
     6  C    0.000000
     7  C    1.388205   0.000000
     8  F    2.355972   1.329712   0.000000
     9  C    2.388922   1.381998   2.356377   0.000000
    10  F    3.596924   2.331863   2.692800   1.334060   0.000000
    11  S    4.588835   4.049808   5.088025   2.739459   2.927131
    12  O    5.260638   5.055369   6.233099   3.895982   4.327026
    13  O    5.165591   4.419961   5.254472   3.106641   2.889942
    14  N    5.295690   4.560397   5.385310   3.269212   3.036665
    15  H    5.325492   4.756256   5.631277   3.616826   3.611255
    16  F    1.325422   2.349523   2.717894   3.600445   4.681062
    17  H    5.255445   4.301154   4.902988   3.055038   2.456779
                   11         12         13         14         15
    11  S    0.000000
    12  O    1.454860   0.000000
    13  O    1.454390   2.523753   0.000000
    14  N    1.634322   2.488332   2.484079   0.000000
    15  H    2.238883   2.677248   3.386378   1.021521   0.000000
    16  F    5.914039   6.554911   6.447432   6.570170   6.551906
    17  H    2.252554   3.397984   2.699118   1.021793   1.696256
                   16         17
    16  F    0.000000
    17  H    6.470931   0.000000
 Stoichiometry    C6H2F5NO2S
 Framework group  C1[X(C6H2F5NO2S)]
 Deg. of freedom    45
 Full point group                 C1      NOp   1
 Largest Abelian subgroup         C1      NOp   1
 Largest concise Abelian subgroup C1      NOp   1
                         Standard orientation:                         
 ---------------------------------------------------------------------
 Center     Atomic      Atomic             Coordinates (Angstroms)
 Number     Number       Type             X           Y           Z
 ---------------------------------------------------------------------
      1          6           0       -0.446219    0.094882   -0.050180
      2          6           0        0.342476    1.243454   -0.020003
      3          9           0       -0.173285    2.467187   -0.030642
      4          6           0        1.727832    1.148087    0.010537
      5          9           0        2.467802    2.253421    0.036539
      6          6           0        2.342558   -0.093375    0.018522
      7          6           0        1.574465   -1.249411   -0.008479
      8          9           0        2.161832   -2.442333    0.000064
      9          6           0        0.197160   -1.142177   -0.046546
     10          9           0       -0.524458   -2.264171   -0.057179
     11         16           0       -2.240461    0.106879   -0.096577
     12          8           0       -2.674062    1.490223    0.025761
     13          8           0       -2.629043   -0.685239   -1.252780
     14          7           0       -2.779224   -0.686552    1.226755
     15          1           0       -2.558957   -0.200933    2.098054
     16          9           0        3.664854   -0.178421    0.050825
     17          1           0       -2.514586   -1.673032    1.256484
 ---------------------------------------------------------------------
 Rotational constants (GHZ):           0.8453410           0.4357655           0.3058474
 Basis read from rwf:  (6D, 7F)
 There are   293 symmetry adapted cartesian basis functions of A   symmetry.
 There are   293 symmetry adapted basis functions of A   symmetry.
   293 basis functions,   512 primitive gaussians,   293 cartesian basis functions
    61 alpha electrons       61 beta electrons
       nuclear repulsion energy      1244.3030494625 Hartrees.
 NAtoms=   17 NActive=   17 NUniq=   17 SFac= 1.00D+00 NAtFMM=   60 NAOKFM=F Big=F
 Integral buffers will be    131072 words long.
 Raffenetti 2 integral format.
 Two-electron integral symmetry is turned on.
 ------------------------------------------------------------------------------
 Polarizable Continuum Model (PCM)
 =================================
 Model                : PCM.
 Atomic radii         : SMD-Coulomb.
 Polarization charges : Total charges.
 Charge compensation  : None.
 Solution method      : On-the-fly selection.
 Cavity type          : VdW (van der Waals Surface) (Alpha=1.000).
 Cavity algorithm     : GePol (No added spheres)
                        Default sphere list used, NSphG=   17.
                        Lebedev-Laikov grids with approx.  5.0 points / Ang**2.
                        Smoothing algorithm: York/Karplus (Gamma=1.0000).
                        Polarization charges: spherical gaussians, with
                                              point-specific exponents (IZeta= 3).
                        Self-potential: point-specific (ISelfS= 7).
                        Self-field    : sphere-specific E.n sum rule (ISelfD= 2).
 1st derivatives      : Analytical E(r).r(x)/FMM algorithm (CHGder, D1EAlg=3).
                        Cavity 1st derivative terms included.
 Solvent              : Water, Eps=  78.355300 Eps(inf)=   1.777849
 ------------------------------------------------------------------------------
 Spheres list:
 ISph  on   Nord     Re0    Alpha      Xe            Ye            Ze
    1   C      1    1.8500  1.000     -0.446219      0.094882     -0.050180
    2   C      2    1.8500  1.000      0.342476      1.243454     -0.020003
    3   F      3    1.7300  1.000     -0.173285      2.467187     -0.030642
    4   C      4    1.8500  1.000      1.727832      1.148087      0.010537
    5   F      5    1.7300  1.000      2.467802      2.253421      0.036539
    6   C      6    1.8500  1.000      2.342558     -0.093375      0.018522
    7   C      7    1.8500  1.000      1.574465     -1.249411     -0.008479
    8   F      8    1.7300  1.000      2.161832     -2.442333      0.000064
    9   C      9    1.8500  1.000      0.197160     -1.142177     -0.046546
   10   F     10    1.7300  1.000     -0.524458     -2.264171     -0.057179
   11   S     11    2.4900  1.000     -2.240461      0.106879     -0.096577
   12   O     12    1.5200  1.000     -2.674062      1.490223      0.025761
   13   O     13    1.5200  1.000     -2.629043     -0.685239     -1.252780
   14   N     14    1.8900  1.000     -2.779224     -0.686552      1.226755
   15   H     15    1.2000  1.000     -2.558957     -0.200933      2.098054
   16   F     16    1.7300  1.000      3.664854     -0.178421      0.050825
   17   H     17    1.2000  1.000     -2.514586     -1.673032      1.256484
 ------------------------------------------------------------------------------
 ------------------------------------------------------------------------------
 Atomic radii for non-electrostatic terms: SMD-CDS.
 ------------------------------------------------------------------------------
 Nuclear repulsion after PCM non-electrostatic terms =     1244.3132772715 Hartrees.
 One-electron integrals computed using PRISM.
 NBasis=   293 RedAO= T EigKep=  1.49D-06  NBF=   293
 NBsUse=   293 1.00D-06 EigRej= -1.00D+00 NBFU=   293
 Initial guess from the checkpoint file:  "/jobfs/40645849.gadi-pbs/Gau-29104.chk"
 B after Tr=     0.000000    0.000000   -0.000000
         Rot=    0.999996   -0.002500    0.000735    0.000763 Ang=  -0.31 deg.
 ExpMin= 4.05D-02 ExpMax= 2.19D+04 ExpMxC= 3.30D+03 IAcc=3 IRadAn=         5 AccDes= 0.00D+00
 Harris functional with IExCor= 1009 and IRadAn=       5 diagonalized for initial guess.
 HarFok:  IExCor= 1009 AccDes= 0.00D+00 IRadAn=         5 IDoV= 1 UseB2=F ITyADJ=14
 ICtDFT=  3500011 ScaDFX=  1.000000  1.000000  1.000000  1.000000
 FoFCou: FMM=F IPFlag=           0 FMFlag=      100000 FMFlg1=           0
         NFxFlg=           0 DoJE=T BraDBF=F KetDBF=T FulRan=T
         wScrn=  0.000000 ICntrl=       500 IOpCl=  0 I1Cent=   200000004 NGrid=           0
         NMat0=    1 NMatS0=      1 NMatT0=    0 NMatD0=    1 NMtDS0=    0 NMtDT0=    0
 Petite list used in FoFCou.
 Requested convergence on RMS density matrix=1.00D-08 within 128 cycles.
 Requested convergence on MAX density matrix=1.00D-06.
 Requested convergence on             energy=1.00D-06.
 No special actions if energy rises.
 Inv3:  Mode=1 IEnd=     6759003.
 Iteration    1 A*A^-1 deviation from unit magnitude is 3.55D-15 for   1489.
 Iteration    1 A*A^-1 deviation from orthogonality  is 1.96D-15 for   1476     89.
 Iteration    1 A^-1*A deviation from unit magnitude is 3.55D-15 for   1489.
 Iteration    1 A^-1*A deviation from orthogonality  is 2.34D-15 for   1471   1223.
 Error on total polarization charges =  0.02282
 SCF Done:  E(RM062X) =  -1331.99580284     A.U. after   12 cycles
            NFock= 12  Conv=0.38D-08     -V/T= 2.0064
 SMD-CDS (non-electrostatic) energy       (kcal/mol) =       6.42
 (included in total energy above)
 D1PCM: PCM CHGder 1st derivatives, ID1Alg=3 FixD1E=F DoIter=F DoCFld=F I1PDM=0.
 Calling FoFJK, ICntrl=      2127 FMM=F ISym2X=0 I1Cent= 0 IOpClX= 0 NMat=1 NMatS=1 NMatT=0.
 ***** Axes restored to original set *****
 -------------------------------------------------------------------
 Center     Atomic                   Forces (Hartrees/Bohr)
 Number     Number              X              Y              Z
 -------------------------------------------------------------------
      1        6          -0.000664466    0.000373679   -0.000140473
      2        6           0.000408992   -0.000676510   -0.000234985
      3        9           0.000118158    0.000059771    0.000944418
      4        6           0.000175032    0.000342326   -0.000033105
      5        9          -0.000070024   -0.000102477   -0.000007710
      6        6          -0.000094879   -0.000124760   -0.000116172
      7        6          -0.000061046   -0.000370905   -0.000023563
      8        9          -0.000030781    0.000134538    0.000094794
      9        6           0.000112378    0.000688909    0.000336744
     10        9           0.000187157   -0.000202150   -0.000091442
     11       16          -0.001321336    0.001326944    0.000629123
     12        8           0.001543207   -0.000143313   -0.000936683
     13        8           0.000627251   -0.001989973   -0.000322676
     14        7          -0.000897684    0.000724532   -0.000114842
     15        1           0.000267540    0.000373394   -0.000297197
     16        9          -0.000015048    0.000051569    0.000031318
     17        1          -0.000284452   -0.000465574    0.000282451
 -------------------------------------------------------------------
 Cartesian Forces:  Max     0.001989973 RMS     0.000575850

 GradGradGradGradGradGradGradGradGradGradGradGradGradGradGradGradGradGrad
 Berny optimization.
 Using GEDIIS/GDIIS optimizer.
 FormGI is forming the generalized inverse of G from B-inverse, IUseBI=4.
 Internal  Forces:  Max     0.001932649 RMS     0.000481736
 Search for a local minimum.
 Step number   2 out of a maximum of   90
 All quantities printed in internal units (Hartrees-Bohrs-Radians)
 Mixed Optimization -- En-DIIS/RFO-DIIS
 Swapping is turned off.
 Update second derivatives using D2CorX and points    1    2
 DE= -1.67D-04 DEPred=-2.06D-04 R= 8.11D-01
 TightC=F SS=  1.41D+00  RLast= 1.01D-01 DXNew= 5.0454D-01 3.0176D-01
 Trust test= 8.11D-01 RLast= 1.01D-01 DXMaxT set to 3.02D-01
 ITU=  1  0
     Eigenvalues ---    0.00456   0.01413   0.01826   0.02185   0.02218
     Eigenvalues ---    0.02242   0.02252   0.02264   0.02274   0.02290
     Eigenvalues ---    0.02428   0.04262   0.10399   0.10589   0.14324
     Eigenvalues ---    0.16000   0.16815   0.18727   0.24964   0.24995
     Eigenvalues ---    0.24999   0.25000   0.25000   0.25000   0.25000
     Eigenvalues ---    0.25000   0.25000   0.26383   0.29263   0.43465
     Eigenvalues ---    0.43886   0.44024   0.44256   0.45185   0.47104
     Eigenvalues ---    0.47468   0.47827   0.48428   0.58553   0.59406
     Eigenvalues ---    0.59588   0.59979   0.60603   0.91742   0.94125
 En-DIIS/RFO-DIIS/Sim-DIIS IScMMF=       -3 using points:     2    1
 RFO step:  Lambda=-7.59417624D-05.
 DidBck=F Rises=F RFO-DIIS coefs:    1.18179   -0.18179
 Iteration  1 RMS(Cart)=  0.00692273 RMS(Int)=  0.00003314
 Iteration  2 RMS(Cart)=  0.00004001 RMS(Int)=  0.00000821
 Iteration  3 RMS(Cart)=  0.00000000 RMS(Int)=  0.00000821
 Variable       Old X    -DE/DX   Delta X   Delta X   Delta X     New X
                                 (Linear)    (Quad)   (Total)
    R1        2.63355  -0.00108   0.00030  -0.00216  -0.00186   2.63169
    R2        2.63498  -0.00010   0.00008  -0.00024  -0.00015   2.63482
    R3        3.39183  -0.00075   0.00044  -0.00254  -0.00211   3.38973
    R4        2.50960   0.00027  -0.00008   0.00041   0.00033   2.50993
    R5        2.62477   0.00002   0.00002   0.00000   0.00002   2.62479
    R6        2.51411   0.00004  -0.00000   0.00006   0.00006   2.51417
    R7        2.61792   0.00007  -0.00003   0.00018   0.00014   2.61806
    R8        2.62333   0.00023  -0.00009   0.00052   0.00043   2.62376
    R9        2.50468  -0.00003   0.00000  -0.00004  -0.00004   2.50465
   R10        2.51279  -0.00008   0.00002  -0.00012  -0.00011   2.51268
   R11        2.61160   0.00002   0.00000   0.00006   0.00006   2.61166
   R12        2.52101   0.00014  -0.00002   0.00022   0.00020   2.52121
   R13        2.74929  -0.00173  -0.00043  -0.00165  -0.00208   2.74721
   R14        2.74840   0.00193   0.00038   0.00182   0.00220   2.75060
   R15        3.08842  -0.00015   0.00008  -0.00030  -0.00022   3.08820
   R16        1.93039   0.00031  -0.00001   0.00062   0.00061   1.93100
   R17        1.93091  -0.00029  -0.00010  -0.00060  -0.00069   1.93022
    A1        2.06009   0.00046  -0.00027   0.00139   0.00112   2.06120
    A2        2.16613  -0.00129   0.00050  -0.00452  -0.00405   2.16208
    A3        2.05697   0.00083  -0.00021   0.00312   0.00289   2.05986
    A4        2.14062  -0.00119   0.00070  -0.00418  -0.00349   2.13712
    A5        2.10406   0.00016  -0.00007   0.00039   0.00032   2.10438
    A6        2.03846   0.00103  -0.00064   0.00384   0.00320   2.04165
    A7        2.09224   0.00010  -0.00012   0.00037   0.00025   2.09249
    A8        2.09929  -0.00024   0.00020  -0.00084  -0.00064   2.09866
    A9        2.09164   0.00014  -0.00008   0.00048   0.00040   2.09204
   A10        2.09513  -0.00004  -0.00007   0.00009   0.00001   2.09514
   A11        2.09478   0.00002   0.00002  -0.00005  -0.00003   2.09475
   A12        2.09328   0.00002   0.00005  -0.00003   0.00002   2.09330
   A13        2.09735   0.00006   0.00001   0.00010   0.00011   2.09746
   A14        2.07984   0.00006  -0.00008   0.00043   0.00036   2.08019
   A15        2.10600  -0.00012   0.00007  -0.00053  -0.00046   2.10553
   A16        2.12793  -0.00039   0.00028  -0.00142  -0.00115   2.12678
   A17        2.09041   0.00041  -0.00022   0.00154   0.00128   2.09169
   A18        2.06467  -0.00001  -0.00008   0.00005  -0.00007   2.06461
   A19        1.87770  -0.00067   0.00350  -0.00539  -0.00190   1.87581
   A20        1.85875  -0.00047  -0.00292  -0.00146  -0.00439   1.85436
   A21        1.88112   0.00020   0.00029   0.00037   0.00065   1.88176
   A22        2.10028   0.00026  -0.00021   0.00162   0.00141   2.10169
   A23        1.87054  -0.00016   0.00049  -0.00141  -0.00094   1.86961
   A24        1.86629   0.00085  -0.00109   0.00627   0.00518   1.87147
   A25        1.97009   0.00047  -0.00193   0.00273   0.00080   1.97089
   A26        1.98983  -0.00056   0.00256  -0.00330  -0.00073   1.98910
   A27        1.95875   0.00005  -0.00011   0.00026   0.00015   1.95890
    D1        3.13268   0.00013  -0.00280   0.00447   0.00166   3.13435
    D2        0.00173  -0.00002   0.00017  -0.00149  -0.00132   0.00041
    D3       -0.00684   0.00021  -0.00025   0.00926   0.00900   0.00217
    D4       -3.13779   0.00006   0.00272   0.00330   0.00602  -3.13177
    D5        0.00491  -0.00012   0.00147  -0.00404  -0.00257   0.00234
    D6        3.12634   0.00013  -0.00413   0.00600   0.00187   3.12822
    D7       -3.13862  -0.00019  -0.00093  -0.00854  -0.00948   3.13508
    D8       -0.01719   0.00005  -0.00653   0.00150  -0.00504  -0.02223
    D9       -0.08794  -0.00003  -0.00349  -0.00094  -0.00442  -0.09236
   D10        2.18580  -0.00045  -0.00338  -0.00344  -0.00682   2.17898
   D11       -2.09982   0.00039  -0.00593   0.00324  -0.00270  -2.10251
   D12        3.05572   0.00005  -0.00094   0.00385   0.00292   3.05864
   D13       -0.95372  -0.00037  -0.00083   0.00135   0.00051  -0.95321
   D14        1.04384   0.00047  -0.00339   0.00803   0.00464   1.04848
   D15        3.13933   0.00001  -0.00060   0.00070   0.00011   3.13944
   D16       -0.00600   0.00013  -0.00126   0.00544   0.00417  -0.00183
   D17        0.00778  -0.00012   0.00220  -0.00487  -0.00268   0.00510
   D18       -3.13756  -0.00000   0.00154  -0.00014   0.00138  -3.13617
   D19        0.00371  -0.00010   0.00076  -0.00392  -0.00317   0.00054
   D20       -3.13887  -0.00006   0.00064  -0.00248  -0.00184  -3.14071
   D21        3.14156   0.00002   0.00009   0.00081   0.00090  -3.14073
   D22       -0.00102   0.00006  -0.00003   0.00226   0.00223   0.00121
   D23       -3.14076   0.00005   0.00049   0.00160   0.00209  -3.13867
   D24        0.00278  -0.00003   0.00083  -0.00148  -0.00065   0.00213
   D25        0.00182   0.00001   0.00061   0.00015   0.00076   0.00258
   D26       -3.13783  -0.00007   0.00095  -0.00293  -0.00198  -3.13981
   D27       -0.00719   0.00014  -0.00197   0.00554   0.00357  -0.00362
   D28       -3.12891  -0.00010   0.00355  -0.00436  -0.00082  -3.12973
   D29        3.13636   0.00006  -0.00163   0.00244   0.00081   3.13718
   D30        0.01465  -0.00018   0.00389  -0.00746  -0.00358   0.01107
   D31        1.15654  -0.00051  -0.00071  -0.01348  -0.01419   1.14235
   D32       -1.10542  -0.00050  -0.00112  -0.01336  -0.01448  -1.11990
   D33       -0.86006   0.00025  -0.00515  -0.00669  -0.01184  -0.87190
   D34       -3.12202   0.00026  -0.00555  -0.00657  -0.01212  -3.13414
   D35       -3.13409  -0.00053  -0.00449  -0.01193  -0.01642   3.13267
   D36        0.88714  -0.00053  -0.00489  -0.01181  -0.01670   0.87043
         Item               Value     Threshold  Converged?
 Maximum Force            0.001933     0.000450     NO 
 RMS     Force            0.000482     0.000300     NO 
 Maximum Displacement     0.035059     0.001800     NO 
 RMS     Displacement     0.006929     0.001200     NO 
 Predicted change in Energy=-3.803725D-05
 GradGradGradGradGradGradGradGradGradGradGradGradGradGradGradGradGradGrad

                          Input orientation:                          
 ---------------------------------------------------------------------
 Center     Atomic      Atomic             Coordinates (Angstroms)
 Number     Number       Type             X           Y           Z
 ---------------------------------------------------------------------
      1          6           0       -1.519185    0.668254   -0.785439
      2          6           0       -2.649975    0.925352   -1.556564
      3          9           0       -3.857388    1.073883   -1.023456
      4          6           0       -2.554232    1.028672   -2.938384
      5          9           0       -3.643715    1.272195   -3.662125
      6          6           0       -1.328312    0.878696   -3.566089
      7          6           0       -0.189143    0.623457   -2.814491
      8          9           0        0.989320    0.482359   -3.413905
      9          6           0       -0.297429    0.519640   -1.440625
     10          9           0        0.810663    0.287771   -0.734677
     11         16           0       -1.543239    0.503038    1.000541
     12          8           0       -2.891480    0.810147    1.449263
     13          8           0       -0.944060   -0.789681    1.298035
     14          7           0       -0.556824    1.648214    1.621978
     15          1           0       -0.894099    2.598004    1.453734
     16          9           0       -1.241887    0.979160   -4.884848
     17          1           0        0.424819    1.535114    1.363332
 ---------------------------------------------------------------------
                    Distance matrix (angstroms):
                    1          2          3          4          5
     1  C    0.000000
     2  C    1.392631   0.000000
     3  F    2.385033   1.328198   0.000000
     4  C    2.415864   1.388982   2.316724   0.000000
     5  F    3.626802   2.353977   2.654724   1.330442   0.000000
     6  C    2.795126   2.405652   3.591560   1.385419   2.350565
     7  C    2.426534   2.780147   4.106910   2.402747   3.615717
     8  F    3.638129   4.109797   5.436426   3.616813   4.706427
     9  C    1.394289   2.390087   3.626916   2.756003   4.086444
    10  F    2.361257   3.613589   4.742580   4.089960   5.420380
    11  S    1.793766   2.818155   3.126933   4.100430   5.171465
    12  O    2.626256   3.017713   2.667747   4.406011   5.187064
    13  O    2.607145   3.741687   4.165294   4.883268   6.011876
    14  N    2.771664   3.873880   4.268712   5.017009   6.131234
    15  H    3.021351   3.865586   4.152168   4.950712   5.957362
    16  F    4.120523   3.614289   4.664779   2.348068   2.711033
    17  H    3.024535   4.283919   4.924103   5.256994   6.471268
                    6          7          8          9         10
     6  C    0.000000
     7  C    1.388435   0.000000
     8  F    2.356196   1.329654   0.000000
     9  C    2.389401   1.382031   2.356045   0.000000
    10  F    3.597401   2.331935   2.692220   1.334164   0.000000
    11  S    4.587092   4.050005   5.089363   2.740731   2.932265
    12  O    5.253755   5.051443   6.230446   3.894220   4.329935
    13  O    5.156630   4.413584   5.249612   3.103661   2.893419
    14  N    5.301263   4.568104   5.395359   3.274218   3.045431
    15  H    5.323831   4.755370   5.631796   3.612883   3.610060
    16  F    1.325401   2.349718   2.718228   3.600809   4.681335
    17  H    5.272906   4.319985   4.924322   3.068388   2.471110
                   11         12         13         14         15
    11  S    0.000000
    12  O    1.453761   0.000000
    13  O    1.455556   2.524830   0.000000
    14  N    1.634206   2.486525   2.489624   0.000000
    15  H    2.239565   2.680669   3.391630   1.021842   0.000000
    16  F    5.912301   6.547571   6.437821   6.576909   6.551277
    17  H    2.251677   3.395703   2.698660   1.021426   1.696306
                   16         17
    16  F    0.000000
    17  H    6.490512   0.000000
 Stoichiometry    C6H2F5NO2S
 Framework group  C1[X(C6H2F5NO2S)]
 Deg. of freedom    45
 Full point group                 C1      NOp   1
 Largest Abelian subgroup         C1      NOp   1
 Largest concise Abelian subgroup C1      NOp   1
                         Standard orientation:                         
 ---------------------------------------------------------------------
 Center     Atomic      Atomic             Coordinates (Angstroms)
 Number     Number       Type             X           Y           Z
 ---------------------------------------------------------------------
      1          6           0       -0.446346    0.091011   -0.044471
      2          6           0        0.338271    1.241249   -0.017113
      3          9           0       -0.185702    2.461690   -0.026452
      4          6           0        1.723978    1.150654    0.012514
      5          9           0        2.460490    2.258390    0.035963
      6          6           0        2.342284   -0.089127    0.017360
      7          6           0        1.577284   -1.247522   -0.008084
      8          9           0        2.167868   -2.438793   -0.000145
      9          6           0        0.199469   -1.144688   -0.040670
     10          9           0       -0.518522   -2.269134   -0.050836
     11         16           0       -2.239251    0.104684   -0.098347
     12          8           0       -2.669069    1.488298    0.021194
     13          8           0       -2.617820   -0.686894   -1.259696
     14          7           0       -2.785291   -0.684687    1.224288
     15          1           0       -2.557256   -0.204333    2.096883
     16          9           0        3.664866   -0.170409    0.046692
     17          1           0       -2.533228   -1.674178    1.250459
 ---------------------------------------------------------------------
 Rotational constants (GHZ):           0.8453467           0.4361987           0.3061139
 Basis read from rwf:  (6D, 7F)
 There are   293 symmetry adapted cartesian basis functions of A   symmetry.
 There are   293 symmetry adapted basis functions of A   symmetry.
   293 basis functions,   512 primitive gaussians,   293 cartesian basis functions
    61 alpha electrons       61 beta electrons
       nuclear repulsion energy      1244.5735966919 Hartrees.
 NAtoms=   17 NActive=   17 NUniq=   17 SFac= 1.00D+00 NAtFMM=   60 NAOKFM=F Big=F
 Integral buffers will be    131072 words long.
 Raffenetti 2 integral format.
 Two-electron integral symmetry is turned on.
 ------------------------------------------------------------------------------
 Polarizable Continuum Model (PCM)
 =================================
 Model                : PCM.
 Atomic radii         : SMD-Coulomb.
 Polarization charges : Total charges.
 Charge compensation  : None.
 Solution method      : On-the-fly selection.
 Cavity type          : VdW (van der Waals Surface) (Alpha=1.000).
 Cavity algorithm     : GePol (No added spheres)
                        Default sphere list used, NSphG=   17.
                        Lebedev-Laikov grids with approx.  5.0 points / Ang**2.
                        Smoothing algorithm: York/Karplus (Gamma=1.0000).
                        Polarization charges: spherical gaussians, with
                                              point-specific exponents (IZeta= 3).
                        Self-potential: point-specific (ISelfS= 7).
                        Self-field    : sphere-specific E.n sum rule (ISelfD= 2).
 1st derivatives      : Analytical E(r).r(x)/FMM algorithm (CHGder, D1EAlg=3).
                        Cavity 1st derivative terms included.
 Solvent              : Water, Eps=  78.355300 Eps(inf)=   1.777849
 ------------------------------------------------------------------------------
 Spheres list:
 ISph  on   Nord     Re0    Alpha      Xe            Ye            Ze
    1   C      1    1.8500  1.000     -0.446346      0.091011     -0.044471
    2   C      2    1.8500  1.000      0.338271      1.241249     -0.017113
    3   F      3    1.7300  1.000     -0.185702      2.461690     -0.026452
    4   C      4    1.8500  1.000      1.723978      1.150654      0.012514
    5   F      5    1.7300  1.000      2.460490      2.258390      0.035963
    6   C      6    1.8500  1.000      2.342284     -0.089127      0.017360
    7   C      7    1.8500  1.000      1.577284     -1.247522     -0.008084
    8   F      8    1.7300  1.000      2.167868     -2.438793     -0.000145
    9   C      9    1.8500  1.000      0.199469     -1.144688     -0.040670
   10   F     10    1.7300  1.000     -0.518522     -2.269134     -0.050836
   11   S     11    2.4900  1.000     -2.239251      0.104684     -0.098347
   12   O     12    1.5200  1.000     -2.669069      1.488298      0.021194
   13   O     13    1.5200  1.000     -2.617820     -0.686894     -1.259696
   14   N     14    1.8900  1.000     -2.785291     -0.684687      1.224288
   15   H     15    1.2000  1.000     -2.557256     -0.204333      2.096883
   16   F     16    1.7300  1.000      3.664866     -0.170409      0.046692
   17   H     17    1.2000  1.000     -2.533228     -1.674178      1.250459
 ------------------------------------------------------------------------------
 ------------------------------------------------------------------------------
 Atomic radii for non-electrostatic terms: SMD-CDS.
 ------------------------------------------------------------------------------
 Nuclear repulsion after PCM non-electrostatic terms =     1244.5838283357 Hartrees.
 One-electron integrals computed using PRISM.
 NBasis=   293 RedAO= T EigKep=  1.49D-06  NBF=   293
 NBsUse=   293 1.00D-06 EigRej= -1.00D+00 NBFU=   293
 Initial guess from the checkpoint file:  "/jobfs/40645849.gadi-pbs/Gau-29104.chk"
 B after Tr=     0.000000   -0.000000    0.000000
         Rot=    1.000000    0.000132    0.000326   -0.000879 Ang=   0.11 deg.
 ExpMin= 4.05D-02 ExpMax= 2.19D+04 ExpMxC= 3.30D+03 IAcc=3 IRadAn=         5 AccDes= 0.00D+00
 Harris functional with IExCor= 1009 and IRadAn=       5 diagonalized for initial guess.
 HarFok:  IExCor= 1009 AccDes= 0.00D+00 IRadAn=         5 IDoV= 1 UseB2=F ITyADJ=14
 ICtDFT=  3500011 ScaDFX=  1.000000  1.000000  1.000000  1.000000
 FoFCou: FMM=F IPFlag=           0 FMFlag=      100000 FMFlg1=           0
         NFxFlg=           0 DoJE=T BraDBF=F KetDBF=T FulRan=T
         wScrn=  0.000000 ICntrl=       500 IOpCl=  0 I1Cent=   200000004 NGrid=           0
         NMat0=    1 NMatS0=      1 NMatT0=    0 NMatD0=    1 NMtDS0=    0 NMtDT0=    0
 Petite list used in FoFCou.
 Requested convergence on RMS density matrix=1.00D-08 within 128 cycles.
 Requested convergence on MAX density matrix=1.00D-06.
 Requested convergence on             energy=1.00D-06.
 No special actions if energy rises.
 Inv3:  Mode=1 IEnd=     6777027.
 Iteration    1 A*A^-1 deviation from unit magnitude is 4.44D-15 for   1473.
 Iteration    1 A*A^-1 deviation from orthogonality  is 2.06D-15 for   1480      9.
 Iteration    1 A^-1*A deviation from unit magnitude is 4.44D-15 for   1473.
 Iteration    1 A^-1*A deviation from orthogonality  is 2.44D-15 for   1463    128.
 Error on total polarization charges =  0.02280
 SCF Done:  E(RM062X) =  -1331.99584955     A.U. after   12 cycles
            NFock= 12  Conv=0.17D-08     -V/T= 2.0064
 SMD-CDS (non-electrostatic) energy       (kcal/mol) =       6.42
 (included in total energy above)
 D1PCM: PCM CHGder 1st derivatives, ID1Alg=3 FixD1E=F DoIter=F DoCFld=F I1PDM=0.
 Calling FoFJK, ICntrl=      2127 FMM=F ISym2X=0 I1Cent= 0 IOpClX= 0 NMat=1 NMatS=1 NMatT=0.
 ***** Axes restored to original set *****
 -------------------------------------------------------------------
 Center     Atomic                   Forces (Hartrees/Bohr)
 Number     Number              X              Y              Z
 -------------------------------------------------------------------
      1        6          -0.000074876    0.000293766   -0.000055396
      2        6           0.000030751   -0.000206925   -0.000214043
      3        9          -0.000053717    0.000060069    0.000017018
      4        6          -0.000058813    0.000017403   -0.000009031
      5        9          -0.000038553   -0.000019537   -0.000024591
[...]
   yy         0.133195D+03      0.197375D+02      0.219609D+02
   zx        -0.155806D+01     -0.230880D+00     -0.256889D+00
   zy         0.346388D+02      0.513293D+01      0.571116D+01
   zz         0.118513D+03      0.175618D+02      0.195401D+02

 ----------------------------------------------------------------------
 Unable to Open any file for archive entry.
 1\1\GINC-GADI-CPU-CLX-2697\Freq\RM062X\Gen\C6H2F5N1O2S1\YJ5695\19-May-
 2022\0\\#N Geom=AllCheck Guess=TCheck SCRF=Check GenChk RM062X/ChkBas 
 Freq\\a3 b1\\0,1\C,-1.5241989223,0.6728585635,-0.7847417961\C,-2.65558
 05516,0.9191622363,-1.5587109902\F,-3.8649408424,1.0600402598,-1.02779
 38958\C,-2.5578104436,1.0215785165,-2.9404028296\F,-3.6473228496,1.255
 9536585,-3.66708282\C,-1.3291632068,0.8803592047,-3.5648037399\C,-0.18
 96146894,0.635076639,-2.8104062848\F,0.9909263642,0.5013922178,-3.4074
 579642\C,-0.2998649332,0.5325909919,-1.4366421537\F,0.8072898327,0.304
 6104833,-0.7280265379\S,-1.5487462218,0.5072078509,1.0010456448\O,-2.8
 944456546,0.8242329637,1.4489443203\O,-0.9573706751,-0.7884865679,1.30
 38069796\N,-0.5512002754,1.6444298579,1.6190054174\H,-0.8556486847,2.5
 991954557,1.4181263695\F,-1.2402626032,0.9797225314,-4.8834969958\H,0.
 4317873568,1.4943501371,1.3849172764\\Version=ES64L-G16RevC.01\State=1
 -A\HF=-1331.9958678\RMSD=2.418e-09\RMSF=1.554e-05\ZeroPoint=0.0879163\
 Thermal=0.1012085\ETot=-1331.8946593\HTot=-1331.8937151\GTot=-1331.948
 445\Dipole=1.4238037,1.8534898,-1.1913558\DipoleDeriv=-0.4432715,-0.03
 05294,-0.0002458,-0.0199738,-0.405052,-0.0100153,-0.0035626,0.0141935,
 -0.9800653,1.5000282,-0.168518,-0.0132629,-0.1280626,0.2279173,-0.0467
 75,-0.8529706,0.08775,0.6059783,-1.3645258,0.1475211,0.3514198,0.14471
 5,-0.1548654,-0.0328168,0.468044,-0.0463601,-0.4029261,1.0075785,-0.20
 54175,0.8244976,-0.2177174,0.1680931,-0.1566687,1.007585,-0.1887071,0.
 4690336,-1.1233205,0.2105056,-0.678808,0.2084977,-0.1646088,0.1592597,
 -0.6291543,0.1451743,-0.7290272,0.4517441,-0.0380676,-0.0994648,-0.040
 6677,0.1911985,-0.1374694,-0.1008939,-0.1283765,1.9885364,1.2439759,-0
 .117239,-0.7665766,-0.0970849,0.1249634,0.1041963,-0.8940884,0.1303087
 ,0.2811986,-1.2711445,0.1321941,0.6432804,0.133036,-0.1335587,-0.06109
 04,0.5516855,-0.050959,-0.5870825,1.190279,-0.1822983,0.1389216,-0.220
 1246,0.2406768,-0.0572994,0.859457,-0.194125,0.739195,-1.156418,0.2039
 523,-0.4647023,0.1860383,-0.1816373,0.0895987,-0.5584837,0.1236949,-0.
 5921305,2.9894349,-0.0635262,0.0058635,-0.0466244,3.0739128,0.0306684,
 -0.1145378,-0.0703615,3.7318508,-1.4998125,0.0863164,0.4983318,0.20708
 68,-0.8356078,-0.0993856,0.3302075,-0.0314316,-1.1708193,-0.9054267,0.
 3674969,-0.2078194,0.2442691,-1.5334728,0.4249499,-0.0665364,0.2087519
 ,-1.1835632,-1.0145393,-0.3051372,-0.3647297,-0.3344526,-1.1090226,-0.
 395001,-0.137835,-0.1387715,-1.2676314,0.234845,-0.0828576,-0.0641244,
 0.0199151,0.3940445,0.0954038,-0.0275787,0.0496104,0.4226997,-0.243214
 6,0.0107883,0.1017058,0.0110456,-0.1324828,0.1241927,0.0970818,0.11057
 39,-1.745593,0.4037879,0.0348159,0.0957133,-0.0498956,0.2295017,-0.031
 7478,0.0715806,-0.0209652,0.420346\Polar=146.6163369,-10.2078652,91.99
 61629,0.3273094,-4.268653,168.0153829\Quadrupole=0.0647272,7.5233725,-
 7.5880997,4.3916172,6.7905416,9.1580491\PG=C01 [X(C6H2F5N1O2S1)]\NImag
 =0\\0.69052609,-0.09431872,0.14088708,0.01210391,-0.04094549,0.5640658
 9,-0.25530735,0.04441244,-0.12518773,0.72567245,0.03838871,-0.05859815
 ,0.03189533,-0.09149811,0.14851328,-0.06410133,0.02232937,-0.20367968,
 -0.01162579,-0.04733314,0.70157023,-0.04190973,0.00604563,0.01042849,-
 0.32163682,0.03362849,0.11741380,0.39281579,0.00852093,0.00270975,-0.0
 0314693,0.03432249,-0.04130930,-0.01119525,-0.04453930,0.02634591,-0.0
 1573477,0.00120064,0.02061557,0.11309205,-0.01023489,-0.12188547,-0.14
 906141,0.01331103,0.14567416,0.04628618,-0.00623228,-0.01611783,-0.106
 59083,0.01084606,-0.04485497,-0.03408707,0.00161925,0.05861381,0.75356
 870,-0.00013587,-0.00092116,0.00489106,0.00174124,-0.06087771,0.030056
 04,0.00505152,0.00935737,-0.00603195,-0.10039271,0.13096814,-0.0828118
 8,0.01548967,-0.02406895,0.06363213,0.01319920,-0.33081597,0.01914888,
 0.00008393,-0.02670600,-0.00069812,-0.05387615,0.73423195,-0.00203868,
 0.00108722,-0.00004583,-0.01480530,0.00396379,-0.00855597,0.00977066,-
 0.00229299,-0.00019793,-0.28221280,0.05134245,-0.13999110,0.33547079,0
 .00073951,0.00506610,0.00097537,0.00758666,0.00463840,0.00439357,-0.00
 239679,-0.00481892,-0.00108173,0.05141233,-0.04252055,0.03333673,-0.06
 511899,0.03423871,0.00467666,0.00005616,-0.00630334,-0.04933883,0.0107
 7111,-0.02945126,0.00012279,-0.00100991,0.00490922,-0.13990506,0.03302
 610,-0.16089339,0.18099881,-0.04214789,0.18186753,-0.08080303,0.014833
 32,-0.00315874,0.03496306,-0.01620017,0.10935233,0.00660363,0.00105043
 ,-0.01146915,-0.30294540,0.03702560,0.03630594,-0.04805771,0.00804741,
 0.00621424,0.73480654,0.01455329,0.00648922,0.00055766,-0.00949131,-0.
 00424423,-0.01636878,0.00033902,0.00622486,0.00263166,0.02741050,-0.05
 418487,0.00384294,0.01187587,0.00369526,-0.00086787,-0.09562052,0.1429
 6553,-0.00470390,0.00121934,0.00653385,0.03156954,-0.00430436,-0.01731
 110,-0.00510521,0.00158192,-0.00277547,0.14997208,-0.01366308,-0.15884
 026,-0.03953826,0.00625527,0.00409757,-0.01246824,-0.05336750,0.765253
 30,0.03325162,-0.00724977,0.02140605,-0.01697366,0.00724831,-0.0323330
 0,0.00258309,-0.00086094,0.00037776,-0.05455663,0.00523480,0.02287262,
 0.00444096,-0.00001072,0.00353046,-0.27476303,0.04847631,-0.15699632,0
 .75284139,-0.01259687,0.00344396,-0.00245034,0.00722768,0.00977010,0.0
 1315986,-0.00013877,-0.00249143,-0.00097869,0.01117186,-0.00843277,-0.
 01216963,-0.00006416,0.00645310,0.00059149,0.03830368,-0.06137362,0.03
 572785,-0.09709042,0.13263616,0.08975656,-0.01312626,-0.01493507,-0.02
 797095,0.01238224,-0.08100027,-0.00656080,0.00007848,0.00686950,-0.042
 91086,-0.00174480,0.09290899,0.00529642,0.00018080,-0.00680878,-0.0437
 6426,0.01784694,-0.17991391,-0.02353673,-0.05068011,0.74953246,-0.0013
 3975,0.00118870,0.00086031,0.00472070,-0.00106214,-0.00006609,-0.00799
 571,0.00099596,0.00341447,0.00519376,0.00053565,-0.00364816,-0.0053471
 4,0.00094405,-0.00094382,-0.05119570,0.00589963,0.03292145,-0.31951563
 ,0.03417086,0.12693787,0.38304966,0.00154300,0.00563127,0.00088402,-0.
 00110300,-0.00292598,-0.00058192,0.00095360,0.00038822,-0.00032110,0.0
 0029433,0.00614025,0.00186657,0.00088049,0.00011816,0.00004026,0.01011
 183,0.00399398,-0.00556672,0.03386464,-0.03652105,-0.01109842,-0.04268
 273,0.02619061,-0.00430723,0.00179356,-0.00638243,-0.00174549,-0.00035
 197,0.00289365,0.00433909,-0.00046289,-0.00169054,-0.00169272,0.001459
 16,-0.00753281,0.00008149,-0.00008892,0.00142637,-0.01235438,0.0016174
 4,0.00736959,0.12732972,-0.01117333,-0.13305550,-0.16396495,0.01511328
 ,0.14351933,-0.27372100,0.02394248,0.12212847,-0.05276440,0.01135268,-
 0.04103238,0.00097720,0.00062321,0.00079965,-0.02769421,0.00292153,0.0
 3752657,0.00403654,-0.00126151,0.00135356,0.05437834,-0.00755846,-0.02
 338912,-0.11134731,0.00963278,-0.02816252,-0.02306893,0.00011266,0.051
 83431,0.70294225,0.02978417,-0.05901572,-0.00796982,0.00543134,-0.0047
 9512,-0.00172071,0.00056603,0.00549486,0.00117492,0.00272323,0.0115905
 2,0.00138729,-0.00110401,-0.00319971,-0.00068292,-0.00102622,-0.008100
 30,0.00558266,0.00100398,-0.05891961,0.02976192,0.00361448,0.00582092,
 -0.00578730,-0.08763772,0.14633528,0.05580543,0.00208161,-0.17814650,0
 .01930253,-0.01117999,0.09440695,0.00143386,0.00131720,-0.01058074,0.0
 4068428,0.00077036,-0.07333901,0.00046455,-0.00055682,0.00336786,-0.10
 119053,0.01834530,-0.03295818,0.08170956,0.01234678,-0.34822341,0.0096
 3810,0.00091499,-0.02118202,-0.00480987,-0.05057551,0.73759132,-0.0445
 7401,0.00977127,-0.02089193,0.00041960,0.00069948,0.00092507,-0.005077
 50,0.00094120,-0.00018894,0.00213475,-0.00119361,0.00547563,-0.0067309
 8,0.00152384,-0.00477856,0.00357178,-0.00008504,0.00615935,-0.02001530
 ,0.00553144,-0.01461573,0.00963795,-0.00212630,-0.00106587,-0.27287604
 ,0.04731014,-0.13236217,0.33420139,0.00697389,0.00295943,0.00199942,0.
 00078559,0.00515450,0.00096446,0.00091048,0.00071741,0.00002365,-0.000
 69461,-0.00278011,-0.00156123,0.00136010,0.00042243,0.00092690,-0.0004
 4659,0.00668735,-0.00017999,0.00893970,0.00671454,0.00564965,-0.002314
 94,-0.00490100,-0.00089335,0.04807867,-0.04561938,0.03124336,-0.062117
 44,0.03572332,0.00727743,-0.00255897,0.01890023,0.00105740,0.00132832,
 -0.01036513,-0.00089194,0.00004786,0.00166997,-0.00080473,-0.00072115,
 0.00746485,-0.00442598,0.00096768,-0.00293050,0.01227463,-0.00131701,-
 0.00053671,-0.05688688,0.01222741,-0.03392502,0.00161800,-0.00128887,0
 .00536782,-0.12782353,0.02965547,-0.15515685,0.16928147,-0.03968092,0.
 18067343,-0.07337467,0.00257187,0.00052672,0.01445896,0.00046941,-0.02
 478796,-0.00260524,-0.00092642,0.00783470,-0.00184192,0.00117587,-0.00
 213860,-0.00058500,0.00030934,-0.00141911,-0.00302479,0.00023954,-0.00
 032172,-0.00333711,0.00095900,0.00209130,-0.00082539,0.00009528,0.0016
 9266,0.01156162,-0.00393850,0.03079814,-0.00221385,0.00014717,-0.00534
 713,0.87976041,0.00298042,-0.04983100,0.00940779,0.00095170,-0.0000315
 0,0.00562125,-0.00124113,-0.00323650,-0.00142002,0.00163914,0.00420021
 ,0.00091494,-0.00057242,0.00068892,-0.00049541,0.00013346,-0.00189139,
 0.00106501,0.00023268,0.00345462,-0.00005943,0.00111199,0.00056594,-0.
 00084583,-0.00471935,0.00293961,-0.00354825,0.00043554,-0.00481569,0.0
 0236229,-0.19913845,0.78717851,-0.00044040,0.00682871,-0.13943190,-0.0
 3406865,0.00763672,-0.01241696,0.01545477,-0.00230200,-0.00730676,-0.0
 0819795,0.00168940,-0.00087223,0.00729801,-0.00164430,0.00670860,-0.00
 007611,0.00094022,-0.01257415,0.00913596,-0.00094510,0.00160931,-0.008
 26707,0.00089655,0.00579158,0.03455092,-0.00453448,-0.01452685,-0.0132
 7615,0.00249171,-0.00764923,-0.06398844,-0.02071957,0.46553424,-0.0102
 2630,0.00364426,0.00352021,-0.00953680,0.00079932,0.00351014,0.0032274
 6,0.00026977,-0.00895821,-0.00029459,0.00006852,-0.00073692,0.00120068
 ,-0.00029955,0.00118075,-0.00019262,0.00023594,-0.00191118,0.00022067,
 -0.00009319,-0.00061033,-0.00127860,0.00003246,0.00135363,0.00533221,-
 0.00075172,0.00324962,-0.00117572,0.00010688,0.00011211,-0.50108725,0.
 10626509,0.13780156,0.56468466,0.00109584,0.00707834,0.00052025,0.0019
 3220,-0.00073362,-0.00108447,-0.00037256,0.00128369,0.00215141,-0.0001
 1414,-0.00045264,-0.00001719,-0.00020431,0.00004093,-0.00022210,-0.000
 04766,0.00008866,0.00031112,-0.00003900,-0.00031278,0.00016062,0.00013
 351,-0.00022727,-0.00021743,-0.00056109,0.00137341,-0.00022799,0.00039
 747,0.00047188,-0.00035755,0.10078420,-0.09912260,-0.03262773,-0.11338
 879,0.08544819,0.03355328,-0.00570191,-0.00593539,0.00254689,-0.000741
 07,0.00398258,-0.00425397,0.00115033,-0.00873164,0.00187601,-0.0003397
 8,0.00109328,-0.00174389,0.00039056,-0.00160646,0.00023376,-0.00032832
 ,0.00291421,0.00009772,-0.00007472,0.00077421,0.00242588,-0.00016358,-
 0.00239066,-0.00944914,0.00205642,-0.00831979,0.00216518,-0.00046212,0
 .00194989,0.15125926,-0.03497774,-0.12550506,-0.16067139,0.03782503,0.
 11924384,0.00730148,0.00763938,-0.00283171,0.00208093,-0.00072532,0.00
 078862,-0.00076616,0.00048435,-0.00056160,0.00047184,-0.00036414,0.000
 23216,-0.00046575,0.00007404,-0.00054803,0.00005997,-0.00004689,0.0011
 7891,-0.00009503,-0.00008242,-0.00011903,0.00072822,-0.00016225,-0.000
 67772,-0.00619844,0.00143760,-0.00431954,0.00069528,-0.00169167,0.0048
 9218,-0.15630830,0.17475898,-0.03955218,-0.01069065,0.03653791,-0.0053
 8807,0.15060933,0.00952891,-0.00772987,0.00292510,-0.00697107,-0.00007
 868,0.00308094,0.00182782,-0.00051585,-0.00025759,-0.00011443,0.000354
 90,-0.00072751,0.00139866,-0.00020246,0.00176621,0.00016159,-0.0000130
 7,-0.00214585,0.00107610,-0.00000291,-0.00036780,-0.00153233,0.0001835
 6,0.00119887,0.00497168,-0.00043253,0.00079111,-0.00268937,0.00038567,
 -0.00071225,0.17897582,-0.45661519,0.08465158,0.00313523,-0.00438974,0
 .00652392,-0.20031606,0.51339727,-0.01362551,0.02583836,-0.00922313,0.
 01072665,0.00063270,-0.00272891,-0.00335665,0.00120989,0.00193335,0.00
 124505,-0.00146821,-0.00026231,-0.00190803,0.00014585,-0.00204761,-0.0
 0089894,0.00037219,0.00310396,-0.00216752,-0.00055799,0.00079514,0.001
 86668,-0.00025942,-0.00131814,-0.00550086,0.00062052,0.00062270,0.0037
 2381,0.00105237,-0.00076325,-0.04636768,0.10087480,-0.09509081,0.01039
 202,-0.00882277,0.01564417,0.04812375,-0.10425485,0.08298979,0.0021003
 9,-0.00744092,-0.00387319,0.00262735,-0.00076108,0.00043569,-0.0011821
 7,-0.00010097,-0.00072581,0.00074359,0.00024834,0.00031727,-0.00068052
 ,0.00026281,-0.00075588,-0.00010542,-0.00026447,0.00135995,-0.00047045
 ,0.00022307,0.00008929,0.00093243,-0.00000071,-0.00076447,-0.00431727,
 0.00104514,-0.00250892,0.00173530,-0.00044998,0.00159196,-0.15027493,-
 0.05933087,-0.04620041,-0.04018630,-0.02726373,-0.01171808,0.01114354,
 0.01524337,0.00028917,0.67759437,-0.00772638,0.00303978,-0.00116110,0.
 00369575,-0.00129522,-0.00208924,-0.00113632,0.00022045,0.00032743,0.0
 0022034,-0.00002417,0.00042057,-0.00078788,0.00028255,-0.00097522,-0.0
 0018640,-0.00020141,0.00114315,-0.00078441,0.00014948,0.00026698,0.000
 82771,-0.00007454,-0.00058132,-0.00161627,0.00018747,0.00045108,0.0014
 6650,-0.00071261,-0.00117472,-0.05973656,-0.16400829,-0.05494939,0.005
 71471,0.00916020,-0.00258834,-0.01873231,-0.04400881,-0.01378946,-0.08
 221051,0.65003800,-0.01949080,-0.01560391,-0.01018434,0.00911703,-0.00
 376535,-0.00275245,-0.00331527,-0.00034955,0.00155006,0.00193793,0.001
 08012,-0.00022218,-0.00166808,0.00074166,-0.00179577,-0.00129955,-0.00
 051002,0.00280337,-0.00185054,0.00101840,0.00104355,0.00167871,-0.0001
 5489,-0.00108895,-0.00464101,0.00094298,-0.00033127,0.00214327,-0.0018
 2398,0.00016697,-0.02723834,-0.03190129,-0.06875082,0.01082876,0.00416
 138,0.00735575,0.00088104,0.00700936,0.00777529,-0.02191739,-0.0056140
 6,0.12458849,-0.00076405,0.00029287,-0.00022195,0.00038152,-0.00001798
 ,-0.00027457,-0.00010538,0.00002363,0.00007721,0.00002394,-0.00003564,
 0.00002210,-0.00006337,0.00001125,-0.00008361,-0.00003750,0.00001963,0
 .00009659,-0.00001365,0.00000049,0.00006829,0.00006264,-0.00000540,-0.
 00004293,-0.00040539,-0.00001650,-0.00010075,0.00006548,0.00012551,0.0
 0025606,0.01065045,-0.01924353,0.00741819,-0.00122796,0.00199123,-0.00
 046150,-0.00122630,-0.00797111,-0.00221272,-0.09884309,0.10245896,-0.0
 2639885,0.09443030,0.00076150,0.00194951,0.00113046,-0.00122360,0.0003
 2194,-0.00003968,0.00058308,0.00001579,-0.00009327,-0.00040199,-0.0001
 1137,-0.00005817,0.00030889,-0.00009052,0.00029231,0.00012457,0.000070
 14,-0.00050368,0.00036095,-0.00012190,-0.00013036,-0.00033513,0.000030
 14,0.00022908,0.00086211,-0.00013017,-0.00006511,-0.00034842,0.0000388
 8,-0.00008710,0.00100682,-0.02723423,0.00378653,0.00225460,0.00321771,
 -0.00077145,-0.00129309,0.00011915,-0.00087328,0.10885273,-0.38126560,
 0.06411100,-0.10971970,0.40148694,-0.00053270,0.00134219,0.00018840,-0
 .00049409,0.00017231,-0.00028360,0.00032430,0.00006200,-0.00005493,-0.
 00036944,-0.00004051,0.00001676,0.00011921,-0.00004270,0.00006981,0.00
 009416,0.00003587,-0.00025055,0.00020254,-0.00011825,-0.00006669,-0.00
 014173,0.00000782,0.00007892,0.00076952,0.00004293,0.00038023,-0.00010
 737,-0.00010391,-0.00058660,-0.00129987,-0.02091686,-0.00614831,0.0013
 8740,0.00062644,-0.00079216,-0.00149290,-0.00387704,0.00347524,-0.0318
 0358,0.10102081,-0.02445925,0.03038944,-0.06954889,0.02981976,0.002641
 65,-0.00083402,0.00085670,-0.00651364,0.00253224,-0.00521681,-0.001101
 44,-0.00013787,0.00288595,0.00206218,-0.00312758,0.04455483,0.00576823
 ,-0.00173767,-0.00061573,-0.07340974,0.00396681,0.02162182,0.00747804,
 0.00297262,-0.03578858,0.00654763,-0.00184487,-0.00021954,-0.00707469,
 0.00179661,0.00316810,-0.00021063,0.00018939,-0.00249661,0.00010032,0.
 00014875,-0.00091082,-0.00004084,0.00000049,0.00017222,0.00011053,-0.0
 0017374,0.00025790,0.00013902,0.00010796,0.00030057,0.00000981,-0.0000
 4771,-0.00003081,0.06353425,-0.00090548,-0.00207507,0.00066212,0.00213
 347,0.00629481,0.00063899,-0.00017505,-0.00036804,-0.00020873,0.000661
 53,0.00772143,-0.00207654,-0.00213577,-0.00479799,-0.00109451,0.003818
 35,-0.04026443,0.02681122,-0.00069656,0.00569035,0.01081096,-0.0014781
 7,-0.00442375,-0.00099844,0.00228188,0.00596324,-0.00080548,0.00025860
 ,-0.00032787,0.00074799,0.00007589,0.00055037,-0.00104715,-0.00018462,
 0.00000073,0.00024150,0.00003554,-0.00011325,0.00013892,0.00017882,0.0
 0012788,0.00036184,0.00000620,-0.00006408,-0.00003347,-0.00383366,0.02
 609410,0.00088874,0.00042583,-0.01119443,-0.00021754,-0.00038686,0.009
 57978,0.00361273,-0.00031567,-0.00343170,0.00142415,0.00492664,-0.0520
 5365,0.00351096,-0.00174493,0.00914551,0.02216176,0.02652141,-0.386677
 15,0.00656468,0.00416693,-0.05552066,-0.00408670,-0.00031929,0.0080648
 5,-0.00173763,0.00009326,0.00902849,-0.00304648,0.00067589,-0.00414415
 ,-0.00026468,-0.00126206,0.01426734,0.00209473,-0.00030420,-0.00305313
 ,-0.00123598,0.00233742,-0.00359463,-0.00153944,-0.00135601,-0.0034830
 4,-0.00012140,0.00063571,0.00036288,-0.02855173,-0.03412044,0.47240240
 ,0.00195115,0.00064627,0.00049805,-0.00119575,0.00033629,0.00042320,0.
 00048939,0.00000729,-0.00019776,-0.00026147,-0.00009597,-0.00006334,0.
 00029939,-0.00008600,0.00031136,0.00015161,0.00005014,-0.00044575,0.00
 027204,-0.00012765,-0.00019995,-0.00030614,0.00003698,0.00020438,0.000
 23953,-0.00023803,-0.00096239,0.00041250,0.00009784,0.00031556,-0.0210
 5330,-0.00441199,0.00331877,0.00127192,-0.00088155,-0.00064417,0.00254
 951,0.00344893,-0.00058711,-0.40095583,0.05842509,0.08093254,-0.002937
 45,-0.00174559,0.00298592,-0.00004067,-0.00004098,0.00054383,0.4191136
 0,0.00081314,-0.00108346,-0.00017489,0.00006655,0.00019646,0.00016870,
 0.00009426,-0.00001827,-0.00019280,-0.00004840,-0.00002747,-0.00005543
 ,0.00006305,-0.00001441,0.00002529,-0.00008268,0.00005831,0.00003363,0
 .00029437,-0.00013624,0.00006860,-0.00001711,0.00001053,-0.00001061,-0
 .00142529,0.00050722,-0.00130264,0.00022469,-0.00011874,0.00056153,-0.
 02307027,0.00720821,0.00984830,-0.00780890,-0.00292510,-0.00203871,0.0
 0244635,-0.00033819,-0.00085962,0.05176895,-0.07161515,-0.01970365,0.0
 3208009,0.00176769,-0.00862874,0.00002225,-0.00000841,0.00002635,-0.05
 542106,0.06653703,0.00168649,-0.00066892,-0.00081876,-0.00039515,0.000
 27968,0.00025762,0.00026656,-0.00006044,-0.00005857,-0.00020164,-0.000
 01323,-0.00010907,0.00030561,-0.00008018,0.00024466,0.00004308,0.00004
 787,-0.00023838,0.00054394,-0.00009055,-0.00008385,-0.00024297,0.00003
 070,0.00012896,-0.00241693,-0.00004763,-0.00263293,0.00045941,-0.00032
 190,-0.00013570,-0.02102925,-0.00409963,-0.00363798,-0.00254291,-0.001
 87481,0.00337636,0.00063011,0.00205838,-0.00131087,0.11772385,-0.01935
 116,-0.03221541,-0.00840960,0.00198589,-0.00174989,0.00001253,-0.00002
 876,0.00030130,-0.08643313,0.02223469,0.03868250\\-0.00000373,0.000005
 87,0.00000028,0.00000171,0.00001746,-0.00000556,0.00000259,0.00003930,
 -0.00001042,0.00000913,0.00000943,-0.00000548,0.00001512,0.00002188,-0
 .00001088,0.00000880,-0.00001241,-0.00000020,0.00000300,-0.00002589,0.
 00000569,0.00000263,-0.00004648,0.00001059,-0.00000423,-0.00001628,0.0
 0000532,-0.00001001,-0.00002984,0.00001115,-0.00001777,0.00001509,-0.0
 0000031,-0.00000828,0.00003729,-0.00000624,-0.00003353,0.00000639,0.00
 001051,0.00000203,0.00000420,0.00000196,0.00001672,0.00000741,-0.00000
 843,0.00001563,-0.00002089,-0.00000020,0.00000019,-0.00001254,0.000002
 23\\\@
 The archive entry for this job was punched.


 HE WHO LAUGHS LAST PROBABLY DIDN'T GET THE JOKE.
 Job cpu time:       0 days  1 hours 15 minutes 51.1 seconds.
 Elapsed time:       0 days  0 hours  6 minutes 53.2 seconds.
 File lengths (MBytes):  RWF=    221 Int=      0 D2E=      0 Chk=     13 Scr=      1
 Normal termination of Gaussian 16 at Thu May 19 15:30:17 2022.
