 Entering Gaussian System, Link 0=g16
 AtFile(1): /home/561/yj5695/Basis/6-31pGd.gbs
 Initial command:
 /apps/gaussian/g16c01/g16/l1.exe "/jobfs/48670239.gadi-pbs/Gau-4027328.inp" -scrdir="/jobfs/48670239.gadi-pbs/"
 Entering Link 1 = /apps/gaussian/g16c01/g16/l1.exe PID=   4027329.
  
 Copyright (c) 1988-2019, Gaussian, Inc.  All Rights Reserved.
  
 This is part of the Gaussian(R) 16 program.  It is based on
 the Gaussian(R) 09 system (copyright 2009, Gaussian, Inc.),
 the Gaussian(R) 03 system (copyright 2003, Gaussian, Inc.),
 the Gaussian(R) 98 system (copyright 1998, Gaussian, Inc.),
 the Gaussian(R) 94 system (copyright 1995, Gaussian, Inc.),
 the Gaussian 92(TM) system (copyright 1992, Gaussian, Inc.),
 the Gaussian 90(TM) system (copyright 1990, Gaussian, Inc.),
 the Gaussian 88(TM) system (copyright 1988, Gaussian, Inc.),
 the Gaussian 86(TM) system (copyright 1986, Carnegie Mellon
 University), and the Gaussian 82(TM) system (copyright 1983,
 Carnegie Mellon University). Gaussian is a federally registered
 trademark of Gaussian, Inc.
  
 This software contains proprietary and confidential information,
 including trade secrets, belonging to Gaussian, Inc.
  
 This software is provided under written license and may be
 used, copied, transmitted, or stored only in accord with that
 written license.
  
 The following legend is applicable only to US Government
 contracts under FAR:
  
                    RESTRICTED RIGHTS LEGEND
  
 Use, reproduction and disclosure by the US Government is
 subject to restrictions as set forth in subparagraphs (a)
 and (c) of the Commercial Computer Software - Restricted
 Rights clause in FAR 52.227-19.
  
 Gaussian, Inc.
 340 Quinnipiac St., Bldg. 40, Wallingford CT 06492
  
  
 ---------------------------------------------------------------
 Warning -- This program may not be used in any manner that
 competes with the business of Gaussian, Inc. or will provide
 assistance to any competitor of Gaussian, Inc.  The licensee
 of this program is prohibited from giving any competitor of
 Gaussian, Inc. access to this program.  By using this program,
 the user acknowledges that Gaussian, Inc. is engaged in the
 business of creating and licensing software in the field of
 computational chemistry and represents and warrants to the
 licensee that it is not a competitor of Gaussian, Inc. and that
 it will not use this program in any manner prohibited above.
 ---------------------------------------------------------------
  

 Cite this work as:
 Gaussian 16, Revision C.01,
 M. J. Frisch, G. W. Trucks, H. B. Schlegel, G. E. Scuseria, 
 M. A. Robb, J. R. Cheeseman, G. Scalmani, V. Barone, 
 G. A. Petersson, H. Nakatsuji, X. Li, M. Caricato, A. V. Marenich, 
 J. Bloino, B. G. Janesko, R. Gomperts, B. Mennucci, H. P. Hratchian, 
 J. V. Ortiz, A. F. Izmaylov, J. L. Sonnenberg, D. Williams-Young, 
 F. Ding, F. Lipparini, F. Egidi, J. Goings, B. Peng, A. Petrone, 
 T. Henderson, D. Ranasinghe, V. G. Zakrzewski, J. Gao, N. Rega, 
 G. Zheng, W. Liang, M. Hada, M. Ehara, K. Toyota, R. Fukuda, 
 J. Hasegawa, M. Ishida, T. Nakajima, Y. Honda, O. Kitao, H. Nakai, 
 T. Vreven, K. Throssell, J. A. Montgomery, Jr., J. E. Peralta, 
 F. Ogliaro, M. J. Bearpark, J. J. Heyd, E. N. Brothers, K. N. Kudin, 
 V. N. Staroverov, T. A. Keith, R. Kobayashi, J. Normand, 
 K. Raghavachari, A. P. Rendell, J. C. Burant, S. S. Iyengar, 
 J. Tomasi, M. Cossi, J. M. Millam, M. Klene, C. Adamo, R. Cammi, 
 J. W. Ochterski, R. L. Martin, K. Morokuma, O. Farkas, 
 J. B. Foresman, and D. J. Fox, Gaussian, Inc., Wallingford CT, 2019.
 
 ******************************************
 Gaussian 16:  ES64L-G16RevC.01  3-Jul-2019
                29-Jun-2022 
 ******************************************
 %nproc=16
 Will use up to   16 processors via shared memory.
 %mem=50gb
 -----------------------------------------------------
 #m062X/gen 6D OPT Freq=noraman SCRF=(SMD,Solvent=h2o)
 -----------------------------------------------------
 1/18=20,19=15,26=3,38=1/1,3;
 2/9=110,12=2,17=6,18=5,40=1/2;
 3/5=7,8=2,11=2,25=1,30=1,70=32201,71=1,72=1,74=-55/1,2,3;
 4//1;
 5/5=2,38=5,53=1/2;
 6/7=2,8=2,9=2,10=2,28=1/1;
 7//1,2,3,16;
 1/18=20,19=15,26=3/3(2);
 2/9=110/2;
 99//99;
 2/9=110/2;
 3/5=7,6=1,8=2,11=2,25=1,30=1,70=32205,71=1,72=1,74=-55,82=7/1,2,3;
 4/5=5,16=3,69=1/1;
 5/5=2,38=5,53=1/2;
 7//1,2,3,16;
 1/18=20,19=15,26=3/3(-5);
 2/9=110/2;
 6/7=2,8=2,9=2,10=2,19=2,28=1/1;
 99/9=1/99;
 ------------------
 HA.9.smd.a1c2.smd
 ------------------
 Symbolic Z-matrix:
 Charge =  0 Multiplicity = 1
 C                    -1.36516   0.79515  -0.94691 
 C                    -2.55669   1.01333  -1.62996 
 H                    -3.49873   1.07091  -1.09367 
 C                    -2.53827   1.17127  -3.01395 
 H                    -3.46882   1.35018  -3.53916 
 C                    -1.31856   1.09964  -3.69586 
 O                    -1.19556   1.24189  -5.0383 
 C                    -0.12242   0.87194  -2.99635 
 H                     0.81032   0.82456  -3.54939 
 C                    -0.14204   0.7191   -1.62171 
 H                     0.78293   0.54952  -1.07833 
 S                    -1.39502   0.54914   0.80378 
 O                    -0.13327   1.04652   1.3568 
 O                    -2.66128   1.07283   1.31936 
 N                    -1.412    -1.07456   1.12479 
 H                    -0.56382  -1.53146   0.78267 
 H                    -2.24015  -1.52466   0.72938 
 C                     0.11138   1.1437   -5.6027 
 H                    -0.01938   1.28506  -6.67472 
 H                     0.54202   0.15679  -5.40786 
 H                     0.76383   1.92536  -5.20188 
 

 GradGradGradGradGradGradGradGradGradGradGradGradGradGradGradGradGradGrad
 Berny optimization.
 Initialization pass.
                           ----------------------------
                           !    Initial Parameters    !
                           ! (Angstroms and Degrees)  !
 --------------------------                            --------------------------
 ! Name  Definition              Value          Derivative Info.                !
 --------------------------------------------------------------------------------
 ! R1    R(1,2)                  1.3907         estimate D2E/DX2                !
 ! R2    R(1,10)                 1.399          estimate D2E/DX2                !
 ! R3    R(1,12)                 1.7681         estimate D2E/DX2                !
 ! R4    R(2,3)                  1.0855         estimate D2E/DX2                !
 ! R5    R(2,4)                  1.3931         estimate D2E/DX2                !
 ! R6    R(4,5)                  1.0834         estimate D2E/DX2                !
 ! R7    R(4,6)                  1.3992         estimate D2E/DX2                !
 ! R8    R(6,7)                  1.3555         estimate D2E/DX2                !
 ! R9    R(6,8)                  1.4043         estimate D2E/DX2                !
 ! R10   R(7,18)                 1.427          estimate D2E/DX2                !
 ! R11   R(8,9)                  1.0854         estimate D2E/DX2                !
 ! R12   R(8,10)                 1.3833         estimate D2E/DX2                !
 ! R13   R(10,11)                1.0861         estimate D2E/DX2                !
 ! R14   R(12,13)                1.4647         estimate D2E/DX2                !
 ! R15   R(12,14)                1.4641         estimate D2E/DX2                !
 ! R16   R(12,15)                1.6552         estimate D2E/DX2                !
 ! R17   R(15,16)                1.0224         estimate D2E/DX2                !
 ! R18   R(15,17)                1.0221         estimate D2E/DX2                !
 ! R19   R(18,19)                1.0892         estimate D2E/DX2                !
 ! R20   R(18,20)                1.0943         estimate D2E/DX2                !
 ! R21   R(18,21)                1.0942         estimate D2E/DX2                !
 ! A1    A(2,1,10)             121.3805         estimate D2E/DX2                !
 ! A2    A(2,1,12)             119.5832         estimate D2E/DX2                !
 ! A3    A(10,1,12)            118.9985         estimate D2E/DX2                !
 ! A4    A(1,2,3)              120.6117         estimate D2E/DX2                !
 ! A5    A(1,2,4)              119.6317         estimate D2E/DX2                !
 ! A6    A(3,2,4)              119.7541         estimate D2E/DX2                !
 ! A7    A(2,4,5)              119.2733         estimate D2E/DX2                !
 ! A8    A(2,4,6)              119.3333         estimate D2E/DX2                !
 ! A9    A(5,4,6)              121.3931         estimate D2E/DX2                !
 ! A10   A(4,6,7)              123.8046         estimate D2E/DX2                !
 ! A11   A(4,6,8)              120.5343         estimate D2E/DX2                !
 ! A12   A(7,6,8)              115.661          estimate D2E/DX2                !
 ! A13   A(6,7,18)             117.8772         estimate D2E/DX2                !
 ! A14   A(6,8,9)              119.0297         estimate D2E/DX2                !
 ! A15   A(6,8,10)             120.0577         estimate D2E/DX2                !
 ! A16   A(9,8,10)             120.9117         estimate D2E/DX2                !
 ! A17   A(1,10,8)             119.0608         estimate D2E/DX2                !
 ! A18   A(1,10,11)            120.7809         estimate D2E/DX2                !
 ! A19   A(8,10,11)            120.157          estimate D2E/DX2                !
 ! A20   A(1,12,13)            108.183          estimate D2E/DX2                !
 ! A21   A(1,12,14)            108.2716         estimate D2E/DX2                !
 ! A22   A(1,12,15)            109.1884         estimate D2E/DX2                !
 ! A23   A(13,12,14)           119.3827         estimate D2E/DX2                !
 ! A24   A(13,12,15)           105.5886         estimate D2E/DX2                !
 ! A25   A(14,12,15)           105.8857         estimate D2E/DX2                !
 ! A26   A(12,15,16)           111.4071         estimate D2E/DX2                !
 ! A27   A(12,15,17)           111.4234         estimate D2E/DX2                !
 ! A28   A(16,15,17)           110.2385         estimate D2E/DX2                !
 ! A29   A(7,18,19)            105.6884         estimate D2E/DX2                !
 ! A30   A(7,18,20)            110.6143         estimate D2E/DX2                !
 ! A31   A(7,18,21)            110.6141         estimate D2E/DX2                !
 ! A32   A(19,18,20)           109.849          estimate D2E/DX2                !
 ! A33   A(19,18,21)           109.841          estimate D2E/DX2                !
 ! A34   A(20,18,21)           110.1443         estimate D2E/DX2                !
 ! D1    D(10,1,2,3)          -179.9526         estimate D2E/DX2                !
 ! D2    D(10,1,2,4)            -0.532          estimate D2E/DX2                !
 ! D3    D(12,1,2,3)             2.3071         estimate D2E/DX2                !
 ! D4    D(12,1,2,4)          -178.2723         estimate D2E/DX2                !
 ! D5    D(2,1,10,8)             0.3483         estimate D2E/DX2                !
 ! D6    D(2,1,10,11)          179.9269         estimate D2E/DX2                !
 ! D7    D(12,1,10,8)          178.1015         estimate D2E/DX2                !
 ! D8    D(12,1,10,11)          -2.3199         estimate D2E/DX2                !
 ! D9    D(2,1,12,13)         -150.0989         estimate D2E/DX2                !
 ! D10   D(2,1,12,14)          -19.384          estimate D2E/DX2                !
 ! D11   D(2,1,12,15)           95.4575         estimate D2E/DX2                !
 ! D12   D(10,1,12,13)          32.1068         estimate D2E/DX2                !
 ! D13   D(10,1,12,14)         162.8216         estimate D2E/DX2                !
 ! D14   D(10,1,12,15)         -82.3368         estimate D2E/DX2                !
 ! D15   D(1,2,4,5)           -179.4343         estimate D2E/DX2                !
 ! D16   D(1,2,4,6)              0.3727         estimate D2E/DX2                !
 ! D17   D(3,2,4,5)             -0.0086         estimate D2E/DX2                !
 ! D18   D(3,2,4,6)            179.7983         estimate D2E/DX2                !
 ! D19   D(2,4,6,7)           -179.8983         estimate D2E/DX2                !
 ! D20   D(2,4,6,8)             -0.0437         estimate D2E/DX2                !
 ! D21   D(5,4,6,7)             -0.0955         estimate D2E/DX2                !
 ! D22   D(5,4,6,8)            179.759          estimate D2E/DX2                !
 ! D23   D(4,6,7,18)          -179.9138         estimate D2E/DX2                !
 ! D24   D(8,6,7,18)             0.2251         estimate D2E/DX2                !
 ! D25   D(4,6,8,9)           -179.7763         estimate D2E/DX2                !
 ! D26   D(4,6,8,10)            -0.1384         estimate D2E/DX2                !
 ! D27   D(7,6,8,9)              0.0896         estimate D2E/DX2                !
 ! D28   D(7,6,8,10)           179.7275         estimate D2E/DX2                !
 ! D29   D(6,7,18,19)          179.9426         estimate D2E/DX2                !
 ! D30   D(6,7,18,20)           61.0965         estimate D2E/DX2                !
 ! D31   D(6,7,18,21)          -61.2208         estimate D2E/DX2                !
 ! D32   D(6,8,10,1)            -0.0111         estimate D2E/DX2                !
 ! D33   D(6,8,10,11)         -179.5924         estimate D2E/DX2                !
 ! D34   D(9,8,10,1)           179.62           estimate D2E/DX2                !
 ! D35   D(9,8,10,11)            0.0386         estimate D2E/DX2                !
 ! D36   D(1,12,15,16)          62.7115         estimate D2E/DX2                !
 ! D37   D(1,12,15,17)         -60.8591         estimate D2E/DX2                !
 ! D38   D(13,12,15,16)        -53.4            estimate D2E/DX2                !
 ! D39   D(13,12,15,17)       -176.9706         estimate D2E/DX2                !
 ! D40   D(14,12,15,16)        179.0827         estimate D2E/DX2                !
 ! D41   D(14,12,15,17)         55.5121         estimate D2E/DX2                !
 --------------------------------------------------------------------------------
 Trust Radius=3.00D-01 FncErr=1.00D-07 GrdErr=1.00D-06 EigMax=2.50D+02 EigMin=1.00D-04
 Number of steps in this run=    106 maximum allowed number of steps=    126.
 GradGradGradGradGradGradGradGradGradGradGradGradGradGradGradGradGradGrad

                          Input orientation:                          
 ---------------------------------------------------------------------
 Center     Atomic      Atomic             Coordinates (Angstroms)
 Number     Number       Type             X           Y           Z
 ---------------------------------------------------------------------
      1          6           0       -1.365164    0.795146   -0.946911
      2          6           0       -2.556694    1.013334   -1.629964
      3          1           0       -3.498730    1.070906   -1.093666
      4          6           0       -2.538273    1.171274   -3.013949
      5          1           0       -3.468816    1.350176   -3.539163
      6          6           0       -1.318562    1.099645   -3.695863
      7          8           0       -1.195565    1.241894   -5.038298
      8          6           0       -0.122416    0.871943   -2.996354
      9          1           0        0.810321    0.824556   -3.549391
     10          6           0       -0.142035    0.719097   -1.621709
     11          1           0        0.782926    0.549515   -1.078331
     12         16           0       -1.395024    0.549142    0.803783
     13          8           0       -0.133269    1.046517    1.356802
     14          8           0       -2.661277    1.072828    1.319363
     15          7           0       -1.412000   -1.074560    1.124786
     16          1           0       -0.563820   -1.531457    0.782672
     17          1           0       -2.240147   -1.524664    0.729376
     18          6           0        0.111377    1.143704   -5.602700
     19          1           0       -0.019383    1.285055   -6.674716
     20          1           0        0.542022    0.156788   -5.407862
     21          1           0        0.763825    1.925356   -5.201882
 ---------------------------------------------------------------------
                    Distance matrix (angstroms):
                    1          2          3          4          5
     1  C    0.000000
     2  C    1.390651   0.000000
     3  H    2.156313   1.085524   0.000000
     4  C    2.406305   1.393090   2.149427   0.000000
     5  H    3.384255   2.142538   2.461573   1.083405   0.000000
     6  C    2.766158   2.410054   3.394906   1.399226   2.170464
     7  O    4.119198   3.677180   4.570988   2.430194   2.725216
     8  C    2.398028   2.795125   3.880632   2.434394   3.423703
     9  H    3.392124   3.880287   4.965802   3.408811   4.311310
    10  C    1.398993   2.432534   3.416138   2.807980   3.891319
    11  H    2.166079   3.416502   4.313312   3.894042   4.977355
    12  S    1.768146   2.736435   2.880647   4.033503   4.878878
    13  O    2.624471   3.846409   4.163138   4.990298   5.931994
    14  O    2.625455   2.951780   2.554220   4.336175   4.932982
    15  N    2.791043   3.641191   3.725452   4.841631   5.644666
    16  H    3.007772   4.033401   4.348176   5.061378   5.951560
    17  H    2.992833   3.479673   3.412403   4.622709   5.291007
    18  C    4.896737   4.787299   5.776639   3.704462   4.137463
    19  H    5.904142   5.653433   6.580261   4.445106   4.662030
    20  H    4.893357   4.960668   5.981269   4.030908   4.582907
    21  H    4.890271   4.961474   5.981379   4.032312   4.583745
                    6          7          8          9         10
     6  C    0.000000
     7  O    1.355542   0.000000
     8  C    1.404253   2.336247   0.000000
     9  H    2.151574   2.532705   1.085400   0.000000
    10  C    2.414777   3.613353   1.383255   2.152687   0.000000
    11  H    3.401524   4.480531   2.145324   2.486471   1.086080
    12  S    4.533841   5.886391   4.020544   4.887691   2.735302
    13  O    5.190103   6.485673   4.356669   5.001036   2.996466
    14  O    5.191926   6.526618   5.011146   5.984847   3.888651
    15  N    5.289098   6.587595   4.736633   5.513010   3.517563
    16  H    5.248772   6.478755   4.500245   5.119163   3.320233
    17  H    5.226764   6.481594   4.910150   5.756043   3.868351
    18  C    2.383840   1.426986   2.630884   2.192363   4.011583
    19  H    3.255120   2.015721   3.702921   3.266209   5.086082
    20  H    2.698461   2.081644   2.601595   1.992941   3.888326
    21  H    2.699301   2.081607   2.599895   1.986114   3.885007
                   11         12         13         14         15
    11  H    0.000000
    12  S    2.878510   0.000000
    13  O    2.648829   1.464663   0.000000
    14  O    4.229105   1.464058   2.528422   0.000000
    15  N    3.508425   1.655216   2.487559   2.491953   0.000000
    16  H    3.099597   2.240589   2.675995   3.386689   1.022353
    17  H    4.087664   2.240634   3.382835   2.696739   1.022140
    18  C    4.612370   6.608008   6.964479   7.457050   7.245719
    19  H    5.701249   7.639496   8.035867   8.421992   8.266765
    20  H    4.353976   6.518483   6.856261   7.507051   6.928918
    21  H    4.347065   6.528599   6.677834   7.415171   7.332151
                   16         17         18         19         20
    16  H    0.000000
    17  H    1.677188   0.000000
    18  C    6.955958   7.262578   0.000000
    19  H    7.990106   8.224773   1.089172   0.000000
    20  H    6.511203   6.945030   1.094267   1.786919   0.000000
    21  H    7.037548   7.490414   1.094223   1.786796   1.794285
                   21
    21  H    0.000000
 Stoichiometry    C7H9NO3S
 Framework group  C1[X(C7H9NO3S)]
 Deg. of freedom    57
 Full point group                 C1      NOp   1
 Largest Abelian subgroup         C1      NOp   1
 Largest concise Abelian subgroup C1      NOp   1
                         Standard orientation:                         
 ---------------------------------------------------------------------
 Center     Atomic      Atomic             Coordinates (Angstroms)
 Number     Number       Type             X           Y           Z
 ---------------------------------------------------------------------
      1          6           0        0.489653    0.106371   -0.098289
      2          6           0       -0.053059    1.385390   -0.039269
      3          1           0        0.590481    2.259582   -0.041737
      4          6           0       -1.436036    1.545124    0.011338
      5          1           0       -1.852911    2.544446    0.047875
      6          6           0       -2.257404    0.412347    0.009812
      7          8           0       -3.611281    0.462406    0.054617
      8          6           0       -1.697881   -0.874537   -0.043028
      9          1           0       -2.357982   -1.736133   -0.046686
     10          6           0       -0.324594   -1.031250   -0.097046
     11          1           0        0.109638   -2.025609   -0.144631
     12         16           0        2.246014   -0.096644   -0.116155
     13          8           0        2.557589   -1.315784   -0.865726
     14          8           0        2.850635    1.172417   -0.525283
     15          7           0        2.777207   -0.375041    1.426592
     16          1           0        2.389351   -1.242428    1.803967
     17          1           0        2.557099    0.408936    2.044413
     18          6           0       -4.325200   -0.773141    0.048995
     19          1           0       -5.379815   -0.504106    0.090279
     20          1           0       -4.060736   -1.374891    0.923853
     21          1           0       -4.120224   -1.332338   -0.868940
 ---------------------------------------------------------------------
 Rotational constants (GHZ):           2.3253479           0.4209937           0.3862491
 General basis read from cards:  (6D, 7F)
 There are   250 symmetry adapted cartesian basis functions of A   symmetry.
 There are   250 symmetry adapted basis functions of A   symmetry.
   250 basis functions,   444 primitive gaussians,   250 cartesian basis functions
    49 alpha electrons       49 beta electrons
       nuclear repulsion energy       827.3129165183 Hartrees.
 NAtoms=   21 NActive=   21 NUniq=   21 SFac= 1.00D+00 NAtFMM=   60 NAOKFM=F Big=F
 Integral buffers will be    131072 words long.
 Raffenetti 2 integral format.
 Two-electron integral symmetry is turned on.
 ------------------------------------------------------------------------------
 Polarizable Continuum Model (PCM)
 =================================
 Model                : PCM.
 Atomic radii         : SMD-Coulomb.
 Polarization charges : Total charges.
 Charge compensation  : None.
 Solution method      : On-the-fly selection.
 Cavity type          : VdW (van der Waals Surface) (Alpha=1.000).
 Cavity algorithm     : GePol (No added spheres)
                        Default sphere list used, NSphG=   21.
                        Lebedev-Laikov grids with approx.  5.0 points / Ang**2.
                        Smoothing algorithm: York/Karplus (Gamma=1.0000).
                        Polarization charges: spherical gaussians, with
                                              point-specific exponents (IZeta= 3).
                        Self-potential: point-specific (ISelfS= 7).
                        Self-field    : sphere-specific E.n sum rule (ISelfD= 2).
 1st derivatives      : Analytical E(r).r(x)/FMM algorithm (CHGder, D1EAlg=3).
                        Cavity 1st derivative terms included.
 Solvent              : Water, Eps=  78.355300 Eps(inf)=   1.777849
 ------------------------------------------------------------------------------
 ------------------------------------------------------------------------------
 Atomic radii for non-electrostatic terms: SMD-CDS.
 ------------------------------------------------------------------------------
 Nuclear repulsion after PCM non-electrostatic terms =      827.3209311034 Hartrees.
 One-electron integrals computed using PRISM.
 NBasis=   250 RedAO= T EigKep=  2.00D-06  NBF=   250
 NBsUse=   250 1.00D-06 EigRej= -1.00D+00 NBFU=   250
 ExpMin= 4.05D-02 ExpMax= 2.19D+04 ExpMxC= 3.30D+03 IAcc=3 IRadAn=         5 AccDes= 0.00D+00
 Harris functional with IExCor= 1009 and IRadAn=       5 diagonalized for initial guess.
 HarFok:  IExCor= 1009 AccDes= 0.00D+00 IRadAn=         5 IDoV= 1 UseB2=F ITyADJ=14
 ICtDFT=  3500011 ScaDFX=  1.000000  1.000000  1.000000  1.000000
 FoFCou: FMM=F IPFlag=           0 FMFlag=      100000 FMFlg1=           0
         NFxFlg=           0 DoJE=T BraDBF=F KetDBF=T FulRan=T
         wScrn=  0.000000 ICntrl=       500 IOpCl=  0 I1Cent=   200000004 NGrid=           0
         NMat0=    1 NMatS0=      1 NMatT0=    0 NMatD0=    1 NMtDS0=    0 NMtDT0=    0
 Petite list used in FoFCou.
 Requested convergence on RMS density matrix=1.00D-08 within 128 cycles.
 Requested convergence on MAX density matrix=1.00D-06.
 Requested convergence on             energy=1.00D-06.
 No special actions if energy rises.
 Inv3:  Mode=1 IEnd=     7931628.
 Iteration    1 A*A^-1 deviation from unit magnitude is 3.33D-15 for   1618.
 Iteration    1 A*A^-1 deviation from orthogonality  is 2.56D-15 for    822    272.
 Iteration    1 A^-1*A deviation from unit magnitude is 3.55D-15 for   1618.
 Iteration    1 A^-1*A deviation from orthogonality  is 1.84D-15 for   1098    370.
 Error on total polarization charges =  0.04700
 SCF Done:  E(RM062X) =  -950.470280452     A.U. after   15 cycles
            NFock= 15  Conv=0.97D-08     -V/T= 2.0064
 SMD-CDS (non-electrostatic) energy       (kcal/mol) =       5.03
 (included in total energy above)

 **********************************************************************

            Population analysis using the SCF Density.

 **********************************************************************

 Orbital symmetries:
       Occupied  (A) (A) (A) (A) (A) (A) (A) (A) (A) (A) (A) (A)
                 (A) (A) (A) (A) (A) (A) (A) (A) (A) (A) (A) (A)
                 (A) (A) (A) (A) (A) (A) (A) (A) (A) (A) (A) (A)
                 (A) (A) (A) (A) (A) (A) (A) (A) (A) (A) (A) (A)
                 (A)
       Virtual   (A) (A) (A) (A) (A) (A) (A) (A) (A) (A) (A) (A)
                 (A) (A) (A) (A) (A) (A) (A) (A) (A) (A) (A) (A)
                 (A) (A) (A) (A) (A) (A) (A) (A) (A) (A) (A) (A)
                 (A) (A) (A) (A) (A) (A) (A) (A) (A) (A) (A) (A)
                 (A) (A) (A) (A) (A) (A) (A) (A) (A) (A) (A) (A)
                 (A) (A) (A) (A) (A) (A) (A) (A) (A) (A) (A) (A)
                 (A) (A) (A) (A) (A) (A) (A) (A) (A) (A) (A) (A)
                 (A) (A) (A) (A) (A) (A) (A) (A) (A) (A) (A) (A)
                 (A) (A) (A) (A) (A) (A) (A) (A) (A) (A) (A) (A)
                 (A) (A) (A) (A) (A) (A) (A) (A) (A) (A) (A) (A)
                 (A) (A) (A) (A) (A) (A) (A) (A) (A) (A) (A) (A)
                 (A) (A) (A) (A) (A) (A) (A) (A) (A) (A) (A) (A)
                 (A) (A) (A) (A) (A) (A) (A) (A) (A) (A) (A) (A)
                 (A) (A) (A) (A) (A) (A) (A) (A) (A) (A) (A) (A)
                 (A) (A) (A) (A) (A) (A) (A) (A) (A) (A) (A) (A)
                 (A) (A) (A) (A) (A) (A) (A) (A) (A) (A) (A) (A)
                 (A) (A) (A) (A) (A) (A) (A) (A) (A)
 The electronic state is 1-A.
 Alpha  occ. eigenvalues --  -90.17960 -19.69075 -19.66004 -19.65937 -14.80045
 Alpha  occ. eigenvalues --  -10.63559 -10.59426 -10.59330 -10.58174 -10.58036
 Alpha  occ. eigenvalues --  -10.56885 -10.56247  -8.48954  -6.41155  -6.41144
 Alpha  occ. eigenvalues --   -6.41008  -1.25852  -1.20655  -1.14416  -1.02887
 Alpha  occ. eigenvalues --   -0.98369  -0.88268  -0.86768  -0.81221  -0.75439
 Alpha  occ. eigenvalues --   -0.71806  -0.68277  -0.64311  -0.61521  -0.61230
 Alpha  occ. eigenvalues --   -0.58862  -0.57535  -0.55519  -0.54046  -0.53476
 Alpha  occ. eigenvalues --   -0.51177  -0.49380  -0.48150  -0.46767  -0.44586
 Alpha  occ. eigenvalues --   -0.43619  -0.42235  -0.41872  -0.40034  -0.39664
 Alpha  occ. eigenvalues --   -0.39224  -0.38171  -0.32830  -0.29673
 Alpha virt. eigenvalues --   -0.00543   0.00405   0.01310   0.03079   0.03598
 Alpha virt. eigenvalues --    0.03934   0.04523   0.04908   0.05693   0.06353
 Alpha virt. eigenvalues --    0.06960   0.07563   0.08806   0.09163   0.10013
 Alpha virt. eigenvalues --    0.10296   0.11130   0.11250   0.11906   0.13013
 Alpha virt. eigenvalues --    0.13374   0.13735   0.14031   0.14472   0.15355
 Alpha virt. eigenvalues --    0.16187   0.16625   0.16860   0.17915   0.18327
 Alpha virt. eigenvalues --    0.18786   0.19257   0.20292   0.20792   0.21205
 Alpha virt. eigenvalues --    0.22059   0.22685   0.22944   0.23793   0.24520
 Alpha virt. eigenvalues --    0.25298   0.25801   0.26279   0.26938   0.27593
 Alpha virt. eigenvalues --    0.27616   0.28832   0.29219   0.29284   0.29678
 Alpha virt. eigenvalues --    0.29815   0.30402   0.31217   0.31655   0.32450
 Alpha virt. eigenvalues --    0.32863   0.33430   0.33829   0.35829   0.36033
 Alpha virt. eigenvalues --    0.36654   0.37638   0.38920   0.39717   0.41680
 Alpha virt. eigenvalues --    0.42178   0.43421   0.45185   0.48209   0.49216
 Alpha virt. eigenvalues --    0.55607   0.56421   0.56956   0.63430   0.67432
 Alpha virt. eigenvalues --    0.68619   0.69194   0.71417   0.72335   0.73683
 Alpha virt. eigenvalues --    0.74617   0.75167   0.75940   0.76938   0.78641
 Alpha virt. eigenvalues --    0.79497   0.81500   0.83274   0.84435   0.89516
 Alpha virt. eigenvalues --    0.90969   0.94154   0.95426   0.96494   0.99298
 Alpha virt. eigenvalues --    0.99684   1.00276   1.01197   1.02805   1.03652
 Alpha virt. eigenvalues --    1.03680   1.06139   1.09437   1.10009   1.11954
 Alpha virt. eigenvalues --    1.12394   1.12697   1.14748   1.16435   1.17160
 Alpha virt. eigenvalues --    1.18843   1.21043   1.23587   1.24757   1.26930
 Alpha virt. eigenvalues --    1.27604   1.28736   1.31265   1.33064   1.35078
 Alpha virt. eigenvalues --    1.35573   1.36416   1.37087   1.37646   1.39092
 Alpha virt. eigenvalues --    1.39737   1.40547   1.42422   1.47925   1.49038
 Alpha virt. eigenvalues --    1.49750   1.51021   1.53631   1.55519   1.56064
 Alpha virt. eigenvalues --    1.59592   1.61444   1.68462   1.73030   1.77783
 Alpha virt. eigenvalues --    1.79590   1.80712   1.82785   1.83807   1.85566
 Alpha virt. eigenvalues --    1.87024   1.90559   1.91025   1.93252   1.97655
 Alpha virt. eigenvalues --    1.98803   2.00518   2.01005   2.04603   2.05859
 Alpha virt. eigenvalues --    2.10550   2.12042   2.15163   2.15931   2.16080
 Alpha virt. eigenvalues --    2.16642   2.18817   2.20666   2.22831   2.24030
 Alpha virt. eigenvalues --    2.25682   2.31316   2.31730   2.33934   2.34519
 Alpha virt. eigenvalues --    2.39541   2.44380   2.45153   2.49853   2.58024
 Alpha virt. eigenvalues --    2.58539   2.65619   2.66145   2.71225   2.77497
 Alpha virt. eigenvalues --    2.80858   2.83702   2.85990   2.90230   2.91703
 Alpha virt. eigenvalues --    2.95708   3.06383   3.19030   3.40487   3.88448
 Alpha virt. eigenvalues --    4.07895   4.21136   4.24991   4.27820   4.29034
 Alpha virt. eigenvalues --    4.31169   4.37406   4.42153   4.48088   4.56518
 Alpha virt. eigenvalues --    4.80026
          Condensed to atoms (all electrons):
               1          2          3          4          5          6
     1  C   18.338051  -4.133482   0.010771  -0.391688   0.040231  -2.967655
     2  C   -4.133482  22.479144   0.305194  -2.617160  -0.045218   1.486143
     3  H    0.010771   0.305194   0.411549  -0.023131  -0.003317   0.008483
     4  C   -0.391688  -2.617160  -0.023131  12.937475   0.394020  -1.178000
     5  H    0.040231  -0.045218  -0.003317   0.394020   0.422449  -0.069959
     6  C   -2.967655   1.486143   0.008483  -1.178000  -0.069959   8.886080
     7  O   -0.039294   0.004517  -0.000401  -0.496100   0.000273   0.425161
     8  C   -2.380113   0.146618  -0.019085  -1.131166   0.032380   1.291807
     9  H    0.035203  -0.013964   0.000010   0.006460  -0.000091  -0.023349
    10  C   -1.282162 -10.742967   0.025528  -1.338180  -0.043030  -1.519985
    11  H    0.048880   0.048828  -0.000104  -0.016022   0.000011  -0.005464
    12  S    0.117200  -0.701529  -0.004183   0.064723  -0.000331  -0.239147
    13  O    0.019294   0.125864   0.000810   0.091780   0.000021  -0.027853
    14  O    0.023074  -0.366275   0.004107   0.030276   0.000136  -0.022044
    15  N   -0.815918   0.312807  -0.000455   0.111647   0.000015   0.078988
    16  H    0.052456   0.044440   0.000004  -0.000943   0.000000  -0.002550
    17  H    0.055558  -0.131997   0.000056  -0.011058   0.000000  -0.003886
    18  C   -0.052906   0.122660   0.000049  -0.048573   0.001151  -0.128833
    19  H    0.000108  -0.000756  -0.000000   0.013740  -0.000005   0.033905
    20  H   -0.001529   0.006486   0.000000  -0.019373   0.000005  -0.063348
    21  H   -0.001297   0.001569   0.000000  -0.014569   0.000004  -0.070967
               7          8          9         10         11         12
     1  C   -0.039294  -2.380113   0.035203  -1.282162   0.048880   0.117200
     2  C    0.004517   0.146618  -0.013964 -10.742967   0.048828  -0.701529
     3  H   -0.000401  -0.019085   0.000010   0.025528  -0.000104  -0.004183
     4  C   -0.496100  -1.131166   0.006460  -1.338180  -0.016022   0.064723
     5  H    0.000273   0.032380  -0.000091  -0.043030   0.000011  -0.000331
     6  C    0.425161   1.291807  -0.023349  -1.519985  -0.005464  -0.239147
     7  O    8.538395   0.093310  -0.020300  -0.038998  -0.000551  -0.000750
     8  C    0.093310  22.040699   0.277274 -14.744263  -0.002696  -1.196562
     9  H   -0.020300   0.277274   0.438404   0.042728  -0.003306   0.000973
    10  C   -0.038998 -14.744263   0.042728  35.490456   0.231645   1.410754
    11  H   -0.000551  -0.002696  -0.003306   0.231645   0.416337  -0.001926
    12  S   -0.000750  -1.196562   0.000973   1.410754  -0.001926  14.823126
    13  O   -0.000010  -0.129653   0.000075  -0.261713   0.003071   0.323278
    14  O    0.000002   0.140184   0.000026   0.097632   0.000950   0.200081
    15  N    0.000011   0.464247  -0.000015  -0.091016  -0.000822  -0.410587
    16  H   -0.000000  -0.023940   0.000000  -0.086153   0.000011   0.046596
    17  H   -0.000001  -0.012759   0.000000   0.079272   0.000022   0.050832
    18  C    0.089191   0.310631  -0.000719  -0.478024   0.000862  -0.019025
    19  H   -0.055111  -0.026200   0.000623  -0.001211  -0.000000  -0.000005
    20  H   -0.028670   0.030474  -0.002921   0.027261   0.000008  -0.000171
    21  H   -0.028521   0.038208  -0.002639   0.024468   0.000007   0.000119
              13         14         15         16         17         18
     1  C    0.019294   0.023074  -0.815918   0.052456   0.055558  -0.052906
     2  C    0.125864  -0.366275   0.312807   0.044440  -0.131997   0.122660
     3  H    0.000810   0.004107  -0.000455   0.000004   0.000056   0.000049
     4  C    0.091780   0.030276   0.111647  -0.000943  -0.011058  -0.048573
     5  H    0.000021   0.000136   0.000015   0.000000   0.000000   0.001151
     6  C   -0.027853  -0.022044   0.078988  -0.002550  -0.003886  -0.128833
     7  O   -0.000010   0.000002   0.000011  -0.000000  -0.000001   0.089191
     8  C   -0.129653   0.140184   0.464247  -0.023940  -0.012759   0.310631
     9  H    0.000075   0.000026  -0.000015   0.000000   0.000000  -0.000719
    10  C   -0.261713   0.097632  -0.091016  -0.086153   0.079272  -0.478024
    11  H    0.003071   0.000950  -0.000822   0.000011   0.000022   0.000862
    12  S    0.323278   0.200081  -0.410587   0.046596   0.050832  -0.019025
    13  O    8.768648  -0.145138  -0.133842  -0.007117   0.008497  -0.001033
    14  O   -0.145138   8.810875  -0.108602   0.008845  -0.008790   0.000028
    15  N   -0.133842  -0.108602   8.155436   0.219353   0.228226   0.001825
    16  H   -0.007117   0.008845   0.219353   0.261634  -0.013886  -0.000064
    17  H    0.008497  -0.008790   0.228226  -0.013886   0.258313  -0.000040
    18  C   -0.001033   0.000028   0.001825  -0.000064  -0.000040   5.394283
    19  H   -0.000000   0.000000  -0.000000   0.000000   0.000000   0.386537
    20  H   -0.000001   0.000000   0.000006   0.000000   0.000000   0.394223
    21  H    0.000001  -0.000000  -0.000001  -0.000000  -0.000000   0.395854
              19         20         21
     1  C    0.000108  -0.001529  -0.001297
     2  C   -0.000756   0.006486   0.001569
     3  H   -0.000000   0.000000   0.000000
     4  C    0.013740  -0.019373  -0.014569
     5  H   -0.000005   0.000005   0.000004
     6  C    0.033905  -0.063348  -0.070967
     7  O   -0.055111  -0.028670  -0.028521
     8  C   -0.026200   0.030474   0.038208
     9  H    0.000623  -0.002921  -0.002639
    10  C   -0.001211   0.027261   0.024468
    11  H   -0.000000   0.000008   0.000007
    12  S   -0.000005  -0.000171   0.000119
    13  O   -0.000000  -0.000001   0.000001
    14  O    0.000000   0.000000  -0.000000
    15  N   -0.000000   0.000006  -0.000001
    16  H    0.000000   0.000000  -0.000000
    17  H    0.000000   0.000000  -0.000000
    18  C    0.386537   0.394223   0.395854
    19  H    0.443020  -0.022286  -0.022285
    20  H   -0.022286   0.473955  -0.039001
    21  H   -0.022285  -0.039001   0.473790
 Mulliken charges:
               1
     1  C   -0.674783
     2  C   -0.330925
     3  H    0.284115
     4  C   -0.364158
     5  H    0.271256
     6  C    0.112472
     7  O   -0.442152
     8  C    0.800606
     9  H    0.265527
    10  C   -0.802041
    11  H    0.280259
    12  S    1.536533
    13  O   -0.634981
    14  O   -0.665367
    15  N   -1.011306
    16  H    0.501312
    17  H    0.501641
    18  C   -0.368078
    19  H    0.249927
    20  H    0.244883
    21  H    0.245260
 Sum of Mulliken charges =  -0.00000
 Mulliken charges with hydrogens summed into heavy atoms:
               1
     1  C   -0.674783
     2  C   -0.046810
     4  C   -0.092902
     6  C    0.112472
     7  O   -0.442152
     8  C    1.066133
    10  C   -0.521782
    12  S    1.536533
    13  O   -0.634981
    14  O   -0.665367
    15  N   -0.008353
    18  C    0.371992
 Electronic spatial extent (au):  <R**2>=           2821.2018
 Charge=              0.0000 electrons
 Dipole moment (field-independent basis, Debye):
    X=             -8.0088    Y=             -1.9917    Z=              5.6048  Tot=              9.9761
 Quadrupole moment (field-independent basis, Debye-Ang):
   XX=            -89.0693   YY=            -73.3856   ZZ=            -75.9556
   XY=              8.4247   XZ=             12.9660   YZ=             -1.9839
 Traceless Quadrupole moment (field-independent basis, Debye-Ang):
   XX=             -9.5991   YY=              6.0846   ZZ=              3.5146
   XY=              8.4247   XZ=             12.9660   YZ=             -1.9839
 Octapole moment (field-independent basis, Debye-Ang**2):
  XXX=           -134.0905  YYY=              2.4217  ZZZ=             19.5719  XYY=            -20.9696
  XXY=            -38.0041  XXZ=             28.2025  XZZ=             12.7382  YZZ=             -2.1531
  YYZ=             11.4828  XYZ=             -3.3569
 Hexadecapole moment (field-independent basis, Debye-Ang**3):
 XXXX=          -2885.7206 YYYY=           -464.5343 ZZZZ=           -190.9599 XXXY=            147.4809
 XXXZ=             47.2203 YYYX=             -3.8220 YYYZ=             -7.6331 ZZZX=             41.6144
 ZZZY=             -4.9996 XXYY=           -589.4038 XXZZ=           -516.1939 YYZZ=           -123.0189
 XXYZ=             -4.5326 YYXZ=             27.2506 ZZXY=              6.8001
 N-N= 8.273209311034D+02 E-N=-3.887233460646D+03  KE= 9.443952646032D+02
 D1PCM: PCM CHGder 1st derivatives, ID1Alg=3 FixD1E=F DoIter=F DoCFld=F I1PDM=0.
 Calling FoFJK, ICntrl=      2127 FMM=F ISym2X=0 I1Cent= 0 IOpClX= 0 NMat=1 NMatS=1 NMatT=0.
 ***** Axes restored to original set *****
 -------------------------------------------------------------------
 Center     Atomic                   Forces (Hartrees/Bohr)
 Number     Number              X              Y              Z
 -------------------------------------------------------------------
      1        6           0.004245302   -0.000479645    0.000049167
      2        6          -0.000712484    0.000497232   -0.004268631
      3        1          -0.000119101    0.000063300   -0.000345820
      4        6          -0.001651618    0.000694500   -0.004700480
      5        1           0.000101112    0.000352356   -0.002992618
      6        6           0.026775851   -0.003586049    0.002158574
      7        8          -0.020991293    0.003121342   -0.005150802
      8        6          -0.001214500   -0.000913497    0.009817927
      9        1          -0.001367035   -0.001075910    0.011065332
     10        6          -0.001420193   -0.000354591    0.004385688
     11        1          -0.000074738   -0.000024714    0.000368444
     12       16           0.000129286   -0.000187214    0.000409627
     13        8           0.000058977    0.000100578    0.000045456
     14        8           0.000118952   -0.000011527   -0.000224633
     15        7          -0.000016593    0.000044743    0.000103004
     16        1          -0.000010173    0.000085350   -0.000251707
     17        1          -0.000082035   -0.000048964   -0.000002085
     18        6          -0.002222572    0.000975659   -0.005736182
     19        1          -0.001045662    0.000102283    0.000051960
     20        1          -0.000225063    0.000287840   -0.002394275
     21        1          -0.000276419    0.000356928   -0.002387947
 -------------------------------------------------------------------
 Cartesian Forces:  Max     0.026775851 RMS     0.005009344

 GradGradGradGradGradGradGradGradGradGradGradGradGradGradGradGradGradGrad
 Berny optimization.
 FormGI is forming the generalized inverse of G from B-inverse, IUseBI=4.
 Internal  Forces:  Max     0.055981492 RMS     0.008919033
 Search for a local minimum.
 Step number   1 out of a maximum of  106
 All quantities printed in internal units (Hartrees-Bohrs-Radians)
 Mixed Optimization -- RFO/linear search
 Second derivative matrix not updated -- first step.
 ITU=  0
     Eigenvalues ---    0.00792   0.01335   0.01629   0.01889   0.02076
     Eigenvalues ---    0.02116   0.02138   0.02153   0.02183   0.02188
     Eigenvalues ---    0.02198   0.02231   0.02280   0.04636   0.09393
     Eigenvalues ---    0.10158   0.10359   0.10698   0.14444   0.15999
     Eigenvalues ---    0.16000   0.16000   0.16000   0.16000   0.16000
     Eigenvalues ---    0.16000   0.16000   0.16000   0.19904   0.22000
     Eigenvalues ---    0.22983   0.23995   0.24982   0.25000   0.25000
     Eigenvalues ---    0.25000   0.28796   0.34324   0.34329   0.34908
     Eigenvalues ---    0.35270   0.35335   0.35350   0.35586   0.41425
     Eigenvalues ---    0.41839   0.41869   0.42441   0.43965   0.43998
     Eigenvalues ---    0.45744   0.45769   0.46856   0.47995   0.53859
     Eigenvalues ---    0.89679   0.89926
 RFO step:  Lambda=-2.72420190D-02 EMin= 7.91673363D-03
 Linear search not attempted -- first point.
 Maximum step size (   0.300) exceeded in Quadratic search.
    -- Step size scaled by   0.954
 Iteration  1 RMS(Cart)=  0.18177118 RMS(Int)=  0.01086915
 Iteration  2 RMS(Cart)=  0.03446990 RMS(Int)=  0.00032889
 Iteration  3 RMS(Cart)=  0.00086691 RMS(Int)=  0.00004510
 Iteration  4 RMS(Cart)=  0.00000036 RMS(Int)=  0.00004510
 Variable       Old X    -DE/DX   Delta X   Delta X   Delta X     New X
                                 (Linear)    (Quad)   (Total)
    R1        2.62795   0.00033   0.00000  -0.00024  -0.00025   2.62770
    R2        2.64371  -0.00471   0.00000  -0.00939  -0.00943   2.63428
    R3        3.34131   0.00007   0.00000   0.00022   0.00022   3.34153
    R4        2.05134  -0.00007   0.00000  -0.00017  -0.00017   2.05118
    R5        2.63256  -0.00336   0.00000  -0.00726  -0.00724   2.62532
    R6        2.04734   0.00142   0.00000   0.00354   0.00354   2.05088
    R7        2.64415  -0.00292   0.00000  -0.00564  -0.00560   2.63855
    R8        2.56160   0.01372   0.00000   0.02314   0.02314   2.58474
    R9        2.65365   0.01321   0.00000   0.02738   0.02740   2.68105
   R10        2.69661   0.00061   0.00000   0.00131   0.00131   2.69792
   R11        2.05111  -0.00676   0.00000  -0.01696  -0.01696   2.03415
   R12        2.61397   0.00363   0.00000   0.00750   0.00748   2.62145
   R13        2.05239   0.00013   0.00000   0.00032   0.00032   2.05271
   R14        2.76781   0.00010   0.00000   0.00010   0.00010   2.76791
   R15        2.76667  -0.00018   0.00000  -0.00018  -0.00018   2.76648
   R16        3.12790  -0.00012   0.00000  -0.00026  -0.00026   3.12765
   R17        1.93197   0.00002   0.00000   0.00004   0.00004   1.93201
   R18        1.93156   0.00010   0.00000   0.00021   0.00021   1.93177
   R19        2.05824   0.00008   0.00000   0.00021   0.00021   2.05845
   R20        2.06786  -0.00076   0.00000  -0.00196  -0.00196   2.06590
   R21        2.06778  -0.00078   0.00000  -0.00202  -0.00202   2.06576
    A1        2.11849  -0.00100   0.00000  -0.00579  -0.00585   2.11264
    A2        2.08712   0.00064   0.00000   0.00337   0.00339   2.09051
    A3        2.07692   0.00036   0.00000   0.00239   0.00242   2.07933
    A4        2.10507  -0.00032   0.00000   0.00122   0.00122   2.10629
    A5        2.08797   0.00141   0.00000   0.00146   0.00147   2.08944
    A6        2.09010  -0.00109   0.00000  -0.00267  -0.00268   2.08742
    A7        2.08171  -0.00010   0.00000   0.00398   0.00395   2.08566
    A8        2.08276   0.00567   0.00000   0.01988   0.01995   2.10271
    A9        2.11871  -0.00556   0.00000  -0.02386  -0.02389   2.09482
   A10        2.16080  -0.04829   0.00000  -0.16687  -0.16690   1.99390
   A11        2.10372  -0.00769   0.00000  -0.02524  -0.02518   2.07854
   A12        2.01867   0.05598   0.00000   0.19211   0.19208   2.21075
   A13        2.05735   0.03704   0.00000   0.12751   0.12751   2.18486
   A14        2.07746   0.00891   0.00000   0.04436   0.04437   2.12183
   A15        2.09540   0.00050   0.00000   0.00469   0.00468   2.10008
   A16        2.11031  -0.00941   0.00000  -0.04905  -0.04904   2.06127
   A17        2.07800   0.00111   0.00000   0.00501   0.00494   2.08294
   A18        2.10802  -0.00092   0.00000  -0.00439  -0.00436   2.10366
   A19        2.09713  -0.00018   0.00000  -0.00062  -0.00058   2.09655
   A20        1.88815   0.00006   0.00000   0.00024   0.00024   1.88839
   A21        1.88970  -0.00007   0.00000  -0.00069  -0.00069   1.88901
   A22        1.90570  -0.00038   0.00000  -0.00142  -0.00142   1.90427
   A23        2.08362  -0.00002   0.00000   0.00020   0.00020   2.08382
   A24        1.84287   0.00022   0.00000   0.00113   0.00113   1.84400
   A25        1.84805   0.00014   0.00000   0.00039   0.00039   1.84844
   A26        1.94442  -0.00026   0.00000  -0.00161  -0.00161   1.94281
   A27        1.94471   0.00003   0.00000  -0.00013  -0.00013   1.94457
   A28        1.92402   0.00004   0.00000  -0.00027  -0.00027   1.92375
   A29        1.84461  -0.00328   0.00000  -0.01998  -0.01999   1.82462
   A30        1.93058   0.00222   0.00000   0.01307   0.01293   1.94352
   A31        1.93058   0.00216   0.00000   0.01274   0.01260   1.94318
   A32        1.91723  -0.00119   0.00000  -0.00940  -0.00941   1.90782
   A33        1.91709  -0.00116   0.00000  -0.00924  -0.00924   1.90784
   A34        1.92238   0.00104   0.00000   0.01126   0.01102   1.93340
    D1       -3.14077   0.00000   0.00000  -0.00001  -0.00000  -3.14077
    D2       -0.00929   0.00004   0.00000   0.00052   0.00052  -0.00876
    D3        0.04027   0.00004   0.00000   0.00096   0.00096   0.04122
    D4       -3.11144   0.00007   0.00000   0.00149   0.00148  -3.10996
    D5        0.00608   0.00002   0.00000   0.00044   0.00043   0.00651
    D6        3.14032   0.00000   0.00000   0.00014   0.00013   3.14045
    D7        3.10846  -0.00001   0.00000  -0.00050  -0.00050   3.10796
    D8       -0.04049  -0.00003   0.00000  -0.00079  -0.00080  -0.04128
    D9       -2.61972  -0.00005   0.00000  -0.00194  -0.00194  -2.62166
   D10       -0.33832  -0.00008   0.00000  -0.00200  -0.00200  -0.34032
   D11        1.66605  -0.00015   0.00000  -0.00266  -0.00266   1.66339
   D12        0.56037   0.00002   0.00000  -0.00081  -0.00081   0.55956
   D13        2.84177  -0.00002   0.00000  -0.00087  -0.00087   2.84090
   D14       -1.43705  -0.00008   0.00000  -0.00153  -0.00153  -1.43857
   D15       -3.13172  -0.00003   0.00000  -0.00037  -0.00037  -3.13209
   D16        0.00650  -0.00004   0.00000  -0.00063  -0.00062   0.00588
   D17       -0.00015   0.00001   0.00000   0.00017   0.00017   0.00002
   D18        3.13807  -0.00000   0.00000  -0.00008  -0.00008   3.13799
   D19       -3.13982  -0.00007   0.00000  -0.00057  -0.00057  -3.14038
   D20       -0.00076   0.00000   0.00000  -0.00013  -0.00013  -0.00090
   D21       -0.00167  -0.00007   0.00000  -0.00077  -0.00076  -0.00243
   D22        3.13739   0.00000   0.00000  -0.00033  -0.00033   3.13706
   D23       -3.14009  -0.00002   0.00000  -0.00036  -0.00037  -3.14046
   D24        0.00393  -0.00002   0.00000  -0.00051  -0.00050   0.00343
   D25       -3.13769   0.00006   0.00000   0.00044   0.00041  -3.13728
   D26       -0.00242   0.00006   0.00000   0.00107   0.00107  -0.00135
   D27        0.00156  -0.00001   0.00000   0.00037   0.00036   0.00193
   D28        3.13684  -0.00001   0.00000   0.00100   0.00101   3.13785
   D29        3.14059  -0.00003   0.00000  -0.00075  -0.00076   3.13983
   D30        1.06634   0.00212   0.00000   0.01522   0.01540   1.08173
   D31       -1.06851  -0.00219   0.00000  -0.01670  -0.01689  -1.08539
   D32       -0.00019  -0.00007   0.00000  -0.00122  -0.00122  -0.00141
   D33       -3.13448  -0.00005   0.00000  -0.00091  -0.00091  -3.13539
   D34        3.13496  -0.00001   0.00000  -0.00023  -0.00025   3.13471
   D35        0.00067   0.00001   0.00000   0.00008   0.00006   0.00073
   D36        1.09452  -0.00008   0.00000  -0.00194  -0.00194   1.09259
   D37       -1.06219   0.00005   0.00000  -0.00030  -0.00031  -1.06250
   D38       -0.93200  -0.00008   0.00000  -0.00212  -0.00212  -0.93413
   D39       -3.08872   0.00004   0.00000  -0.00049  -0.00049  -3.08921
   D40        3.12558  -0.00027   0.00000  -0.00323  -0.00323   3.12235
   D41        0.96887  -0.00014   0.00000  -0.00160  -0.00160   0.96727
         Item               Value     Threshold  Converged?
 Maximum Force            0.055981     0.000450     NO 
 RMS     Force            0.008919     0.000300     NO 
 Maximum Displacement     0.788812     0.001800     NO 
 RMS     Displacement     0.208942     0.001200     NO 
 Predicted change in Energy=-1.482708D-02
 GradGradGradGradGradGradGradGradGradGradGradGradGradGradGradGradGradGrad

                          Input orientation:                          
 ---------------------------------------------------------------------
 Center     Atomic      Atomic             Coordinates (Angstroms)
 Number     Number       Type             X           Y           Z
 ---------------------------------------------------------------------
      1          6           0       -1.333699    0.779270   -0.872288
      2          6           0       -2.475198    0.990668   -1.637685
      3          1           0       -3.452628    1.050923   -1.169528
      4          6           0       -2.363583    1.137744   -3.014622
      5          1           0       -3.255801    1.311454   -3.607581
      6          6           0       -1.114850    1.067789   -3.635365
      7          8           0       -1.152548    1.231111   -4.992844
      8          6           0        0.039115    0.845481   -2.840508
      9          1           0        1.021524    0.788453   -3.276763
     10          6           0       -0.074598    0.701584   -1.465474
     11          1           0        0.811740    0.537246   -0.859395
     12         16           0       -1.478607    0.543929    0.874244
     13          8           0       -0.256082    1.045234    1.506321
     14          8           0       -2.776161    1.070422    1.301255
     15          7           0       -1.517426   -1.078121    1.200956
     16          1           0       -0.648942   -1.535652    0.915207
     17          1           0       -2.318326   -1.529787    0.754243
     18          6           0       -0.016394    1.201171   -5.856862
     19          1           0       -0.426020    1.363234   -6.853096
     20          1           0        0.482546    0.228964   -5.824892
     21          1           0        0.685234    2.005079   -5.619303
 ---------------------------------------------------------------------
                    Distance matrix (angstroms):
                    1          2          3          4          5
     1  C    0.000000
     2  C    1.390518   0.000000
     3  H    2.156851   1.085436   0.000000
     4  C    2.403905   1.389261   2.144278   0.000000
     5  H    3.385192   2.143067   2.459821   1.085278   0.000000
     6  C    2.786707   2.418103   3.397917   1.396263   2.154951
     7  O    4.149212   3.614458   4.465487   2.321354   2.519738
     8  C    2.400603   2.790992   3.876422   2.426663   3.414968
     9  H    3.365807   3.867109   4.952511   3.413162   4.321860
    10  C    1.394001   2.424068   3.408916   2.798133   3.883377
    11  H    2.159085   3.408121   4.306377   3.884363   4.969589
    12  S    1.768264   2.739079   2.886314   4.032255   4.882036
    13  O    2.624838   3.848665   4.168706   4.988892   5.934743
    14  O    2.624835   2.955386   2.561788   4.336075   4.938099
    15  N    2.789622   3.640754   3.727872   4.837058   5.643939
    16  H    3.003813   4.029238   4.347084   5.052781   5.946204
    17  H    2.991126   3.478307   3.412858   4.617588   5.289331
    18  C    5.172936   4.887891   5.813894   3.686685   3.945273
    19  H    6.077414   5.615910   6.446769   4.305680   4.306241
    20  H    5.303760   5.182774   6.150904   4.101701   4.479229
    21  H    5.302155   5.183690   6.150838   4.102672   4.478827
                    6          7          8          9         10
     6  C    0.000000
     7  O    1.367787   0.000000
     8  C    1.418751   2.490245   0.000000
     9  H    2.184197   2.804901   1.076428   0.000000
    10  C    2.434063   3.726220   1.387212   2.118914   0.000000
    11  H    3.420415   4.628745   2.148667   2.439423   1.086248
    12  S    4.554485   5.916186   4.024152   4.851939   2.733199
    13  O    5.212958   6.563333   4.361418   4.957429   2.997098
    14  O    5.208664   6.502124   5.013042   5.954844   3.884492
    15  N    5.306317   6.620335   4.738828   5.475430   3.515529
    16  H    5.263334   6.543214   4.499846   5.075878   3.317038
    17  H    5.240651   6.481559   4.911381   5.725194   3.865291
    18  C    2.481822   1.427680   3.037760   2.811498   4.420098
    19  H    3.303871   2.001459   4.072502   3.900758   5.439462
    20  H    2.837134   2.090487   3.079491   2.663923   4.420215
    21  H    2.838102   2.090197   3.079584   2.660971   4.419360
                   11         12         13         14         15
    11  H    0.000000
    12  S    2.872497   0.000000
    13  O    2.644789   1.464716   0.000000
    14  O    4.222052   1.463961   2.528534   0.000000
    15  N    3.504207   1.655081   2.488548   2.492130   0.000000
    16  H    3.095111   2.239348   2.676701   3.386107   1.022375
    17  H    4.083352   2.240497   3.383667   2.696280   1.022250
    18  C    5.108941   6.919380   7.368733   7.672812   7.567103
    19  H    6.175658   7.841619   8.367189   8.491310   8.486408
    20  H    4.985937   6.987399   7.413403   7.880939   7.420976
    21  H    4.982697   6.998809   7.251338   7.794162   7.802164
                   16         17         18         19         20
    16  H    0.000000
    17  H    1.677136   0.000000
    18  C    7.331523   7.514235   0.000000
    19  H    8.294562   8.355956   1.089284   0.000000
    20  H    7.058545   7.363634   1.093229   1.780243   0.000000
    21  H    7.550935   7.882813   1.093154   1.780195   1.799426
                   21
    21  H    0.000000
 Stoichiometry    C7H9NO3S
 Framework group  C1[X(C7H9NO3S)]
 Deg. of freedom    57
 Full point group                 C1      NOp   1
 Largest Abelian subgroup         C1      NOp   1
 Largest concise Abelian subgroup C1      NOp   1
                         Standard orientation:                         
 ---------------------------------------------------------------------
 Center     Atomic      Atomic             Coordinates (Angstroms)
 Number     Number       Type             X           Y           Z
 ---------------------------------------------------------------------
      1          6           0        0.523511    0.058581   -0.101375
      2          6           0       -0.089394    1.305664   -0.049691
      3          1           0        0.503521    2.214837   -0.054843
      4          6           0       -1.475258    1.390453   -0.002385
      5          1           0       -1.950236    2.365771    0.028909
      6          6           0       -2.255872    0.232791    0.000692
      7          8           0       -3.603138    0.464029    0.048082
      8          6           0       -1.614454   -1.031816   -0.046274
      9          1           0       -2.177224   -1.949409   -0.049683
     10          6           0       -0.230568   -1.113843   -0.096148
     11          1           0        0.256905   -2.083671   -0.137848
     12         16           0        2.288223   -0.052816   -0.113116
     13          8           0        2.665500   -1.258666   -0.854048
     14          8           0        2.826246    1.243700   -0.528760
     15          7           0        2.826235   -0.292448    1.433627
     16          1           0        2.479921   -1.175587    1.814919
     17          1           0        2.563180    0.483637    2.044764
     18          6           0       -4.611267   -0.546782    0.062524
     19          1           0       -5.550175    0.003895    0.104321
     20          1           0       -4.525169   -1.182282    0.947891
     21          1           0       -4.584989   -1.147791   -0.850209
 ---------------------------------------------------------------------
 Rotational constants (GHZ):           2.4271392           0.4028179           0.3734383
 Basis read from rwf:  (6D, 7F)
 There are   250 symmetry adapted cartesian basis functions of A   symmetry.
 There are   250 symmetry adapted basis functions of A   symmetry.
   250 basis functions,   444 primitive gaussians,   250 cartesian basis functions
    49 alpha electrons       49 beta electrons
       nuclear repulsion energy       821.6858926399 Hartrees.
 NAtoms=   21 NActive=   21 NUniq=   21 SFac= 1.00D+00 NAtFMM=   60 NAOKFM=F Big=F
 Integral buffers will be    131072 words long.
 Raffenetti 2 integral format.
 Two-electron integral symmetry is turned on.
 ------------------------------------------------------------------------------
 Polarizable Continuum Model (PCM)
 =================================
 Model                : PCM.
 Atomic radii         : SMD-Coulomb.
 Polarization charges : Total charges.
 Charge compensation  : None.
 Solution method      : On-the-fly selection.
 Cavity type          : VdW (van der Waals Surface) (Alpha=1.000).
 Cavity algorithm     : GePol (No added spheres)
                        Default sphere list used, NSphG=   21.
                        Lebedev-Laikov grids with approx.  5.0 points / Ang**2.
                        Smoothing algorithm: York/Karplus (Gamma=1.0000).
                        Polarization charges: spherical gaussians, with
                                              point-specific exponents (IZeta= 3).
                        Self-potential: point-specific (ISelfS= 7).
                        Self-field    : sphere-specific E.n sum rule (ISelfD= 2).
 1st derivatives      : Analytical E(r).r(x)/FMM algorithm (CHGder, D1EAlg=3).
                        Cavity 1st derivative terms included.
 Solvent              : Water, Eps=  78.355300 Eps(inf)=   1.777849
 ------------------------------------------------------------------------------
 ------------------------------------------------------------------------------
 Atomic radii for non-electrostatic terms: SMD-CDS.
 ------------------------------------------------------------------------------
 Nuclear repulsion after PCM non-electrostatic terms =      821.6939616156 Hartrees.
 One-electron integrals computed using PRISM.
 NBasis=   250 RedAO= T EigKep=  2.31D-06  NBF=   250
 NBsUse=   250 1.00D-06 EigRej= -1.00D+00 NBFU=   250
 Initial guess from the checkpoint file:  "/jobfs/48670239.gadi-pbs/Gau-4027329.chk"
 B after Tr=    -0.000000   -0.000000    0.000000
         Rot=    0.999983    0.005063    0.000473   -0.002795 Ang=   0.66 deg.
 ExpMin= 4.05D-02 ExpMax= 2.19D+04 ExpMxC= 3.30D+03 IAcc=3 IRadAn=         5 AccDes= 0.00D+00
 Harris functional with IExCor= 1009 and IRadAn=       5 diagonalized for initial guess.
 HarFok:  IExCor= 1009 AccDes= 0.00D+00 IRadAn=         5 IDoV= 1 UseB2=F ITyADJ=14
 ICtDFT=  3500011 ScaDFX=  1.000000  1.000000  1.000000  1.000000
 FoFCou: FMM=F IPFlag=           0 FMFlag=      100000 FMFlg1=           0
         NFxFlg=           0 DoJE=T BraDBF=F KetDBF=T FulRan=T
         wScrn=  0.000000 ICntrl=       500 IOpCl=  0 I1Cent=   200000004 NGrid=           0
         NMat0=    1 NMatS0=      1 NMatT0=    0 NMatD0=    1 NMtDS0=    0 NMtDT0=    0
 Petite list used in FoFCou.
 Requested convergence on RMS density matrix=1.00D-08 within 128 cycles.
 Requested convergence on MAX density matrix=1.00D-06.
 Requested convergence on             energy=1.00D-06.
 No special actions if energy rises.
 Inv3:  Mode=1 IEnd=     8346672.
 Iteration    1 A*A^-1 deviation from unit magnitude is 3.89D-15 for   1664.
 Iteration    1 A*A^-1 deviation from orthogonality  is 1.71D-15 for   1313    159.
 Iteration    1 A^-1*A deviation from unit magnitude is 3.89D-15 for   1664.
 Iteration    1 A^-1*A deviation from orthogonality  is 7.97D-15 for   1025    960.
 Error on total polarization charges =  0.04739
 SCF Done:  E(RM062X) =  -950.473060836     A.U. after   14 cycles
            NFock= 14  Conv=0.71D-08     -V/T= 2.0065
 SMD-CDS (non-electrostatic) energy       (kcal/mol) =       5.06
 (included in total energy above)
 D1PCM: PCM CHGder 1st derivatives, ID1Alg=3 FixD1E=F DoIter=F DoCFld=F I1PDM=0.
 Calling FoFJK, ICntrl=      2127 FMM=F ISym2X=0 I1Cent= 0 IOpClX= 0 NMat=1 NMatS=1 NMatT=0.
 ***** Axes restored to original set *****
 -------------------------------------------------------------------
 Center     Atomic                   Forces (Hartrees/Bohr)
 Number     Number              X              Y              Z
 -------------------------------------------------------------------
      1        6           0.002292635   -0.000317245    0.000981489
      2        6          -0.003730060    0.000606285   -0.002416891
      3        1          -0.000012884   -0.000044161    0.000299948
      4        6          -0.004468915   -0.000149119    0.005096542
      5        1           0.001013231    0.000059625   -0.001518727
      6        6           0.012878528   -0.001155457   -0.002527022
      7        8          -0.005976868   -0.000242645    0.007529078
      8        6          -0.007790996    0.002413703   -0.013017664
      9        1           0.004787050    0.000179903   -0.006096973
     10        6          -0.003069816    0.000346231    0.001155271
     11        1           0.000421908    0.000066417   -0.000939304
     12       16           0.000078835    0.000084323    0.000266653
     13        8          -0.000192037   -0.000169388   -0.000125435
     14        8           0.000041720    0.000002827   -0.000096124
     15        7           0.000104509    0.000053516    0.000107142
     16        1          -0.000043510   -0.000064119   -0.000144800
     17        1          -0.000047592    0.000069421   -0.000057103
     18        6           0.002123443   -0.001108133    0.007362785
     19        1           0.000318657   -0.000000729   -0.000270813
     20        1           0.000597848   -0.000421524    0.002199507
     21        1           0.000674315   -0.000209729    0.002212443
 -------------------------------------------------------------------
 Cartesian Forces:  Max     0.013017664 RMS     0.003383113

 GradGradGradGradGradGradGradGradGradGradGradGradGradGradGradGradGradGrad
 Berny optimization.
 Using GEDIIS/GDIIS optimizer.
 FormGI is forming the generalized inverse of G from B-inverse, IUseBI=4.
 Internal  Forces:  Max     0.036697815 RMS     0.005337488
 Search for a local minimum.
 Step number   2 out of a maximum of  106
 All quantities printed in internal units (Hartrees-Bohrs-Radians)
 Mixed Optimization -- RFO/linear search
 Update second derivatives using D2CorX and points    1    2
 DE= -2.78D-03 DEPred=-1.48D-02 R= 1.88D-01
 Trust test= 1.88D-01 RLast= 3.01D-01 DXMaxT set to 3.00D-01
 ITU=  0  0
 Use linear search instead of GDIIS.
     Eigenvalues ---    0.00792   0.01335   0.01626   0.01889   0.02074
     Eigenvalues ---    0.02115   0.02137   0.02150   0.02180   0.02189
     Eigenvalues ---    0.02198   0.02232   0.02280   0.04649   0.09409
     Eigenvalues ---    0.10036   0.10366   0.10788   0.14422   0.15908
     Eigenvalues ---    0.15999   0.16000   0.16000   0.16000   0.16000
     Eigenvalues ---    0.16000   0.16000   0.16148   0.19891   0.21824
     Eigenvalues ---    0.22851   0.23218   0.24076   0.24980   0.25000
     Eigenvalues ---    0.28796   0.34286   0.34327   0.34622   0.34909
     Eigenvalues ---    0.35270   0.35335   0.35584   0.37583   0.41447
     Eigenvalues ---    0.41869   0.42235   0.43965   0.43998   0.44058
     Eigenvalues ---    0.45751   0.46805   0.47824   0.48358   0.60751
     Eigenvalues ---    0.89680   0.89926
 RFO step:  Lambda=-8.95276839D-04 EMin= 7.91647883D-03
 Quartic linear search produced a step of -0.48196.
 Iteration  1 RMS(Cart)=  0.09676004 RMS(Int)=  0.00337485
 Iteration  2 RMS(Cart)=  0.00931834 RMS(Int)=  0.00003546
 Iteration  3 RMS(Cart)=  0.00004731 RMS(Int)=  0.00002702
 Iteration  4 RMS(Cart)=  0.00000000 RMS(Int)=  0.00002702
 Variable       Old X    -DE/DX   Delta X   Delta X   Delta X     New X
                                 (Linear)    (Quad)   (Total)
    R1        2.62770   0.00347   0.00012   0.00433   0.00445   2.63215
    R2        2.63428   0.00196   0.00455  -0.00154   0.00300   2.63728
    R3        3.34153  -0.00004  -0.00011   0.00001  -0.00010   3.34144
    R4        2.05118   0.00014   0.00008   0.00014   0.00022   2.05139
    R5        2.62532  -0.00197   0.00349  -0.00488  -0.00139   2.62393
    R6        2.05088   0.00001  -0.00171   0.00139  -0.00032   2.05056
    R7        2.63855   0.00355   0.00270   0.00137   0.00407   2.64263
    R8        2.58474  -0.01906  -0.01115  -0.00802  -0.01917   2.56558
    R9        2.68105  -0.01671  -0.01320  -0.00829  -0.02149   2.65956
   R10        2.69792  -0.00397  -0.00063  -0.00442  -0.00505   2.69288
   R11        2.03415   0.00683   0.00817   0.00338   0.01155   2.04571
   R12        2.62145   0.00128  -0.00360   0.00423   0.00062   2.62207
   R13        2.05271  -0.00019  -0.00015  -0.00015  -0.00031   2.05240
   R14        2.76791  -0.00027  -0.00005  -0.00011  -0.00016   2.76776
   R15        2.76648  -0.00007   0.00009  -0.00013  -0.00004   2.76645
   R16        3.12765  -0.00008   0.00012  -0.00021  -0.00008   3.12757
   R17        1.93201   0.00003  -0.00002   0.00005   0.00003   1.93204
   R18        1.93177   0.00003  -0.00010   0.00012   0.00002   1.93180
   R19        2.05845   0.00013  -0.00010   0.00027   0.00017   2.05862
   R20        2.06590   0.00071   0.00095   0.00032   0.00127   2.06717
   R21        2.06576   0.00076   0.00097   0.00036   0.00133   2.06709
    A1        2.11264   0.00041   0.00282   0.00116   0.00398   2.11662
    A2        2.09051  -0.00028  -0.00164  -0.00055  -0.00218   2.08834
    A3        2.07933  -0.00014  -0.00117  -0.00057  -0.00174   2.07760
    A4        2.10629   0.00144  -0.00059   0.00189   0.00130   2.10759
    A5        2.08944  -0.00344  -0.00071  -0.00481  -0.00552   2.08392
    A6        2.08742   0.00200   0.00129   0.00292   0.00421   2.09164
    A7        2.08566   0.00319  -0.00190   0.00847   0.00656   2.09222
    A8        2.10271  -0.00264  -0.00961   0.00057  -0.00903   2.09367
    A9        2.09482  -0.00055   0.01152  -0.00904   0.00247   2.09729
   A10        1.99390   0.01057   0.08044  -0.03150   0.04894   2.04284
   A11        2.07854   0.00828   0.01214   0.00780   0.01995   2.09848
   A12        2.21075  -0.01885  -0.09258   0.02369  -0.06889   2.14186
   A13        2.18486  -0.03670  -0.06146  -0.03458  -0.09603   2.08883
   A14        2.12183  -0.00195  -0.02138   0.00144  -0.01994   2.10189
   A15        2.10008  -0.00356  -0.00225  -0.00862  -0.01088   2.08920
   A16        2.06127   0.00551   0.02364   0.00718   0.03081   2.09208
   A17        2.08294   0.00094  -0.00238   0.00389   0.00150   2.08445
   A18        2.10366   0.00057   0.00210   0.00104   0.00315   2.10681
   A19        2.09655  -0.00151   0.00028  -0.00493  -0.00464   2.09191
   A20        1.88839   0.00005  -0.00012   0.00012   0.00001   1.88840
   A21        1.88901   0.00003   0.00033  -0.00001   0.00032   1.88933
   A22        1.90427  -0.00029   0.00069  -0.00113  -0.00045   1.90382
   A23        2.08382   0.00003  -0.00010   0.00025   0.00015   2.08398
   A24        1.84400   0.00009  -0.00054   0.00034  -0.00020   1.84379
   A25        1.84844   0.00006  -0.00019   0.00028   0.00009   1.84853
   A26        1.94281   0.00005   0.00078   0.00002   0.00080   1.94360
   A27        1.94457  -0.00019   0.00006  -0.00048  -0.00042   1.94415
   A28        1.92375   0.00000   0.00013   0.00024   0.00038   1.92413
   A29        1.82462   0.00223   0.00963   0.00783   0.01745   1.84208
   A30        1.94352  -0.00217  -0.00623  -0.00689  -0.01322   1.93030
   A31        1.94318  -0.00209  -0.00607  -0.00668  -0.01284   1.93034
   A32        1.90782   0.00144   0.00453   0.00746   0.01199   1.91981
   A33        1.90784   0.00144   0.00446   0.00752   0.01196   1.91980
   A34        1.93340  -0.00056  -0.00531  -0.00769  -0.01316   1.92024
    D1       -3.14077   0.00000   0.00000   0.00020   0.00021  -3.14056
    D2       -0.00876   0.00005  -0.00025   0.00054   0.00029  -0.00848
    D3        0.04122   0.00006  -0.00046  -0.00105  -0.00151   0.03971
    D4       -3.10996   0.00011  -0.00071  -0.00071  -0.00143  -3.11139
    D5        0.00651  -0.00003  -0.00021  -0.00187  -0.00208   0.00442
    D6        3.14045  -0.00000  -0.00006  -0.00047  -0.00054   3.13992
    D7        3.10796  -0.00009   0.00024  -0.00062  -0.00039   3.10757
    D8       -0.04128  -0.00006   0.00038   0.00078   0.00116  -0.04012
    D9       -2.62166  -0.00016   0.00093   0.00412   0.00506  -2.61660
   D10       -0.34032  -0.00007   0.00096   0.00452   0.00548  -0.33483
   D11        1.66339  -0.00014   0.00128   0.00425   0.00553   1.66892
   D12        0.55956  -0.00012   0.00039   0.00285   0.00324   0.56280
   D13        2.84090  -0.00003   0.00042   0.00325   0.00367   2.84457
   D14       -1.43857  -0.00009   0.00074   0.00298   0.00371  -1.43486
   D15       -3.13209  -0.00003   0.00018  -0.00025  -0.00007  -3.13216
   D16        0.00588  -0.00002   0.00030   0.00048   0.00078   0.00666
   D17        0.00002   0.00002  -0.00008   0.00008  -0.00001   0.00002
   D18        3.13799   0.00003   0.00004   0.00080   0.00084   3.13884
   D19       -3.14038  -0.00002   0.00027   0.00005   0.00032  -3.14006
   D20       -0.00090  -0.00003   0.00006  -0.00014  -0.00008  -0.00097
   D21       -0.00243  -0.00000   0.00037   0.00081   0.00118  -0.00125
   D22        3.13706  -0.00001   0.00016   0.00062   0.00078   3.13784
   D23       -3.14046   0.00003   0.00018   0.00107   0.00125  -3.13920
   D24        0.00343   0.00000   0.00024   0.00130   0.00154   0.00497
   D25       -3.13728  -0.00002  -0.00020  -0.00032  -0.00053  -3.13780
   D26       -0.00135   0.00003  -0.00051  -0.00123  -0.00174  -0.00309
   D27        0.00193   0.00002  -0.00017  -0.00061  -0.00079   0.00113
   D28        3.13785   0.00007  -0.00049  -0.00152  -0.00201   3.13585
   D29        3.13983  -0.00000   0.00036   0.00293   0.00330  -3.14005
   D30        1.08173  -0.00192  -0.00742  -0.00700  -0.01430   1.06743
   D31       -1.08539   0.00195   0.00814   0.01303   0.02105  -1.06434
   D32       -0.00141  -0.00000   0.00059   0.00221   0.00280   0.00139
   D33       -3.13539  -0.00004   0.00044   0.00079   0.00123  -3.13416
   D34        3.13471   0.00002   0.00012   0.00132   0.00143   3.13614
   D35        0.00073  -0.00002  -0.00003  -0.00011  -0.00014   0.00059
   D36        1.09259  -0.00008   0.00093   0.00259   0.00352   1.09611
   D37       -1.06250   0.00002   0.00015   0.00261   0.00276  -1.05974
   D38       -0.93413  -0.00005   0.00102   0.00282   0.00384  -0.93029
   D39       -3.08921   0.00005   0.00024   0.00284   0.00307  -3.08614
   D40        3.12235  -0.00016   0.00156   0.00217   0.00372   3.12607
   D41        0.96727  -0.00006   0.00077   0.00219   0.00296   0.97023
         Item               Value     Threshold  Converged?
 Maximum Force            0.036698     0.000450     NO 
 RMS     Force            0.005337     0.000300     NO 
 Maximum Displacement     0.436115     0.001800     NO 
 RMS     Displacement     0.104150     0.001200     NO 
 Predicted change in Energy=-2.052454D-03
 GradGradGradGradGradGradGradGradGradGradGradGradGradGradGradGradGradGrad

                          Input orientation:                          
 ---------------------------------------------------------------------
 Center     Atomic      Atomic             Coordinates (Angstroms)
 Number     Number       Type             X           Y           Z
 ---------------------------------------------------------------------
      1          6           0       -1.348048    0.787033   -0.911472
      2          6           0       -2.515685    1.003641   -1.639350
      3          1           0       -3.477872    1.063544   -1.140324
      4          6           0       -2.441516    1.155267   -3.017577
      5          1           0       -3.345285    1.333107   -3.591198
      6          6           0       -1.202893    1.081842   -3.662551
      7          8           0       -1.198650    1.240255   -5.010915
      8          6           0       -0.029265    0.855746   -2.919457
      9          1           0        0.931640    0.801821   -3.415090
     10          6           0       -0.105317    0.709372   -1.541757
     11          1           0        0.799605    0.541716   -0.965053
     12         16           0       -1.439557    0.547257    0.838015
     13          8           0       -0.199743    1.050004    1.434052
     14          8           0       -2.724968    1.068944    1.305650
     15          7           0       -1.463905   -1.075750    1.161133
     16          1           0       -0.602017   -1.530102    0.851295
     17          1           0       -2.275370   -1.528607    0.735144
     18          6           0        0.032443    1.172931   -5.725427
     19          1           0       -0.228175    1.329947   -6.771448
     20          1           0        0.497507    0.190904   -5.599125
     21          1           0        0.716367    1.957323   -5.388521
 ---------------------------------------------------------------------
                    Distance matrix (angstroms):
                    1          2          3          4          5
     1  C    0.000000
     2  C    1.392875   0.000000
     3  H    2.159857   1.085551   0.000000
     4  C    2.401447   1.388525   2.146282   0.000000
     5  H    3.386455   2.146274   2.469216   1.085111   0.000000
     6  C    2.770635   2.413064   3.396689   1.398417   2.158256
     7  O    4.127125   3.627397   4.495281   2.350603   2.575317
     8  C    2.403314   2.800506   3.886051   2.432755   3.416885
     9  H    3.386045   3.883045   4.968588   3.414839   4.313394
    10  C    1.395590   2.430225   3.414779   2.799052   3.884153
    11  H    2.162283   3.414557   4.312753   3.885122   4.970217
    12  S    1.768211   2.739284   2.887059   4.029788   4.885416
    13  O    2.624736   3.848576   4.168180   4.985341   5.935294
    14  O    2.625073   2.953149   2.559234   4.333369   4.943045
    15  N    2.789099   3.643187   3.732203   4.836815   5.650383
    16  H    3.005499   4.035504   4.354778   5.056000   5.954765
    17  H    2.988889   3.479692   3.417987   4.616677   5.296354
    18  C    5.022831   4.818468   5.775591   3.667865   3.998704
    19  H    5.990676   5.628287   6.507002   4.361301   4.453132
    20  H    5.073020   5.041794   6.037056   4.028926   4.483687
    21  H    5.067086   5.041027   6.036362   4.029503   4.485202
                    6          7          8          9         10
     6  C    0.000000
     7  O    1.357644   0.000000
     8  C    1.407377   2.426830   0.000000
     9  H    2.166998   2.697595   1.082542   0.000000
    10  C    2.416852   3.675904   1.387540   2.143176   0.000000
    11  H    3.402680   4.566178   2.146005   2.467341   1.086085
    12  S    4.538379   5.894765   4.025256   4.876093   2.733092
    13  O    5.194486   6.524692   4.361174   4.985559   2.996729
    14  O    5.196143   6.500614   5.016353   5.977250   3.885819
    15  N    5.290676   6.597606   4.737096   5.495973   3.512553
    16  H    5.249582   6.511248   4.498765   5.098236   3.314913
    17  H    5.225359   6.468625   4.907773   5.739360   3.860305
    18  C    2.406202   1.425009   2.824514   2.506778   4.211527
    19  H    3.267549   2.012299   3.886164   3.590158   5.267815
    20  H    2.726802   2.079441   2.810716   2.309048   4.134543
    21  H    2.725619   2.079439   2.804588   2.296945   4.126759
                   11         12         13         14         15
    11  H    0.000000
    12  S    2.874879   0.000000
    13  O    2.648161   1.464634   0.000000
    14  O    4.225715   1.463940   2.528558   0.000000
    15  N    3.501476   1.655037   2.488256   2.492163   0.000000
    16  H    3.091293   2.239881   2.675514   3.386502   1.022393
    17  H    4.078281   2.240173   3.383184   2.697200   1.022263
    18  C    4.862935   6.755518   7.164297   7.553156   7.397319
    19  H    5.949107   7.744933   8.210323   8.458228   8.380946
    20  H    4.657141   6.731714   7.119677   7.670151   7.152107
    21  H    4.645207   6.738401   6.943341   7.579177   7.539965
                   16         17         18         19         20
    16  H    0.000000
    17  H    1.677380   0.000000
    18  C    7.138781   7.373146   0.000000
    19  H    8.150206   8.289226   1.089374   0.000000
    20  H    6.765999   7.125204   1.093899   1.788400   0.000000
    21  H    7.268808   7.655160   1.093859   1.788365   1.792342
                   21
    21  H    0.000000
 Stoichiometry    C7H9NO3S
 Framework group  C1[X(C7H9NO3S)]
 Deg. of freedom    57
 Full point group                 C1      NOp   1
 Largest Abelian subgroup         C1      NOp   1
 Largest concise Abelian subgroup C1      NOp   1
                         Standard orientation:                         
 ---------------------------------------------------------------------
 Center     Atomic      Atomic             Coordinates (Angstroms)
[...]
 14845098,0.05896110,0.00830004,-0.15047664,0.02264322,-0.00548914,0.06
 282216,-0.00389874,0.00082538,-0.00200069,0.02734515,0.00347891,-0.048
 89757,0.00130637,-0.00007180,-0.00060307,-0.08507027,0.00697439,-0.034
 23641,0.00349406,-0.00032168,0.00945328,0.04791653,0.02853360,-0.35266
 963,-0.00158624,0.00136385,-0.01090595,0.03255009,-0.05950867,0.699496
 27,-0.01727696,0.00218703,-0.01378581,-0.00287559,-0.00003754,0.003824
 69,-0.00067733,0.00013167,-0.00079705,0.00043013,-0.00012548,0.0005104
 9,0.00001162,-0.00000536,-0.00011549,0.00106382,0.00005051,0.00176908,
 0.00036107,-0.00003853,0.00010336,0.00667641,-0.00046192,0.00296701,0.
 00060894,-0.00015750,-0.00018253,-0.27114574,0.02305073,-0.13085944,0.
 28331903,-0.00006078,0.00397098,-0.00049289,0.00009936,0.00575941,0.00
 043656,-0.00002167,0.00050770,0.00004594,-0.00021815,-0.00119788,0.000
 01889,-0.00002080,-0.00062420,-0.00006799,0.00019368,0.00774240,0.0011
 9499,0.00012072,-0.00063066,0.00011689,0.00269345,0.00507321,0.0014838
 4,-0.00022180,-0.00451140,-0.00062851,0.02207964,-0.04232814,0.0155682
 2,-0.02431351,0.02947273,0.01163599,-0.00134195,0.01212261,0.00323996,
 0.00046699,-0.00150009,0.00070114,-0.00001352,0.00066809,0.00045943,-0
 .00001741,-0.00076864,-0.00012035,-0.00007011,0.00008177,0.00187254,0.
 00110153,-0.00405092,-0.00148361,0.00011609,-0.00136556,-0.02560824,0.
 00282655,-0.01121967,0.00007787,-0.00059152,0.00156955,-0.13100137,0.0
 1558458,-0.13808608,0.13924516,-0.01763549,0.14352516,-0.07413914,0.00
 018468,0.00355159,0.00986544,0.00260095,-0.01816593,-0.00283296,0.0004
 8843,-0.00170238,-0.00359602,0.00129790,-0.00521619,0.00032699,-0.0000
 0700,-0.00117093,-0.00498834,0.00010858,0.00073064,0.00022814,0.000058
 58,-0.00099946,-0.00438288,-0.00014969,0.00376019,0.00028789,0.0000278
 6,0.00104406,0.00683954,-0.00364153,0.01970906,-0.00289644,-0.00026322
 ,0.00148108,0.97779163,0.00026313,-0.05427124,0.01159381,0.00098086,-0
 .00347654,0.00266941,0.00043572,-0.00265163,0.00021417,0.00141981,0.00
 572407,-0.00101757,-0.00004391,0.00077774,-0.00007140,0.00032724,-0.00
 068503,0.00197232,0.00014748,-0.00032601,-0.00247463,-0.00020414,0.006
 48154,-0.00141144,0.00007127,0.00077002,-0.00017209,-0.00237677,-0.002
 58049,0.00127353,-0.00022807,-0.00287415,-0.00034560,-0.06489670,0.563
 90563,0.00433872,0.02045116,-0.15702900,-0.01703906,0.00323104,-0.0284
 5719,0.00116791,0.00032095,-0.00097148,-0.00639550,-0.00103885,0.01173
 079,0.00048316,0.00005509,0.00130656,-0.00126066,0.00182900,-0.0178914
 1,-0.00148255,-0.00209746,0.02111398,0.00473691,-0.00138328,0.01269165
 ,-0.00030355,0.00008431,0.00138131,0.02026001,0.00133406,-0.02646041,-
 0.00158233,-0.00003343,-0.00063624,0.02351390,0.07064026,0.53075865,-0
 .00971487,-0.00501820,0.00141523,0.00355791,-0.00040983,-0.00398015,0.
 00056350,-0.00025509,0.00039450,-0.00063036,0.00045972,-0.00114755,0.0
 0008162,0.00015904,-0.00059004,0.00024801,-0.00034502,0.00282063,0.000
 40265,0.00025154,-0.00293750,0.00100361,0.00052931,-0.00159146,0.00000
 265,0.00007805,-0.00036922,-0.00388548,0.00031472,0.00223278,0.0017740
 7,-0.00043141,0.00021650,-0.44402956,-0.08388461,-0.15569973,0.4964830
 2,-0.00106999,0.00741436,0.00356988,0.00013015,0.00202817,-0.00139330,
 0.00005143,0.00020738,-0.00005125,-0.00069545,-0.00068892,0.00052970,0
 .00001086,-0.00025340,-0.00009324,0.00040390,0.00013193,-0.00023279,-0
 .00001899,-0.00001564,0.00026950,0.00005169,-0.00024730,-0.00012608,-0
 .00001315,-0.00001581,-0.00001505,-0.00000420,0.00023031,0.00065946,0.
 00002522,-0.00010228,0.00015030,-0.08533986,-0.09281591,-0.03510193,0.
 10874426,0.08708877,-0.03305381,-0.00725257,-0.00557993,0.00722844,-0.
 00120579,-0.00583573,-0.00011789,-0.00030951,0.00041252,-0.00177552,0.
 00128161,-0.00287084,0.00016112,0.00024739,-0.00102120,-0.00065208,-0.
 00047641,0.00380032,0.00045260,0.00043372,-0.00470820,-0.00116789,0.00
 072126,-0.00144088,0.00006320,0.00001978,-0.00034286,-0.00161207,-0.00
 054032,-0.00044875,-0.00141776,-0.00013210,-0.00116798,-0.16274764,-0.
 03820716,-0.14932907,0.18375472,0.04301201,0.14405183,-0.00720712,0.00
 981728,-0.00016037,-0.00349864,-0.00007303,-0.00133303,0.00148528,0.00
 029834,0.00000591,0.00061244,-0.00086748,0.00153343,0.00000207,-0.0000
 9159,0.00038099,-0.00035697,0.00038258,-0.00298359,-0.00007157,-0.0002
 5513,0.00327630,-0.00039995,-0.00090213,0.00157939,0.00004529,-0.00022
 491,0.00054499,0.00337144,0.00063058,0.00328521,0.00059078,0.00043025,
 -0.00036355,-0.36647550,0.17564666,0.12370866,-0.02867544,0.01921496,0
 .01208033,0.40017303,0.00551555,0.00472467,0.00461273,0.00061511,0.000
 50786,0.00094562,-0.00014492,-0.00013114,0.00018491,-0.00007522,-0.000
 13885,-0.00056618,0.00000500,-0.00000250,-0.00012779,-0.00044990,-0.00
 002422,0.00047769,0.00006117,0.00009593,-0.00059129,0.00099937,-0.0005
 6782,0.00027521,-0.00005068,-0.00009031,-0.00028626,-0.00085712,0.0013
 0826,-0.00318213,-0.00018722,0.00017473,0.00002976,0.17578500,-0.17883
 537,-0.07372330,-0.00559003,0.01169243,-0.00254851,-0.21344567,0.19398
 291,0.02908218,-0.01553639,-0.00470484,0.00157822,-0.00077060,0.000063
 84,0.00116845,-0.00038291,-0.00059563,0.00125374,0.00063777,-0.0011575
 2,-0.00010802,0.00002627,-0.00035459,0.00126397,-0.00055099,0.00391152
 ,0.00035240,0.00041529,-0.00473181,0.00164635,0.00164808,-0.00299304,-
 0.00011130,0.00039305,-0.00092702,-0.00681541,-0.00152990,-0.00515615,
 0.00008784,-0.00053840,0.00034947,0.13012254,-0.07952566,-0.13390382,-
 0.01433721,0.00218330,0.01493519,-0.14643817,0.08867839,0.12508903,0.0
 0958382,-0.00365607,0.00054487,-0.00138618,-0.00071240,0.00070868,0.00
 006616,-0.00025666,0.00002695,-0.00010854,0.00012044,0.00124638,-0.000
 03244,0.00009078,0.00018925,0.00090689,0.00010188,-0.00073988,-0.00012
 507,-0.00013557,0.00089015,0.00030939,0.00038717,-0.00024224,-0.000044
 92,-0.00005035,-0.00003645,-0.00016327,0.00020519,-0.00069487,0.000117
 81,-0.00017759,-0.00012393,-0.09429399,-0.01936697,0.00726441,-0.01871
 780,-0.04281715,-0.00054552,-0.00268749,0.04066425,0.00092720,0.714832
 18,-0.00406892,-0.00761718,0.00115479,-0.00271416,-0.00107529,0.000184
 15,-0.00012232,-0.00035495,-0.00028461,-0.00049450,0.00082000,0.001736
 70,0.00005093,0.00005233,0.00036218,-0.00062255,0.00034292,-0.00337991
 ,-0.00026187,-0.00055220,0.00403252,0.00038282,0.00104941,0.00245632,0
 .00001153,0.00012497,0.00044959,0.00331416,-0.00214610,0.00077676,0.00
 016972,-0.00054344,-0.00028787,-0.01865136,-0.20264818,0.04159620,-0.0
 0918094,-0.01160736,0.00299259,0.00598848,-0.02906468,0.00284783,-0.03
 458202,0.51811196,0.00566463,0.02301118,-0.00421601,0.00366995,0.00119
 184,0.00132690,-0.00016981,0.00049857,0.00006708,0.00118545,-0.0011550
 3,-0.00201365,-0.00009841,-0.00008481,-0.00030405,0.00102502,-0.000525
 64,0.00436903,0.00030734,0.00068054,-0.00530368,-0.00128566,-0.0014595
 9,-0.00338655,0.00002039,-0.00019521,-0.00040425,-0.00458492,0.0024513
 7,0.00140074,0.00016122,0.00075905,0.00010620,0.00167503,0.00974147,-0
 .05468559,-0.01059490,-0.01459501,0.00598236,0.00504245,-0.01579699,0.
 00664349,0.02273975,0.11659821,0.18765435,-0.00029499,-0.00112175,0.00
 026629,-0.00048367,-0.00009757,-0.00014595,-0.00001417,-0.00003927,-0.
 00002226,-0.00011543,0.00008193,0.00024429,0.00000662,0.00000743,0.000
 04551,-0.00000058,-0.00002177,-0.00042949,-0.00004684,-0.00006204,0.00
 055211,0.00003770,0.00006424,0.00020902,-0.00000321,0.00000091,0.00005
 127,0.00050571,-0.00005655,-0.00003430,-0.00004263,0.00000977,-0.00006
 123,0.00706449,0.00181093,-0.00317793,-0.00167093,-0.00105260,-0.00028
 085,0.00321610,-0.00566469,-0.00001216,-0.26299524,0.15082573,0.094720
 52,0.27202865,-0.00133017,0.00167896,-0.00047026,0.00055793,0.00034361
 ,0.00020966,-0.00000256,0.00004904,0.00001896,0.00020519,-0.00012821,-
 0.00049988,-0.00000667,-0.00002139,-0.00006065,-0.00012803,-0.00007435
 ,0.00061387,0.00006446,0.00009653,-0.00079481,-0.00020359,-0.00016153,
 -0.00020580,0.00001512,-0.00000366,-0.00002869,-0.00041136,0.00020431,
 0.00041939,-0.00008461,0.00001812,0.00004820,0.02423500,-0.02373154,-0
 .01265765,-0.00077902,0.00373642,0.00203324,0.00126408,-0.00646275,0.0
 0014578,0.15175167,-0.17457094,-0.07780996,-0.16467464,0.18871904,0.00
 101659,-0.00090993,-0.00009005,-0.00033206,-0.00003984,-0.00002521,0.0
 0000272,-0.00007027,0.00004192,-0.00010825,0.00001435,0.00024703,0.000
 00286,0.00001349,0.00002568,0.00007835,0.00009902,-0.00028754,-0.00003
 436,-0.00005296,0.00039258,0.00017660,0.00002508,0.00003919,-0.0000105
 7,-0.00001238,-0.00000665,0.00013447,0.00001572,-0.00027232,0.00006148
 ,-0.00002120,0.00003220,-0.00501804,0.01367205,-0.00399863,-0.00105882
 ,-0.00035169,-0.00077705,-0.00075793,0.00237213,0.00400154,0.12336655,
 -0.10821187,-0.06748535,-0.10589582,0.08372648,0.06642978,0.00087755,0
 .00137764,-0.00022553,0.00055013,0.00007950,-0.00002311,-0.00003217,-0
 .00008604,0.00013609,0.00002502,-0.00006895,-0.00006807,-0.00001164,-0
 .00000078,-0.00005564,0.00028953,-0.00002266,0.00056463,0.00003660,0.0
 0008456,-0.00072285,-0.00015363,-0.00010422,-0.00053539,-0.00000133,-0
 .00002202,-0.00006920,-0.00067654,0.00027117,0.00014740,-0.00001822,0.
 00007381,0.00002846,-0.00478758,-0.00977892,-0.00125716,0.00358464,0.0
 0235795,0.00023217,-0.00053687,0.00288202,0.00100228,-0.34534352,-0.09
 056122,-0.11878996,-0.01726328,-0.01037606,-0.01167249,0.36356076,0.00
 189256,0.00042851,-0.00025959,0.00000753,-0.00002644,0.00042336,0.0001
 5822,-0.00007145,0.00003476,0.00014755,-0.00004854,0.00003411,-0.00001
 930,0.00000823,-0.00000597,0.00028740,-0.00005193,0.00037741,0.0000285
 8,0.00005235,-0.00049461,-0.00009456,-0.00011674,-0.00046107,-0.000005
 11,-0.00002623,-0.00004825,-0.00036813,0.00042800,0.00014169,0.0000192
 1,0.00001554,-0.00000783,-0.03183112,-0.01248170,-0.01366303,-0.004605
 47,-0.00680905,-0.00000469,0.00211865,0.00281735,0.00195965,-0.0915437
 7,-0.09027403,-0.04335378,0.01997714,0.01030232,0.00973709,0.10390285,
 0.09585047,-0.00138550,-0.00026685,-0.00016550,0.00005814,0.00014753,-
 0.00028590,-0.00013202,0.00004802,0.00002708,-0.00010922,-0.00001070,-
 0.00013996,0.00001032,-0.00002130,-0.00000767,-0.00023733,0.00004813,-
 0.00020870,-0.00001703,-0.00003724,0.00029560,0.00007037,0.00005222,0.
 00033502,0.00000465,0.00001778,0.00002848,0.00031339,-0.00017695,-0.00
 003949,0.00001590,-0.00004264,0.00003223,0.00942162,0.01122398,-0.0032
 3066,0.00117812,0.00161284,0.00387653,0.00096075,-0.00078033,-0.000957
 42,-0.15545480,-0.06258113,-0.07036957,0.01402871,0.00522702,0.0017766
 4,0.13122732,0.04553299,0.06906305,0.00157847,-0.00003208,-0.00394672,
 0.00047479,0.00006657,0.00002452,0.00007894,0.00004299,-0.00041745,0.0
 0193182,0.00070063,-0.00594042,0.00012720,-0.00005040,-0.00002110,0.00
 363213,-0.00250527,0.01741736,-0.20882782,-0.00104208,0.07011701,0.001
 09002,0.00100829,-0.01074014,0.00031313,0.00006088,-0.00131271,-0.0024
 6218,-0.00007008,0.00322351,-0.00002297,0.00004533,-0.00036185,-0.0001
 1845,-0.00057451,0.00485759,-0.00068426,0.00004809,-0.00109582,0.00072
 998,-0.00011378,-0.00113390,0.00017905,0.00092118,-0.00122204,0.000127
 91,-0.00017709,0.00008879,-0.00016998,-0.00012142,0.00007801,0.5066466
 8,-0.00003441,0.00016522,-0.00013093,-0.00003391,0.00157186,0.00028313
 ,-0.00001183,-0.00035061,-0.00000867,0.00051686,0.00317159,0.00060105,
 -0.00005131,-0.00059568,-0.00008532,-0.00461529,-0.00572881,0.00358889
 ,0.00213810,-0.06029617,0.00216391,-0.00022022,-0.00112466,0.00018172,
 -0.00032564,-0.00116718,0.00005605,-0.00010857,0.00071061,0.00009086,0
 .00000426,0.00000139,-0.00001687,-0.00000990,-0.00031991,0.00012380,-0
 .00003887,0.00002521,-0.00006378,0.00007573,0.00000887,-0.00010019,-0.
 00002851,-0.00006631,0.00007166,0.00001208,0.00000899,-0.00000412,-0.0
 0000707,0.00000412,0.00000604,-0.00369944,0.60350216,-0.00033310,0.000
 05168,0.00268356,0.00108242,0.00019260,-0.00117416,-0.00011760,-0.0000
 1658,-0.00018234,-0.00419834,0.00059464,-0.00055678,0.00009190,-0.0000
 7390,0.00019219,0.03722857,0.00275839,-0.04262555,0.03878842,0.0033906
 9,-0.10829929,0.00145629,-0.00017509,0.00194388,0.00114361,-0.00000013
 ,-0.00358551,0.00218377,0.00005468,-0.00154072,-0.00001394,-0.00004590
 ,0.00035269,0.00012106,0.00029206,-0.00298084,0.00038855,-0.00003655,0
 .00064263,-0.00046194,0.00006743,0.00063678,-0.00011031,-0.00056876,0.
 00075200,-0.00007466,0.00011139,-0.00005419,0.00009758,0.00007056,-0.0
 0003870,0.07584220,-0.00390169,0.60755728,0.00010642,-0.00000496,0.000
 20459,-0.00056513,0.00004345,-0.00018589,0.00001191,-0.00001854,0.0001
 3928,0.00020486,-0.00019136,0.00174784,-0.00001162,0.00000727,-0.00005
 182,-0.00488764,0.00011464,0.00093341,0.00049749,-0.00460483,0.0435576
 1,-0.00105956,0.00005483,-0.00011183,0.00074463,-0.00000990,-0.0003732
 9,0.00047332,-0.00001186,-0.00003427,-0.00000620,-0.00000467,0.0000554
 0,0.00004080,0.00005164,-0.00041780,0.00006217,-0.00000589,0.00009951,
 -0.00004817,0.00000632,0.00008579,-0.00001932,-0.00007579,0.00010193,-
 0.00001092,0.00001576,-0.00000770,0.00001324,0.00001036,-0.00000681,-0
 .07185906,0.00993854,-0.08823226,0.08087206,-0.00000595,-0.00006487,0.
 00002160,-0.00001610,0.00000240,-0.00000223,-0.00000249,-0.00004605,-0
 .00000155,0.00001112,0.00023253,0.00007167,-0.00000134,0.00000043,0.00
 000117,-0.00007813,0.00064189,-0.00028850,-0.00024427,0.00029387,0.000
 56194,0.00005257,0.00009642,0.00004586,-0.00004425,-0.00013571,0.00001
 858,-0.00000012,0.00012515,0.00000406,0.00000061,0.00003613,0.00000544
 ,0.00000034,-0.00001121,-0.00004132,0.00000486,0.00000082,0.00000921,-
 0.00000517,0.00000417,0.00000299,-0.00000177,-0.00001109,0.00001639,-0
 .00000109,0.00000217,-0.00000167,0.00000215,0.00000190,-0.00000114,0.0
 0828179,-0.05697298,0.03105912,-0.00883381,0.05129342,0.00000668,-0.00
 000383,-0.00035098,0.00037335,-0.00001873,0.00010336,-0.00000917,0.000
 00639,-0.00008567,-0.00007408,0.00015218,-0.00114606,0.00001619,-0.000
 00356,0.00001210,0.00284137,-0.00036943,0.00298093,0.00223549,0.002283
 90,-0.02219451,-0.00002936,0.00002074,-0.00010766,0.00010328,-0.000032
 80,0.00006625,-0.00013354,0.00002400,0.00010657,0.00000413,0.00000864,
 -0.00004179,-0.00002362,-0.00006488,0.00053083,-0.00007813,0.00000354,
 -0.00013417,0.00008145,-0.00001938,-0.00013559,0.00002266,0.00010332,-
 0.00012859,0.00001385,-0.00001979,0.00001015,-0.00001837,-0.00001293,0
 .00000838,-0.07281183,0.03044367,-0.31194529,0.07194186,-0.03399446,0.
 33969717,0.00010378,0.00000963,0.00078271,-0.00019233,-0.00018027,-0.0
 0051059,-0.00000972,0.00004371,0.00005913,-0.00064213,-0.00054117,0.00
 129700,0.00007687,0.00012960,-0.00000022,0.00029179,0.00136772,-0.0068
 8997,-0.02977384,0.02519024,0.00886699,0.00078955,-0.00043103,0.000920
 58,0.00007233,-0.00005155,-0.00011556,0.00015869,-0.00000106,-0.000313
 99,0.00000346,-0.00002037,0.00005534,0.00005116,0.00012895,-0.00085810
 ,0.00012258,-0.00001435,0.00020201,-0.00013797,0.00002262,0.00019994,-
 0.00004001,-0.00016374,0.00020940,-0.00002065,0.00003185,-0.00001602,0
 .00002857,0.00001923,-0.00001133,-0.10704907,0.10669243,-0.01874755,-0
 .00210224,0.00684695,-0.00156713,0.12729789,0.00020694,-0.00005787,-0.
 00020950,-0.00009992,-0.00003320,-0.00000442,0.00000405,0.00001656,-0.
 00001569,-0.00003670,-0.00024860,-0.00029549,-0.00002615,0.00001817,0.
 00001995,0.00010628,0.00073461,0.00074862,0.00100232,0.00828652,-0.003
 52334,0.00095705,-0.00026449,-0.00029907,-0.00056073,0.00041305,0.0001
 8232,-0.00048834,-0.00023270,0.00039900,-0.00000152,0.00002607,-0.0000
 0410,-0.00001793,0.00001646,0.00023385,-0.00002591,0.00000464,-0.00003
 133,0.00001083,0.00000407,-0.00001792,0.00001076,0.00004594,-0.0000754
 6,0.00000559,-0.00001014,0.00000439,-0.00000799,-0.00000543,0.00000358
 ,0.11180450,-0.26214473,0.03409538,-0.00037049,-0.00062103,0.00027651,
 -0.12416129,0.27324279,-0.00079672,0.00008630,-0.00003507,0.00044871,0
 .00010080,0.00076975,0.,-0.00005554,-0.00000800,0.00060905,0.00061527,
 -0.00101854,-0.00004874,-0.00009492,0.00000228,0.00065433,-0.00224412,
 0.00401727,0.01683911,-0.01676378,-0.00212711,-0.00099768,-0.00065982,
 0.00013379,0.00006960,-0.00092769,-0.00165958,0.00047937,0.00046613,-0
 .00065783,0.00000045,-0.00004942,-0.00000809,-0.00005062,-0.00010146,0
 .00005274,-0.00001858,0.00001516,-0.00003636,0.00002442,-0.00000143,-0
 .00003168,0.00001023,-0.00000358,0.00002221,-0.00000175,-0.00000186,0.
 00000003,0.00000222,0.00000097,-0.00000217,-0.02196971,0.03886085,-0.0
 5926239,-0.01387830,0.02687807,-0.00093810,0.01435455,-0.03638171,0.05
 874654,0.00010493,-0.00006005,0.00076937,-0.00016389,0.00027759,-0.000
 47039,-0.00001532,-0.00005818,0.00004969,-0.00059956,0.00027550,0.0013
 9680,0.00006638,-0.00012423,-0.00002939,0.00024913,0.00009666,-0.00710
 395,-0.03182592,-0.02336775,0.00404150,0.00074381,0.00015178,0.0010370
 9,0.00012792,-0.00007012,0.00014354,0.00020841,0.00002599,-0.00032237,
 0.00000495,0.00000796,0.00005525,0.00004479,0.00007091,-0.00085690,0.0
 0012227,-0.00000690,0.00019275,-0.00013070,0.00002283,0.00018526,-0.00
 003752,-0.00016516,0.00022260,-0.00002466,0.00003274,-0.00001634,0.000
 02871,0.00001961,-0.00001326,-0.12571634,-0.11019305,-0.04613467,-0.00
 245704,-0.00596591,-0.00289510,0.01097131,0.01168865,0.00427006,0.1482
 9834,-0.00003202,-0.00001148,0.00014649,0.00001340,-0.00001579,-0.0001
 2431,-0.00000235,0.00000370,0.00001356,-0.00005891,-0.00022639,0.00036
 232,0.00003171,0.00001261,-0.00001775,-0.00021911,0.00055602,-0.000911
 85,-0.00149717,0.00599229,0.00446873,-0.00086500,-0.00019456,0.0002258
 2,0.00052724,-0.00034758,0.00058583,0.00035396,-0.00011193,-0.00023575
 ,0.00000229,0.00001372,0.00000283,0.00002100,0.00003344,-0.00015948,0.
 00002290,-0.00000478,0.00002134,-0.00001332,-0.00000360,0.00001457,-0.
 00000332,-0.00001579,0.00003121,-0.00000378,0.00000497,-0.00000386,0.0
 0000430,0.00000276,-0.00000188,-0.11459414,-0.22040299,-0.06792003,0.0
 0388929,0.00513163,0.00121691,-0.01491811,-0.01919069,-0.00973820,0.12
 734114,0.22877445,-0.00083070,-0.00001832,-0.00000645,0.00044436,-0.00
 026175,0.00072571,0.00000574,0.00005600,0.00000716,0.00056517,-0.00051
 068,-0.00106764,-0.00003088,0.00010084,0.00001755,0.00077580,0.0015121
 7,0.00428157,0.01796509,0.01679062,0.00227939,-0.00099608,0.00062237,-
 0.00016277,0.00025566,0.00157596,-0.00151168,0.00054768,-0.00040561,-0
 .00082729,0.00000355,0.00005496,0.00000509,-0.00003598,0.00009882,0.00
 000785,0.00000226,-0.00000881,-0.00000837,-0.00000571,-0.00002029,0.00
 001826,0.00001091,0.00002658,-0.00002705,0.00000482,-0.00000464,0.0000
 0025,-0.00000040,-0.00000083,0.00000272,-0.05067532,-0.07216008,-0.082
 51525,-0.01556724,-0.02436522,-0.00630732,0.00208281,0.00489444,0.0020
 4032,0.04547847,0.07202348,0.08304795\\-0.00000187,0.00000356,-0.00000
 043,-0.00000476,-0.00000649,-0.00000942,-0.00000425,-0.00000885,-0.000
 00826,-0.00000075,-0.00000784,-0.00000266,0.00000356,-0.00001097,-0.00
 000905,0.00000738,0.00000249,0.00000080,0.00000866,-0.00001006,-0.0000
 0509,-0.00000034,0.00000427,0.00000023,0.00000365,0.00000768,0.0000078
 0,-0.00000473,0.00000047,0.00000678,-0.00000437,0.00001075,0.00000605,
 -0.00000850,-0.00000277,-0.00000177,-0.00001127,0.00000776,0.00000487,
 -0.00001523,-0.00000753,-0.00000649,-0.00000534,0.00000721,-0.00000399
 ,-0.00000278,0.00000449,0.00000559,-0.00000327,-0.00000483,-0.00000320
 ,0.00001147,0.00000347,0.00000463,0.00001244,-0.00000032,0.00000329,0.
 00001444,0.00000344,0.00000517,0.00000585,0.00000406,0.00000515\\\@
 The archive entry for this job was punched.


 IT IS A QUALITY OF REVOLUTIONS NOT TO GO BY OLD LINES OR OLD LAWS,
 BUT TO BREAK UP BOTH, AND MAKE NEW ONES.
                                              -- A. LINCOLN (1848)
 Job cpu time:       0 days  1 hours  0 minutes 17.2 seconds.
 Elapsed time:       0 days  0 hours  3 minutes 50.2 seconds.
 File lengths (MBytes):  RWF=    203 Int=      0 D2E=      0 Chk=     12 Scr=      1
 Normal termination of Gaussian 16 at Wed Jun 29 10:34:39 2022.
