 Entering Gaussian System, Link 0=g16
 AtFile(1): /home/561/yj5695/Basis/6-31pGd.gbs
 Initial command:
 /apps/gaussian/g16c01/g16/l1.exe "/jobfs/48733085.gadi-pbs/Gau-1731491.inp" -scrdir="/jobfs/48733085.gadi-pbs/"
 Entering Link 1 = /apps/gaussian/g16c01/g16/l1.exe PID=   1731492.
  
 Copyright (c) 1988-2019, Gaussian, Inc.  All Rights Reserved.
  
 This is part of the Gaussian(R) 16 program.  It is based on
 the Gaussian(R) 09 system (copyright 2009, Gaussian, Inc.),
 the Gaussian(R) 03 system (copyright 2003, Gaussian, Inc.),
 the Gaussian(R) 98 system (copyright 1998, Gaussian, Inc.),
 the Gaussian(R) 94 system (copyright 1995, Gaussian, Inc.),
 the Gaussian 92(TM) system (copyright 1992, Gaussian, Inc.),
 the Gaussian 90(TM) system (copyright 1990, Gaussian, Inc.),
 the Gaussian 88(TM) system (copyright 1988, Gaussian, Inc.),
 the Gaussian 86(TM) system (copyright 1986, Carnegie Mellon
 University), and the Gaussian 82(TM) system (copyright 1983,
 Carnegie Mellon University). Gaussian is a federally registered
 trademark of Gaussian, Inc.
  
 This software contains proprietary and confidential information,
 including trade secrets, belonging to Gaussian, Inc.
  
 This software is provided under written license and may be
 used, copied, transmitted, or stored only in accord with that
 written license.
  
 The following legend is applicable only to US Government
 contracts under FAR:
  
                    RESTRICTED RIGHTS LEGEND
  
 Use, reproduction and disclosure by the US Government is
 subject to restrictions as set forth in subparagraphs (a)
 and (c) of the Commercial Computer Software - Restricted
 Rights clause in FAR 52.227-19.
  
 Gaussian, Inc.
 340 Quinnipiac St., Bldg. 40, Wallingford CT 06492
  
  
 ---------------------------------------------------------------
 Warning -- This program may not be used in any manner that
 competes with the business of Gaussian, Inc. or will provide
 assistance to any competitor of Gaussian, Inc.  The licensee
 of this program is prohibited from giving any competitor of
 Gaussian, Inc. access to this program.  By using this program,
 the user acknowledges that Gaussian, Inc. is engaged in the
 business of creating and licensing software in the field of
 computational chemistry and represents and warrants to the
 licensee that it is not a competitor of Gaussian, Inc. and that
 it will not use this program in any manner prohibited above.
 ---------------------------------------------------------------
  

 Cite this work as:
 Gaussian 16, Revision C.01,
 M. J. Frisch, G. W. Trucks, H. B. Schlegel, G. E. Scuseria, 
 M. A. Robb, J. R. Cheeseman, G. Scalmani, V. Barone, 
 G. A. Petersson, H. Nakatsuji, X. Li, M. Caricato, A. V. Marenich, 
 J. Bloino, B. G. Janesko, R. Gomperts, B. Mennucci, H. P. Hratchian, 
 J. V. Ortiz, A. F. Izmaylov, J. L. Sonnenberg, D. Williams-Young, 
 F. Ding, F. Lipparini, F. Egidi, J. Goings, B. Peng, A. Petrone, 
 T. Henderson, D. Ranasinghe, V. G. Zakrzewski, J. Gao, N. Rega, 
 G. Zheng, W. Liang, M. Hada, M. Ehara, K. Toyota, R. Fukuda, 
 J. Hasegawa, M. Ishida, T. Nakajima, Y. Honda, O. Kitao, H. Nakai, 
 T. Vreven, K. Throssell, J. A. Montgomery, Jr., J. E. Peralta, 
 F. Ogliaro, M. J. Bearpark, J. J. Heyd, E. N. Brothers, K. N. Kudin, 
 V. N. Staroverov, T. A. Keith, R. Kobayashi, J. Normand, 
 K. Raghavachari, A. P. Rendell, J. C. Burant, S. S. Iyengar, 
 J. Tomasi, M. Cossi, J. M. Millam, M. Klene, C. Adamo, R. Cammi, 
 J. W. Ochterski, R. L. Martin, K. Morokuma, O. Farkas, 
 J. B. Foresman, and D. J. Fox, Gaussian, Inc., Wallingford CT, 2019.
 
 ******************************************
 Gaussian 16:  ES64L-G16RevC.01  3-Jul-2019
                29-Jun-2022 
 ******************************************
 %nproc=16
 Will use up to   16 processors via shared memory.
 %mem=40gb
 --------------------------------------------------
 #M062X/gen 6D INT(grid=ultrafine) OPT Freq=noraman
 --------------------------------------------------
 1/18=20,19=15,26=4,38=1/1,3;
 2/9=110,12=2,17=6,18=5,40=1/2;
 3/5=7,8=2,11=2,25=1,30=1,71=1,74=-55,75=-5/1,2,3;
 4//1;
 5/5=2,38=5/2;
 6/7=2,8=2,9=2,10=2,28=1/1;
 7//1,2,3,16;
 1/18=20,19=15,26=4/3(2);
 2/9=110/2;
 99//99;
 2/9=110/2;
 3/5=7,6=1,8=2,11=2,25=1,30=1,71=1,74=-55,75=-5,82=7/1,2,3;
 4/5=5,16=3,69=1/1;
 5/5=2,38=5/2;
 7//1,2,3,16;
 1/18=20,19=15,26=4/3(-5);
 2/9=110/2;
 6/7=2,8=2,9=2,10=2,19=2,28=1/1;
 99/9=1/99;
 ---------
 A.11.freq
 ---------
 Symbolic Z-matrix:
 Charge = -1 Multiplicity = 1
 C                    -1.38649   0.72125  -1.01698 
 C                    -2.55506   1.04263  -1.70324 
 H                    -3.47113   1.24246  -1.15581 
 C                    -2.53166   1.11918  -3.09564 
 H                    -3.4397    1.37997  -3.6351 
 C                    -1.35506   0.8711   -3.80895 
 C                    -1.35026   0.89179  -5.32003 
 C                    -0.19244   0.54535  -3.09972 
 H                     0.73083   0.35626  -3.64348 
 C                    -0.20194   0.46752  -1.70971 
 H                     0.70807   0.22272  -1.16838 
 S                    -1.4108    0.5381    0.77352 
 O                    -0.11839   1.15424   1.2084 
 O                    -2.61339   1.28935   1.22626 
 N                    -1.57982  -0.97007   1.15617 
 H                    -0.70278  -1.44892   0.93252 
 N                    -1.61679  -0.41608  -5.93827 
 H                    -2.10654   1.59494  -5.67934 
 H                    -0.37856   1.24164  -5.67942 
 H                    -2.51579  -0.75612  -5.59634 
 H                    -0.92494  -1.08215  -5.59391 
 

 GradGradGradGradGradGradGradGradGradGradGradGradGradGradGradGradGradGrad
 Berny optimization.
 Initialization pass.
                           ----------------------------
                           !    Initial Parameters    !
                           ! (Angstroms and Degrees)  !
 --------------------------                            --------------------------
 ! Name  Definition              Value          Derivative Info.                !
 --------------------------------------------------------------------------------
 ! R1    R(1,2)                  1.3928         estimate D2E/DX2                !
 ! R2    R(1,10)                 1.3955         estimate D2E/DX2                !
 ! R3    R(1,12)                 1.8            estimate D2E/DX2                !
 ! R4    R(2,3)                  1.0857         estimate D2E/DX2                !
 ! R5    R(2,4)                  1.3947         estimate D2E/DX2                !
 ! R6    R(4,5)                  1.0879         estimate D2E/DX2                !
 ! R7    R(4,6)                  1.3981         estimate D2E/DX2                !
 ! R8    R(6,7)                  1.5112         estimate D2E/DX2                !
 ! R9    R(6,8)                  1.4003         estimate D2E/DX2                !
 ! R10   R(7,17)                 1.471          estimate D2E/DX2                !
 ! R11   R(7,18)                 1.0934         estimate D2E/DX2                !
 ! R12   R(7,19)                 1.0935         estimate D2E/DX2                !
 ! R13   R(8,9)                  1.088          estimate D2E/DX2                !
 ! R14   R(8,10)                 1.3922         estimate D2E/DX2                !
 ! R15   R(10,11)                1.0868         estimate D2E/DX2                !
 ! R16   R(12,13)                1.4964         estimate D2E/DX2                !
 ! R17   R(12,14)                1.4885         estimate D2E/DX2                !
 ! R18   R(12,15)                1.5651         estimate D2E/DX2                !
 ! R19   R(15,16)                1.024          estimate D2E/DX2                !
 ! R20   R(17,20)                1.0202         estimate D2E/DX2                !
 ! R21   R(17,21)                1.0202         estimate D2E/DX2                !
 ! A1    A(2,1,10)             120.6347         estimate D2E/DX2                !
 ! A2    A(2,1,12)             120.1508         estimate D2E/DX2                !
 ! A3    A(10,1,12)            119.1268         estimate D2E/DX2                !
 ! A4    A(1,2,3)              120.1296         estimate D2E/DX2                !
 ! A5    A(1,2,4)              119.3741         estimate D2E/DX2                !
 ! A6    A(3,2,4)              120.4925         estimate D2E/DX2                !
 ! A7    A(2,4,5)              119.6172         estimate D2E/DX2                !
 ! A8    A(2,4,6)              120.9128         estimate D2E/DX2                !
 ! A9    A(5,4,6)              119.4694         estimate D2E/DX2                !
 ! A10   A(4,6,7)              120.6899         estimate D2E/DX2                !
 ! A11   A(4,6,8)              118.7894         estimate D2E/DX2                !
 ! A12   A(7,6,8)              120.463          estimate D2E/DX2                !
 ! A13   A(6,7,17)             114.0478         estimate D2E/DX2                !
 ! A14   A(6,7,18)             109.5843         estimate D2E/DX2                !
 ! A15   A(6,7,19)             109.6234         estimate D2E/DX2                !
 ! A16   A(17,7,18)            107.9591         estimate D2E/DX2                !
 ! A17   A(17,7,19)            107.8985         estimate D2E/DX2                !
 ! A18   A(18,7,19)            107.5112         estimate D2E/DX2                !
 ! A19   A(6,8,9)              119.4614         estimate D2E/DX2                !
 ! A20   A(6,8,10)             120.8656         estimate D2E/DX2                !
 ! A21   A(9,8,10)             119.6722         estimate D2E/DX2                !
 ! A22   A(1,10,8)             119.4221         estimate D2E/DX2                !
 ! A23   A(1,10,11)            120.2962         estimate D2E/DX2                !
 ! A24   A(8,10,11)            120.2778         estimate D2E/DX2                !
 ! A25   A(1,12,13)            103.6229         estimate D2E/DX2                !
 ! A26   A(1,12,14)            105.1958         estimate D2E/DX2                !
 ! A27   A(1,12,15)            110.0418         estimate D2E/DX2                !
 ! A28   A(13,12,14)           113.6778         estimate D2E/DX2                !
 ! A29   A(13,12,15)           114.7712         estimate D2E/DX2                !
 ! A30   A(14,12,15)           108.9497         estimate D2E/DX2                !
 ! A31   A(12,15,16)           107.7422         estimate D2E/DX2                !
 ! A32   A(7,17,20)            108.3707         estimate D2E/DX2                !
 ! A33   A(7,17,21)            108.4056         estimate D2E/DX2                !
 ! A34   A(20,17,21)           105.476          estimate D2E/DX2                !
 ! D1    D(10,1,2,3)          -179.7509         estimate D2E/DX2                !
 ! D2    D(10,1,2,4)            -0.4581         estimate D2E/DX2                !
 ! D3    D(12,1,2,3)             3.6862         estimate D2E/DX2                !
 ! D4    D(12,1,2,4)          -177.021          estimate D2E/DX2                !
 ! D5    D(2,1,10,8)             0.3679         estimate D2E/DX2                !
 ! D6    D(2,1,10,11)          179.6541         estimate D2E/DX2                !
 ! D7    D(12,1,10,8)          176.9656         estimate D2E/DX2                !
 ! D8    D(12,1,10,11)          -3.7481         estimate D2E/DX2                !
 ! D9    D(2,1,12,13)         -141.1587         estimate D2E/DX2                !
 ! D10   D(2,1,12,14)          -21.5539         estimate D2E/DX2                !
 ! D11   D(2,1,12,15)           95.6578         estimate D2E/DX2                !
 ! D12   D(10,1,12,13)          42.2268         estimate D2E/DX2                !
 ! D13   D(10,1,12,14)         161.8316         estimate D2E/DX2                !
 ! D14   D(10,1,12,15)         -80.9568         estimate D2E/DX2                !
 ! D15   D(1,2,4,5)           -179.371          estimate D2E/DX2                !
 ! D16   D(1,2,4,6)              0.3412         estimate D2E/DX2                !
 ! D17   D(3,2,4,5)             -0.0808         estimate D2E/DX2                !
 ! D18   D(3,2,4,6)            179.6314         estimate D2E/DX2                !
 ! D19   D(2,4,6,7)            177.116          estimate D2E/DX2                !
 ! D20   D(2,4,6,8)             -0.1346         estimate D2E/DX2                !
 ! D21   D(5,4,6,7)             -3.1714         estimate D2E/DX2                !
 ! D22   D(5,4,6,8)            179.578          estimate D2E/DX2                !
 ! D23   D(4,6,7,17)           -90.8552         estimate D2E/DX2                !
 ! D24   D(4,6,7,18)            30.2849         estimate D2E/DX2                !
 ! D25   D(4,6,7,19)           148.0541         estimate D2E/DX2                !
 ! D26   D(8,6,7,17)            86.3493         estimate D2E/DX2                !
 ! D27   D(8,6,7,18)          -152.5105         estimate D2E/DX2                !
 ! D28   D(8,6,7,19)           -34.7413         estimate D2E/DX2                !
 ! D29   D(4,6,8,9)           -179.6193         estimate D2E/DX2                !
 ! D30   D(4,6,8,10)             0.0422         estimate D2E/DX2                !
 ! D31   D(7,6,8,9)              3.1237         estimate D2E/DX2                !
 ! D32   D(7,6,8,10)          -177.2148         estimate D2E/DX2                !
 ! D33   D(6,7,17,20)           57.0856         estimate D2E/DX2                !
 ! D34   D(6,7,17,21)          -56.9202         estimate D2E/DX2                !
 ! D35   D(18,7,17,20)         -64.9529         estimate D2E/DX2                !
 ! D36   D(18,7,17,21)        -178.9586         estimate D2E/DX2                !
 ! D37   D(19,7,17,20)         179.1298         estimate D2E/DX2                !
 ! D38   D(19,7,17,21)          65.1241         estimate D2E/DX2                !
 ! D39   D(6,8,10,1)            -0.1578         estimate D2E/DX2                !
 ! D40   D(6,8,10,11)         -179.4443         estimate D2E/DX2                !
 ! D41   D(9,8,10,1)           179.503          estimate D2E/DX2                !
 ! D42   D(9,8,10,11)            0.2166         estimate D2E/DX2                !
 ! D43   D(1,12,15,16)          71.3805         estimate D2E/DX2                !
 ! D44   D(13,12,15,16)        -45.0081         estimate D2E/DX2                !
 ! D45   D(14,12,15,16)       -173.7689         estimate D2E/DX2                !
 --------------------------------------------------------------------------------
 Trust Radius=3.00D-01 FncErr=1.00D-07 GrdErr=1.00D-06 EigMax=2.50D+02 EigMin=1.00D-04
 Number of steps in this run=    110 maximum allowed number of steps=    126.
 GradGradGradGradGradGradGradGradGradGradGradGradGradGradGradGradGradGrad

                          Input orientation:                          
 ---------------------------------------------------------------------
 Center     Atomic      Atomic             Coordinates (Angstroms)
 Number     Number       Type             X           Y           Z
 ---------------------------------------------------------------------
      1          6           0       -1.386492    0.721250   -1.016981
      2          6           0       -2.555059    1.042632   -1.703241
      3          1           0       -3.471133    1.242457   -1.155814
      4          6           0       -2.531663    1.119179   -3.095639
      5          1           0       -3.439704    1.379972   -3.635100
      6          6           0       -1.355062    0.871102   -3.808954
      7          6           0       -1.350255    0.891794   -5.320029
      8          6           0       -0.192440    0.545347   -3.099724
      9          1           0        0.730827    0.356264   -3.643483
     10          6           0       -0.201938    0.467516   -1.709710
     11          1           0        0.708074    0.222723   -1.168383
     12         16           0       -1.410802    0.538099    0.773516
     13          8           0       -0.118389    1.154240    1.208398
     14          8           0       -2.613390    1.289354    1.226265
     15          7           0       -1.579815   -0.970066    1.156167
     16          1           0       -0.702779   -1.448916    0.932517
     17          7           0       -1.616789   -0.416076   -5.938269
     18          1           0       -2.106536    1.594939   -5.679336
     19          1           0       -0.378559    1.241638   -5.679422
     20          1           0       -2.515789   -0.756121   -5.596336
     21          1           0       -0.924944   -1.082154   -5.593914
 ---------------------------------------------------------------------
                    Distance matrix (angstroms):
                    1          2          3          4          5
     1  C    0.000000
     2  C    1.392763   0.000000
     3  H    2.153291   1.085724   0.000000
     4  C    2.406363   1.394698   2.158871   0.000000
     5  H    3.391776   2.151390   2.483296   1.087920   0.000000
     6  C    2.796168   2.429701   3.413915   1.398124   2.152883
     7  C    4.306578   3.815162   4.686339   2.528901   2.728204
     8  C    2.407180   2.789162   3.874864   2.408581   3.395283
     9  H    3.393342   3.877202   4.962893   3.394999   4.294343
    10  C    1.395500   2.422391   3.405139   2.788025   3.875930
    11  H    2.158392   3.406811   4.301835   3.874770   4.962659
    12  S    1.800004   2.774563   2.909192   4.069932   4.925555
    13  O    2.597668   3.798349   4.103434   4.934557   5.877207
    14  O    2.619194   2.940455   2.532237   4.326025   4.931924
    15  N    2.760526   3.630188   3.717203   4.832062   5.651382
    16  H    2.996269   4.072588   4.389579   5.115269   6.029635
    17  N    5.056245   4.576422   5.390844   3.357759   3.442876
    18  H    4.797848   4.039251   4.737997   2.661310   2.449989
    19  H    4.798446   4.537265   5.479693   3.365529   3.683612
    20  H    4.942512   4.288734   4.962381   3.125777   3.043510
    21  H    4.941013   4.723276   5.619931   3.697133   4.027783
                    6          7          8          9         10
     6  C    0.000000
     7  C    1.511224   0.000000
     8  C    1.400290   2.527907   0.000000
     9  H    2.154849   2.725528   1.088049   0.000000
    10  C    2.428869   3.812224   1.392224   2.149862   0.000000
    11  H    3.413143   4.681938   2.155247   2.478805   1.086775
    12  S    4.594892   6.104102   4.060350   4.912181   2.762742
    13  O    5.175263   6.648814   4.351568   4.989858   2.998987
    14  O    5.206895   6.678887   5.012856   5.980710   3.887218
    15  N    5.300269   6.742429   4.725875   5.489524   3.489762
    16  H    5.318788   6.707644   4.527306   5.123835   3.302259
    17  N    2.501861   1.470981   3.318198   3.372514   4.545684
    18  H    2.141724   1.093378   3.379320   3.705353   4.544943
    19  H    2.142313   1.093502   2.678489   2.481868   4.048342
    20  H    2.681394   2.037262   3.650320   3.948614   4.685835
    21  H    2.680726   2.037737   3.066971   2.935099   4.243967
                   11         12         13         14         15
    11  H    0.000000
    12  S    2.891378   0.000000
    13  O    2.683254   1.496357   0.000000
    14  O    4.231331   1.488484   2.498721   0.000000
    15  N    3.472854   1.565104   2.578986   2.485593   0.000000
    16  H    3.032930   2.115373   2.682171   3.351842   1.023967
    17  N    5.344610   6.782399   7.468998   7.431840   7.116129
    18  H    5.491239   6.575732   7.182466   6.930917   7.319890
    19  H    4.750624   6.572739   6.893286   7.258461   7.284225
    20  H    5.564009   6.593255   7.463337   7.123298   6.820419
    21  H    4.894362   6.588281   7.205792   7.415507   6.782700
                   16         17         18         19         20
    16  H    0.000000
    17  N    7.007843   0.000000
    18  H    7.412975   2.085925   0.000000
    19  H    7.145764   2.085241   1.763725   0.000000
    20  H    6.811233   1.020171   2.387857   2.926720   0.000000
    21  H    6.540503   1.020239   2.927505   2.388694   1.623912
                   21
    21  H    0.000000
 Stoichiometry    C7H9N2O2S(1-)
 Framework group  C1[X(C7H9N2O2S)]
 Deg. of freedom    57
 Full point group                 C1      NOp   1
 Largest Abelian subgroup         C1      NOp   1
 Largest concise Abelian subgroup C1      NOp   1
                         Standard orientation:                         
 ---------------------------------------------------------------------
 Center     Atomic      Atomic             Coordinates (Angstroms)
 Number     Number       Type             X           Y           Z
 ---------------------------------------------------------------------
      1          6           0        0.546571    0.024455   -0.140352
      2          6           0       -0.142255    1.234945   -0.144974
      3          1           0        0.401867    2.171891   -0.075262
      4          6           0       -1.532617    1.230469   -0.254762
      5          1           0       -2.073849    2.174096   -0.269125
      6          6           0       -2.241513    0.029381   -0.352767
      7          6           0       -3.751787    0.027282   -0.406298
      8          6           0       -1.529855   -1.176536   -0.341824
      9          1           0       -2.070039   -2.117461   -0.423754
     10          6           0       -0.141794   -1.185786   -0.234648
     11          1           0        0.401640   -2.126933   -0.236172
     12         16           0        2.332800    0.001508    0.080726
     13          8           0        2.790035   -1.072494   -0.855510
     14          8           0        2.791054    1.364529   -0.303674
     15          7           0        2.683864   -0.247163    1.585541
     16          1           0        2.457555   -1.222120    1.801765
     17          7           0       -4.398140   -0.074929    0.911110
     18          1           0       -4.102867    0.946151   -0.883686
     19          1           0       -4.096484   -0.812606   -1.015822
     20          1           0       -4.070133    0.697670    1.490982
     21          1           0       -4.061772   -0.921717    1.370126
 ---------------------------------------------------------------------
 Rotational constants (GHZ):           2.3114188           0.4070388           0.3865998
 General basis read from cards:  (6D, 7F)
 There are   250 symmetry adapted cartesian basis functions of A   symmetry.
 There are   250 symmetry adapted basis functions of A   symmetry.
   250 basis functions,   444 primitive gaussians,   250 cartesian basis functions
    49 alpha electrons       49 beta electrons
       nuclear repulsion energy       802.4027653199 Hartrees.
 NAtoms=   21 NActive=   21 NUniq=   21 SFac= 1.00D+00 NAtFMM=   60 NAOKFM=F Big=F
 Integral buffers will be    131072 words long.
 Raffenetti 2 integral format.
 Two-electron integral symmetry is turned on.
 One-electron integrals computed using PRISM.
 NBasis=   250 RedAO= T EigKep=  1.95D-06  NBF=   250
 NBsUse=   250 1.00D-06 EigRej= -1.00D+00 NBFU=   250
 ExpMin= 4.05D-02 ExpMax= 2.19D+04 ExpMxC= 3.30D+03 IAcc=3 IRadAn=         5 AccDes= 0.00D+00
 Harris functional with IExCor= 1009 and IRadAn=       5 diagonalized for initial guess.
 HarFok:  IExCor= 1009 AccDes= 0.00D+00 IRadAn=         5 IDoV= 1 UseB2=F ITyADJ=14
 ICtDFT=  3500011 ScaDFX=  1.000000  1.000000  1.000000  1.000000
 FoFCou: FMM=F IPFlag=           0 FMFlag=      100000 FMFlg1=           0
         NFxFlg=           0 DoJE=T BraDBF=F KetDBF=T FulRan=T
         wScrn=  0.000000 ICntrl=       500 IOpCl=  0 I1Cent=   200000004 NGrid=           0
         NMat0=    1 NMatS0=      1 NMatT0=    0 NMatD0=    1 NMtDS0=    0 NMtDT0=    0
 Petite list used in FoFCou.
 Requested convergence on RMS density matrix=1.00D-08 within 128 cycles.
 Requested convergence on MAX density matrix=1.00D-06.
 Requested convergence on             energy=1.00D-06.
 No special actions if energy rises.
 SCF Done:  E(RM062X) =  -930.035740878     A.U. after   17 cycles
            NFock= 17  Conv=0.25D-08     -V/T= 2.0064

 **********************************************************************

            Population analysis using the SCF Density.

 **********************************************************************

 Orbital symmetries:
       Occupied  (A) (A) (A) (A) (A) (A) (A) (A) (A) (A) (A) (A)
                 (A) (A) (A) (A) (A) (A) (A) (A) (A) (A) (A) (A)
                 (A) (A) (A) (A) (A) (A) (A) (A) (A) (A) (A) (A)
                 (A) (A) (A) (A) (A) (A) (A) (A) (A) (A) (A) (A)
                 (A)
       Virtual   (A) (A) (A) (A) (A) (A) (A) (A) (A) (A) (A) (A)
                 (A) (A) (A) (A) (A) (A) (A) (A) (A) (A) (A) (A)
                 (A) (A) (A) (A) (A) (A) (A) (A) (A) (A) (A) (A)
                 (A) (A) (A) (A) (A) (A) (A) (A) (A) (A) (A) (A)
                 (A) (A) (A) (A) (A) (A) (A) (A) (A) (A) (A) (A)
                 (A) (A) (A) (A) (A) (A) (A) (A) (A) (A) (A) (A)
                 (A) (A) (A) (A) (A) (A) (A) (A) (A) (A) (A) (A)
                 (A) (A) (A) (A) (A) (A) (A) (A) (A) (A) (A) (A)
                 (A) (A) (A) (A) (A) (A) (A) (A) (A) (A) (A) (A)
                 (A) (A) (A) (A) (A) (A) (A) (A) (A) (A) (A) (A)
                 (A) (A) (A) (A) (A) (A) (A) (A) (A) (A) (A) (A)
                 (A) (A) (A) (A) (A) (A) (A) (A) (A) (A) (A) (A)
                 (A) (A) (A) (A) (A) (A) (A) (A) (A) (A) (A) (A)
                 (A) (A) (A) (A) (A) (A) (A) (A) (A) (A) (A) (A)
                 (A) (A) (A) (A) (A) (A) (A) (A) (A) (A) (A) (A)
                 (A) (A) (A) (A) (A) (A) (A) (A) (A) (A) (A) (A)
                 (A) (A) (A) (A) (A) (A) (A) (A) (A)
 The electronic state is 1-A.
 Alpha  occ. eigenvalues --  -89.96585 -19.44458 -19.44320 -14.66822 -14.55461
 Alpha  occ. eigenvalues --  -10.49080 -10.45892 -10.45503 -10.45387 -10.44894
 Alpha  occ. eigenvalues --  -10.44775 -10.44530  -8.27439  -6.19650  -6.19607
 Alpha  occ. eigenvalues --   -6.19534  -1.03212  -0.91444  -0.91314  -0.85489
 Alpha  occ. eigenvalues --   -0.79384  -0.75414  -0.74045  -0.66583  -0.58984
 Alpha  occ. eigenvalues --   -0.57874  -0.52470  -0.48939  -0.47001  -0.42757
 Alpha  occ. eigenvalues --   -0.41929  -0.41127  -0.40016  -0.38529  -0.37794
 Alpha  occ. eigenvalues --   -0.35134  -0.33897  -0.33735  -0.32152  -0.29596
 Alpha  occ. eigenvalues --   -0.24512  -0.23632  -0.21808  -0.20485  -0.20008
 Alpha  occ. eigenvalues --   -0.19456  -0.17746  -0.15643  -0.12387
 Alpha virt. eigenvalues --    0.09173   0.10960   0.11367   0.11685   0.12157
 Alpha virt. eigenvalues --    0.12553   0.14427   0.14973   0.16689   0.17168
 Alpha virt. eigenvalues --    0.18055   0.18603   0.18831   0.20235   0.20414
 Alpha virt. eigenvalues --    0.20767   0.20882   0.22836   0.23077   0.23760
 Alpha virt. eigenvalues --    0.24288   0.24795   0.26584   0.26710   0.27282
 Alpha virt. eigenvalues --    0.27739   0.28535   0.28925   0.29108   0.29888
 Alpha virt. eigenvalues --    0.30493   0.30723   0.31643   0.32114   0.32647
 Alpha virt. eigenvalues --    0.33723   0.34475   0.35174   0.35309   0.35550
 Alpha virt. eigenvalues --    0.36320   0.36695   0.37455   0.38083   0.38592
 Alpha virt. eigenvalues --    0.39309   0.40282   0.40526   0.41220   0.42407
 Alpha virt. eigenvalues --    0.42893   0.43327   0.43865   0.44273   0.45651
 Alpha virt. eigenvalues --    0.46093   0.46949   0.48180   0.48611   0.49618
 Alpha virt. eigenvalues --    0.49889   0.51182   0.52367   0.53682   0.53883
 Alpha virt. eigenvalues --    0.54867   0.55418   0.56521   0.57843   0.62127
 Alpha virt. eigenvalues --    0.69633   0.74037   0.77486   0.78152   0.78817
 Alpha virt. eigenvalues --    0.83154   0.83732   0.83980   0.84370   0.86069
 Alpha virt. eigenvalues --    0.87694   0.88029   0.89255   0.91698   0.92121
 Alpha virt. eigenvalues --    0.92990   0.93289   0.93657   0.96432   0.98406
 Alpha virt. eigenvalues --    1.01729   1.04774   1.06270   1.07811   1.08833
 Alpha virt. eigenvalues --    1.09342   1.10393   1.11588   1.14786   1.15081
 Alpha virt. eigenvalues --    1.16927   1.18007   1.19745   1.22372   1.23262
 Alpha virt. eigenvalues --    1.23790   1.25073   1.26529   1.27221   1.28457
 Alpha virt. eigenvalues --    1.29184   1.30315   1.32278   1.34670   1.37077
 Alpha virt. eigenvalues --    1.37980   1.39322   1.40138   1.42807   1.45332
 Alpha virt. eigenvalues --    1.50096   1.51372   1.52835   1.54446   1.55323
 Alpha virt. eigenvalues --    1.56406   1.57921   1.59599   1.60409   1.62771
 Alpha virt. eigenvalues --    1.63064   1.64445   1.65240   1.66751   1.68991
 Alpha virt. eigenvalues --    1.75815   1.77545   1.84956   1.87139   1.87497
 Alpha virt. eigenvalues --    1.93292   1.97937   1.99106   1.99457   1.99571
 Alpha virt. eigenvalues --    2.01482   2.02752   2.07141   2.08629   2.09791
 Alpha virt. eigenvalues --    2.12291   2.15614   2.17119   2.17394   2.19378
 Alpha virt. eigenvalues --    2.19759   2.20202   2.23735   2.26232   2.28581
 Alpha virt. eigenvalues --    2.29015   2.30828   2.34347   2.38181   2.38511
 Alpha virt. eigenvalues --    2.42162   2.43694   2.45030   2.45318   2.50933
 Alpha virt. eigenvalues --    2.52356   2.52497   2.57963   2.61855   2.64835
 Alpha virt. eigenvalues --    2.74149   2.78410   2.79069   2.80160   2.87201
 Alpha virt. eigenvalues --    2.89617   2.89884   2.92089   2.96371   3.05935
 Alpha virt. eigenvalues --    3.07349   3.11286   3.20407   3.50198   4.07506
 Alpha virt. eigenvalues --    4.15994   4.27218   4.37954   4.39212   4.44114
 Alpha virt. eigenvalues --    4.45014   4.47206   4.53770   4.55122   4.62563
 Alpha virt. eigenvalues --    4.85501
          Condensed to atoms (all electrons):
               1          2          3          4          5          6
     1  C   39.632119 -14.461276   0.068763  -1.823282   0.006491  -6.133102
     2  C  -14.461276  55.235652   0.279900  -4.097106   0.026403   3.646984
     3  H    0.068763   0.279900   0.450947  -0.081734  -0.003734   0.009320
     4  C   -1.823282  -4.097106  -0.081734  16.429321   0.145058  -1.085980
     5  H    0.006491   0.026403  -0.003734   0.145058   0.533286   0.137848
     6  C   -6.133102   3.646984   0.009320  -1.085980   0.137848  14.189615
     7  C   -0.689026   0.911661  -0.000541  -0.716070  -0.075428  -3.103921
     8  C   -0.321171   1.971096  -0.034265  -3.342507   0.092429  -1.616858
     9  H    0.034417  -0.026185   0.000015   0.079884  -0.000158   0.106986
    10  C   -5.931311 -37.039890   0.059619   0.346787  -0.051071  -0.083252
    11  H    0.119741   0.090707  -0.000127  -0.038008   0.000016  -0.006647
    12  S   -2.587284  -0.265100   0.001643   0.312605   0.004130  -0.072854
    13  O    0.011589  -0.142766   0.001115   0.102889   0.000025  -0.054472
    14  O   -0.384432  -0.242055   0.002453   0.076075   0.000334  -0.012914
    15  N   -0.093819   0.525233  -0.000148  -0.040830   0.000138   0.066364
    16  H   -0.103229   0.068789  -0.000011   0.002566   0.000000  -0.000162
    17  N    0.032826   0.102693   0.000064  -0.016422   0.002762   0.173732
    18  H   -0.004387   0.027489  -0.000004  -0.059206   0.002720  -0.036271
    19  H    0.000228  -0.009103   0.000002   0.006577   0.000083  -0.012850
    20  H    0.004636  -0.011414   0.000002  -0.018059  -0.000078   0.064191
    21  H    0.001900   0.004984   0.000000   0.019015   0.000029   0.044410
               7          8          9         10         11         12
     1  C   -0.689026  -0.321171   0.034417  -5.931311   0.119741  -2.587284
     2  C    0.911661   1.971096  -0.026185 -37.039890   0.090707  -0.265100
     3  H   -0.000541  -0.034265   0.000015   0.059619  -0.000127   0.001643
     4  C   -0.716070  -3.342507   0.079884   0.346787  -0.038008   0.312605
     5  H   -0.075428   0.092429  -0.000158  -0.051071   0.000016   0.004130
     6  C   -3.103921  -1.616858   0.106986  -0.083252  -0.006647  -0.072854
     7  C   10.101197   0.811561  -0.056246  -1.126550  -0.001826  -0.175926
     8  C    0.811561  20.006771   0.162827 -11.457019  -0.113388   0.030455
     9  H   -0.056246   0.162827   0.533791  -0.017220  -0.003794   0.002320
    10  C   -1.126550 -11.457019  -0.017220  59.178562   0.239219   1.237913
    11  H   -0.001826  -0.113388  -0.003794   0.239219   0.472078   0.006467
    12  S   -0.175926   0.030455   0.002320   1.237913   0.006467  15.429511
    13  O   -0.010864   0.004326   0.000061  -0.043453   0.004920   0.181946
    14  O   -0.004829   0.087440   0.000033   0.182058   0.000757   0.320400
    15  N   -0.000102  -0.069714   0.000048  -0.289854   0.001099   0.027028
    16  H   -0.000293   0.003252  -0.000000  -0.051685  -0.000564   0.139953
    17  N   -0.388262   0.037880   0.002635  -0.007936   0.000069   0.003949
    18  H    0.408209   0.017977   0.000074  -0.008341   0.000002   0.000014
    19  H    0.394274  -0.041644   0.002342   0.011182  -0.000002   0.000120
    20  H   -0.088706   0.007184   0.000039   0.004539   0.000000   0.000123
    21  H   -0.082404  -0.027323  -0.000085  -0.003576   0.000002   0.000093
              13         14         15         16         17         18
     1  C    0.011589  -0.384432  -0.093819  -0.103229   0.032826  -0.004387
     2  C   -0.142766  -0.242055   0.525233   0.068789   0.102693   0.027489
     3  H    0.001115   0.002453  -0.000148  -0.000011   0.000064  -0.000004
     4  C    0.102889   0.076075  -0.040830   0.002566  -0.016422  -0.059206
     5  H    0.000025   0.000334   0.000138   0.000000   0.002762   0.002720
     6  C   -0.054472  -0.012914   0.066364  -0.000162   0.173732  -0.036271
     7  C   -0.010864  -0.004829  -0.000102  -0.000293  -0.388262   0.408209
     8  C    0.004326   0.087440  -0.069714   0.003252   0.037880   0.017977
     9  H    0.000061   0.000033   0.000048  -0.000000   0.002635   0.000074
    10  C   -0.043453   0.182058  -0.289854  -0.051685  -0.007936  -0.008341
    11  H    0.004920   0.000757   0.001099  -0.000564   0.000069   0.000002
    12  S    0.181946   0.320400   0.027028   0.139953   0.003949   0.000014
    13  O    8.914091  -0.133050  -0.206048  -0.021260  -0.000043  -0.000001
    14  O   -0.133050   8.945415  -0.190520   0.021570  -0.000031   0.000001
    15  N   -0.206048  -0.190520   7.880167   0.157053   0.000407   0.000002
    16  H   -0.021260   0.021570   0.157053   0.456325  -0.000010  -0.000000
    17  N   -0.000043  -0.000031   0.000407  -0.000010   7.377246  -0.043869
    18  H   -0.000001   0.000001   0.000002  -0.000000  -0.043869   0.519482
    19  H    0.000001  -0.000000   0.000004  -0.000000  -0.047575  -0.028531
    20  H    0.000000  -0.000000  -0.000000   0.000000   0.313756  -0.006445
    21  H   -0.000000   0.000000   0.000001   0.000000   0.318645   0.005309
              19         20         21
     1  C    0.000228   0.004636   0.001900
     2  C   -0.009103  -0.011414   0.004984
     3  H    0.000002   0.000002   0.000000
     4  C    0.006577  -0.018059   0.019015
     5  H    0.000083  -0.000078   0.000029
     6  C   -0.012850   0.064191   0.044410
     7  C    0.394274  -0.088706  -0.082404
     8  C   -0.041644   0.007184  -0.027323
     9  H    0.002342   0.000039  -0.000085
    10  C    0.011182   0.004539  -0.003576
    11  H   -0.000002   0.000000   0.000002
    12  S    0.000120   0.000123   0.000093
    13  O    0.000001   0.000000  -0.000000
    14  O   -0.000000  -0.000000   0.000000
    15  N    0.000004  -0.000000   0.000001
    16  H   -0.000000   0.000000   0.000000
    17  N   -0.047575   0.313756   0.318645
    18  H   -0.028531  -0.006445   0.005309
    19  H    0.518628   0.005259  -0.006376
    20  H    0.005259   0.368525  -0.041033
    21  H   -0.006376  -0.041033   0.370698
 Mulliken charges:
               1
     1  C   -1.380391
     2  C   -0.596697
     3  H    0.246722
     4  C   -0.201571
     5  H    0.178718
     6  C   -0.220164
     7  C   -0.105906
     8  C   -0.209308
     9  H    0.178216
    10  C    0.851278
    11  H    0.229280
    12  S    1.402495
    13  O   -0.609006
    14  O   -0.668703
    15  N   -0.766507
    16  H    0.327707
    17  N   -0.862515
    18  H    0.205776
    19  H    0.207384
    20  H    0.397479
    21  H    0.395712
 Sum of Mulliken charges =  -1.00000
 Mulliken charges with hydrogens summed into heavy atoms:
               1
     1  C   -1.380391
     2  C   -0.349975
     4  C   -0.022853
     6  C   -0.220164
     7  C    0.307253
     8  C   -0.031091
    10  C    1.080559
    12  S    1.402495
    13  O   -0.609006
    14  O   -0.668703
    15  N   -0.438800
    17  N   -0.069324
 Electronic spatial extent (au):  <R**2>=           2910.4276
 Charge=             -1.0000 electrons
 Dipole moment (field-independent basis, Debye):
    X=            -11.2947    Y=             -1.2680    Z=             -0.1436  Tot=             11.3666
 Quadrupole moment (field-independent basis, Debye-Ang):
   XX=           -142.4743   YY=            -81.7178   ZZ=            -91.5638
   XY=             -3.5973   XZ=              0.0862   YZ=             -3.1652
 Traceless Quadrupole moment (field-independent basis, Debye-Ang):
   XX=            -37.2224   YY=             23.5342   ZZ=             13.6882
   XY=             -3.5973   XZ=              0.0862   YZ=             -3.1652
 Octapole moment (field-independent basis, Debye-Ang**2):
  XXX=              1.3282  YYY=             -4.6558  ZZZ=             -6.2911  XYY=            -24.8948
  XXY=             -5.9328  XXZ=            -20.8371  XZZ=            -23.9103  YZZ=             -2.3614
  YYZ=              8.0977  XYZ=             -9.1574
 Hexadecapole moment (field-independent basis, Debye-Ang**3):
 XXXX=          -4345.3309 YYYY=           -473.5693 ZZZZ=           -342.5472 XXXY=            -25.8292
 XXXZ=             65.4079 YYYX=            -10.9680 YYYZ=             -4.8307 ZZZX=            -64.6239
 ZZZY=            -11.2545 XXYY=           -631.8795 XXZZ=           -647.5610 YYZZ=           -134.6726
 XXYZ=            -18.9256 YYXZ=              7.6877 ZZXY=             -4.1116
 N-N= 8.024027653199D+02 E-N=-3.803690838641D+03  KE= 9.240972938040D+02
 Calling FoFJK, ICntrl=      2127 FMM=F ISym2X=0 I1Cent= 0 IOpClX= 0 NMat=1 NMatS=1 NMatT=0.
 ***** Axes restored to original set *****
 -------------------------------------------------------------------
 Center     Atomic                   Forces (Hartrees/Bohr)
 Number     Number              X              Y              Z
 -------------------------------------------------------------------
      1        6           0.000039408   -0.001289397   -0.000793221
      2        6           0.000984441    0.000126635   -0.004127400
      3        1           0.001732348   -0.000193257    0.003076187
      4        6           0.002609212   -0.000950652    0.001045920
      5        1          -0.000938999    0.000573720   -0.001052327
      6        6           0.000356039    0.001762115    0.000088783
      7        6          -0.000298567   -0.002055195    0.004587482
      8        6          -0.002237585    0.000115118    0.000806244
      9        1           0.001196567    0.000185716   -0.001102559
     10        6          -0.001959509    0.000363731   -0.004382935
     11        1          -0.001174129    0.001285390    0.002243870
     12       16          -0.002691067    0.013925856    0.037739893
     13        8          -0.004075950   -0.006122327   -0.011992504
     14        8           0.006238628   -0.005498654   -0.012379513
     15        7          -0.000627770   -0.004430188   -0.008782820
     16        1           0.000773143    0.001724309    0.001538511
     17        7          -0.000038471   -0.000363311   -0.002327935
     18        1          -0.000784920    0.000565778   -0.001933974
     19        1           0.000979750    0.000206645   -0.002015880
     20        1           0.001000736   -0.000200769   -0.000082155
     21        1          -0.001083304    0.000268737   -0.000153666
 -------------------------------------------------------------------
 Cartesian Forces:  Max     0.037739893 RMS     0.006014060

 GradGradGradGradGradGradGradGradGradGradGradGradGradGradGradGradGradGrad
 Berny optimization.
 FormGI is forming the generalized inverse of G from B-inverse, IUseBI=4.
 Internal  Forces:  Max     0.012835313 RMS     0.003231393
 Search for a local minimum.
 Step number   1 out of a maximum of  110
 All quantities printed in internal units (Hartrees-Bohrs-Radians)
 Mixed Optimization -- RFO/linear search
 Second derivative matrix not updated -- first step.
 ITU=  0
     Eigenvalues ---    0.00370   0.00617   0.00753   0.01430   0.01541
     Eigenvalues ---    0.02108   0.02134   0.02140   0.02157   0.02165
     Eigenvalues ---    0.02172   0.02176   0.03081   0.04718   0.04807
     Eigenvalues ---    0.06449   0.10199   0.10326   0.11836   0.13408
     Eigenvalues ---    0.15999   0.15999   0.16000   0.16000   0.16000
     Eigenvalues ---    0.16000   0.16000   0.17131   0.21657   0.22000
     Eigenvalues ---    0.22042   0.22968   0.23981   0.24956   0.24969
     Eigenvalues ---    0.25000   0.26116   0.31228   0.34411   0.34425
     Eigenvalues ---    0.35039   0.35054   0.35188   0.35312   0.35623
     Eigenvalues ---    0.42131   0.42228   0.43711   0.44300   0.44311
     Eigenvalues ---    0.45924   0.46177   0.46617   0.46810   0.58605
     Eigenvalues ---    0.77896   0.80620
 RFO step:  Lambda=-5.38023881D-03 EMin= 3.70242781D-03
 Linear search not attempted -- first point.
 Iteration  1 RMS(Cart)=  0.02820017 RMS(Int)=  0.00107098
 Iteration  2 RMS(Cart)=  0.00088295 RMS(Int)=  0.00061878
 Iteration  3 RMS(Cart)=  0.00000074 RMS(Int)=  0.00061878
 Variable       Old X    -DE/DX   Delta X   Delta X   Delta X     New X
                                 (Linear)    (Quad)   (Total)
    R1        2.63194  -0.00168   0.00000  -0.00371  -0.00372   2.62823
    R2        2.63711  -0.00119   0.00000  -0.00270  -0.00269   2.63442
    R3        3.40152   0.00614   0.00000   0.02302   0.02302   3.42454
    R4        2.05172   0.00005   0.00000   0.00015   0.00015   2.05187
    R5        2.63560   0.00109   0.00000   0.00230   0.00230   2.63789
    R6        2.05587   0.00144   0.00000   0.00405   0.00405   2.05992
    R7        2.64207  -0.00049   0.00000  -0.00089  -0.00090   2.64117
    R8        2.85580   0.00190   0.00000   0.00599   0.00599   2.86179
    R9        2.64617  -0.00072   0.00000  -0.00139  -0.00139   2.64478
   R10        2.77975   0.00136   0.00000   0.00377   0.00377   2.78352
   R11        2.06619   0.00154   0.00000   0.00441   0.00441   2.07060
   R12        2.06642   0.00160   0.00000   0.00458   0.00458   2.07099
   R13        2.05611   0.00153   0.00000   0.00431   0.00431   2.06043
   R14        2.63092   0.00107   0.00000   0.00226   0.00226   2.63318
   R15        2.05371  -0.00015   0.00000  -0.00043  -0.00043   2.05327
   R16        2.82770  -0.00953   0.00000  -0.01215  -0.01215   2.81556
   R17        2.81283  -0.01158   0.00000  -0.01427  -0.01427   2.79856
   R18        2.95762   0.00082   0.00000   0.00139   0.00139   2.95901
   R19        1.93502  -0.00048   0.00000  -0.00109  -0.00109   1.93393
   R20        1.92784  -0.00084   0.00000  -0.00188  -0.00188   1.92597
   R21        1.92797  -0.00096   0.00000  -0.00215  -0.00215   1.92582
    A1        2.10547  -0.00286   0.00000  -0.01193  -0.01198   2.09349
    A2        2.09703  -0.00015   0.00000   0.00012   0.00009   2.09711
    A3        2.07915   0.00303   0.00000   0.01262   0.01259   2.09175
    A4        2.09666  -0.00451   0.00000  -0.02541  -0.02541   2.07125
    A5        2.08347   0.00181   0.00000   0.00721   0.00720   2.09067
    A6        2.10299   0.00270   0.00000   0.01819   0.01820   2.12119
    A7        2.08771   0.00014   0.00000   0.00135   0.00136   2.08907
    A8        2.11033   0.00056   0.00000   0.00236   0.00234   2.11266
    A9        2.08514  -0.00070   0.00000  -0.00372  -0.00371   2.08143
   A10        2.10644   0.00096   0.00000   0.00360   0.00360   2.11004
   A11        2.07327  -0.00183   0.00000  -0.00700  -0.00702   2.06625
   A12        2.10248   0.00087   0.00000   0.00323   0.00324   2.10572
   A13        1.99051   0.00316   0.00000   0.01581   0.01580   2.00631
   A14        1.91261   0.00020   0.00000   0.00649   0.00653   1.91913
   A15        1.91329   0.00030   0.00000   0.00779   0.00782   1.92110
   A16        1.88424  -0.00188   0.00000  -0.01241  -0.01251   1.87173
   A17        1.88318  -0.00186   0.00000  -0.01159  -0.01170   1.87148
   A18        1.87643  -0.00013   0.00000  -0.00790  -0.00805   1.86838
   A19        2.08499  -0.00054   0.00000  -0.00307  -0.00307   2.08192
   A20        2.10950   0.00022   0.00000   0.00091   0.00090   2.11040
   A21        2.08867   0.00032   0.00000   0.00212   0.00212   2.09079
   A22        2.08431   0.00210   0.00000   0.00853   0.00851   2.09282
   A23        2.09956  -0.00374   0.00000  -0.02060  -0.02063   2.07894
   A24        2.09924   0.00164   0.00000   0.01191   0.01188   2.11112
   A25        1.80856  -0.00776   0.00000  -0.04898  -0.04941   1.75915
   A26        1.83601  -0.00928   0.00000  -0.05050  -0.05046   1.78556
   A27        1.92059  -0.00806   0.00000  -0.05088  -0.05140   1.86919
   A28        1.98405   0.00836   0.00000   0.06587   0.06288   2.04693
   A29        2.00314   0.00570   0.00000   0.02465   0.02134   2.02448
   A30        1.90153   0.00793   0.00000   0.04219   0.03937   1.94090
   A31        1.88046  -0.00248   0.00000  -0.01501  -0.01501   1.86545
   A32        1.89143   0.00035   0.00000   0.00121   0.00121   1.89263
   A33        1.89203   0.00042   0.00000   0.00158   0.00158   1.89362
   A34        1.84090  -0.00057   0.00000  -0.00556  -0.00556   1.83534
    D1       -3.13725   0.00043   0.00000   0.01670   0.01662  -3.12062
    D2       -0.00800   0.00043   0.00000   0.01614   0.01611   0.00812
    D3        0.06434  -0.00000   0.00000   0.00044   0.00052   0.06486
    D4       -3.08960  -0.00001   0.00000  -0.00012   0.00001  -3.08959
    D5        0.00642  -0.00040   0.00000  -0.01543  -0.01541  -0.00899
    D6        3.13556  -0.00076   0.00000  -0.02951  -0.02935   3.10620
    D7        3.08863  -0.00007   0.00000   0.00024   0.00022   3.08885
    D8       -0.06542  -0.00043   0.00000  -0.01383  -0.01372  -0.07914
    D9       -2.46368  -0.00147   0.00000  -0.03958  -0.03899  -2.50267
   D10       -0.37619   0.00041   0.00000  -0.00952  -0.00984  -0.38602
   D11        1.66954   0.00063   0.00000  -0.01288  -0.01304   1.65650
   D12        0.73700  -0.00169   0.00000  -0.05475  -0.05424   0.68276
   D13        2.82449   0.00018   0.00000  -0.02469  -0.02508   2.79941
   D14       -1.41296   0.00040   0.00000  -0.02806  -0.02829  -1.44126
   D15       -3.13061  -0.00004   0.00000  -0.00232  -0.00235  -3.13296
   D16        0.00596  -0.00010   0.00000  -0.00428  -0.00432   0.00164
   D17       -0.00141  -0.00010   0.00000  -0.00320  -0.00320  -0.00461
   D18        3.13516  -0.00016   0.00000  -0.00516  -0.00516   3.13000
   D19        3.09126  -0.00028   0.00000  -0.01181  -0.01181   3.07945
   D20       -0.00235  -0.00023   0.00000  -0.00789  -0.00793  -0.01028
   D21       -0.05535  -0.00034   0.00000  -0.01375  -0.01375  -0.06910
   D22        3.13423  -0.00028   0.00000  -0.00984  -0.00987   3.12436
   D23       -1.58572   0.00014   0.00000   0.00624   0.00624  -1.57948
   D24        0.52857   0.00002   0.00000   0.00582   0.00585   0.53442
   D25        2.58403   0.00015   0.00000   0.00465   0.00460   2.58863
   D26        1.50708   0.00001   0.00000   0.00198   0.00200   1.50908
   D27       -2.66181  -0.00011   0.00000   0.00156   0.00160  -2.66021
   D28       -0.60635   0.00002   0.00000   0.00039   0.00035  -0.60600
   D29       -3.13495   0.00041   0.00000   0.01511   0.01517  -3.11978
   D30        0.00074   0.00025   0.00000   0.00862   0.00865   0.00938
   D31        0.05452   0.00046   0.00000   0.01900   0.01902   0.07354
   D32       -3.09298   0.00031   0.00000   0.01251   0.01250  -3.08048
   D33        0.99633  -0.00018   0.00000  -0.00359  -0.00359   0.99274
   D34       -0.99345   0.00009   0.00000   0.00150   0.00150  -0.99195
   D35       -1.13364  -0.00116   0.00000  -0.01330  -0.01320  -1.14684
   D36       -3.12342  -0.00089   0.00000  -0.00821  -0.00811  -3.13153
   D37        3.12641   0.00093   0.00000   0.00836   0.00826   3.13467
   D38        1.13663   0.00120   0.00000   0.01345   0.01335   1.14998
   D39       -0.00275   0.00005   0.00000   0.00286   0.00289   0.00013
   D40       -3.13189   0.00044   0.00000   0.01717   0.01732  -3.11457
   D41        3.13292  -0.00011   0.00000  -0.00366  -0.00369   3.12923
   D42        0.00378   0.00028   0.00000   0.01065   0.01075   0.01453
   D43        1.24582   0.00098   0.00000   0.02839   0.02862   1.27445
   D44       -0.78554   0.01284   0.00000   0.11043   0.11241  -0.67313
   D45       -3.03284  -0.01010   0.00000  -0.03623  -0.03845  -3.07129
         Item               Value     Threshold  Converged?
 Maximum Force            0.012835     0.000450     NO 
 RMS     Force            0.003231     0.000300     NO 
 Maximum Displacement     0.088088     0.001800     NO 
 RMS     Displacement     0.028234     0.001200     NO 
 Predicted change in Energy=-2.867433D-03
 GradGradGradGradGradGradGradGradGradGradGradGradGradGradGradGradGradGrad

                          Input orientation:                          
 ---------------------------------------------------------------------
 Center     Atomic      Atomic             Coordinates (Angstroms)
 Number     Number       Type             X           Y           Z
 ---------------------------------------------------------------------
      1          6           0       -1.383382    0.719440   -0.997352
      2          6           0       -2.546476    1.042564   -1.688091
      3          1           0       -3.450870    1.241595   -1.121147
      4          6           0       -2.526621    1.119597   -3.081734
      5          1           0       -3.437120    1.380890   -3.621142
      6          6           0       -1.353257    0.874747   -3.800544
      7          6           0       -1.353500    0.880575   -5.314928
      8          6           0       -0.189869    0.561306   -3.088477
      9          1           0        0.738476    0.387752   -3.633341
     10          6           0       -0.201075    0.483433   -1.697280
     11          1           0        0.707121    0.264700   -1.142376
     12         16           0       -1.415954    0.537521    0.805389
     13          8           0       -0.089432    1.111086    1.167679
     14          8           0       -2.617858    1.317595    1.179650
     15          7           0       -1.611582   -0.985716    1.110884
     16          1           0       -0.725244   -1.448711    0.893228
     17          7           0       -1.617969   -0.426073   -5.941329
     18          1           0       -2.112457    1.578271   -5.686131
     19          1           0       -0.384852    1.230152   -5.689848
     20          1           0       -2.513630   -0.772049   -5.599542
     21          1           0       -0.927089   -1.093500   -5.601041
 ---------------------------------------------------------------------
                    Distance matrix (angstroms):
                    1          2          3          4          5
     1  C    0.000000
     2  C    1.390797   0.000000
     3  H    2.135996   1.085803   0.000000
     4  C    2.410762   1.395912   2.170950   0.000000
     5  H    3.397003   2.155087   2.503911   1.090065   0.000000
     6  C    2.807653   2.431953   3.422533   1.397649   2.151941
     7  C    4.320686   3.821437   4.702882   2.533871   2.731428
     8  C    2.412942   2.783215   3.868761   2.402530   3.391178
     9  H    3.400109   3.873459   4.958910   3.391273   4.292095
    10  C    1.394077   2.411144   3.386430   2.780213   3.870228
    11  H    2.144301   3.389509   4.271261   3.866400   4.956299
    12  S    1.812189   2.783988   2.889315   4.084375   4.938680
    13  O    2.552460   3.767915   4.068787   4.898722   5.849155
    14  O    2.573141   2.881784   2.448133   4.266958   4.870606
    15  N    2.721082   3.580811   3.650460   4.779925   5.596917
    16  H    2.950986   4.023250   4.327181   5.063743   5.978332
    17  N    5.080368   4.594459   5.419852   3.375207   3.457989
    18  H    4.822219   4.057054   4.769044   2.676714   2.461274
    19  H    4.824667   4.552128   5.502148   3.376634   3.690340
    20  H    4.968114   4.312001   4.998920   3.149261   3.066276
    21  H    4.968794   4.743033   5.647264   3.715267   4.042630
                    6          7          8          9         10
     6  C    0.000000
     7  C    1.514395   0.000000
     8  C    1.399556   2.532401   0.000000
     9  H    2.154175   2.728915   1.090331   0.000000
    10  C    2.429892   3.817485   1.393421   2.154122   0.000000
    11  H    3.418066   4.694215   2.163302   2.494199   1.086546
    12  S    4.618687   6.130242   4.082406   4.936225   2.782482
    13  O    5.131896   6.608722   4.292693   4.925285   2.935030
    14  O    5.157293   6.630923   4.968301   5.940915   3.848817
    15  N    5.258344   6.696321   4.695655   5.469630   3.468964
    16  H    5.274880   6.660442   4.492302   5.099500   3.273937
    17  N    2.518961   1.472974   3.339634   3.397345   4.565824
    18  H    2.150993   1.095713   3.387975   3.709327   4.556643
    19  H    2.152578   1.095923   2.693047   2.490126   4.065952
    20  H    2.700887   2.039135   3.671941   3.973321   4.706570
    21  H    2.701371   2.039769   3.097557   2.973224   4.272373
                   11         12         13         14         15
    11  H    0.000000
    12  S    2.894074   0.000000
    13  O    2.585966   1.489930   0.000000
    14  O    4.189974   1.480932   2.536873   0.000000
    15  N    3.466570   1.565839   2.591668   2.514471   0.000000
    16  H    3.021776   2.104736   2.651818   3.363996   1.023393
    17  N    5.377096   6.818176   7.432179   7.399223   7.074386
    18  H    5.506469   6.611211   7.161398   6.889292   7.281780
    19  H    4.775354   6.612942   6.864920   7.223847   7.257058
    20  H    5.595928   6.628952   7.430896   7.094711   6.774154
    21  H    4.939134   6.628843   7.167806   7.392554   6.747598
                   16         17         18         19         20
    16  H    0.000000
    17  N    6.968064   0.000000
    18  H    7.373938   2.080154   0.000000
    19  H    7.115410   2.080121   1.762334   0.000000
    20  H    6.768476   1.019179   2.385884   2.923809   0.000000
    21  H    6.507108   1.019102   2.924158   2.387732   1.618779
                   21
    21  H    0.000000
 Stoichiometry    C7H9N2O2S(1-)
 Framework group  C1[X(C7H9N2O2S)]
 Deg. of freedom    57
 Full point group                 C1      NOp   1
 Largest Abelian subgroup         C1      NOp   1
 Largest concise Abelian subgroup C1      NOp   1
                         Standard orientation:                         
 ---------------------------------------------------------------------
 Center     Atomic      Atomic             Coordinates (Angstroms)
 Number     Number       Type             X           Y           Z
 ---------------------------------------------------------------------
      1          6           0        0.566204    0.020104   -0.140565
      2          6           0       -0.126442    1.226043   -0.156946
      3          1           0        0.437693    2.151753   -0.095449
      4          6           0       -1.518036    1.225018   -0.266651
      5          1           0       -2.058766    2.171283   -0.287486
      6          6           0       -2.232932    0.027593   -0.358961
      7          6           0       -3.746841    0.026746   -0.397314
      8          6           0       -1.518763   -1.176012   -0.351528
      9          1           0       -2.060124   -2.117975   -0.443478
     10          6           0       -0.129567   -1.183550   -0.243371
     11          1           0        0.427507   -2.116224   -0.262598
     12         16           0        2.364563    0.006137    0.082458
     13          8           0        2.748359   -1.118849   -0.815872
     14          8           0        2.745705    1.373148   -0.340829
     15          7           0        2.637436   -0.210845    1.608993
     16          1           0        2.416985   -1.188911    1.814227
     17          7           0       -4.401735   -0.067770    0.918677
     18          1           0       -4.109370    0.943583   -0.875405
     19          1           0       -4.107320   -0.814311   -1.000411
     20          1           0       -4.073765    0.703843    1.498137
     21          1           0       -4.070005   -0.910978    1.385072
 ---------------------------------------------------------------------
 Rotational constants (GHZ):           2.2913773           0.4092585           0.3885696
 Basis read from rwf:  (6D, 7F)
 There are   250 symmetry adapted cartesian basis functions of A   symmetry.
 There are   250 symmetry adapted basis functions of A   symmetry.
   250 basis functions,   444 primitive gaussians,   250 cartesian basis functions
    49 alpha electrons       49 beta electrons
       nuclear repulsion energy       803.3111703055 Hartrees.
 NAtoms=   21 NActive=   21 NUniq=   21 SFac= 1.00D+00 NAtFMM=   60 NAOKFM=F Big=F
 Integral buffers will be    131072 words long.
 Raffenetti 2 integral format.
 Two-electron integral symmetry is turned on.
 One-electron integrals computed using PRISM.
 NBasis=   250 RedAO= T EigKep=  1.98D-06  NBF=   250
 NBsUse=   250 1.00D-06 EigRej= -1.00D+00 NBFU=   250
 Initial guess from the checkpoint file:  "/jobfs/48733085.gadi-pbs/Gau-1731492.chk"
 B after Tr=     0.000000   -0.000000   -0.000000
         Rot=    0.999977    0.006795    0.000483    0.000144 Ang=   0.78 deg.
 ExpMin= 4.05D-02 ExpMax= 2.19D+04 ExpMxC= 3.30D+03 IAcc=3 IRadAn=         5 AccDes= 0.00D+00
 Harris functional with IExCor= 1009 and IRadAn=       5 diagonalized for initial guess.
 HarFok:  IExCor= 1009 AccDes= 0.00D+00 IRadAn=         5 IDoV= 1 UseB2=F ITyADJ=14
 ICtDFT=  3500011 ScaDFX=  1.000000  1.000000  1.000000  1.000000
 FoFCou: FMM=F IPFlag=           0 FMFlag=      100000 FMFlg1=           0
         NFxFlg=           0 DoJE=T BraDBF=F KetDBF=T FulRan=T
         wScrn=  0.000000 ICntrl=       500 IOpCl=  0 I1Cent=   200000004 NGrid=           0
         NMat0=    1 NMatS0=      1 NMatT0=    0 NMatD0=    1 NMtDS0=    0 NMtDT0=    0
 Petite list used in FoFCou.
 Requested convergence on RMS density matrix=1.00D-08 within 128 cycles.
 Requested convergence on MAX density matrix=1.00D-06.
 Requested convergence on             energy=1.00D-06.
 No special actions if energy rises.
 SCF Done:  E(RM062X) =  -930.037685055     A.U. after   16 cycles
            NFock= 16  Conv=0.24D-08     -V/T= 2.0064
 Calling FoFJK, ICntrl=      2127 FMM=F ISym2X=0 I1Cent= 0 IOpClX= 0 NMat=1 NMatS=1 NMatT=0.
 ***** Axes restored to original set *****
 -------------------------------------------------------------------
 Center     Atomic                   Forces (Hartrees/Bohr)
 Number     Number              X              Y              Z
 -------------------------------------------------------------------
      1        6           0.000060360   -0.000154981   -0.002373695
      2        6          -0.000439252   -0.000137295   -0.003657936
      3        1           0.000115889    0.000140161    0.000474773
      4        6          -0.000544015   -0.000164722    0.000835485
      5        1          -0.000089770    0.000143840   -0.000160462
      6        6           0.000114604    0.000113676   -0.001262500
      7        6          -0.000111114   -0.000172423    0.001911830
      8        6           0.000323274   -0.000262775    0.000555792
      9        1           0.000105473    0.000052920   -0.000077392
     10        6          -0.000234829    0.000131989   -0.002988109
     11        1           0.000073871    0.000326604    0.000533869
     12       16           0.000677607    0.004905516   -0.004274799
     13        8          -0.004643807   -0.002595560    0.003662264
     14        8           0.005924196   -0.004495368    0.003901005
     15        7          -0.002049114    0.000473413    0.001180268
     16        1           0.000676591    0.001534843    0.002196129
     17        7          -0.000004031    0.000110744   -0.000408303
     18        1          -0.000010814    0.000214624   -0.000208644
     19        1           0.000097249    0.000109939   -0.000178920
     20        1          -0.000163115   -0.000108886    0.000165790
     21        1           0.000120745   -0.000166260    0.000173555
 -------------------------------------------------------------------
 Cartesian Forces:  Max     0.005924196 RMS     0.001802789

 GradGradGradGradGradGradGradGradGradGradGradGradGradGradGradGradGradGrad
 Berny optimization.
 Using GEDIIS/GDIIS optimizer.
 FormGI is forming the generalized inverse of G from B-inverse, IUseBI=4.
 Internal  Forces:  Max     0.007944883 RMS     0.001836298
 Search for a local minimum.
 Step number   2 out of a maximum of  110
 All quantities printed in internal units (Hartrees-Bohrs-Radians)
 Mixed Optimization -- RFO/linear search
 Update second derivatives using D2CorX and points    1    2
 DE= -1.94D-03 DEPred=-2.87D-03 R= 6.78D-01
 TightC=F SS=  1.41D+00  RLast= 2.07D-01 DXNew= 5.0454D-01 6.2225D-01
 Trust test= 6.78D-01 RLast= 2.07D-01 DXMaxT set to 5.05D-01
 ITU=  1  0
 Use linear search instead of GDIIS.
     Eigenvalues ---    0.00369   0.00617   0.00753   0.01422   0.01537
     Eigenvalues ---    0.02100   0.02134   0.02137   0.02156   0.02160
     Eigenvalues ---    0.02170   0.02177   0.02929   0.04692   0.04717
     Eigenvalues ---    0.06387   0.10285   0.11366   0.12445   0.13495
     Eigenvalues ---    0.15433   0.15995   0.15999   0.15999   0.16000
     Eigenvalues ---    0.16000   0.16000   0.21092   0.21894   0.21998
     Eigenvalues ---    0.22311   0.23424   0.24233   0.24931   0.24965
     Eigenvalues ---    0.24998   0.29166   0.31783   0.34391   0.34419
     Eigenvalues ---    0.35025   0.35048   0.35196   0.35313   0.35613
     Eigenvalues ---    0.42086   0.42368   0.43710   0.44304   0.44322
     Eigenvalues ---    0.45931   0.46264   0.46793   0.46858   0.58667
     Eigenvalues ---    0.75695   0.79501
 RFO step:  Lambda=-9.12300859D-04 EMin= 3.68525723D-03
 Quartic linear search produced a step of -0.21724.
 Iteration  1 RMS(Cart)=  0.02911167 RMS(Int)=  0.00044437
 Iteration  2 RMS(Cart)=  0.00048581 RMS(Int)=  0.00008250
 Iteration  3 RMS(Cart)=  0.00000009 RMS(Int)=  0.00008250
 Variable       Old X    -DE/DX   Delta X   Delta X   Delta X     New X
                                 (Linear)    (Quad)   (Total)
    R1        2.62823   0.00185   0.00081   0.00170   0.00251   2.63073
    R2        2.63442   0.00105   0.00058   0.00079   0.00138   2.63580
    R3        3.42454   0.00664  -0.00500   0.02860   0.02360   3.44814
    R4        2.05187   0.00018  -0.00003   0.00045   0.00041   2.05228
    R5        2.63789  -0.00084  -0.00050  -0.00052  -0.00101   2.63688
    R6        2.05992   0.00019  -0.00088   0.00198   0.00110   2.06103
    R7        2.64117   0.00003   0.00019  -0.00036  -0.00016   2.64101
    R8        2.86179  -0.00146  -0.00130  -0.00130  -0.00260   2.85920
    R9        2.64478   0.00009   0.00030  -0.00045  -0.00015   2.64463
   R10        2.78352   0.00018  -0.00082   0.00185   0.00103   2.78455
   R11        2.07060   0.00022  -0.00096   0.00219   0.00123   2.07183
   R12        2.07099   0.00018  -0.00099   0.00218   0.00118   2.07218
   R13        2.06043   0.00012  -0.00094   0.00193   0.00099   2.06142
   R14        2.63318  -0.00052  -0.00049   0.00002  -0.00047   2.63271
   R15        2.05327   0.00027   0.00009   0.00043   0.00052   2.05379
   R16        2.81556  -0.00424   0.00264  -0.00889  -0.00626   2.80930
   R17        2.79856  -0.00619   0.00310  -0.01145  -0.00834   2.79021
   R18        2.95901  -0.00112  -0.00030  -0.00095  -0.00125   2.95775
   R19        1.93393  -0.00057   0.00024  -0.00144  -0.00120   1.93273
   R20        1.92597   0.00024   0.00041  -0.00031   0.00010   1.92607
   R21        1.92582   0.00025   0.00047  -0.00040   0.00007   1.92589
    A1        2.09349  -0.00170   0.00260  -0.00980  -0.00719   2.08630
    A2        2.09711   0.00070  -0.00002   0.00207   0.00205   2.09917
    A3        2.09175   0.00100  -0.00274   0.00785   0.00512   2.09687
    A4        2.07125  -0.00091   0.00552  -0.01373  -0.00822   2.06303
    A5        2.09067   0.00092  -0.00156   0.00607   0.00450   2.09517
    A6        2.12119  -0.00001  -0.00395   0.00765   0.00369   2.12488
    A7        2.08907   0.00017  -0.00030   0.00137   0.00107   2.09014
    A8        2.11266  -0.00017  -0.00051   0.00006  -0.00045   2.11222
    A9        2.08143  -0.00000   0.00081  -0.00144  -0.00064   2.08079
   A10        2.11004  -0.00019  -0.00078   0.00098   0.00019   2.11023
   A11        2.06625   0.00019   0.00152  -0.00252  -0.00100   2.06525
   A12        2.10572  -0.00000  -0.00070   0.00140   0.00070   2.10641
   A13        2.00631  -0.00020  -0.00343   0.00560   0.00217   2.00848
   A14        1.91913   0.00014  -0.00142   0.00340   0.00198   1.92111
   A15        1.92110   0.00012  -0.00170   0.00369   0.00198   1.92309
   A16        1.87173   0.00003   0.00272  -0.00477  -0.00204   1.86969
   A17        1.87148   0.00004   0.00254  -0.00454  -0.00197   1.86951
   A18        1.86838  -0.00013   0.00175  -0.00442  -0.00264   1.86574
   A19        2.08192  -0.00000   0.00067  -0.00112  -0.00046   2.08146
   A20        2.11040  -0.00005  -0.00020  -0.00010  -0.00030   2.11011
   A21        2.09079   0.00005  -0.00046   0.00117   0.00071   2.09150
   A22        2.09282   0.00082  -0.00185   0.00620   0.00436   2.09717
   A23        2.07894  -0.00087   0.00448  -0.01175  -0.00728   2.07166
   A24        2.11112   0.00004  -0.00258   0.00532   0.00274   2.11387
   A25        1.75915   0.00588   0.01073   0.00930   0.02012   1.77927
   A26        1.78556   0.00545   0.01096   0.00472   0.01568   1.80124
   A27        1.86919   0.00327   0.01117  -0.00254   0.00879   1.87798
   A28        2.04693  -0.00239  -0.01366   0.00739  -0.00604   2.04089
   A29        2.02448  -0.00387  -0.00464  -0.00826  -0.01243   2.01205
   A30        1.94090  -0.00459  -0.00855  -0.00748  -0.01562   1.92528
   A31        1.86545  -0.00198   0.00326  -0.01544  -0.01217   1.85327
   A32        1.89263  -0.00006  -0.00026  -0.00014  -0.00040   1.89223
   A33        1.89362  -0.00007  -0.00034  -0.00004  -0.00038   1.89324
   A34        1.83534  -0.00003   0.00121  -0.00309  -0.00189   1.83346
    D1       -3.12062   0.00010  -0.00361   0.01005   0.00644  -3.11418
    D2        0.00812   0.00006  -0.00350   0.00821   0.00472   0.01284
    D3        0.06486   0.00016  -0.00011   0.00690   0.00677   0.07162
    D4       -3.08959   0.00012  -0.00000   0.00507   0.00505  -3.08455
    D5       -0.00899  -0.00007   0.00335  -0.00829  -0.00494  -0.01394
    D6        3.10620  -0.00016   0.00638  -0.01803  -0.01166   3.09454
    D7        3.08885  -0.00014  -0.00005  -0.00530  -0.00534   3.08351
    D8       -0.07914  -0.00023   0.00298  -0.01504  -0.01206  -0.09120
    D9       -2.50267  -0.00085   0.00847  -0.05946  -0.05115  -2.55382
   D10       -0.38602   0.00068   0.00214  -0.04632  -0.04406  -0.43008
   D11        1.65650  -0.00067   0.00283  -0.05357  -0.05073   1.60577
   D12        0.68276  -0.00072   0.01178  -0.06215  -0.05051   0.63225
   D13        2.79941   0.00081   0.00545  -0.04902  -0.04342   2.75599
   D14       -1.44126  -0.00054   0.00615  -0.05627  -0.05009  -1.49135
   D15       -3.13296   0.00003   0.00051   0.00040   0.00091  -3.13205
   D16        0.00164  -0.00002   0.00094  -0.00199  -0.00106   0.00058
   D17       -0.00461  -0.00001   0.00069  -0.00165  -0.00096  -0.00557
   D18        3.13000  -0.00006   0.00112  -0.00404  -0.00293   3.12706
   D19        3.07945  -0.00005   0.00256  -0.00724  -0.00467   3.07478
   D20       -0.01028  -0.00003   0.00172  -0.00413  -0.00240  -0.01268
   D21       -0.06910  -0.00010   0.00299  -0.00961  -0.00662  -0.07573
   D22        3.12436  -0.00008   0.00214  -0.00650  -0.00436   3.12000
   D23       -1.57948   0.00004  -0.00136   0.00749   0.00613  -1.57335
   D24        0.53442   0.00005  -0.00127   0.00778   0.00650   0.54093
   D25        2.58863   0.00004  -0.00100   0.00665   0.00566   2.59429
   D26        1.50908   0.00002  -0.00043   0.00420   0.00376   1.51284
   D27       -2.66021   0.00003  -0.00035   0.00449   0.00413  -2.65607
   D28       -0.60600   0.00002  -0.00008   0.00336   0.00329  -0.60271
   D29       -3.11978   0.00008  -0.00329   0.00894   0.00565  -3.11413
   D30        0.00938   0.00002  -0.00188   0.00406   0.00218   0.01157
   D31        0.07354   0.00011  -0.00413   0.01206   0.00793   0.08147
   D32       -3.08048   0.00004  -0.00272   0.00717   0.00446  -3.07602
   D33        0.99274  -0.00004   0.00078  -0.00215  -0.00137   0.99137
   D34       -0.99195   0.00006  -0.00033   0.00157   0.00124  -0.99071
   D35       -1.14684  -0.00012   0.00287  -0.00667  -0.00382  -1.15067
   D36       -3.13153  -0.00001   0.00176  -0.00296  -0.00121  -3.13274
   D37        3.13467   0.00001  -0.00179   0.00293   0.00115   3.13582
   D38        1.14998   0.00011  -0.00290   0.00665   0.00376   1.15374
   D39        0.00013   0.00004  -0.00063   0.00212   0.00150   0.00163
   D40       -3.11457   0.00015  -0.00376   0.01231   0.00854  -3.10603
   D41        3.12923  -0.00002   0.00080  -0.00280  -0.00199   3.12724
   D42        0.01453   0.00009  -0.00234   0.00739   0.00504   0.01958
   D43        1.27445   0.00200  -0.00622   0.05380   0.04752   1.32197
   D44       -0.67313  -0.00532  -0.02442   0.04833   0.02370  -0.64942
   D45       -3.07129   0.00794   0.00835   0.05441   0.06303  -3.00826
         Item               Value     Threshold  Converged?
 Maximum Force            0.007945     0.000450     NO 
 RMS     Force            0.001836     0.000300     NO 
 Maximum Displacement     0.123771     0.001800     NO 
 RMS     Displacement     0.029154     0.001200     NO 
 Predicted change in Energy=-6.312278D-04
 GradGradGradGradGradGradGradGradGradGradGradGradGradGradGradGradGradGrad

                          Input orientation:                          
 ---------------------------------------------------------------------
 Center     Atomic      Atomic             Coordinates (Angstroms)
 Number     Number       Type             X           Y           Z
 ---------------------------------------------------------------------
      1          6           0       -1.376626    0.722579   -1.002832
      2          6           0       -2.542668    1.034842   -1.696264
      3          1           0       -3.444964    1.226558   -1.123072
      4          6           0       -2.527592    1.112000   -3.089423
      5          1           0       -3.441741    1.365772   -3.627423
      6          6           0       -1.353597    0.879109   -3.811004
      7          6           0       -1.358463    0.878725   -5.324017
      8          6           0       -0.185445    0.580708   -3.100427
      9          1           0        0.745146    0.421738   -3.646959
     10          6           0       -0.194148    0.503574   -1.709422
     11          1           0        0.717499    0.304479   -1.152251
     12         16           0       -1.408355    0.532505    0.811640
     13          8           0       -0.067714    1.045589    1.198247
     14          8           0       -2.575889    1.341324    1.215095
     15          7           0       -1.660971   -0.980093    1.124702
     16          1           0       -0.775986   -1.460132    0.944712
     17          7           0       -1.616137   -0.431338   -5.947393
     18          1           0       -2.122738    1.570128   -5.698002
     19          1           0       -0.393586    1.233469   -5.705577
     20          1           0       -2.508093   -0.782748   -5.601330
     21          1           0       -0.920569   -1.093610   -5.606475
 ---------------------------------------------------------------------
                    Distance matrix (angstroms):
                    1          2          3          4          5
     1  C    0.000000
     2  C    1.392123   0.000000
     3  H    2.132246   1.086022   0.000000
     4  C    2.414587   1.395376   2.172839   0.000000
     5  H    3.401011   2.155743   2.508220   1.090648   0.000000
     6  C    2.812625   2.431104   3.423378   1.397563   2.151950
     7  C    4.324043   3.819333   4.703447   2.532724   2.730511
     8  C    2.416391   2.781081   3.866720   2.401675   3.390798
     9  H    3.403503   3.871799   4.957294   3.390888   4.292040
    10  C    1.394807   2.407895   3.381466   2.778407   3.868976
    11  H    2.140676   3.384976   4.263470   3.864627   4.955008
    12  S    1.824676   2.797961   2.893544   4.099609   4.953209
    13  O    2.581151   3.808373   4.102084   4.943635   5.896921
    14  O    2.596205   2.927635   2.497096   4.310893   4.919379
    15  N    2.739771   3.577038   3.620004   4.784008   5.590789
    16  H    2.986290   4.039903   4.314798   5.094922   5.999701
    17  N    5.083066   4.591322   5.419160   3.373519   3.456109
    18  H    4.829041   4.059160   4.774548   2.679267   2.463499
    19  H    4.831478   4.553306   5.505480   3.378313   3.691541
    20  H    4.969145   4.307478   4.996982   3.146447   3.063355
    21  H    4.969915   4.738276   5.644170   3.712518   4.039989
                    6          7          8          9         10
     6  C    0.000000
     7  C    1.513021   0.000000
     8  C    1.399479   2.531627   0.000000
     9  H    2.154257   2.728833   1.090857   0.000000
    10  C    2.429402   3.815975   1.393170   2.154768   0.000000
    11  H    3.418860   4.694998   2.164949   2.497616   1.086821
    12  S    4.635943   6.145619   4.099036   4.952670   2.798372
    13  O    5.174341   6.650850   4.325341   4.952369   2.960457
    14  O    5.193199   6.667542   4.991642   5.959403   3.863588
    15  N    5.283210   6.718087   4.739725   5.524788   3.519246
    16  H    5.331277   6.716137   4.569126   5.190253   3.352477
    17  N    2.519991   1.473519   3.343101   3.405200   4.566893
    18  H    2.151707   1.096365   3.388133   3.708143   4.556946
    19  H    2.153276   1.096548   2.693738   2.488679   4.067158
    20  H    2.701832   2.039374   3.675352   3.981697   4.707007
    21  H    2.702379   2.040010   3.102261   2.985060   4.273840
                   11         12         13         14         15
    11  H    0.000000
    12  S    2.903121   0.000000
    13  O    2.586628   1.486620   0.000000
    14  O    4.186380   1.476516   2.525606   0.000000
    15  N    3.534368   1.565176   2.578229   2.496843   0.000000
    16  H    3.121154   2.094803   2.616212   3.340795   1.022757
    17  N    5.383370   6.830570   7.459162   7.440745   7.093494
    18  H    5.507509   6.630417   7.215020   6.931710   7.298365
    19  H    4.778107   6.632889   6.914064   7.257395   7.291010
    20  H    5.601858   6.638184   7.452014   7.140023   6.782040
    21  H    4.947528   6.638854   7.183855   7.429859   6.772726
                   16         17         18         19         20
    16  H    0.000000
    17  N    7.018930   0.000000
    18  H    7.424410   2.079593   0.000000
    19  H    7.185266   2.079588   1.761636   0.000000
    20  H    6.805123   1.019232   2.386183   2.923548   0.000000
    21  H    6.563024   1.019139   2.923882   2.388059   1.617682
                   21
    21  H    0.000000
 Stoichiometry    C7H9N2O2S(1-)
 Framework group  C1[X(C7H9N2O2S)]
 Deg. of freedom    57
 Full point group                 C1      NOp   1
 Largest Abelian subgroup         C1      NOp   1
 Largest concise Abelian subgroup C1      NOp   1
                         Standard orientation:                         
 ---------------------------------------------------------------------
 Center     Atomic      Atomic             Coordinates (Angstroms)
 Number     Number       Type             X           Y           Z
 ---------------------------------------------------------------------
      1          6           0        0.557751    0.017039   -0.147860
      2          6           0       -0.139677    1.221641   -0.170978
      3          1           0        0.429262    2.145204   -0.118226
      4          6           0       -1.530983    1.221457   -0.277473
      5          1           0       -2.071952    2.168110   -0.304160
      6          6           0       -2.246728    0.024040   -0.361643
      7          6           0       -3.759474    0.023232   -0.390501
      8          6           0       -1.531883   -1.179058   -0.352123
      9          1           0       -2.073318   -2.121679   -0.443137
     10          6           0       -0.142675   -1.185042   -0.247296
     11          1           0        0.418455   -2.115460   -0.272506
     12         16           0        2.368042    0.006464    0.080569
     13          8           0        2.775535   -1.160727   -0.745053
     14          8           0        2.776485    1.341281   -0.400615
     15          7           0        2.650780   -0.128196    1.614095
     16          1           0        2.469455   -1.106082    1.852618
     17          7           0       -4.409258   -0.058970    0.929454
     18          1           0       -4.127052    0.935438   -0.875045
     19          1           0       -4.126134   -0.822829   -0.983932
     20          1           0       -4.077403    0.717223    1.500620
     21          1           0       -4.074785   -0.897472    1.402408
 ---------------------------------------------------------------------
 Rotational constants (GHZ):           2.3001385           0.4056937           0.3854637
 Basis read from rwf:  (6D, 7F)
 There are   250 symmetry adapted cartesian basis functions of A   symmetry.
 There are   250 symmetry adapted basis functions of A   symmetry.
   250 basis functions,   444 primitive gaussians,   250 cartesian basis functions
    49 alpha electrons       49 beta electrons
       nuclear repulsion energy       801.9349419102 Hartrees.
 NAtoms=   21 NActive=   21 NUniq=   21 SFac= 1.00D+00 NAtFMM=   60 NAOKFM=F Big=F
 Integral buffers will be    131072 words long.
 Raffenetti 2 integral format.
 Two-electron integral symmetry is turned on.
 One-electron integrals computed using PRISM.
 NBasis=   250 RedAO= T EigKep=  2.05D-06  NBF=   250
 NBsUse=   250 1.00D-06 EigRej= -1.00D+00 NBFU=   250
 Initial guess from the checkpoint file:  "/jobfs/48733085.gadi-pbs/Gau-1731492.chk"
 B after Tr=    -0.000000    0.000000    0.000000
         Rot=    0.999920    0.012639   -0.000187    0.000005 Ang=   1.45 deg.
 ExpMin= 4.05D-02 ExpMax= 2.19D+04 ExpMxC= 3.30D+03 IAcc=3 IRadAn=         5 AccDes= 0.00D+00
 Harris functional with IExCor= 1009 and IRadAn=       5 diagonalized for initial guess.
 HarFok:  IExCor= 1009 AccDes= 0.00D+00 IRadAn=         5 IDoV= 1 UseB2=F ITyADJ=14
 ICtDFT=  3500011 ScaDFX=  1.000000  1.000000  1.000000  1.000000
 FoFCou: FMM=F IPFlag=           0 FMFlag=      100000 FMFlg1=           0
         NFxFlg=           0 DoJE=T BraDBF=F KetDBF=T FulRan=T
         wScrn=  0.000000 ICntrl=       500 IOpCl=  0 I1Cent=   200000004 NGrid=           0
         NMat0=    1 NMatS0=      1 NMatT0=    0 NMatD0=    1 NMtDS0=    0 NMtDT0=    0
 Petite list used in FoFCou.
 Requested convergence on RMS density matrix=1.00D-08 within 128 cycles.
 Requested convergence on MAX density matrix=1.00D-06.
[...]
 964908,-0.06418151,0.02369637,0.00020410,0.00351315,-0.00378714,-0.089
 49283,0.15273817,0.06300889,-0.00225366,-0.17626192,0.02527466,-0.0062
 2857,0.07027199,-0.00335015,0.00098566,-0.00186545,0.03493121,-0.00202
 832,-0.05841178,0.00076582,-0.00022009,-0.00097720,-0.08495457,0.01600
 972,-0.02687770,-0.00330862,0.00198890,0.00318906,0.03469765,0.0096759
 7,-0.34738298,-0.00143766,0.00106405,-0.01056690,0.03188046,-0.0361179
 4,0.70107206,-0.01974980,0.00404851,-0.01302361,-0.00341464,0.00127816
 ,0.00353183,-0.00095315,0.00021594,-0.00089305,0.00006824,-0.00017741,
 0.00119036,-0.00002958,-0.00013249,-0.00013656,0.00185470,0.00062619,0
 .00103922,0.00021194,0.00001147,0.00022843,0.00556075,-0.00050452,0.00
 261202,0.00051384,-0.00056743,-0.00050889,-0.26569942,0.03842785,-0.12
 323739,0.28217848,0.00338627,0.00398758,0.00117154,0.00166326,0.006669
 90,-0.00019472,0.00007470,-0.00020162,0.00011515,-0.00019426,-0.000693
 23,-0.00018983,-0.00020614,-0.00110995,-0.00005312,0.00092684,0.007274
 09,0.00097372,0.00021703,0.00023503,-0.00026259,0.00140573,0.00330987,
 0.00040832,-0.00071571,-0.00403956,-0.00020019,0.03638250,-0.04571233,
 0.02244250,-0.04236660,0.03410863,0.01167351,-0.00236626,0.01294307,0.
 00343318,-0.00032045,-0.00203722,0.00089869,-0.00016896,0.00074550,0.0
 0075751,-0.00006338,-0.00053705,-0.00011790,-0.00003189,0.00003565,0.0
 0159050,0.00007405,-0.00501801,-0.00124630,0.00049592,0.00005011,-0.02
 603800,0.00457166,-0.00972879,0.00034537,-0.00020986,0.00106192,-0.125
 01568,0.02297542,-0.13094568,0.13295058,-0.02499461,0.13471888,-0.0693
 7458,0.00493933,0.00007567,0.01042666,0.00042835,-0.01817961,-0.003724
 51,-0.00001619,-0.00376140,-0.00430364,0.00275929,-0.00562834,-0.00012
 148,0.00001926,-0.00155918,-0.00457209,0.00059135,0.00025706,-0.000531
 34,0.00009491,-0.00013276,-0.00487628,0.00069539,0.00445913,-0.0000272
 5,0.00006492,0.00139195,0.00961869,-0.00413544,0.01677557,-0.00389611,
 0.00078417,0.00422991,0.91614682,0.00468829,-0.05535703,0.00328438,-0.
 00029540,-0.00097103,0.00440201,0.00097606,-0.00130839,0.00189945,0.00
 229345,0.00512495,-0.00136176,-0.00013234,0.00017935,-0.00011228,0.000
 58051,-0.00083729,0.00084765,0.00007621,-0.00006431,-0.00024881,0.0017
 8509,0.00608154,-0.00303594,0.00018418,0.00005767,-0.00069436,-0.00341
 605,0.00160595,-0.00275298,-0.00002322,-0.00193041,0.00027572,-0.07732
 867,0.75311267,0.00102831,0.01458842,-0.14405329,-0.01241512,0.0030160
 9,-0.00920023,0.00267608,-0.00046941,0.00060291,0.00214380,-0.00020682
 ,0.00372351,0.00108781,-0.00024035,0.00228840,-0.00001324,-0.00097403,
 0.00101446,-0.00002327,0.00003221,-0.00304498,-0.00235631,0.00044300,0
 .00375242,-0.00107464,0.00016182,0.00232910,0.01264582,-0.00096810,-0.
 00849618,-0.00299745,0.00040819,0.00079828,-0.00233724,0.04237488,0.46
 104572,-0.01114299,-0.00609724,0.00051621,0.00083139,0.00076858,-0.007
 12477,0.00071323,-0.00038631,0.00082889,-0.00110296,0.00044590,0.00151
 144,-0.00011563,0.00004890,-0.00061537,0.00117150,-0.00006690,-0.00048
 440,0.00027080,-0.00025510,0.00078689,0.00247151,0.00028004,-0.0009508
 6,0.00021054,-0.00001969,-0.00068979,-0.00465461,0.00191343,0.00029132
 ,0.00242967,-0.00125400,-0.00198546,-0.43409844,-0.08003843,-0.0965365
 2,0.47796218,-0.00058776,0.00903639,0.00368082,0.00002910,0.00123232,-
 0.00190260,-0.00000680,0.00004925,-0.00034046,-0.00084754,-0.00073830,
 0.00086082,-0.00003062,-0.00011418,-0.00006398,0.00063305,-0.00003584,
 -0.00029171,-0.00000432,-0.00006571,0.00013147,-0.00039449,-0.00035517
 ,-0.00032726,0.00001996,0.00000170,-0.00003923,0.00041506,0.00070557,0
 .00026590,-0.00021835,-0.00064557,-0.00009907,-0.08562180,-0.10690173,
 -0.02455147,0.10068884,0.08850283,-0.03232369,-0.00701212,-0.00785003,
 0.00443811,-0.00090261,-0.00623587,-0.00054559,-0.00029912,-0.00001171
 ,-0.00182142,0.00145751,-0.00164774,-0.00023316,0.00017939,-0.00101356
 ,-0.00093053,0.00028385,-0.00069025,-0.00011263,0.00012482,0.00088628,
 -0.00078336,0.00042880,0.00053318,0.00026984,-0.00009355,-0.00035194,0
 .00052048,-0.00071935,-0.00298931,-0.00177669,0.00028844,-0.00117783,-
 0.10317552,-0.02428371,-0.11171500,0.12135039,0.02670551,0.09996180,-0
 .00296951,0.01174303,0.00135405,-0.00413943,-0.00058940,0.00065845,0.0
 0225119,0.00053101,0.00173629,0.00188872,-0.00133413,0.00055953,0.0001
 7677,-0.00003120,0.00057327,0.00060276,-0.00013169,0.00035584,0.000267
 87,0.00017417,-0.00060344,-0.00053972,-0.00062298,-0.00086310,-0.00010
 220,-0.00005023,0.00045747,0.00050501,-0.00027746,0.00466353,0.0007049
 4,0.00031829,-0.00091369,-0.30124443,0.19668685,0.08484635,-0.02299234
 ,0.02625775,0.01021849,0.31619279,0.00795246,0.00091301,0.00260186,0.0
 0157991,0.00100937,-0.00000534,-0.00085785,-0.00095416,-0.00050909,-0.
 00054921,0.00020733,-0.00058675,-0.00012745,0.00001381,-0.00034234,-0.
 00086717,0.00009007,-0.00053598,-0.00012244,-0.00009110,0.00045969,0.0
 0113850,-0.00049826,0.00114364,0.00007201,-0.00005622,-0.00039911,-0.0
 0025945,0.00097465,-0.00504946,-0.00028858,-0.00008057,0.00009361,0.19
 514536,-0.25611444,-0.07883490,-0.00550174,0.01213176,-0.00078720,-0.2
 2982329,0.28151411,0.02603075,-0.02204062,-0.00892312,-0.00029038,-0.0
 0031790,-0.00236710,0.00120675,-0.00023842,-0.00074258,0.00049165,0.00
 017639,0.00078580,-0.00029980,-0.00002151,-0.00036175,0.00114459,0.000
 05864,-0.00069200,0.00013287,0.00003625,0.00093699,0.00204913,0.001193
 10,-0.00178371,0.00026821,0.00012627,-0.00101307,-0.00466944,0.0004905
 9,-0.00585191,0.00042970,-0.00066883,-0.00008121,0.09066484,-0.0835300
 7,-0.12003733,-0.00910287,0.00342232,0.01666594,-0.10590351,0.09390366
 ,0.10820641,0.01034074,-0.00543846,-0.00095990,-0.00176733,0.00045371,
 0.00124191,0.00018610,-0.00076630,0.00051624,0.00022899,0.00036103,0.0
 0193405,0.00009628,0.00001948,0.00036723,0.00160248,-0.00039333,0.0002
 2465,0.00006565,-0.00015434,-0.00025097,0.00002820,0.00056419,-0.00152
 365,-0.00006737,-0.00010361,-0.00002819,-0.00124278,0.00032172,0.00073
 422,0.00030558,-0.00026173,-0.00056054,-0.10248193,-0.02299169,0.00759
 559,-0.01255258,-0.03871347,0.00492531,0.00572855,0.03424735,-0.001724
 02,0.39650867,-0.00609408,-0.00852225,-0.00007693,-0.00055837,0.000994
 33,0.00290825,-0.00027739,-0.00073417,-0.00062099,0.00070190,0.0007986
 3,0.00025412,0.00023197,-0.00017382,0.00054214,-0.00063783,-0.00024374
 ,0.00064252,-0.00008883,-0.00045207,-0.00083718,-0.00033858,0.00112745
 ,0.00143938,-0.00024710,0.00001076,0.00067259,0.00161134,-0.00009958,0
 .00367545,-0.00010154,-0.00105266,-0.00030891,-0.07799070,-0.31155075,
 0.04712348,-0.00971828,-0.01045747,0.00442437,-0.00196414,-0.03066562,
 0.00601581,-0.11996355,0.50893571,0.00345154,0.02079400,0.00103792,0.0
 0155898,0.00089404,-0.00236521,-0.00015178,0.00064623,-0.00039646,-0.0
 0038063,-0.00153066,0.00041736,-0.00024267,0.00005172,-0.00042918,-0.0
 0000247,0.00039119,-0.00120759,0.00002641,0.00005329,0.00130023,-0.000
 14271,-0.00154168,0.00050361,0.00025245,0.00001589,-0.00040717,-0.0012
 8008,0.00153949,-0.00174967,0.00046007,0.00041447,-0.00029156,0.019380
 91,0.05539282,-0.07963914,-0.00542021,-0.00820923,0.01928234,0.0018507
 2,-0.00892084,0.01095125,-0.03012559,-0.05740910,0.06075625,-0.0003233
 9,-0.00079510,0.00001069,-0.00027660,0.00005229,0.00005713,0.00007639,
 -0.00014711,0.00012271,0.00002356,0.00009432,0.00001942,0.00000052,-0.
 00000094,0.00000767,0.00008885,-0.00010166,0.00001315,0.00001016,0.000
 03520,-0.00000745,-0.00003457,0.00007268,-0.00020514,0.00000541,0.0000
 1283,0.00000655,0.00013108,-0.00001009,0.00024258,-0.00002275,0.000010
 22,0.00001526,-0.00706061,-0.02296954,0.00563483,0.00058766,-0.0016172
 4,-0.00004636,0.00360741,-0.00172748,-0.00030719,-0.29695613,0.2153497
 2,0.01079933,0.30014841,-0.00235411,-0.00005093,0.00036718,0.00010542,
 0.00006100,-0.00021107,-0.00004120,-0.00009514,-0.00003075,-0.00005535
 ,0.00009227,-0.00024270,-0.00002671,-0.00000354,-0.00005169,-0.0001770
 0,0.00002369,-0.00010222,-0.00001093,0.00003360,0.00011102,-0.00015591
 ,-0.00007576,0.00019913,0.00002783,0.00001346,0.00001975,0.00042232,-0
 .00000463,0.00032413,-0.00018204,-0.00005062,0.00021813,0.03964448,-0.
 03077510,-0.00236542,-0.00072497,0.00757995,0.00042498,-0.00096774,-0.
 00840284,0.00159489,0.15273773,-0.14820902,-0.00244145,-0.18823764,0.1
 7989802,0.00288166,0.00049813,-0.00097625,-0.00037528,0.00005380,-0.00
 024820,-0.00003870,-0.00021045,0.00015795,-0.00021114,0.00015137,0.000
 56528,0.00001894,0.00003596,0.00003321,0.00063253,-0.00011137,0.000043
 05,0.00002270,0.00002464,-0.00010689,-0.00000198,-0.00015194,-0.000820
 91,-0.00001239,-0.00001807,-0.00007032,-0.00035751,-0.00032483,-0.0003
 0339,0.00018514,0.00032210,0.00003429,-0.00247972,0.00775310,-0.002455
 70,-0.00163296,0.00081794,-0.00272922,0.00038992,-0.00181121,0.0052825
 8,0.01736331,-0.00931474,-0.00657262,-0.01636437,0.00228799,0.00806885
 ,0.00189709,-0.00042262,0.00004389,-0.00044766,0.00029339,-0.00205798,
 -0.00000167,0.00006966,-0.00008338,-0.00140230,-0.00027083,0.00180522,
 0.00038985,-0.00010249,0.00007639,0.00500704,-0.00293492,-0.00337681,-
 0.10460370,-0.01797400,-0.01439954,-0.00051257,0.00065943,-0.00143048,
 0.00021768,-0.00026664,0.00005509,-0.00041668,0.00034922,0.00171781,-0
 .00004034,-0.00007325,0.00002691,0.00005112,-0.00011541,0.00025941,-0.
 00003544,0.00000686,-0.00005858,0.00006774,-0.00000896,-0.00013360,0.0
 0001377,0.00013338,-0.00008682,-0.00000988,-0.00001665,-0.00000768,0.6
 6475377,-0.00038324,-0.00005756,0.00022047,0.00030563,0.00069673,-0.00
 046401,0.00002821,-0.00004854,-0.00012246,-0.00144351,0.00087999,0.000
 75863,0.00020005,-0.00055656,0.00032125,-0.00279702,-0.00760861,-0.015
 68917,-0.01813715,-0.19135480,-0.07495024,0.00201209,-0.00000250,0.001
 21065,-0.00044899,-0.00041898,0.00033580,0.00008268,0.00073930,-0.0011
 9096,-0.00003553,0.00001698,-0.00014272,-0.00008729,-0.00052639,0.0012
 1156,-0.00020832,0.00009204,-0.00043350,0.00020215,-0.00004748,-0.0004
 3891,0.00013749,0.00055905,-0.00038304,-0.00002767,-0.00006930,0.00001
 344,-0.02380040,0.54802178,-0.00036703,-0.00015513,-0.00052636,-0.0002
 8034,0.00202333,-0.00072741,0.00008494,0.00003889,-0.00018846,-0.00356
 965,-0.00087321,0.00045564,0.00058724,-0.00079722,0.00015079,-0.007883
 64,-0.03772975,-0.02241339,-0.00523823,-0.02825130,-0.08269089,0.00330
 579,-0.00201330,0.00054271,-0.00083359,-0.00064405,0.00016025,0.001002
 14,0.00180273,-0.00115801,-0.00007182,0.00010987,-0.00020761,0.0000333
 7,-0.00021358,0.00365592,-0.00088745,-0.00008152,-0.00110756,0.0007341
 8,-0.00050087,-0.00116800,0.00026849,0.00092148,-0.00146291,0.00001566
 ,-0.00012119,0.00016752,-0.01362864,-0.05628862,0.23989568,0.00028908,
 -0.00005286,0.00003747,0.00000770,-0.00041187,-0.00063660,0.00000635,0
 .00005146,-0.00003618,0.00055027,-0.00056437,0.00152955,0.00039042,0.0
 0040135,-0.00020975,-0.00067702,-0.00075457,0.00023662,-0.18642259,0.1
 1655972,-0.06259307,0.00036249,0.00050763,-0.00106718,0.00049162,0.000
 05273,0.00014668,-0.00007879,-0.00013689,0.00016593,0.00000258,0.00000
 831,-0.00006294,0.00001020,0.00015962,0.00036861,-0.00004908,-0.000051
 00,-0.00009616,0.00008892,-0.00010733,-0.00012410,0.00003151,0.0000937
 2,-0.00017102,0.00000476,-0.00001278,0.00001713,0.00712511,-0.00514043
 ,0.00235327,0.19466480,-0.00044826,0.00015515,-0.00007749,-0.00006082,
 0.00014552,0.00033785,0.00000202,-0.00002250,0.00001655,0.00032644,0.0
 0017786,-0.00103826,-0.00043894,-0.00013124,0.00028955,0.00139062,0.00
 117592,-0.00003760,0.11026292,-0.14396616,0.05769796,-0.00043608,0.000
 63160,0.00041528,0.00014134,0.00008639,-0.00003944,0.00036092,-0.00027
 460,-0.00058364,-0.00003156,-0.00008882,0.00002688,-0.00001457,-0.0000
 6351,-0.00002005,-0.00000495,0.00002010,-0.00001042,-0.00002339,0.0000
 2343,0.00001801,0.00000928,0.00002458,0.00002126,-0.00000539,-0.000001
 71,-0.00000704,0.02425141,-0.02816170,0.00430942,-0.12610268,0.1680089
 8,0.00018647,0.00001729,0.00006809,-0.00015827,-0.00011455,-0.00042244
 ,0.00003475,0.00001747,-0.00000588,-0.00221455,-0.00054515,0.00187597,
 0.00123093,0.00004567,0.00008184,-0.02501244,0.01919451,-0.01310573,-0
 .06326810,0.05952806,-0.08008120,0.00223926,0.00072495,-0.00547685,-0.
 00004450,0.00032095,0.00012199,-0.00152911,-0.00061094,-0.00037045,0.0
 0003117,-0.00007861,-0.00041372,-0.00010023,0.00002336,0.00055252,-0.0
 0001910,-0.00002272,-0.00019600,0.00018161,-0.00012041,-0.00018668,0.0
 0007296,0.00016283,-0.00021095,0.00000143,-0.00002227,0.00001650,0.011
 41395,-0.01191949,0.00439182,0.06989592,-0.05591219,0.08924005,0.00040
 652,-0.00003363,-0.00005655,-0.00016739,0.00005055,-0.00035356,0.00000
 576,-0.00003440,0.00006141,0.00041130,-0.00039126,0.00097630,0.0003800
 5,-0.00011834,-0.00016740,-0.00026668,0.00157916,-0.00054283,-0.255636
 43,-0.06991944,0.08290277,0.00062090,0.00036592,-0.00182260,0.00037802
 ,-0.00054408,0.00030421,0.00021717,0.00036018,0.00065678,-0.00001026,-
 0.00005184,0.00004045,-0.00004474,-0.00015276,-0.00035461,0.00013414,0
 .00005513,0.00012438,-0.00001953,0.00006589,0.00008144,-0.00002097,-0.
 00007211,0.00016717,-0.00000227,0.00001182,-0.00001964,-0.00463387,-0.
 00455538,-0.00051974,-0.01893384,-0.00698892,0.00803933,0.27466022,0.0
 0033915,0.00004568,-0.00005015,-0.00039256,-0.00015178,-0.00045875,0.0
 0000005,-0.00009556,0.00000384,0.00053807,0.00073035,-0.00001909,-0.00
 026697,0.00015660,0.00002929,-0.00090033,0.00103622,0.00021153,-0.0637
 2178,-0.07167563,0.03153451,-0.00048116,0.00008214,-0.00046690,0.00026
 712,-0.00004982,0.00018735,0.00003246,-0.00003841,0.00009725,-0.000003
 15,-0.00000097,0.00000083,0.00000521,-0.00001751,0.00010279,-0.0000117
 9,-0.00000568,-0.00003260,0.00001357,-0.00000827,-0.00004317,0.0000140
 9,0.00005586,-0.00003579,-0.00000608,-0.00000773,-0.00000176,-0.033580
 87,-0.01652917,0.00536189,0.01763071,0.00791053,-0.00805720,0.08160582
 ,0.08463031,-0.00027338,0.00011500,0.00009554,0.00137197,-0.00100332,-
 0.00033869,-0.00006442,-0.00005571,-0.00042547,-0.00201125,0.00143312,
 -0.00563401,0.00012480,0.00025745,0.00013039,0.03014630,0.00858806,-0.
 01357669,0.08398373,0.03296619,-0.08308739,0.00199192,-0.00119679,0.00
 187657,-0.00118296,0.00043879,0.00009818,0.00006994,-0.00016400,-0.000
 44883,-0.00002555,0.00002334,-0.00000840,0.00011390,-0.00003446,0.0005
 2402,-0.00022229,-0.00001812,-0.00016254,-0.00000143,-0.00004103,-0.00
 018924,0.00003350,0.00014958,-0.00020645,0.00000009,-0.00001204,0.0000
 2266,-0.01504983,-0.00680386,0.00467628,-0.00993551,-0.00434186,0.0041
 7792,-0.08894625,-0.02748622,0.09254753,0.00040574,-0.00006164,0.00000
 565,-0.00026627,-0.00005000,-0.00045827,-0.00000326,0.00002283,0.00001
 804,0.00067427,0.00005010,0.00003568,-0.00028728,0.00006819,-0.0001699
 8,0.00085370,0.00148975,0.00040130,-0.00517042,-0.00218383,0.00497204,
 -0.00045091,0.00027644,-0.00050949,0.00007043,0.00003883,-0.00000619,-
 0.00021184,-0.00008792,0.00035062,-0.00000877,-0.00003572,0.00000719,0
 .00003647,-0.00007368,-0.00031966,0.00006303,0.00002790,0.00010323,-0.
 00009294,0.00008397,0.00010380,-0.00002804,-0.00001382,0.00015434,-0.0
 0001273,0.00000642,-0.00003800,-0.33434570,-0.09762931,0.10168050,0.00
 045971,0.00012618,-0.00021851,0.00229200,-0.00111568,-0.00054551,0.362
 16215,0.00057905,-0.00022241,0.00011909,0.00003659,0.00009873,-0.00062
 112,-0.00001425,0.00000918,-0.00003262,-0.00060377,0.00030550,0.000206
 84,0.00038956,-0.00038103,-0.00009498,0.00058683,0.00086274,0.00085330
 ,-0.03506196,-0.01331915,0.01313643,-0.00014681,0.00026963,-0.00063387
 ,0.00009032,-0.00007965,0.00002336,-0.00018602,0.00000303,0.00060397,0
 .00000435,-0.00000345,-0.00000295,0.00005424,0.00014000,-0.00037426,0.
 00006066,-0.00002393,0.00012503,-0.00003775,0.00000716,0.00010494,-0.0
 0005310,-0.00017187,0.00010534,0.00001049,0.00002142,-0.00000443,-0.10
 466735,-0.10090035,0.04000903,0.00054274,0.00055359,0.00059265,-0.0008
 2219,-0.00680429,-0.00329293,0.11189564,0.10990769,0.00050264,-0.00009
 892,0.00008925,-0.00017464,0.00018488,-0.00047512,-0.00000850,-0.00001
 921,0.00003889,0.00049453,0.00019668,0.00060826,0.00011923,-0.00031048
 ,0.00004166,-0.00177383,-0.00038619,0.00160121,-0.01646388,-0.01101412
 ,0.00049423,-0.00053135,0.00062478,-0.00080569,0.00013883,0.00001861,-
 0.00000887,-0.00025013,-0.00011619,0.00056361,0.00000676,-0.00001621,0
 .00001685,0.00002879,-0.00000054,-0.00082297,0.00018084,0.00003009,0.0
 0027484,-0.00015442,0.00012790,0.00028339,-0.00006541,-0.00017509,0.00
 034543,-0.00000774,0.00002828,-0.00005594,0.15414694,0.05650677,-0.072
 62125,0.00043263,0.00112863,0.00016039,-0.00059065,-0.00207794,-0.0002
 1693,-0.11968323,-0.04120651,0.06907718,0.00006936,-0.00006777,0.00003
 519,-0.00007343,0.00011000,-0.00004152,0.00000114,0.00003379,-0.000006
 57,-0.00037900,-0.00002129,0.00021088,0.00001282,-0.00006966,0.0000097
 5,0.00019117,-0.00126204,-0.00000192,0.00678693,-0.00608657,0.00016642
 ,0.00075645,-0.00017585,0.00009853,-0.00044527,-0.00006639,0.00013838,
 -0.00016933,0.00018301,0.00013134,-0.00000589,-0.00001806,-0.00002856,
 0.00006748,0.00010691,0.00014145,-0.00010160,-0.00004025,-0.00004652,0
 .00001742,-0.00004451,-0.00004880,-0.00001940,-0.00005570,-0.00009795,
 0.00001469,0.00000699,0.00002806,-0.23307338,0.15172594,-0.07678545,0.
 00167581,-0.00231557,-0.00076298,0.00022992,0.00003412,0.00042225,-0.0
 2613933,0.02734272,-0.01634740,0.25058343,-0.00068657,0.00002307,0.000
 10877,0.00025328,-0.00012489,0.00065437,-0.00000496,-0.00001366,-0.000
 00063,0.00037556,0.00024239,-0.00077366,-0.00011121,-0.00001310,0.0000
 2152,-0.00024995,0.00163268,0.00096904,0.02712087,-0.02519264,0.013591
 48,0.00033575,0.00019887,0.00018186,-0.00031356,-0.00020065,-0.0001230
 3,0.00006963,0.00002050,-0.00070787,0.00001994,0.00000768,-0.00002313,
 -0.00003161,0.00011576,-0.00045764,0.00008136,-0.00000835,0.00013151,-
 0.00007341,0.00003424,0.00015856,-0.00002650,-0.00017338,0.00015207,0.
 00000816,0.00002290,-0.00000265,0.15847104,-0.20472394,0.07309309,-0.0
 0267320,-0.00620343,-0.00322421,-0.00041013,0.00073713,0.00047882,-0.0
 1283465,0.00972745,-0.00342521,-0.16931983,0.22389136,-0.00043070,0.00
 010904,0.00009339,0.00021347,-0.00023254,0.00051223,-0.00000945,-0.000
 01586,0.00001675,0.00071146,0.00045809,-0.00077222,-0.00012414,0.00006
 127,0.00000240,0.00156892,-0.00103999,0.00162204,0.01108659,-0.0164304
 2,0.00034072,-0.00047767,0.00037476,0.00060066,-0.00015495,-0.00021566
 ,0.00004466,0.00021133,0.00011625,-0.00043937,0.00000574,-0.00001893,0
 .00004255,-0.00005709,0.00001511,-0.00082244,0.00020609,0.00003250,0.0
 0027419,-0.00014010,0.00011417,0.00028533,-0.00003920,-0.00018906,0.00
 034452,-0.00000825,0.00002530,-0.00005244,-0.11923225,0.10824842,-0.06
 982477,-0.00025130,-0.00219339,-0.00021720,0.00001960,0.00120029,0.000
 14554,0.01411646,-0.00961630,0.00141157,0.09278542,-0.08080304,0.06639
 191\\0.00001367,0.00000517,0.00001755,-0.00000746,0.00000202,-0.000015
 50,0.00000325,0.00000261,0.00000281,-0.00000060,-0.00000079,0.00000778
 ,0.00000114,0.00000043,-0.00000012,0.00001285,-0.00000182,0.00000158,-
 0.00000167,-0.00001146,-0.00001009,-0.00000752,0.00000379,-0.00001161,
 0.00000111,-0.00000239,0.00000314,-0.00000958,-0.00000387,0.00000390,-
 0.00000014,0.00000057,0.00000076,-0.00002299,-0.00002031,-0.00000741,0
 .00001807,-0.00000653,0.00000151,-0.00001454,0.00000708,0.00000206,0.0
 0000872,0.00002204,-0.00000301,0.00000073,-0.00000333,0.00000296,0.000
 00208,0.00000569,0.00000731,0.00000158,0.00000097,0.00000051,0.0000016
 5,0.00000030,-0.00000052,0.00000153,0.00000040,-0.00000272,-0.00000189
 ,-0.00000056,-0.00000090\\\@
 The archive entry for this job was punched.


 IN-LAWS ARE LIKE SEEDS. YOU DON'T NEED THEM
 BUT THEY COME WITH THE TOMATO.
 Job cpu time:       0 days  0 hours 58 minutes 10.2 seconds.
 Elapsed time:       0 days  0 hours  3 minutes 40.3 seconds.
 File lengths (MBytes):  RWF=    154 Int=      0 D2E=      0 Chk=      6 Scr=      1
 Normal termination of Gaussian 16 at Wed Jun 29 13:41:25 2022.
