 Entering Gaussian System, Link 0=g16
 AtFile(1): /home/561/yj5695/Basis/6-31pGd.gbs
 Initial command:
 /apps/gaussian/g16c01/g16/l1.exe "/jobfs/48735353.gadi-pbs/Gau-2685296.inp" -scrdir="/jobfs/48735353.gadi-pbs/"
 Entering Link 1 = /apps/gaussian/g16c01/g16/l1.exe PID=   2685297.
  
 Copyright (c) 1988-2019, Gaussian, Inc.  All Rights Reserved.
  
 This is part of the Gaussian(R) 16 program.  It is based on
 the Gaussian(R) 09 system (copyright 2009, Gaussian, Inc.),
 the Gaussian(R) 03 system (copyright 2003, Gaussian, Inc.),
 the Gaussian(R) 98 system (copyright 1998, Gaussian, Inc.),
 the Gaussian(R) 94 system (copyright 1995, Gaussian, Inc.),
 the Gaussian 92(TM) system (copyright 1992, Gaussian, Inc.),
 the Gaussian 90(TM) system (copyright 1990, Gaussian, Inc.),
 the Gaussian 88(TM) system (copyright 1988, Gaussian, Inc.),
 the Gaussian 86(TM) system (copyright 1986, Carnegie Mellon
 University), and the Gaussian 82(TM) system (copyright 1983,
 Carnegie Mellon University). Gaussian is a federally registered
 trademark of Gaussian, Inc.
  
 This software contains proprietary and confidential information,
 including trade secrets, belonging to Gaussian, Inc.
  
 This software is provided under written license and may be
 used, copied, transmitted, or stored only in accord with that
 written license.
  
 The following legend is applicable only to US Government
 contracts under FAR:
  
                    RESTRICTED RIGHTS LEGEND
  
 Use, reproduction and disclosure by the US Government is
 subject to restrictions as set forth in subparagraphs (a)
 and (c) of the Commercial Computer Software - Restricted
 Rights clause in FAR 52.227-19.
  
 Gaussian, Inc.
 340 Quinnipiac St., Bldg. 40, Wallingford CT 06492
  
  
 ---------------------------------------------------------------
 Warning -- This program may not be used in any manner that
 competes with the business of Gaussian, Inc. or will provide
 assistance to any competitor of Gaussian, Inc.  The licensee
 of this program is prohibited from giving any competitor of
 Gaussian, Inc. access to this program.  By using this program,
 the user acknowledges that Gaussian, Inc. is engaged in the
 business of creating and licensing software in the field of
 computational chemistry and represents and warrants to the
 licensee that it is not a competitor of Gaussian, Inc. and that
 it will not use this program in any manner prohibited above.
 ---------------------------------------------------------------
  

 Cite this work as:
 Gaussian 16, Revision C.01,
 M. J. Frisch, G. W. Trucks, H. B. Schlegel, G. E. Scuseria, 
 M. A. Robb, J. R. Cheeseman, G. Scalmani, V. Barone, 
 G. A. Petersson, H. Nakatsuji, X. Li, M. Caricato, A. V. Marenich, 
 J. Bloino, B. G. Janesko, R. Gomperts, B. Mennucci, H. P. Hratchian, 
 J. V. Ortiz, A. F. Izmaylov, J. L. Sonnenberg, D. Williams-Young, 
 F. Ding, F. Lipparini, F. Egidi, J. Goings, B. Peng, A. Petrone, 
 T. Henderson, D. Ranasinghe, V. G. Zakrzewski, J. Gao, N. Rega, 
 G. Zheng, W. Liang, M. Hada, M. Ehara, K. Toyota, R. Fukuda, 
 J. Hasegawa, M. Ishida, T. Nakajima, Y. Honda, O. Kitao, H. Nakai, 
 T. Vreven, K. Throssell, J. A. Montgomery, Jr., J. E. Peralta, 
 F. Ogliaro, M. J. Bearpark, J. J. Heyd, E. N. Brothers, K. N. Kudin, 
 V. N. Staroverov, T. A. Keith, R. Kobayashi, J. Normand, 
 K. Raghavachari, A. P. Rendell, J. C. Burant, S. S. Iyengar, 
 J. Tomasi, M. Cossi, J. M. Millam, M. Klene, C. Adamo, R. Cammi, 
 J. W. Ochterski, R. L. Martin, K. Morokuma, O. Farkas, 
 J. B. Foresman, and D. J. Fox, Gaussian, Inc., Wallingford CT, 2019.
 
 ******************************************
 Gaussian 16:  ES64L-G16RevC.01  3-Jul-2019
                29-Jun-2022 
 ******************************************
 %nproc=16
 Will use up to   16 processors via shared memory.
 %mem=40gb
 --------------------------------------------------
 #M062X/gen 6D INT(grid=ultrafine) OPT Freq=noraman
 --------------------------------------------------
 1/18=20,19=15,26=4,38=1/1,3;
 2/9=110,12=2,17=6,18=5,40=1/2;
 3/5=7,8=2,11=2,25=1,30=1,71=1,74=-55,75=-5/1,2,3;
 4//1;
 5/5=2,38=5/2;
 6/7=2,8=2,9=2,10=2,28=1/1;
 7//1,2,3,16;
 1/18=20,19=15,26=4/3(2);
 2/9=110/2;
 99//99;
 2/9=110/2;
 3/5=7,6=1,8=2,11=2,25=1,30=1,71=1,74=-55,75=-5,82=7/1,2,3;
 4/5=5,16=3,69=1/1;
 5/5=2,38=5/2;
 7//1,2,3,16;
 1/18=20,19=15,26=4/3(-5);
 2/9=110/2;
 6/7=2,8=2,9=2,10=2,19=2,28=1/1;
 99/9=1/99;
 ---------
 A.12.freq
 ---------
 Symbolic Z-matrix:
 Charge = -1 Multiplicity = 1
 C                    -1.3528    0.54184  -1.01206 
 C                    -2.52253   0.43338  -1.76843 
 H                    -3.48688   0.33376  -1.27779 
 C                    -2.44188   0.44668  -3.15422 
 H                    -3.34324   0.35881  -3.75259 
 C                    -1.19912   0.57276  -3.79038 
 C                    -1.1466    0.58614  -5.28585 
 C                    -0.03722   0.68345  -3.0201 
 H                     0.93428   0.77791  -3.49471 
 C                    -0.11174   0.6692   -1.62816 
 H                     0.78992   0.75063  -1.03006 
 S                    -1.48467   0.60804   0.78598 
 O                    -2.45341  -0.48567   1.1013 
 O                    -0.10755   0.35408   1.28467 
 N                    -1.93694   2.03806   1.22381 
 H                    -2.9237    2.14657   0.97285 
 O                    -2.17699   0.45728  -5.93847 
 C                     0.1816    0.76156  -5.96634 
 H                     0.85973  -0.0522   -5.68825 
 H                     0.64802   1.70155  -5.65339 
 H                     0.03707   0.76436  -7.04736 
 

 GradGradGradGradGradGradGradGradGradGradGradGradGradGradGradGradGradGrad
 Berny optimization.
 Initialization pass.
                           ----------------------------
                           !    Initial Parameters    !
                           ! (Angstroms and Degrees)  !
 --------------------------                            --------------------------
 ! Name  Definition              Value          Derivative Info.                !
 --------------------------------------------------------------------------------
 ! R1    R(1,2)                  1.3972         estimate D2E/DX2                !
 ! R2    R(1,10)                 1.3914         estimate D2E/DX2                !
 ! R3    R(1,12)                 1.8041         estimate D2E/DX2                !
 ! R4    R(2,3)                  1.0866         estimate D2E/DX2                !
 ! R5    R(2,4)                  1.3882         estimate D2E/DX2                !
 ! R6    R(4,5)                  1.0855         estimate D2E/DX2                !
 ! R7    R(4,6)                  1.4018         estimate D2E/DX2                !
 ! R8    R(6,7)                  1.4965         estimate D2E/DX2                !
 ! R9    R(6,8)                  1.3984         estimate D2E/DX2                !
 ! R10   R(7,17)                 1.2265         estimate D2E/DX2                !
 ! R11   R(7,18)                 1.5027         estimate D2E/DX2                !
 ! R12   R(8,9)                  1.0853         estimate D2E/DX2                !
 ! R13   R(8,10)                 1.394          estimate D2E/DX2                !
 ! R14   R(10,11)                1.0851         estimate D2E/DX2                !
 ! R15   R(12,13)                1.4947         estimate D2E/DX2                !
 ! R16   R(12,14)                1.4865         estimate D2E/DX2                !
 ! R17   R(12,15)                1.5624         estimate D2E/DX2                !
 ! R18   R(15,16)                1.0239         estimate D2E/DX2                !
 ! R19   R(18,19)                1.0952         estimate D2E/DX2                !
 ! R20   R(18,20)                1.095          estimate D2E/DX2                !
 ! R21   R(18,21)                1.0906         estimate D2E/DX2                !
 ! A1    A(2,1,10)             120.9395         estimate D2E/DX2                !
 ! A2    A(2,1,12)             118.7637         estimate D2E/DX2                !
 ! A3    A(10,1,12)            120.2082         estimate D2E/DX2                !
 ! A4    A(1,2,3)              120.3778         estimate D2E/DX2                !
 ! A5    A(1,2,4)              119.4087         estimate D2E/DX2                !
 ! A6    A(3,2,4)              120.2126         estimate D2E/DX2                !
 ! A7    A(2,4,5)              120.0851         estimate D2E/DX2                !
 ! A8    A(2,4,6)              120.3575         estimate D2E/DX2                !
 ! A9    A(5,4,6)              119.5573         estimate D2E/DX2                !
 ! A10   A(4,6,7)              119.041          estimate D2E/DX2                !
 ! A11   A(4,6,8)              119.5873         estimate D2E/DX2                !
 ! A12   A(7,6,8)              121.3717         estimate D2E/DX2                !
 ! A13   A(6,7,17)             120.0886         estimate D2E/DX2                !
 ! A14   A(6,7,18)             118.988          estimate D2E/DX2                !
 ! A15   A(17,7,18)            120.9233         estimate D2E/DX2                !
 ! A16   A(6,8,9)              120.646          estimate D2E/DX2                !
 ! A17   A(6,8,10)             120.3163         estimate D2E/DX2                !
 ! A18   A(9,8,10)             119.0374         estimate D2E/DX2                !
 ! A19   A(1,10,8)             119.39           estimate D2E/DX2                !
 ! A20   A(1,10,11)            120.2636         estimate D2E/DX2                !
 ! A21   A(8,10,11)            120.3453         estimate D2E/DX2                !
 ! A22   A(1,12,13)            103.3427         estimate D2E/DX2                !
 ! A23   A(1,12,14)            105.0922         estimate D2E/DX2                !
 ! A24   A(1,12,15)            109.5132         estimate D2E/DX2                !
 ! A25   A(13,12,14)           113.8697         estimate D2E/DX2                !
 ! A26   A(13,12,15)           115.0235         estimate D2E/DX2                !
 ! A27   A(14,12,15)           109.3007         estimate D2E/DX2                !
 ! A28   A(12,15,16)           107.8947         estimate D2E/DX2                !
 ! A29   A(7,18,19)            110.217          estimate D2E/DX2                !
 ! A30   A(7,18,20)            110.3212         estimate D2E/DX2                !
 ! A31   A(7,18,21)            109.3919         estimate D2E/DX2                !
 ! A32   A(19,18,20)           107.5495         estimate D2E/DX2                !
 ! A33   A(19,18,21)           109.6119         estimate D2E/DX2                !
 ! A34   A(20,18,21)           109.7259         estimate D2E/DX2                !
 ! D1    D(10,1,2,3)           179.9657         estimate D2E/DX2                !
 ! D2    D(10,1,2,4)             0.3123         estimate D2E/DX2                !
 ! D3    D(12,1,2,3)            -3.4514         estimate D2E/DX2                !
 ! D4    D(12,1,2,4)           176.8952         estimate D2E/DX2                !
 ! D5    D(2,1,10,8)            -0.2403         estimate D2E/DX2                !
 ! D6    D(2,1,10,11)         -179.8757         estimate D2E/DX2                !
 ! D7    D(12,1,10,8)         -176.7741         estimate D2E/DX2                !
 ! D8    D(12,1,10,11)           3.5905         estimate D2E/DX2                !
 ! D9    D(2,1,12,13)           45.6486         estimate D2E/DX2                !
 ! D10   D(2,1,12,14)          165.2987         estimate D2E/DX2                !
 ! D11   D(2,1,12,15)          -77.3941         estimate D2E/DX2                !
 ! D12   D(10,1,12,13)        -137.7428         estimate D2E/DX2                !
 ! D13   D(10,1,12,14)         -18.0927         estimate D2E/DX2                !
 ! D14   D(10,1,12,15)          99.2144         estimate D2E/DX2                !
 ! D15   D(1,2,4,5)            179.7358         estimate D2E/DX2                !
 ! D16   D(1,2,4,6)             -0.2369         estimate D2E/DX2                !
 ! D17   D(3,2,4,5)              0.0818         estimate D2E/DX2                !
 ! D18   D(3,2,4,6)           -179.8909         estimate D2E/DX2                !
 ! D19   D(2,4,6,7)           -179.8927         estimate D2E/DX2                !
 ! D20   D(2,4,6,8)              0.0939         estimate D2E/DX2                !
 ! D21   D(5,4,6,7)              0.1345         estimate D2E/DX2                !
 ! D22   D(5,4,6,8)           -179.879          estimate D2E/DX2                !
 ! D23   D(4,6,7,17)            -1.6549         estimate D2E/DX2                !
 ! D24   D(4,6,7,18)           178.2358         estimate D2E/DX2                !
 ! D25   D(8,6,7,17)           178.3588         estimate D2E/DX2                !
 ! D26   D(8,6,7,18)            -1.7505         estimate D2E/DX2                !
 ! D27   D(4,6,8,9)            179.7564         estimate D2E/DX2                !
 ! D28   D(4,6,8,10)            -0.021          estimate D2E/DX2                !
 ! D29   D(7,6,8,9)             -0.2574         estimate D2E/DX2                !
 ! D30   D(7,6,8,10)           179.9652         estimate D2E/DX2                !
 ! D31   D(6,7,18,19)           60.343          estimate D2E/DX2                !
 ! D32   D(6,7,18,20)          -58.2793         estimate D2E/DX2                !
 ! D33   D(6,7,18,21)         -179.0714         estimate D2E/DX2                !
 ! D34   D(17,7,18,19)        -119.7673         estimate D2E/DX2                !
 ! D35   D(17,7,18,20)         121.6105         estimate D2E/DX2                !
 ! D36   D(17,7,18,21)           0.8183         estimate D2E/DX2                !
 ! D37   D(6,8,10,1)             0.0933         estimate D2E/DX2                !
 ! D38   D(6,8,10,11)          179.7284         estimate D2E/DX2                !
 ! D39   D(9,8,10,1)          -179.6877         estimate D2E/DX2                !
 ! D40   D(9,8,10,11)           -0.0526         estimate D2E/DX2                !
 ! D41   D(1,12,15,16)          72.3087         estimate D2E/DX2                !
 ! D42   D(13,12,15,16)        -43.5165         estimate D2E/DX2                !
 ! D43   D(14,12,15,16)       -173.0589         estimate D2E/DX2                !
 --------------------------------------------------------------------------------
 Trust Radius=3.00D-01 FncErr=1.00D-07 GrdErr=1.00D-06 EigMax=2.50D+02 EigMin=1.00D-04
 Number of steps in this run=    108 maximum allowed number of steps=    126.
 GradGradGradGradGradGradGradGradGradGradGradGradGradGradGradGradGradGrad

                          Input orientation:                          
 ---------------------------------------------------------------------
 Center     Atomic      Atomic             Coordinates (Angstroms)
 Number     Number       Type             X           Y           Z
 ---------------------------------------------------------------------
      1          6           0       -1.352799    0.541843   -1.012056
      2          6           0       -2.522529    0.433381   -1.768435
      3          1           0       -3.486881    0.333757   -1.277791
      4          6           0       -2.441880    0.446679   -3.154220
      5          1           0       -3.343237    0.358814   -3.752588
      6          6           0       -1.199119    0.572765   -3.790379
      7          6           0       -1.146600    0.586145   -5.285854
      8          6           0       -0.037218    0.683450   -3.020104
      9          1           0        0.934279    0.777905   -3.494713
     10          6           0       -0.111741    0.669195   -1.628159
     11          1           0        0.789915    0.750627   -1.030059
     12         16           0       -1.484665    0.608038    0.785981
     13          8           0       -2.453407   -0.485668    1.101295
     14          8           0       -0.107547    0.354085    1.284668
     15          7           0       -1.936944    2.038061    1.223812
     16          1           0       -2.923702    2.146569    0.972854
     17          8           0       -2.176991    0.457279   -5.938471
     18          6           0        0.181604    0.761564   -5.966344
     19          1           0        0.859734   -0.052195   -5.688246
     20          1           0        0.648020    1.701553   -5.653394
     21          1           0        0.037075    0.764356   -7.047355
 ---------------------------------------------------------------------
                    Distance matrix (angstroms):
                    1          2          3          4          5
     1  C    0.000000
     2  C    1.397190   0.000000
     3  H    2.160606   1.086569   0.000000
     4  C    2.404999   1.388194   2.150759   0.000000
     5  H    3.392029   2.148485   2.479089   1.085454   0.000000
     6  C    2.782742   2.420558   3.406476   1.401802   2.155098
     7  C    4.278999   3.780047   4.648138   2.498212   2.688456
     8  C    2.404801   2.793918   3.880479   2.420009   3.401718
     9  H    3.383791   3.879208   4.965750   3.409413   4.305727
    10  C    1.391412   2.426352   3.409816   2.794265   3.879704
    11  H    2.152937   3.408537   4.304200   3.879296   4.964739
    12  S    1.804080   2.762735   2.888469   4.058014   4.910704
    13  O    2.594873   3.014097   2.720216   4.356468   5.006509
    14  O    2.619322   3.893567   4.241051   5.016115   5.986959
    15  N    2.752998   3.445497   3.400732   4.685575   5.437103
    16  H    2.997123   3.257394   2.944293   4.489378   5.069702
    17  O    4.995600   4.184397   4.842831   2.796844   2.479498
    18  C    5.191112   5.004246   5.968528   3.858738   4.181797
    19  H    5.207201   5.200039   6.204364   4.191756   4.645500
    20  H    5.185579   5.172383   6.173668   4.167501   4.620189
    21  H    6.197266   5.876063   6.774331   4.626298   4.737770
                    6          7          8          9         10
     6  C    0.000000
     7  C    1.496457   0.000000
     8  C    1.398423   2.524642   0.000000
     9  H    2.163536   2.752275   1.085349   0.000000
    10  C    2.422165   3.802179   1.394011   2.142428   0.000000
    11  H    3.406942   4.678562   2.156141   2.469030   1.085053
    12  S    4.585395   6.081278   4.072723   4.919806   2.777901
    13  O    5.159650   6.606981   4.918408   5.847763   3.777172
    14  O    5.195715   6.656219   4.317927   4.909940   2.929826
    15  N    5.275754   6.716283   4.843011   5.665368   3.652246
    16  H    5.304661   6.690623   5.139672   6.059407   4.105488
    17  O    2.363022   1.226466   3.625830   3.969226   4.784240
    18  C    2.583963   1.502652   2.955387   2.583746   4.349072
    19  H    2.869033   2.143543   2.909412   2.346531   4.236564
    20  H    2.856031   2.144734   2.905220   2.365369   4.224395
    21  H    3.488951   2.129726   4.028749   3.664209   5.422074
                   11         12         13         14         15
    11  H    0.000000
    12  S    2.914112   0.000000
    13  O    4.073111   1.494683   0.000000
    14  O    2.514089   1.486485   2.498374   0.000000
    15  N    3.764728   1.562440   2.578944   2.487202   0.000000
    16  H    4.444240   2.114906   2.677003   3.352754   1.023937
    17  O    5.742917   6.761679   7.108015   7.514453   7.338582
    18  C    4.973638   6.956573   7.645285   7.268206   7.603685
    19  H    4.727378   6.917205   7.567210   7.051399   7.743844
    20  H    4.722248   6.870929   7.747813   7.107972   7.354674
    21  H    6.064224   7.981308   8.611943   8.343372   8.598330
                   16         17         18         19         20
    16  H    0.000000
    17  O    7.153859   0.000000
    18  C    7.727459   2.378305   0.000000
    19  H    7.969894   3.089316   1.095172   0.000000
    20  H    7.540716   3.100028   1.095017   1.766825   0.000000
    21  H    8.660281   2.495196   1.090634   1.786254   1.787378
                   21
    21  H    0.000000
 Stoichiometry    C8H8NO3S(1-)
 Framework group  C1[X(C8H8NO3S)]
 Deg. of freedom    57
 Full point group                 C1      NOp   1
 Largest Abelian subgroup         C1      NOp   1
 Largest concise Abelian subgroup C1      NOp   1
                         Standard orientation:                         
 ---------------------------------------------------------------------
 Center     Atomic      Atomic             Coordinates (Angstroms)
 Number     Number       Type             X           Y           Z
 ---------------------------------------------------------------------
      1          6           0        0.814866    0.009232   -0.059637
      2          6           0        0.164054   -1.227051   -0.045958
      3          1           0        0.737362   -2.149983   -0.058026
      4          6           0       -1.223399   -1.266790   -0.024090
      5          1           0       -1.740375   -2.221203   -0.017633
      6          6           0       -1.966080   -0.077968   -0.010781
      7          6           0       -3.460319   -0.155165    0.015176
      8          6           0       -1.300729    1.151982   -0.021658
      9          1           0       -1.858711    2.082897   -0.015612
     10          6           0        0.092316    1.198240   -0.045140
     11          1           0        0.608978    2.152301   -0.058026
     12         16           0        2.617740    0.041894   -0.002332
     13          8           0        3.013483   -0.997117   -1.001291
     14          8           0        2.992400    1.426143   -0.393642
     15          7           0        3.098442   -0.229587    1.459325
     16          1           0        2.935697   -1.219293    1.665342
     17          8           0       -4.020109   -1.246220   -0.006103
     18          6           0       -4.254517    1.119284    0.069880
     19          1           0       -4.039910    1.736965   -0.808652
     20          1           0       -3.980724    1.700208    0.956799
     21          1           0       -5.318591    0.881883    0.099375
 ---------------------------------------------------------------------
 Rotational constants (GHZ):           2.1120462           0.3405560           0.3124323
 General basis read from cards:  (6D, 7F)
 There are   267 symmetry adapted cartesian basis functions of A   symmetry.
 There are   267 symmetry adapted basis functions of A   symmetry.
   267 basis functions,   472 primitive gaussians,   267 cartesian basis functions
    52 alpha electrons       52 beta electrons
       nuclear repulsion energy       879.1428146846 Hartrees.
 NAtoms=   21 NActive=   21 NUniq=   21 SFac= 1.00D+00 NAtFMM=   60 NAOKFM=F Big=F
 Integral buffers will be    131072 words long.
 Raffenetti 2 integral format.
 Two-electron integral symmetry is turned on.
 One-electron integrals computed using PRISM.
 NBasis=   267 RedAO= T EigKep=  1.20D-06  NBF=   267
 NBsUse=   267 1.00D-06 EigRej= -1.00D+00 NBFU=   267
 ExpMin= 4.05D-02 ExpMax= 2.19D+04 ExpMxC= 3.30D+03 IAcc=3 IRadAn=         5 AccDes= 0.00D+00
 Harris functional with IExCor= 1009 and IRadAn=       5 diagonalized for initial guess.
 HarFok:  IExCor= 1009 AccDes= 0.00D+00 IRadAn=         5 IDoV= 1 UseB2=F ITyADJ=14
 ICtDFT=  3500011 ScaDFX=  1.000000  1.000000  1.000000  1.000000
 FoFCou: FMM=F IPFlag=           0 FMFlag=      100000 FMFlg1=           0
         NFxFlg=           0 DoJE=T BraDBF=F KetDBF=T FulRan=T
         wScrn=  0.000000 ICntrl=       500 IOpCl=  0 I1Cent=   200000004 NGrid=           0
         NMat0=    1 NMatS0=      1 NMatT0=    0 NMatD0=    1 NMtDS0=    0 NMtDT0=    0
 Petite list used in FoFCou.
 Requested convergence on RMS density matrix=1.00D-08 within 128 cycles.
 Requested convergence on MAX density matrix=1.00D-06.
 Requested convergence on             energy=1.00D-06.
 No special actions if energy rises.
 SCF Done:  E(RM062X) =  -988.009729819     A.U. after   17 cycles
            NFock= 17  Conv=0.52D-08     -V/T= 2.0065

 **********************************************************************

            Population analysis using the SCF Density.

 **********************************************************************

 Orbital symmetries:
       Occupied  (A) (A) (A) (A) (A) (A) (A) (A) (A) (A) (A) (A)
                 (A) (A) (A) (A) (A) (A) (A) (A) (A) (A) (A) (A)
                 (A) (A) (A) (A) (A) (A) (A) (A) (A) (A) (A) (A)
                 (A) (A) (A) (A) (A) (A) (A) (A) (A) (A) (A) (A)
                 (A) (A) (A) (A)
       Virtual   (A) (A) (A) (A) (A) (A) (A) (A) (A) (A) (A) (A)
                 (A) (A) (A) (A) (A) (A) (A) (A) (A) (A) (A) (A)
                 (A) (A) (A) (A) (A) (A) (A) (A) (A) (A) (A) (A)
                 (A) (A) (A) (A) (A) (A) (A) (A) (A) (A) (A) (A)
                 (A) (A) (A) (A) (A) (A) (A) (A) (A) (A) (A) (A)
                 (A) (A) (A) (A) (A) (A) (A) (A) (A) (A) (A) (A)
                 (A) (A) (A) (A) (A) (A) (A) (A) (A) (A) (A) (A)
                 (A) (A) (A) (A) (A) (A) (A) (A) (A) (A) (A) (A)
                 (A) (A) (A) (A) (A) (A) (A) (A) (A) (A) (A) (A)
                 (A) (A) (A) (A) (A) (A) (A) (A) (A) (A) (A) (A)
                 (A) (A) (A) (A) (A) (A) (A) (A) (A) (A) (A) (A)
                 (A) (A) (A) (A) (A) (A) (A) (A) (A) (A) (A) (A)
                 (A) (A) (A) (A) (A) (A) (A) (A) (A) (A) (A) (A)
                 (A) (A) (A) (A) (A) (A) (A) (A) (A) (A) (A) (A)
                 (A) (A) (A) (A) (A) (A) (A) (A) (A) (A) (A) (A)
                 (A) (A) (A) (A) (A) (A) (A) (A) (A) (A) (A) (A)
                 (A) (A) (A) (A) (A) (A) (A) (A) (A) (A) (A) (A)
                 (A) (A) (A) (A) (A) (A) (A) (A) (A) (A) (A)
 The electronic state is 1-A.
 Alpha  occ. eigenvalues --  -89.97356 -19.55182 -19.45218 -19.45101 -14.56289
 Alpha  occ. eigenvalues --  -10.55882 -10.47586 -10.46878 -10.46673 -10.46157
 Alpha  occ. eigenvalues --  -10.46075 -10.45504 -10.45321  -8.28204  -6.20415
 Alpha  occ. eigenvalues --   -6.20375  -6.20300  -1.07682  -1.04070  -0.92155
 Alpha  occ. eigenvalues --   -0.86944  -0.80351  -0.78436  -0.75016  -0.74083
 Alpha  occ. eigenvalues --   -0.62914  -0.59381  -0.54490  -0.53223  -0.48447
 Alpha  occ. eigenvalues --   -0.44509  -0.44113  -0.43963  -0.42274  -0.40178
 Alpha  occ. eigenvalues --   -0.39609  -0.39201  -0.37796  -0.35903  -0.34873
 Alpha  occ. eigenvalues --   -0.34117  -0.32923  -0.30570  -0.25253  -0.24071
 Alpha  occ. eigenvalues --   -0.22965  -0.21416  -0.21082  -0.20356  -0.18629
 Alpha  occ. eigenvalues --   -0.16386  -0.13283
 Alpha virt. eigenvalues --    0.06564   0.08624   0.11540   0.11724   0.11817
 Alpha virt. eigenvalues --    0.13369   0.13553   0.14729   0.15231   0.15431
 Alpha virt. eigenvalues --    0.16891   0.17361   0.17511   0.17912   0.19404
 Alpha virt. eigenvalues --    0.19501   0.19853   0.20142   0.21823   0.22636
 Alpha virt. eigenvalues --    0.23538   0.24294   0.24415   0.25137   0.25452
 Alpha virt. eigenvalues --    0.26022   0.26883   0.27871   0.28719   0.29048
 Alpha virt. eigenvalues --    0.29445   0.29835   0.30926   0.31096   0.32113
 Alpha virt. eigenvalues --    0.32163   0.32427   0.34057   0.34121   0.34494
 Alpha virt. eigenvalues --    0.35211   0.35311   0.35951   0.37070   0.37372
 Alpha virt. eigenvalues --    0.37739   0.38516   0.39813   0.40054   0.40973
 Alpha virt. eigenvalues --    0.41052   0.41624   0.41669   0.42976   0.43425
 Alpha virt. eigenvalues --    0.43520   0.43976   0.44962   0.45408   0.46179
 Alpha virt. eigenvalues --    0.47075   0.47374   0.48181   0.48382   0.49742
 Alpha virt. eigenvalues --    0.50745   0.51786   0.52401   0.53396   0.55436
 Alpha virt. eigenvalues --    0.55629   0.57372   0.57820   0.62476   0.64386
 Alpha virt. eigenvalues --    0.69748   0.73230   0.76863   0.77538   0.79253
 Alpha virt. eigenvalues --    0.80127   0.81877   0.83435   0.83767   0.84460
 Alpha virt. eigenvalues --    0.86591   0.87284   0.88079   0.88286   0.89457
 Alpha virt. eigenvalues --    0.91882   0.93204   0.93557   0.94486   0.94942
 Alpha virt. eigenvalues --    0.95672   0.97434   1.04328   1.05836   1.07244
 Alpha virt. eigenvalues --    1.08170   1.09797   1.11083   1.11359   1.15723
 Alpha virt. eigenvalues --    1.16957   1.18427   1.20225   1.22063   1.23368
 Alpha virt. eigenvalues --    1.24531   1.25717   1.26437   1.27134   1.29103
 Alpha virt. eigenvalues --    1.31140   1.32543   1.33019   1.36673   1.37537
 Alpha virt. eigenvalues --    1.38382   1.40743   1.41522   1.42116   1.45114
 Alpha virt. eigenvalues --    1.46660   1.47980   1.48722   1.51590   1.52382
 Alpha virt. eigenvalues --    1.53488   1.54419   1.56315   1.57132   1.57414
 Alpha virt. eigenvalues --    1.57883   1.59048   1.59989   1.62384   1.63836
 Alpha virt. eigenvalues --    1.65417   1.66165   1.66566   1.69542   1.76503
 Alpha virt. eigenvalues --    1.84166   1.86811   1.87345   1.89596   1.91635
 Alpha virt. eigenvalues --    1.95416   1.98281   1.98943   1.99402   2.00015
 Alpha virt. eigenvalues --    2.01228   2.02997   2.06225   2.07799   2.08409
 Alpha virt. eigenvalues --    2.11768   2.12868   2.15941   2.16634   2.17357
 Alpha virt. eigenvalues --    2.19260   2.20083   2.20758   2.25714   2.26894
 Alpha virt. eigenvalues --    2.29132   2.32065   2.32815   2.35143   2.37536
 Alpha virt. eigenvalues --    2.41224   2.41267   2.43757   2.44651   2.45060
 Alpha virt. eigenvalues --    2.46257   2.51054   2.56581   2.56746   2.58600
 Alpha virt. eigenvalues --    2.66754   2.71260   2.75853   2.76901   2.79378
 Alpha virt. eigenvalues --    2.81302   2.84270   2.92093   2.92430   2.95827
 Alpha virt. eigenvalues --    3.03688   3.06061   3.11203   3.13535   3.24498
 Alpha virt. eigenvalues --    3.33078   3.51215   4.15033   4.26224   4.31384
 Alpha virt. eigenvalues --    4.37393   4.38993   4.43363   4.44153   4.45937
 Alpha virt. eigenvalues --    4.48631   4.53617   4.56756   4.72290   4.86673
          Condensed to atoms (all electrons):
               1          2          3          4          5          6
     1  C   42.547024  -3.712927   0.128436  -1.514686   0.040222  -6.488097
     2  C   -3.712927  69.693545   0.282330 -19.924361  -0.144890  -3.312246
     3  H    0.128436   0.282330   0.468094  -0.148962  -0.003398  -0.022940
     4  C   -1.514686 -19.924361  -0.148962  27.867629   0.358607  -0.358323
     5  H    0.040222  -0.144890  -0.003398   0.358607   0.477045   0.087646
     6  C   -6.488097  -3.312246  -0.022940  -0.358323   0.087646  16.422087
     7  C   -1.263724   0.071717   0.008944  -0.083809  -0.074415  -4.408324
     8  C   -0.818369   3.558785  -0.065921  -6.140940   0.057723   0.367592
     9  H   -0.013206  -0.055111   0.000016   0.109060  -0.000125   0.086553
    10  C  -18.517269 -42.040722   0.111215   4.573002  -0.043071   3.640526
    11  H    0.083987   0.050654  -0.000121  -0.032514   0.000013  -0.009044
    12  S   -2.415269   1.346480   0.005082   0.025881   0.000703  -0.154972
    13  O    0.045639   0.035019   0.004976  -0.024452   0.000008  -0.083933
    14  O   -0.421507   0.153157   0.000629   0.174623   0.000029  -0.022075
    15  N   -0.094204  -0.256969   0.000153  -0.059168   0.000029   0.068745
    16  H   -0.127237  -0.005022  -0.000641   0.019753  -0.000000   0.000074
    17  O    0.003935   0.088402   0.000129   0.184817   0.004050  -0.509873
    18  C   -0.014156  -0.488771  -0.000426   0.665467   0.012005   0.223910
    19  H   -0.002140  -0.000337  -0.000000  -0.009055  -0.000001  -0.038940
    20  H   -0.001077   0.003923  -0.000000  -0.015409  -0.000000  -0.000226
    21  H    0.001480  -0.005124  -0.000000  -0.014487  -0.000004   0.079361
               7          8          9         10         11         12
     1  C   -1.263724  -0.818369  -0.013206 -18.517269   0.083987  -2.415269
     2  C    0.071717   3.558785  -0.055111 -42.040722   0.050654   1.346480
     3  H    0.008944  -0.065921   0.000016   0.111215  -0.000121   0.005082
     4  C   -0.083809  -6.140940   0.109060   4.573002  -0.032514   0.025881
     5  H   -0.074415   0.057723  -0.000125  -0.043071   0.000013   0.000703
     6  C   -4.408324   0.367592   0.086553   3.640526  -0.009044  -0.154972
     7  C   11.095857  -3.223592   0.000415   4.115480  -0.001559  -0.140244
     8  C   -3.223592  28.685731  -0.023331 -16.103441   0.010546   0.363240
     9  H    0.000415  -0.023331   0.535505   0.186317  -0.003858   0.003345
    10  C    4.115480 -16.103441   0.186317  71.887825   0.202624  -0.443028
    11  H   -0.001559   0.010546  -0.003858   0.202624   0.446054  -0.001421
    12  S   -0.140244   0.363240   0.003345  -0.443028  -0.001421  15.346588
    13  O   -0.017720   0.183034   0.000020  -0.287663   0.001132   0.193475
    14  O   -0.004470   0.160874   0.000371  -0.299969   0.002390   0.255689
    15  N    0.004293  -0.062121   0.000112   0.477886  -0.000538   0.056449
    16  H   -0.000677   0.006405   0.000000   0.032293  -0.000012   0.129091
    17  O    0.622024  -0.169120  -0.000194   0.053009   0.000020   0.000777
    18  C   -1.100629  -0.459782  -0.006477  -0.274783   0.001040   0.003341
    19  H   -0.025307   0.007188  -0.001618   0.040470  -0.000002  -0.000041
    20  H   -0.058530   0.013389  -0.001572   0.019216  -0.000001  -0.000006
    21  H   -0.175236   0.002922   0.000225  -0.005804  -0.000000   0.000005
              13         14         15         16         17         18
     1  C    0.045639  -0.421507  -0.094204  -0.127237   0.003935  -0.014156
     2  C    0.035019   0.153157  -0.256969  -0.005022   0.088402  -0.488771
     3  H    0.004976   0.000629   0.000153  -0.000641   0.000129  -0.000426
     4  C   -0.024452   0.174623  -0.059168   0.019753   0.184817   0.665467
     5  H    0.000008   0.000029   0.000029  -0.000000   0.004050   0.012005
     6  C   -0.083933  -0.022075   0.068745   0.000074  -0.509873   0.223910
     7  C   -0.017720  -0.004470   0.004293  -0.000677   0.622024  -1.100629
     8  C    0.183034   0.160874  -0.062121   0.006405  -0.169120  -0.459782
     9  H    0.000020   0.000371   0.000112   0.000000  -0.000194  -0.006477
    10  C   -0.287663  -0.299969   0.477886   0.032293   0.053009  -0.274783
    11  H    0.001132   0.002390  -0.000538  -0.000012   0.000020   0.001040
    12  S    0.193475   0.255689   0.056449   0.129091   0.000777   0.003341
    13  O    8.893000  -0.125832  -0.210293  -0.019784  -0.000005  -0.000067
    14  O   -0.125832   8.954560  -0.180592   0.020981   0.000008   0.000624
    15  N   -0.210293  -0.180592   7.846569   0.161078  -0.000023  -0.000160
    16  H   -0.019784   0.020981   0.161078   0.451182   0.000000   0.000041
    17  O   -0.000005   0.000008  -0.000023   0.000000   8.273575  -0.097640
    18  C   -0.000067   0.000624  -0.000160   0.000041  -0.097640   7.195715
    19  H   -0.000000   0.000000  -0.000001   0.000000   0.002542   0.366457
    20  H   -0.000000  -0.000000   0.000001  -0.000000   0.002861   0.377098
    21  H    0.000000   0.000000   0.000000   0.000000   0.000776   0.466208
              19         20         21
     1  C   -0.002140  -0.001077   0.001480
     2  C   -0.000337   0.003923  -0.005124
     3  H   -0.000000  -0.000000  -0.000000
     4  C   -0.009055  -0.015409  -0.014487
     5  H   -0.000001  -0.000000  -0.000004
     6  C   -0.038940  -0.000226   0.079361
     7  C   -0.025307  -0.058530  -0.175236
     8  C    0.007188   0.013389   0.002922
     9  H   -0.001618  -0.001572   0.000225
    10  C    0.040470   0.019216  -0.005804
    11  H   -0.000002  -0.000001  -0.000000
    12  S   -0.000041  -0.000006   0.000005
    13  O   -0.000000  -0.000000   0.000000
    14  O    0.000000  -0.000000   0.000000
    15  N   -0.000001   0.000001   0.000000
    16  H    0.000000  -0.000000   0.000000
    17  O    0.002542   0.002861   0.000776
    18  C    0.366457   0.377098   0.466208
    19  H    0.476048  -0.028531  -0.020810
    20  H   -0.028531   0.475024  -0.020809
    21  H   -0.020810  -0.020809   0.455367
 Mulliken charges:
               1
     1  C   -1.446857
     2  C    0.662467
     3  H    0.232405
     4  C    0.347328
     5  H    0.227822
     6  C    0.432497
     7  C    0.659507
     8  C   -0.350811
     9  H    0.183552
    10  C   -1.324114
    11  H    0.250611
    12  S    1.424833
    13  O   -0.586553
    14  O   -0.669490
    15  N   -0.751246
    16  H    0.332476
    17  O   -0.460069
    18  C   -0.869013
    19  H    0.234078
    20  H    0.234650
    21  H    0.235928
 Sum of Mulliken charges =  -1.00000
 Mulliken charges with hydrogens summed into heavy atoms:
               1
     1  C   -1.446857
     2  C    0.894872
     4  C    0.575150
     6  C    0.432497
     7  C    0.659507
     8  C   -0.167259
    10  C   -1.073504
    12  S    1.424833
    13  O   -0.586553
    14  O   -0.669490
    15  N   -0.418770
    17  O   -0.460069
    18  C   -0.164357
 Electronic spatial extent (au):  <R**2>=           3424.2882
 Charge=             -1.0000 electrons
 Dipole moment (field-independent basis, Debye):
    X=            -11.4477    Y=              0.9896    Z=              0.3713  Tot=             11.4964
 Quadrupole moment (field-independent basis, Debye-Ang):
   XX=           -149.1651   YY=            -89.4970   ZZ=            -96.3350
   XY=            -16.6300   XZ=              0.1697   YZ=             -3.2993
 Traceless Quadrupole moment (field-independent basis, Debye-Ang):
   XX=            -37.4994   YY=             22.1687   ZZ=             15.3307
   XY=            -16.6300   XZ=              0.1697   YZ=             -3.2993
 Octapole moment (field-independent basis, Debye-Ang**2):
  XXX=            -96.6588  YYY=             -6.0927  ZZZ=            -11.5044  XYY=             -7.2066
  XXY=             33.8454  XXZ=             -3.1233  XZZ=            -26.6743  YZZ=             -1.7105
  YYZ=              6.4821  XYZ=             -9.6986
 Hexadecapole moment (field-independent basis, Debye-Ang**3):
 XXXX=          -4588.6087 YYYY=           -591.5951 ZZZZ=           -272.5565 XXXY=           -223.0142
 XXXZ=            -42.0030 YYYX=            -22.3732 YYYZ=             -4.6956 ZZZX=            -37.1250
 ZZZY=            -10.4290 XXYY=           -838.0632 XXZZ=           -749.7922 YYZZ=           -145.3388
 XXYZ=            -28.9763 YYXZ=             19.3307 ZZXY=             -2.2240
 N-N= 8.791428146846D+02 E-N=-4.093972832526D+03  KE= 9.816290167040D+02
 Calling FoFJK, ICntrl=      2127 FMM=F ISym2X=0 I1Cent= 0 IOpClX= 0 NMat=1 NMatS=1 NMatT=0.
 ***** Axes restored to original set *****
 -------------------------------------------------------------------
 Center     Atomic                   Forces (Hartrees/Bohr)
 Number     Number              X              Y              Z
 -------------------------------------------------------------------
      1        6          -0.000677277    0.001113404    0.002344117
      2        6           0.002387372    0.000545513   -0.006212592
      3        1           0.001436773   -0.000938858    0.002125519
      4        6          -0.001831027   -0.000084843    0.002883407
      5        1           0.001069175    0.000051687   -0.002172302
      6        6           0.003145522    0.000385558   -0.007889374
      7        6          -0.020184606   -0.002649612    0.006035290
      8        6          -0.001810106   -0.000099052    0.004192147
      9        1           0.000778885    0.000150491   -0.000703860
     10        6           0.001119441   -0.000051594   -0.005496143
     11        1          -0.001812026   -0.000495486    0.003319266
     12       16           0.005744375   -0.014739156    0.034759331
     13        8           0.002178162    0.008157487   -0.011032203
     14        8          -0.006819652    0.003406266   -0.012034323
     15        7          -0.000837638    0.005117526   -0.008207585
     16        1           0.000113299   -0.001937561    0.001560769
     17        8           0.010098738    0.001424950    0.000119362
     18        6           0.005338552    0.000592774   -0.002798311
     19        1           0.000515204    0.000267435   -0.000380739
     20        1           0.000521174   -0.000137788   -0.000355155
     21        1          -0.000474340   -0.000079140   -0.000056621
 -------------------------------------------------------------------
 Cartesian Forces:  Max     0.034759331 RMS     0.006624414

 GradGradGradGradGradGradGradGradGradGradGradGradGradGradGradGradGradGrad
 Berny optimization.
 FormGI is forming the generalized inverse of G from B-inverse, IUseBI=4.
 Internal  Forces:  Max     0.012360488 RMS     0.003474205
 Search for a local minimum.
 Step number   1 out of a maximum of  108
 All quantities printed in internal units (Hartrees-Bohrs-Radians)
 Mixed Optimization -- RFO/linear search
 Second derivative matrix not updated -- first step.
 ITU=  0
     Eigenvalues ---    0.00316   0.00731   0.00763   0.00813   0.01438
     Eigenvalues ---    0.01710   0.02098   0.02137   0.02149   0.02169
     Eigenvalues ---    0.02173   0.02187   0.02199   0.03116   0.07409
     Eigenvalues ---    0.07426   0.10442   0.11871   0.16000   0.16000
     Eigenvalues ---    0.16000   0.16000   0.16000   0.16000   0.16000
     Eigenvalues ---    0.16000   0.16978   0.21586   0.22000   0.22975
     Eigenvalues ---    0.23988   0.24956   0.25000   0.25000   0.25000
     Eigenvalues ---    0.25000   0.25798   0.32101   0.32752   0.34222
     Eigenvalues ---    0.34239   0.34739   0.35212   0.35343   0.35356
     Eigenvalues ---    0.35391   0.42084   0.42304   0.43716   0.45865
     Eigenvalues ---    0.45997   0.46760   0.47318   0.59226   0.78465
     Eigenvalues ---    0.81332   0.92575
 RFO step:  Lambda=-5.56793584D-03 EMin= 3.16329203D-03
 Linear search not attempted -- first point.
 Iteration  1 RMS(Cart)=  0.02812110 RMS(Int)=  0.00105561
 Iteration  2 RMS(Cart)=  0.00090520 RMS(Int)=  0.00057605
 Iteration  3 RMS(Cart)=  0.00000039 RMS(Int)=  0.00057605
 Variable       Old X    -DE/DX   Delta X   Delta X   Delta X     New X
                                 (Linear)    (Quad)   (Total)
    R1        2.64031   0.00077   0.00000   0.00148   0.00149   2.64180
    R2        2.62939  -0.00078   0.00000  -0.00181  -0.00181   2.62757
    R3        3.40922   0.00500   0.00000   0.01899   0.01899   3.42820
    R4        2.05332  -0.00023   0.00000  -0.00064  -0.00064   2.05268
    R5        2.62331   0.00075   0.00000   0.00158   0.00159   2.62489
    R6        2.05121   0.00031   0.00000   0.00085   0.00085   2.05206
    R7        2.64902   0.00003   0.00000   0.00026   0.00026   2.64928
    R8        2.82789  -0.00271   0.00000  -0.00813  -0.00813   2.81976
    R9        2.64264   0.00234   0.00000   0.00522   0.00521   2.64785
   R10        2.31769  -0.00870   0.00000  -0.00934  -0.00934   2.30835
   R11        2.83960   0.00691   0.00000   0.02115   0.02115   2.86075
   R12        2.05101   0.00102   0.00000   0.00284   0.00284   2.05385
   R13        2.63430   0.00021   0.00000   0.00044   0.00043   2.63473
   R14        2.05045   0.00029   0.00000   0.00080   0.00080   2.05125
   R15        2.82454  -0.00971   0.00000  -0.01229  -0.01229   2.81225
   R16        2.80905  -0.01093   0.00000  -0.01335  -0.01335   2.79570
   R17        2.95258   0.00126   0.00000   0.00210   0.00210   2.95469
   R18        1.93496  -0.00070   0.00000  -0.00158  -0.00158   1.93338
   R19        2.06958   0.00002   0.00000   0.00006   0.00006   2.06964
   R20        2.06928   0.00000   0.00000   0.00000   0.00000   2.06928
   R21        2.06100   0.00012   0.00000   0.00034   0.00034   2.06134
    A1        2.11079  -0.00318   0.00000  -0.01335  -0.01337   2.09742
    A2        2.07282   0.00424   0.00000   0.01739   0.01736   2.09018
    A3        2.09803  -0.00104   0.00000  -0.00330  -0.00334   2.09469
    A4        2.10099  -0.00399   0.00000  -0.02139  -0.02144   2.07955
    A5        2.08407   0.00282   0.00000   0.01158   0.01157   2.09564
    A6        2.09811   0.00117   0.00000   0.00973   0.00968   2.10778
    A7        2.09588   0.00246   0.00000   0.01493   0.01492   2.11080
    A8        2.10064  -0.00001   0.00000  -0.00015  -0.00014   2.10049
    A9        2.08667  -0.00246   0.00000  -0.01479  -0.01480   2.07187
   A10        2.07766  -0.00037   0.00000  -0.00155  -0.00155   2.07611
   A11        2.08719  -0.00251   0.00000  -0.00965  -0.00965   2.07754
   A12        2.11834   0.00289   0.00000   0.01119   0.01119   2.12953
   A13        2.09594   0.00694   0.00000   0.02715   0.02715   2.12310
   A14        2.07673  -0.00154   0.00000  -0.00604  -0.00604   2.07070
   A15        2.11051  -0.00540   0.00000  -0.02112  -0.02112   2.08939
   A16        2.10567  -0.00102   0.00000  -0.00488  -0.00488   2.10079
   A17        2.09992   0.00144   0.00000   0.00615   0.00614   2.10606
   A18        2.07759  -0.00042   0.00000  -0.00128  -0.00128   2.07632
   A19        2.08375   0.00145   0.00000   0.00545   0.00544   2.08919
   A20        2.09900  -0.00461   0.00000  -0.02619  -0.02619   2.07281
   A21        2.10042   0.00316   0.00000   0.02074   0.02074   2.12116
   A22        1.80367  -0.00731   0.00000  -0.04609  -0.04644   1.75723
   A23        1.83421  -0.00916   0.00000  -0.05045  -0.05046   1.78374
   A24        1.91137  -0.00744   0.00000  -0.04810  -0.04857   1.86279
   A25        1.98740   0.00810   0.00000   0.06362   0.06083   2.04823
   A26        2.00754   0.00526   0.00000   0.02364   0.02066   2.02820
   A27        1.90766   0.00727   0.00000   0.03835   0.03564   1.94330
   A28        1.88312  -0.00235   0.00000  -0.01417  -0.01417   1.86894
   A29        1.92365   0.00103   0.00000   0.00667   0.00665   1.93030
   A30        1.92547   0.00095   0.00000   0.00618   0.00617   1.93164
   A31        1.90925  -0.00109   0.00000  -0.00745  -0.00744   1.90181
   A32        1.87709  -0.00067   0.00000  -0.00230  -0.00233   1.87476
   A33        1.91309  -0.00013   0.00000  -0.00164  -0.00163   1.91146
   A34        1.91508  -0.00009   0.00000  -0.00137  -0.00136   1.91372
    D1        3.14099  -0.00066   0.00000  -0.02598  -0.02584   3.11516
    D2        0.00545  -0.00025   0.00000  -0.01014  -0.01014  -0.00469
    D3       -0.06024  -0.00040   0.00000  -0.01165  -0.01152  -0.07176
    D4        3.08740   0.00002   0.00000   0.00418   0.00417   3.09157
    D5       -0.00419   0.00030   0.00000   0.01124   0.01121   0.00701
    D6       -3.13942   0.00032   0.00000   0.01196   0.01188  -3.12755
    D7       -3.08529  -0.00015   0.00000  -0.00398  -0.00384  -3.08913
    D8        0.06267  -0.00013   0.00000  -0.00326  -0.00318   0.05949
    D9        0.79672  -0.00166   0.00000  -0.05998  -0.05956   0.73716
   D10        2.88501   0.00025   0.00000  -0.03076  -0.03114   2.85386
   D11       -1.35078   0.00019   0.00000  -0.03655  -0.03671  -1.38749
   D12       -2.40406  -0.00147   0.00000  -0.04612  -0.04562  -2.44969
   D13       -0.31578   0.00044   0.00000  -0.01690  -0.01721  -0.33299
   D14        1.73162   0.00038   0.00000  -0.02269  -0.02277   1.70885
   D15        3.13698  -0.00010   0.00000  -0.00370  -0.00376   3.13322
   D16       -0.00413   0.00006   0.00000   0.00304   0.00307  -0.00106
   D17        0.00143   0.00033   0.00000   0.01222   0.01230   0.01373
   D18       -3.13969   0.00049   0.00000   0.01895   0.01913  -3.12056
   D19       -3.13972  -0.00005   0.00000  -0.00257  -0.00253   3.14093
   D20        0.00164   0.00006   0.00000   0.00273   0.00275   0.00439
   D21        0.00235   0.00011   0.00000   0.00412   0.00414   0.00648
   D22       -3.13948   0.00023   0.00000   0.00942   0.00942  -3.13006
   D23       -0.02888   0.00019   0.00000   0.01176   0.01178  -0.01710
   D24        3.11080   0.00018   0.00000   0.01180   0.01183   3.12263
   D25        3.11295   0.00007   0.00000   0.00637   0.00634   3.11929
   D26       -0.03055   0.00006   0.00000   0.00641   0.00638  -0.02417
   D27        3.13734  -0.00009   0.00000  -0.00379  -0.00382   3.13352
   D28       -0.00037  -0.00002   0.00000  -0.00164  -0.00167  -0.00204
   D29       -0.00449   0.00002   0.00000   0.00163   0.00163  -0.00286
   D30        3.14099   0.00009   0.00000   0.00378   0.00378  -3.13842
   D31        1.05318   0.00020   0.00000   0.00232   0.00234   1.05552
   D32       -1.01717  -0.00021   0.00000  -0.00284  -0.00285  -1.02002
   D33       -3.12539  -0.00001   0.00000  -0.00027  -0.00027  -3.12565
   D34       -2.09033   0.00021   0.00000   0.00241   0.00243  -2.08790
   D35        2.12250  -0.00020   0.00000  -0.00274  -0.00276   2.11974
   D36        0.01428  -0.00000   0.00000  -0.00017  -0.00017   0.01411
   D37        0.00163  -0.00015   0.00000  -0.00524  -0.00527  -0.00364
   D38        3.13685  -0.00020   0.00000  -0.00614  -0.00613   3.13072
   D39       -3.13614  -0.00008   0.00000  -0.00311  -0.00314  -3.13928
   D40       -0.00092  -0.00013   0.00000  -0.00401  -0.00401  -0.00492
   D41        1.26202   0.00122   0.00000   0.03064   0.03082   1.29285
   D42       -0.75951   0.01236   0.00000   0.10752   0.10935  -0.65016
   D43       -3.02045  -0.00979   0.00000  -0.03483  -0.03684  -3.05729
         Item               Value     Threshold  Converged?
 Maximum Force            0.012360     0.000450     NO 
 RMS     Force            0.003474     0.000300     NO 
 Maximum Displacement     0.105795     0.001800     NO 
 RMS     Displacement     0.028138     0.001200     NO 
 Predicted change in Energy=-2.961713D-03
 GradGradGradGradGradGradGradGradGradGradGradGradGradGradGradGradGradGrad

                          Input orientation:                          
 ---------------------------------------------------------------------
 Center     Atomic      Atomic             Coordinates (Angstroms)
 Number     Number       Type             X           Y           Z
 ---------------------------------------------------------------------
      1          6           0       -1.361002    0.544517   -0.994385
      2          6           0       -2.522693    0.421886   -1.762357
      3          1           0       -3.477680    0.294802   -1.260616
      4          6           0       -2.445107    0.437091   -3.149138
      5          1           0       -3.337509    0.335145   -3.759396
      6          6           0       -1.204857    0.576423   -3.787734
      7          6           0       -1.157550    0.587937   -5.279092
      8          6           0       -0.047389    0.694415   -3.006931
      9          1           0        0.926112    0.795914   -3.479409
     10          6           0       -0.123702    0.676471   -1.614897
     11          1           0        0.764810    0.756795   -0.996552
     12         16           0       -1.479604    0.601997    0.814948
     13          8           0       -2.495151   -0.458175    1.058627
     14          8           0       -0.087862    0.318169    1.228684
     15          7           0       -1.899353    2.060091    1.192396
     16          1           0       -2.889201    2.159268    0.953443
     17          8           0       -2.168264    0.461551   -5.953338
     18          6           0        0.182392    0.763784   -5.961260
     19          1           0        0.863887   -0.048543   -5.687101
     20          1           0        0.652397    1.703764   -5.653698
     21          1           0        0.032694    0.764899   -7.041753
 ---------------------------------------------------------------------
                    Distance matrix (angstroms):
                    1          2          3          4          5
     1  C    0.000000
     2  C    1.397979   0.000000
     3  H    2.147921   1.086229   0.000000
     4  C    2.414495   1.389034   2.157074   0.000000
     5  H    3.405246   2.158614   2.503033   1.085904   0.000000
     6  C    2.797891   2.421307   3.410478   1.401941   2.146444
     7  C    4.289754   3.776058   4.649417   2.493443   2.669382
     8  C    2.407984   2.783948   3.869910   2.415677   3.394138
     9  H    3.386656   3.870714   4.956566   3.406311   4.297577
    10  C    1.390452   2.416964   3.394165   2.792870   3.878651
    11  H    2.136385   3.392093   4.275733   3.878067   4.963881
    12  S    1.814127   2.786211   2.897351   4.083304   4.944456
    13  O    2.550793   2.955201   2.628921   4.302243   4.955024
    14  O    2.571800   3.858171   4.205714   4.973538   5.953271
    15  N    2.714553   3.435525   3.409491   4.667001   5.437276
    16  H    2.955815   3.244748   2.953743   4.471497   5.073386
    17  O    5.024915   4.206129   4.874835   2.817939   2.489276
    18  C    5.205765   5.006512   5.975962   3.862448   4.173924
    19  H    5.227182   5.205175   6.209739   4.198397   4.638426
    20  H    5.206421   5.183333   6.192082   4.179930   4.623943
    21  H    6.209800   5.875346   6.779769   4.625950   4.724069
                    6          7          8          9         10
     6  C    0.000000
     7  C    1.492153   0.000000
     8  C    1.401181   2.531109   0.000000
     9  H    2.164317   2.761116   1.086849   0.000000
    10  C    2.429017   3.808281   1.394239   2.143078   0.000000
    11  H    3.420938   4.697247   2.169143   2.488399   1.085475
    12  S    4.610946   6.102560   4.082467   4.926112   2.783552
    13  O    5.120788   6.561266   4.883520   5.819928   3.749523
    14  O    5.145758   6.600618   4.252485   4.839683   2.866290
    15  N    5.242641   6.678148   4.788443   5.604209   3.598365
    16  H    5.274577   6.656739   5.089818   6.005458   4.055001
    17  O    2.373013   1.221526   3.637810   3.975838   4.800885
    18  C    2.585301   1.513843   2.964063   2.591087   4.358002
    19  H    2.877131   2.158191   2.926726   2.364505   4.252508
    20  H    2.863933   2.159007   2.917852   2.372054   4.239053
    21  H    3.486502   2.134238   4.036233   3.672799   5.429829
                   11         12         13         14         15
    11  H    0.000000
    12  S    2.888406   0.000000
    13  O    4.040700   1.488180   0.000000
    14  O    2.423039   1.479419   2.535088   0.000000
    15  N    3.686168   1.563552   2.591241   2.513386   0.000000
    16  H    4.372780   2.105050   2.649027   3.363466   1.023100
    17  O    5.767133   6.804681   7.079577   7.478641   7.327288
    18  C    4.998758   6.978925   7.611914   7.208807   7.562331
    19  H    4.760214   6.942031   7.546906   6.990593   7.707743
    20  H    4.753777   6.899471   7.722457   7.059393   7.314874
    21  H    6.089377   8.002583   8.573335   8.283371   8.556374
                   16         17         18         19         20
    16  H    0.000000
    17  O    7.148819   0.000000
    18  C    7.693839   2.370020   0.000000
    19  H    7.940839   3.086263   1.095205   0.000000
    20  H    7.510306   3.096613   1.095017   1.765339   0.000000
    21  H    8.625827   2.474042   1.090815   1.785400   1.786672
                   21
    21  H    0.000000
 Stoichiometry    C8H8NO3S(1-)
 Framework group  C1[X(C8H8NO3S)]
 Deg. of freedom    57
 Full point group                 C1      NOp   1
 Largest Abelian subgroup         C1      NOp   1
 Largest concise Abelian subgroup C1      NOp   1
                         Standard orientation:                         
 ---------------------------------------------------------------------
 Center     Atomic      Atomic             Coordinates (Angstroms)
 Number     Number       Type             X           Y           Z
 ---------------------------------------------------------------------
      1          6           0        0.835116    0.002296   -0.056705
      2          6           0        0.170878   -1.227782   -0.050365
      3          1           0        0.753500   -2.143887   -0.084966
      4          6           0       -1.217337   -1.269046   -0.026449
      5          1           0       -1.747854   -2.216533   -0.029034
      6          6           0       -1.961104   -0.080820   -0.007245
      7          6           0       -3.450870   -0.161495    0.017364
      8          6           0       -1.283729    1.145704   -0.017922
      9          1           0       -1.838894    2.080041   -0.011020
     10          6           0        0.109598    1.188398   -0.044756
     11          1           0        0.648443    2.130500   -0.063377
     12         16           0        2.648073    0.046889   -0.009223
     13          8           0        2.975982   -1.047739   -0.962609
     14          8           0        2.938117    1.432428   -0.439150
     15          7           0        3.065193   -0.186080    1.479546
     16          1           0        2.913683   -1.177333    1.682512
     17          8           0       -4.034903   -1.234265    0.003367
     18          6           0       -4.246614    1.125522    0.063199
     19          1           0       -4.035395    1.740711   -0.817939
     20          1           0       -3.978233    1.714753    0.946284
     21          1           0       -5.309952    0.884026    0.092693
 ---------------------------------------------------------------------
 Rotational constants (GHZ):           2.1019624           0.3420845           0.3136017
 Basis read from rwf:  (6D, 7F)
 There are   267 symmetry adapted cartesian basis functions of A   symmetry.
 There are   267 symmetry adapted basis functions of A   symmetry.
   267 basis functions,   472 primitive gaussians,   267 cartesian basis functions
    52 alpha electrons       52 beta electrons
       nuclear repulsion energy       880.1141492268 Hartrees.
 NAtoms=   21 NActive=   21 NUniq=   21 SFac= 1.00D+00 NAtFMM=   60 NAOKFM=F Big=F
 Integral buffers will be    131072 words long.
 Raffenetti 2 integral format.
 Two-electron integral symmetry is turned on.
 One-electron integrals computed using PRISM.
 NBasis=   267 RedAO= T EigKep=  1.21D-06  NBF=   267
 NBsUse=   267 1.00D-06 EigRej= -1.00D+00 NBFU=   267
 Initial guess from the checkpoint file:  "/jobfs/48735353.gadi-pbs/Gau-2685297.chk"
 B after Tr=     0.000000    0.000000   -0.000000
         Rot=    0.999977    0.006745   -0.000099    0.000284 Ang=   0.77 deg.
 ExpMin= 4.05D-02 ExpMax= 2.19D+04 ExpMxC= 3.30D+03 IAcc=3 IRadAn=         5 AccDes= 0.00D+00
 Harris functional with IExCor= 1009 and IRadAn=       5 diagonalized for initial guess.
 HarFok:  IExCor= 1009 AccDes= 0.00D+00 IRadAn=         5 IDoV= 1 UseB2=F ITyADJ=14
 ICtDFT=  3500011 ScaDFX=  1.000000  1.000000  1.000000  1.000000
 FoFCou: FMM=F IPFlag=           0 FMFlag=      100000 FMFlg1=           0
         NFxFlg=           0 DoJE=T BraDBF=F KetDBF=T FulRan=T
         wScrn=  0.000000 ICntrl=       500 IOpCl=  0 I1Cent=   200000004 NGrid=           0
         NMat0=    1 NMatS0=      1 NMatT0=    0 NMatD0=    1 NMtDS0=    0 NMtDT0=    0
 Petite list used in FoFCou.
 Requested convergence on RMS density matrix=1.00D-08 within 128 cycles.
 Requested convergence on MAX density matrix=1.00D-06.
 Requested convergence on             energy=1.00D-06.
 No special actions if energy rises.
 SCF Done:  E(RM062X) =  -988.011922098     A.U. after   16 cycles
            NFock= 16  Conv=0.51D-08     -V/T= 2.0065
 Calling FoFJK, ICntrl=      2127 FMM=F ISym2X=0 I1Cent= 0 IOpClX= 0 NMat=1 NMatS=1 NMatT=0.
 ***** Axes restored to original set *****
 -------------------------------------------------------------------
 Center     Atomic                   Forces (Hartrees/Bohr)
 Number     Number              X              Y              Z
 -------------------------------------------------------------------
      1        6          -0.001023451    0.000102737   -0.001674011
      2        6           0.000615842    0.000217307   -0.003472057
      3        1          -0.000008917   -0.000358309    0.000659106
      4        6          -0.001129047   -0.000253990    0.002370977
      5        1           0.000047421    0.000047426   -0.000564397
      6        6           0.001408122    0.000261840   -0.003117698
      7        6          -0.004530971   -0.000572391    0.002786323
      8        6           0.000433954   -0.000016396    0.001753238
      9        1           0.000162586    0.000020111   -0.000331936
     10        6           0.001075753    0.000789230   -0.004732126
     11        1          -0.000192246   -0.000185347    0.000440803
     12       16           0.001242945   -0.004690881   -0.004567889
     13        8           0.003064911    0.003930972    0.003793482
     14        8          -0.006821048    0.001413521    0.003704605
     15        7           0.001884009    0.000524321    0.001055520
     16        1          -0.000190735   -0.001729064    0.002097547
     17        8           0.001369773    0.000253789    0.000483438
     18        6           0.002783445    0.000239063   -0.000616564
     19        1           0.000103590    0.000038679   -0.000034927
     20        1           0.000104220    0.000005781   -0.000073903
     21        1          -0.000400156   -0.000038400    0.000040468
 -------------------------------------------------------------------
 Cartesian Forces:  Max     0.006821048 RMS     0.002036322

 GradGradGradGradGradGradGradGradGradGradGradGradGradGradGradGradGradGrad
 Berny optimization.
 Using GEDIIS/GDIIS optimizer.
 FormGI is forming the generalized inverse of G from B-inverse, IUseBI=4.
 Internal  Forces:  Max     0.007704847 RMS     0.001821995
 Search for a local minimum.
 Step number   2 out of a maximum of  108
 All quantities printed in internal units (Hartrees-Bohrs-Radians)
 Mixed Optimization -- RFO/linear search
 Update second derivatives using D2CorX and points    1    2
 DE= -2.19D-03 DEPred=-2.96D-03 R= 7.40D-01
 TightC=F SS=  1.41D+00  RLast= 2.09D-01 DXNew= 5.0454D-01 6.2807D-01
 Trust test= 7.40D-01 RLast= 2.09D-01 DXMaxT set to 5.05D-01
 ITU=  1  0
 Use linear search instead of GDIIS.
     Eigenvalues ---    0.00315   0.00731   0.00764   0.00812   0.01428
     Eigenvalues ---    0.01705   0.02098   0.02136   0.02146   0.02169
     Eigenvalues ---    0.02173   0.02184   0.02197   0.02958   0.07347
     Eigenvalues ---    0.07441   0.11433   0.12473   0.15206   0.15997
     Eigenvalues ---    0.15999   0.16000   0.16000   0.16000   0.16000
     Eigenvalues ---    0.16000   0.21028   0.21949   0.22188   0.23247
     Eigenvalues ---    0.23912   0.24426   0.24978   0.25000   0.25000
     Eigenvalues ---    0.25017   0.29125   0.31622   0.32895   0.34222
     Eigenvalues ---    0.34239   0.34739   0.35224   0.35341   0.35351
     Eigenvalues ---    0.35390   0.42206   0.42261   0.43710   0.45915
     Eigenvalues ---    0.45967   0.47060   0.47437   0.59275   0.76433
     Eigenvalues ---    0.80293   0.92126
 RFO step:  Lambda=-1.08991628D-03 EMin= 3.14532822D-03
 Quartic linear search produced a step of -0.17603.
 Iteration  1 RMS(Cart)=  0.03589494 RMS(Int)=  0.00066700
 Iteration  2 RMS(Cart)=  0.00075060 RMS(Int)=  0.00005418
 Iteration  3 RMS(Cart)=  0.00000016 RMS(Int)=  0.00005418
 Variable       Old X    -DE/DX   Delta X   Delta X   Delta X     New X
                                 (Linear)    (Quad)   (Total)
    R1        2.64180   0.00067  -0.00026   0.00180   0.00154   2.64334
    R2        2.62757   0.00263   0.00032   0.00395   0.00427   2.63185
    R3        3.42820   0.00611  -0.00334   0.02624   0.02290   3.45111
    R4        2.05268   0.00035   0.00011   0.00058   0.00070   2.05337
    R5        2.62489  -0.00116  -0.00028  -0.00140  -0.00168   2.62321
    R6        2.05206   0.00027  -0.00015   0.00094   0.00079   2.05285
    R7        2.64928   0.00102  -0.00005   0.00185   0.00180   2.65109
    R8        2.81976  -0.00260   0.00143  -0.00944  -0.00801   2.81175
    R9        2.64785  -0.00010  -0.00092   0.00167   0.00075   2.64860
   R10        2.30835  -0.00142   0.00164  -0.00467  -0.00302   2.30532
   R11        2.86075   0.00262  -0.00372   0.01441   0.01069   2.87144
   R12        2.05385   0.00029  -0.00050   0.00171   0.00121   2.05506
   R13        2.63473  -0.00151  -0.00008  -0.00248  -0.00256   2.63218
   R14        2.05125   0.00008  -0.00014   0.00048   0.00034   2.05159
   R15        2.81225  -0.00427   0.00216  -0.00894  -0.00677   2.80548
   R16        2.79570  -0.00565   0.00235  -0.01055  -0.00820   2.78750
   R17        2.95469  -0.00082  -0.00037  -0.00036  -0.00073   2.95396
   R18        1.93338  -0.00048   0.00028  -0.00147  -0.00119   1.93219
   R19        2.06964   0.00002  -0.00001   0.00008   0.00007   2.06971
   R20        2.06928   0.00003  -0.00000   0.00006   0.00006   2.06934
   R21        2.06134   0.00002  -0.00006   0.00017   0.00011   2.06145
    A1        2.09742  -0.00167   0.00235  -0.01028  -0.00792   2.08951
    A2        2.09018   0.00091  -0.00306   0.00922   0.00616   2.09634
    A3        2.09469   0.00075   0.00059   0.00108   0.00167   2.09636
    A4        2.07955  -0.00090   0.00377  -0.01213  -0.00836   2.07119
    A5        2.09564   0.00064  -0.00204   0.00663   0.00459   2.10023
    A6        2.10778   0.00026  -0.00170   0.00530   0.00359   2.11138
    A7        2.11080   0.00042  -0.00263   0.00790   0.00527   2.11607
    A8        2.10049   0.00018   0.00003   0.00033   0.00035   2.10085
    A9        2.07187  -0.00059   0.00261  -0.00825  -0.00564   2.06623
   A10        2.07611  -0.00010   0.00027  -0.00071  -0.00044   2.07567
   A11        2.07754   0.00006   0.00170  -0.00372  -0.00203   2.07551
   A12        2.12953   0.00004  -0.00197   0.00442   0.00245   2.13198
   A13        2.12310   0.00072  -0.00478   0.01234   0.00755   2.13065
   A14        2.07070  -0.00060   0.00106  -0.00418  -0.00311   2.06758
   A15        2.08939  -0.00012   0.00372  -0.00816  -0.00444   2.08495
   A16        2.10079  -0.00008   0.00086  -0.00231  -0.00145   2.09934
   A17        2.10606  -0.00031  -0.00108   0.00089  -0.00019   2.10587
   A18        2.07632   0.00039   0.00022   0.00142   0.00165   2.07797
   A19        2.08919   0.00110  -0.00096   0.00613   0.00517   2.09436
   A20        2.07281  -0.00104   0.00461  -0.01426  -0.00965   2.06316
   A21        2.12116  -0.00006  -0.00365   0.00811   0.00446   2.12562
   A22        1.75723   0.00557   0.00818   0.01145   0.01968   1.77690
   A23        1.78374   0.00535   0.00888   0.00687   0.01576   1.79950
   A24        1.86279   0.00292   0.00855  -0.00078   0.00790   1.87069
   A25        2.04823  -0.00227  -0.01071   0.00557  -0.00507   2.04316
   A26        2.02820  -0.00361  -0.00364  -0.00909  -0.01243   2.01576
   A27        1.94330  -0.00428  -0.00627  -0.00922  -0.01520   1.92809
   A28        1.86894  -0.00185   0.00249  -0.01463  -0.01213   1.85681
   A29        1.93030   0.00025  -0.00117   0.00395   0.00278   1.93308
   A30        1.93164   0.00027  -0.00109   0.00381   0.00273   1.93437
   A31        1.90181  -0.00069   0.00131  -0.00665  -0.00534   1.89647
   A32        1.87476  -0.00011   0.00041  -0.00065  -0.00024   1.87452
   A33        1.91146   0.00016   0.00029  -0.00012   0.00017   1.91163
   A34        1.91372   0.00013   0.00024  -0.00025  -0.00001   1.91371
    D1        3.11516  -0.00013   0.00455  -0.01453  -0.00998   3.10517
    D2       -0.00469  -0.00003   0.00179  -0.00407  -0.00230  -0.00699
    D3       -0.07176  -0.00022   0.00203  -0.01418  -0.01215  -0.08391
    D4        3.09157  -0.00012  -0.00073  -0.00372  -0.00447   3.08711
    D5        0.00701   0.00000  -0.00197   0.00343   0.00147   0.00848
    D6       -3.12755   0.00006  -0.00209   0.00620   0.00412  -3.12343
    D7       -3.08913   0.00009   0.00068   0.00287   0.00352  -3.08561
    D8        0.05949   0.00015   0.00056   0.00564   0.00617   0.06566
    D9        0.73716  -0.00075   0.01048  -0.07617  -0.06579   0.67136
   D10        2.85386   0.00072   0.00548  -0.06352  -0.05790   2.79596
   D11       -1.38749  -0.00051   0.00646  -0.07105  -0.06458  -1.45206
   D12       -2.44969  -0.00091   0.00803  -0.07612  -0.06822  -2.51791
   D13       -0.33299   0.00057   0.00303  -0.06347  -0.06033  -0.39331
   D14        1.70885  -0.00066   0.00401  -0.07100  -0.06701   1.64184
   D15        3.13322   0.00000   0.00066  -0.00190  -0.00123   3.13200
   D16       -0.00106   0.00002  -0.00054   0.00122   0.00068  -0.00038
   D17        0.01373   0.00012  -0.00217   0.00895   0.00679   0.02052
   D18       -3.12056   0.00014  -0.00337   0.01207   0.00870  -3.11186
   D19        3.14093  -0.00001   0.00045  -0.00159  -0.00115   3.13978
   D20        0.00439   0.00003  -0.00048   0.00225   0.00177   0.00616
   D21        0.00648   0.00000  -0.00073   0.00139   0.00066   0.00715
   D22       -3.13006   0.00005  -0.00166   0.00523   0.00358  -3.12648
   D23       -0.01710   0.00010  -0.00207   0.01330   0.01123  -0.00587
   D24        3.12263   0.00012  -0.00208   0.01498   0.01290   3.13553
   D25        3.11929   0.00006  -0.00112   0.00932   0.00820   3.12749
   D26       -0.02417   0.00008  -0.00112   0.01100   0.00988  -0.01429
   D27        3.13352  -0.00004   0.00067  -0.00264  -0.00197   3.13155
   D28       -0.00204  -0.00006   0.00029  -0.00290  -0.00261  -0.00465
   D29       -0.00286   0.00001  -0.00029   0.00134   0.00105  -0.00181
   D30       -3.13842  -0.00002  -0.00067   0.00108   0.00042  -3.13801
   D31        1.05552   0.00008  -0.00041   0.00026  -0.00015   1.05537
   D32       -1.02002  -0.00012   0.00050  -0.00389  -0.00339  -1.02340
   D33       -3.12565  -0.00001   0.00005  -0.00168  -0.00163  -3.12729
   D34       -2.08790   0.00009  -0.00043   0.00193   0.00150  -2.08640
   D35        2.11974  -0.00010   0.00049  -0.00222  -0.00174   2.11801
   D36        0.01411   0.00001   0.00003  -0.00001   0.00001   0.01412
   D37       -0.00364   0.00004   0.00093   0.00005   0.00098  -0.00266
   D38        3.13072  -0.00003   0.00108  -0.00289  -0.00183   3.12889
   D39       -3.13928   0.00002   0.00055  -0.00019   0.00036  -3.13892
   D40       -0.00492  -0.00005   0.00071  -0.00314  -0.00244  -0.00736
   D41        1.29285   0.00190  -0.00543   0.05454   0.04907   1.34192
   D42       -0.65016  -0.00497  -0.01925   0.04566   0.02632  -0.62384
   D43       -3.05729   0.00770   0.00648   0.05785   0.06447  -2.99281
         Item               Value     Threshold  Converged?
 Maximum Force            0.007705     0.000450     NO 
 RMS     Force            0.001822     0.000300     NO 
 Maximum Displacement     0.117069     0.001800     NO 
 RMS     Displacement     0.035948     0.001200     NO 
 Predicted change in Energy=-6.695273D-04
 GradGradGradGradGradGradGradGradGradGradGradGradGradGradGradGradGradGrad

                          Input orientation:                          
 ---------------------------------------------------------------------
 Center     Atomic      Atomic             Coordinates (Angstroms)
 Number     Number       Type             X           Y           Z
 ---------------------------------------------------------------------
      1          6           0       -1.369214    0.538321   -1.000456
      2          6           0       -2.524748    0.396378   -1.775841
      3          1           0       -3.475429    0.245115   -1.271837
      4          6           0       -2.445688    0.413912   -3.161620
      5          1           0       -3.332366    0.296127   -3.778084
      6          6           0       -1.206506    0.574584   -3.799373
      7          6           0       -1.158593    0.586341   -5.286467
      8          6           0       -0.052889    0.709087   -3.014830
      9          1           0        0.920279    0.825436   -3.486047
     10          6           0       -0.133301    0.689516   -1.624404
     11          1           0        0.749543    0.780468   -0.999138
     12         16           0       -1.489778    0.599890    0.820766
     13          8           0       -2.553733   -0.400198    1.088806
     14          8           0       -0.122847    0.259181    1.258123
     15          7           0       -1.837403    2.073104    1.211009
     16          1           0       -2.832907    2.196691    1.013172
     17          8           0       -2.161759    0.454693   -5.968042
     18          6           0        0.188038    0.769056   -5.966231
     19          1           0        0.874328   -0.039108   -5.691583
     20          1           0        0.653611    1.712012   -5.660928
     21          1           0        0.036729    0.767598   -7.046556
 ---------------------------------------------------------------------
                    Distance matrix (angstroms):
                    1          2          3          4          5
     1  C    0.000000
     2  C    1.398795   0.000000
     3  H    2.143772   1.086598   0.000000
     4  C    2.417624   1.388144   2.158736   0.000000
     5  H    3.409962   2.161313   2.510845   1.086324   0.000000
     6  C    2.803876   2.421611   3.412477   1.402896   2.144126
     7  C    4.291452   3.771865   4.647733   2.490245   2.661717
     8  C    2.412380   2.782619   3.868730   2.415401   3.392353
     9  H    3.391515   3.870027   4.955981   3.406514   4.295398
    10  C    1.392714   2.414101   3.389929   2.790363   3.876482
    11  H    2.132550   3.387001   4.267477   3.875590   4.961765
    12  S    1.826246   2.802668   2.906486   4.099726   4.963549
    13  O    2.578550   2.973478   2.615069   4.329038   4.977726
    14  O    2.594712   3.872066   4.200084   4.995365   5.972082
    15  N    2.732277   3.493584   3.491304   4.716229   5.503055
    16  H    2.991201   3.333868   3.072906   4.555999   5.178584
    17  O    5.031107   4.208291   4.880983   2.821043   2.488249
    18  C    5.209337   5.005743   5.977695   3.863739   4.171918
    19  H    5.231976   5.203499   6.207683   4.198624   4.633588
    20  H    5.214343   5.189100   6.202006   4.187751   4.630103
    21  H    6.211648   5.871917   6.779058   4.623875   4.717627
                    6          7          8          9         10
     6  C    0.000000
     7  C    1.487913   0.000000
     8  C    1.401581   2.529423   0.000000
     9  H    2.164327   2.760505   1.087492   0.000000
    10  C    2.428058   3.804284   1.392887   2.143413   0.000000
    11  H    3.421963   4.696793   2.170716   2.493169   1.085654
    12  S    4.628883   6.116221   4.097361   4.940433   2.797663
    13  O    5.163285   6.600286   4.931994   5.873688   3.795718
    14  O    5.181898   6.634114   4.297143   4.890389   2.914492
    15  N    5.267591   6.699884   4.785682   5.587828   3.585784
    16  H    5.332635   6.714313   5.115297   6.017451   4.064019
    17  O    2.372764   1.219925   3.637789   3.974507   4.799685
    18  C    2.584153   1.519500   2.961825   2.586632   4.354428
    19  H    2.878706   2.165196   2.929937   2.369374   4.253017
    20  H    2.866909   2.165973   2.916648   2.363733   4.237718
    21  H    3.482397   2.135313   4.033146   3.668955   5.425379
                   11         12         13         14         15
    11  H    0.000000
    12  S    2.891231   0.000000
    13  O    4.082293   1.484595   0.000000
    14  O    2.475486   1.475081   2.524412   0.000000
    15  N    3.639773   1.563168   2.577845   2.496445   0.000000
    16  H    4.346150   2.095421   2.612946   3.340415   1.022468
    17  O    5.768173   6.823530   7.119241   7.510850   7.366359
    18  C    4.998743   6.993354   7.658852   7.248994   7.570715
    19  H    4.765114   6.957586   7.606291   7.027215   7.711076
    20  H    4.754920   6.916884   7.765783   7.112445   7.318405
    21  H    6.089297   8.015803   8.617329   8.321758   8.567619
                   16         17         18         19         20
    16  H    0.000000
    17  O    7.226503   0.000000
    18  C    7.737978   2.370733   0.000000
    19  H    7.980985   3.088380   1.095242   0.000000
    20  H    7.545484   3.098625   1.095050   1.765241   0.000000
    21  H    8.673888   2.468694   1.090871   1.785581   1.786736
                   21
    21  H    0.000000
 Stoichiometry    C8H8NO3S(1-)
 Framework group  C1[X(C8H8NO3S)]
 Deg. of freedom    57
 Full point group                 C1      NOp   1
 Largest Abelian subgroup         C1      NOp   1
 Largest concise Abelian subgroup C1      NOp   1
                         Standard orientation:                         
 ---------------------------------------------------------------------
 Center     Atomic      Atomic             Coordinates (Angstroms)
 Number     Number       Type             X           Y           Z
 ---------------------------------------------------------------------
      1          6           0        0.827902   -0.001728   -0.061481
      2          6           0        0.157546   -1.229423   -0.057446
      3          1           0        0.743338   -2.143408   -0.104065
      4          6           0       -1.229718   -1.270636   -0.030184
      5          1           0       -1.765535   -2.215606   -0.035600
      6          6           0       -1.974278   -0.081873   -0.005927
      7          6           0       -3.459716   -0.163455    0.020612
      8          6           0       -1.294657    1.143858   -0.017253
      9          1           0       -1.849904    2.078877   -0.008374
     10          6           0        0.097349    1.183902   -0.046445
     11          1           0        0.642182    2.122712   -0.067353
     12         16           0        2.652839    0.045855   -0.011343
     13          8           0        3.010755   -1.100205   -0.884536
     14          8           0        2.966116    1.396562   -0.514644
     15          7           0        3.077376   -0.091425    1.486795
     16          1           0        2.969004   -1.079110    1.727991
     17          8           0       -4.050107   -1.230991    0.015867
     18          6           0       -4.255574    1.130499    0.054846
     19          1           0       -4.045607    1.738914   -0.831325
     20          1           0       -3.989547    1.728179    0.932993
     21          1           0       -5.318227    0.885946    0.085834
 ---------------------------------------------------------------------
 Rotational constants (GHZ):           2.1121530           0.3392098           0.3111453
 Basis read from rwf:  (6D, 7F)
 There are   267 symmetry adapted cartesian basis functions of A   symmetry.
 There are   267 symmetry adapted basis functions of A   symmetry.
   267 basis functions,   472 primitive gaussians,   267 cartesian basis functions
    52 alpha electrons       52 beta electrons
       nuclear repulsion energy       878.6817276760 Hartrees.
 NAtoms=   21 NActive=   21 NUniq=   21 SFac= 1.00D+00 NAtFMM=   60 NAOKFM=F Big=F
 Integral buffers will be    131072 words long.
 Raffenetti 2 integral format.
 Two-electron integral symmetry is turned on.
 One-electron integrals computed using PRISM.
 NBasis=   267 RedAO= T EigKep=  1.26D-06  NBF=   267
 NBsUse=   267 1.00D-06 EigRej= -1.00D+00 NBFU=   267
 Initial guess from the checkpoint file:  "/jobfs/48735353.gadi-pbs/Gau-2685297.chk"
 B after Tr=     0.000000   -0.000000    0.000000
         Rot=    0.999922    0.012517    0.000174    0.000072 Ang=   1.43 deg.
 ExpMin= 4.05D-02 ExpMax= 2.19D+04 ExpMxC= 3.30D+03 IAcc=3 IRadAn=         5 AccDes= 0.00D+00
 Harris functional with IExCor= 1009 and IRadAn=       5 diagonalized for initial guess.
 HarFok:  IExCor= 1009 AccDes= 0.00D+00 IRadAn=         5 IDoV= 1 UseB2=F ITyADJ=14
 ICtDFT=  3500011 ScaDFX=  1.000000  1.000000  1.000000  1.000000
 FoFCou: FMM=F IPFlag=           0 FMFlag=      100000 FMFlg1=           0
         NFxFlg=           0 DoJE=T BraDBF=F KetDBF=T FulRan=T
         wScrn=  0.000000 ICntrl=       500 IOpCl=  0 I1Cent=   200000004 NGrid=           0
         NMat0=    1 NMatS0=      1 NMatT0=    0 NMatD0=    1 NMtDS0=    0 NMtDT0=    0
 Petite list used in FoFCou.
 Requested convergence on RMS density matrix=1.00D-08 within 128 cycles.
 Requested convergence on MAX density matrix=1.00D-06.
 Requested convergence on             energy=1.00D-06.
 No special actions if energy rises.
[...]
 53619,0.03596607,0.00608659,-0.04959928,0.00056536,0.00025521,-0.00083
 505,-0.07031398,-0.01100566,-0.04079684,-0.00408224,-0.00083308,0.0097
 2775,0.04883484,0.00930005,-0.35867698,-0.00074309,-0.00016280,-0.0085
 2652,0.04283207,0.00605771,0.71948428,-0.01963238,-0.00367191,-0.01532
 703,-0.00366322,-0.00158475,0.00329675,-0.00092882,-0.00011261,-0.0009
 8700,-0.00011654,0.00006201,0.00118983,0.00000233,0.00014928,-0.000095
 22,0.00145076,-0.00089525,0.00136133,0.00036437,-0.00006338,0.00029661
 ,0.00744694,0.00070340,0.00427508,0.00053748,0.00072775,-0.00044965,-0
 .24838967,-0.03156322,-0.13463324,0.26326869,-0.00343333,0.00350598,-0
 .00209827,-0.00188947,0.00655007,0.00059090,-0.00011408,-0.00017331,-0
 .00022036,0.00003612,-0.00070538,0.00024407,0.00018723,-0.00101160,-0.
 00000771,-0.00092479,0.00740421,0.00015404,-0.00007951,0.00076978,0.00
 011548,0.00048741,0.00344417,0.00065339,0.00082572,-0.00428636,-0.0001
 0846,-0.03052053,-0.04381877,-0.02064927,0.03525220,0.03181272,0.00998
 310,0.00186579,0.01292364,0.00319602,0.00069757,-0.00165891,0.00078848
 ,0.00009024,0.00075050,0.00070369,0.00006614,-0.00031587,-0.00009076,-
 0.00002348,-0.00000010,0.00232670,0.00060399,-0.00471443,-0.00133093,-
 0.00017474,0.00045287,-0.02481852,-0.00395834,-0.01214132,0.00027210,-
 0.00008638,0.00107985,-0.13587549,-0.02080200,-0.15276702,0.14421509,0
 .02202304,0.15811449,-0.07017317,-0.00024295,0.00362079,0.01269444,-0.
 00021685,-0.01617070,-0.00376295,0.00039620,-0.00400853,-0.00447518,-0
 .00271822,-0.00578217,0.00007416,0.00028913,-0.00149872,-0.00398075,-0
 .00056301,-0.00027694,-0.00055192,-0.00002519,0.00046920,-0.00496179,-
 0.00120837,0.00413631,-0.00006279,-0.00009059,0.00128953,0.00717963,0.
 00270986,0.01980763,-0.00386728,-0.00115868,0.00414962,0.94927789,-0.0
 0098990,-0.05219393,0.00565333,-0.00037101,0.00166379,-0.00375619,-0.0
 0087115,-0.00152764,-0.00189406,-0.00255949,0.00527394,0.00280848,0.00
 013335,-0.00041058,0.00007049,0.00001522,-0.00025265,-0.00329529,0.000
 63511,-0.00064945,0.00251798,-0.00117362,0.00579369,0.00429207,-0.0000
 9590,-0.00031382,0.00052422,0.00293397,0.00185126,0.00182893,0.0003211
 8,-0.00123738,-0.00069551,-0.00153207,0.72555372,0.00768230,-0.0063208
 2,-0.14313012,-0.01104132,-0.00269666,-0.00857954,0.00253443,0.0003207
 4,0.00062507,0.00355962,0.00086697,0.00245296,0.00038219,-0.00007338,0
 .00172735,-0.00129996,-0.00041859,0.00543016,0.00015359,0.00005348,-0.
 00921300,-0.00408593,-0.00049448,0.00188513,-0.00102504,-0.00029394,0.
 00210594,0.01288995,0.00186890,-0.00565851,-0.00279124,-0.00069854,0.0
 0066632,0.03964601,-0.02872164,0.45455759,-0.00783614,-0.01319575,-0.0
 0054556,-0.00428997,0.00046925,0.00093915,0.00224468,-0.00043614,0.001
 94692,0.00257119,0.00120882,0.00001208,0.00004057,-0.00005534,0.000560
 54,0.00030987,-0.00013706,0.00203697,-0.00006485,-0.00013525,-0.002742
 86,-0.00124645,0.00047570,-0.00160136,-0.00011350,-0.00002002,0.000516
 96,0.00021205,0.00033116,0.00659133,0.00079201,-0.00012429,-0.00089923
 ,-0.34402973,-0.17816908,0.06081093,0.36923536,-0.00828623,0.00293452,
 -0.00401235,-0.00106539,0.00068568,0.00060819,0.00070143,-0.00091439,0
 .00081663,0.00075372,-0.00000897,-0.00003845,0.00001715,0.00004803,0.0
 0023833,0.00047754,-0.00006062,0.00177139,-0.00017797,0.00000179,-0.00
 191871,-0.00120878,-0.00078555,-0.00178770,-0.00005260,-0.00005752,0.0
 0028795,-0.00033866,0.00082541,0.00511139,0.00022754,-0.00003135,0.000
 06727,-0.18392778,-0.21362433,0.04499317,0.21649134,0.21745033,0.02709
 051,0.01810325,-0.00583255,-0.00097874,0.00077925,-0.00308167,0.001826
 99,0.00027299,-0.00082508,0.00053297,-0.00035647,0.00100070,-0.0001157
 9,0.00011577,-0.00014890,0.00118192,0.00033385,-0.00187557,0.00025455,
 0.00005414,0.00279185,0.00252374,-0.00083951,-0.00119440,0.00025177,0.
 00003857,-0.00087602,-0.00386424,-0.00030379,-0.00626453,0.00042939,0.
 00050029,-0.00002054,0.06666138,0.04783542,-0.09809823,-0.07910010,-0.
 05371077,0.08353573,-0.00849252,0.00757954,0.00085282,0.00067885,-0.00
 014717,-0.00639957,0.00062704,0.00042341,0.00093855,-0.00135120,-0.000
 69475,0.00169297,0.00005275,0.00001112,-0.00039328,0.00119084,0.000440
 75,-0.00198159,0.00014885,0.00022281,0.00250518,0.00270711,-0.00032176
 ,0.00018597,0.00019420,0.00007645,-0.00058914,-0.00323945,-0.00245432,
 -0.00143011,0.00217231,0.00167721,-0.00166062,-0.42112944,0.13614062,-
 0.11409160,-0.02519629,0.01267317,-0.01095243,0.45844114,0.00641915,0.
 00621142,-0.00204724,-0.00060428,0.00041001,0.00364036,-0.00001546,-0.
 00003241,0.00023388,0.00138481,-0.00018862,-0.00090936,-0.00001553,-0.
 00003865,0.00019621,-0.00063974,-0.00032378,0.00112884,-0.00012941,0.0
 0006949,-0.00119241,0.00012972,-0.00029416,0.00000310,-0.00007088,0.00
 000358,0.00010314,-0.00044065,0.00053890,0.00021062,0.00029643,-0.0007
 1870,0.00001057,0.13535410,-0.13554303,0.04902862,-0.02063355,0.014526
 94,-0.00402526,-0.16527245,0.13809768,-0.03197669,0.01247148,-0.010119
 19,0.00486525,0.00110012,-0.00623174,-0.00054821,0.00046255,-0.0000135
 8,-0.00205699,-0.00177588,-0.00153987,0.00002347,0.00002175,-0.0008166
 8,-0.00056120,-0.00030426,-0.00232078,-0.00018931,0.00006589,0.0032316
 7,-0.00004197,-0.00036222,0.00133758,0.00022494,0.00018840,-0.00027976
 ,0.00056987,0.00050276,-0.00288037,-0.00121121,-0.00004227,-0.00116989
 ,-0.12098289,0.05164864,-0.12349670,0.00684306,0.00039103,0.01620595,0
 .13921503,-0.05594981,0.11400501,0.01127700,0.00349672,0.00164707,-0.0
 0185414,-0.00030062,0.00065265,0.00024381,0.00028360,0.00046452,0.0000
 4827,-0.00011129,0.00193089,0.00001036,-0.00009909,0.00025490,0.001586
 11,0.00029647,0.00035030,0.00009510,0.00001597,-0.00039181,0.00000035,
 -0.00001688,-0.00187150,-0.00002237,0.00007941,-0.00013713,-0.00137381
 ,-0.00020509,0.00002802,0.00041509,-0.00022273,-0.00070342,-0.09640940
 ,0.06309766,0.01280448,0.00427997,-0.03320106,-0.00542682,-0.00968045,
 0.04160665,0.00530405,0.49353609,0.00157863,-0.00990158,-0.00047487,0.
 00112446,0.00082810,-0.00339608,0.00031315,-0.00101919,0.00044275,-0.0
 0094515,0.00099465,-0.00060304,-0.00003933,-0.00003671,-0.00044296,0.0
 0028246,-0.00022047,-0.00161728,-0.00000831,-0.00035723,0.00218428,0.0
 0073421,0.00104134,-0.00039848,0.00024522,-0.00001775,-0.00053596,-0.0
 0100331,0.00087039,-0.00353687,0.00003918,-0.00092465,0.00038454,0.007
 85743,-0.31235748,-0.05785076,-0.00342716,-0.02704357,-0.00877745,0.00
 629901,-0.01514684,-0.00644389,-0.12999358,0.40586446,0.00504270,-0.02
 073144,0.00085498,0.00108478,-0.00072379,-0.00303014,-0.00023530,-0.00
 043394,-0.00027073,-0.00121308,0.00120088,0.00191493,-0.00003598,-0.00
 015720,-0.00025619,0.00097674,0.00036440,-0.00386507,0.00025890,-0.000
 25163,0.00453576,0.00031732,0.00160177,0.00140247,0.00023395,-0.000026
 91,-0.00037382,-0.00060905,-0.00065694,-0.00360761,0.00037671,-0.00058
 779,-0.00044476,0.00237848,-0.07014030,-0.08460944,0.00119703,0.005676
 30,0.01937659,-0.00540607,0.00762112,0.01118629,0.01063979,0.07921212,
 0.06717704,0.00075157,-0.00043505,0.00029312,-0.00006074,0.00003722,-0
 .00016242,0.00003750,0.00004571,0.00007037,-0.00007099,0.00005186,0.00
 034702,-0.00000090,-0.00000217,0.00000643,0.00021368,-0.00007687,-0.00
 019710,0.00002135,0.00003190,0.00022926,0.00004615,0.00009429,-0.00005
 688,0.00001198,0.00000012,-0.00002235,-0.00022205,-0.00001792,-0.00023
 916,0.00011677,-0.00007086,-0.00012977,-0.01536449,-0.01647033,-0.0072
 6230,0.00216221,-0.00372099,0.00012869,0.00293541,0.00240883,0.0009373
 7,-0.40232484,0.11718861,-0.01413870,0.41178179,-0.00184995,-0.0011213
 2,-0.00053714,0.00048508,0.00015770,-0.00032748,-0.00013871,-0.0000630
 1,-0.00023418,-0.00012019,-0.00014663,-0.00013200,0.00001216,0.0000295
 4,-0.00002828,-0.00007949,-0.00008801,0.00025479,-0.00004823,0.0000254
 0,-0.00029328,-0.00014557,0.00012190,0.00008009,-0.00001871,-0.0000125
 1,0.00003301,-0.00012978,0.00006002,0.00027893,0.00004145,-0.00016468,
 -0.00002844,0.04513830,-0.02194987,0.00021612,-0.00285738,0.00590531,0
 .00005954,0.00345638,-0.00763207,-0.00191962,0.05524962,-0.04270477,-0
 .00188124,-0.09905816,0.06758884,-0.00245748,-0.00186237,-0.00120924,0
 .00031302,0.00057186,-0.00021417,-0.00009826,-0.00042875,-0.00003551,0
 .00003714,0.00023480,-0.00088916,0.00000317,0.00000292,-0.00008262,-0.
 00065570,-0.00006196,0.00017963,-0.00005163,-0.00004033,-0.00037137,0.
 00019142,-0.00007726,0.00058506,-0.00000460,-0.00004063,0.00002339,0.0
 0038763,-0.00002883,-0.00025106,-0.00002298,0.00017283,0.00015343,0.00
 709443,-0.00778806,-0.00296989,0.00179473,0.00038137,-0.00270319,-0.00
 102452,0.00121214,0.00520344,-0.02587410,0.00348293,-0.00728929,0.0203
 1584,0.00425273,0.00964723,-0.00001523,0.00028153,0.00191713,0.0003438
 4,0.00042830,-0.00369147,0.00009640,-0.00001485,-0.00041089,-0.0094799
 5,-0.00174207,0.00707743,0.00310833,0.00054264,0.00051106,0.00171734,-
 0.00274445,-0.04009273,-0.53343436,-0.07802911,-0.27992672,0.00473509,
 0.00010540,0.00418201,0.00056610,-0.00003405,0.00062817,0.00246593,0.0
 0084985,-0.00298648,-0.00000313,0.00005924,-0.00018404,-0.00036242,-0.
 00123462,0.00188155,0.00104635,0.00074500,-0.00066621,-0.00037769,0.00
 034484,-0.00069313,0.00017453,-0.00044783,-0.00124877,-0.00005896,0.00
 009222,0.00008882,0.59698727,0.00000830,-0.00000481,0.00029154,0.00022
 107,-0.00061049,-0.00061280,-0.00001162,0.00010963,-0.00006899,-0.0015
 9136,-0.00038661,0.00120475,0.00055420,0.00000567,0.00007470,-0.002774
 55,0.01851836,-0.00655414,-0.07799193,-0.08191794,-0.04682215,0.000143
 30,0.00368074,0.00069868,0.00000293,0.00061678,0.00011345,0.00066057,-
 0.00142219,-0.00049250,0.00006676,-0.00042626,-0.00004880,-0.00003146,
 -0.00019433,0.00030965,0.00021662,0.00018528,-0.00012912,-0.00015079,0
 .00010502,-0.00010422,0.00000712,0.00009092,-0.00016269,-0.00000959,0.
 00000400,0.00003089,0.09600026,0.04165325,-0.00221425,-0.00004510,0.00
 039288,-0.00253119,-0.00036714,-0.00144225,0.00017931,-0.00000998,-0.0
 0009970,-0.00549291,-0.00088730,0.00267904,-0.00020490,-0.00004001,-0.
 00216961,-0.04798250,-0.00794105,-0.05213114,-0.29005092,-0.04854401,-
 0.29619324,0.01002709,0.00167073,-0.00189877,-0.00089549,-0.00015402,0
 .00030543,0.00056851,0.00026861,-0.00601052,0.00012796,-0.00002212,-0.
 00081510,-0.00075264,-0.00096250,0.00489877,0.00149724,0.00101258,-0.0
 0149003,-0.00103851,0.00059158,-0.00186113,0.00033842,-0.00123928,-0.0
 0220539,-0.00009325,0.00015839,0.00016801,0.33555765,0.05598802,0.3354
 6786,-0.00067744,-0.00026715,-0.00014993,0.00110484,0.00030433,0.00104
 901,0.00001884,0.00005997,-0.00011985,0.00156593,-0.00012189,-0.002833
 12,0.00027529,0.00004528,-0.00031188,0.00148632,-0.00244361,0.00527676
 ,-0.14952911,-0.01080983,0.05149844,-0.00087428,-0.00003091,0.00082369
 ,0.00043536,-0.00019540,0.00005683,-0.00018451,0.00031224,-0.00003276,
 0.00002867,0.00001592,-0.00000274,-0.00008926,0.00006242,-0.00076280,-
 0.00013356,-0.00008306,0.00023428,0.00026468,-0.00008865,0.00026381,0.
 00000955,0.00018750,0.00033861,0.00002293,-0.00002205,-0.00004439,-0.0
 5823955,-0.01416592,-0.00056180,0.50251316,-0.00023102,0.00037051,-0.0
 0003809,0.00031402,-0.00074849,0.00017236,0.00007838,-0.00033350,-0.00
 003169,-0.00009230,0.00213616,-0.00047863,0.00003179,0.00008510,-0.000
 04868,-0.00257287,0.01560689,0.00097129,-0.01087323,-0.08925999,0.0089
 3659,-0.00001525,-0.00103257,0.00014530,-0.00017507,0.00151041,0.00002
 391,0.00026781,-0.00166682,-0.00001277,0.00000320,0.00000053,-0.000001
 37,-0.00005481,0.00027188,-0.00009248,0.00000763,-0.00006425,0.0000146
 7,0.00003616,-0.00006346,0.00003226,0.00002790,0.00001651,0.00011507,0
 .00000618,-0.00000876,-0.00002325,-0.01407314,0.02287707,-0.00002855,-
 0.00679106,0.54082361,0.00028751,0.00006592,-0.00028040,0.00187303,0.0
 0032053,-0.00052160,-0.00003001,-0.00002618,-0.00041804,-0.00224045,-0
 .00039151,-0.00539843,0.00019448,0.00003454,0.00008260,0.02760087,0.00
 473342,-0.00937848,0.05667247,0.00981146,-0.12870963,0.00024690,0.0001
 1338,-0.00290186,0.00101236,0.00019201,-0.00263779,0.00045561,-0.00000
 160,0.00026601,-0.00002693,-0.00001087,-0.00004522,0.00010251,0.000187
 35,0.00112874,0.00011353,0.00007361,-0.00040963,-0.00025897,0.00008662
 ,-0.00035913,0.00001435,-0.00032381,-0.00033363,-0.00001284,0.00003641
 ,0.00003501,-0.02366087,-0.00397121,0.01764879,0.05377545,0.00878236,0
 .59510928,0.00027009,-0.00000930,-0.00005762,0.00002242,0.00018987,-0.
 00013115,-0.00002221,0.00006008,0.00001397,-0.00004073,-0.00051773,0.0
 0013922,0.00009146,0.00000003,-0.00011799,0.00039328,-0.00205814,0.000
 51612,-0.01532010,0.02291828,-0.01279007,0.00017700,-0.00041454,-0.000
 38046,0.00035830,0.00011214,0.00005668,-0.00005345,0.00002583,0.000433
 36,0.00000134,0.00000179,0.00001283,-0.00000623,0.00012519,0.00004849,
 -0.00000187,-0.00003217,-0.00003084,0.00002091,-0.00002388,-0.00001069
 ,-0.00000062,-0.00003742,0.00001610,0.00000174,0.00000103,0.00000111,-
 0.00543179,-0.00474836,0.00275890,-0.16215729,0.13249296,-0.04614581,0
 .17420731,-0.00000951,-0.00004065,0.00012800,-0.00002958,0.00004311,0.
 00002518,-0.00001126,0.00001194,-0.00001746,-0.00010875,-0.00008864,-0
 .00018393,-0.00005253,0.00000122,0.00003003,0.00063311,-0.00045464,0.0
 0000459,-0.00493503,0.00544860,-0.00211285,0.00102476,0.00051747,0.000
 46732,-0.00046171,-0.00041186,-0.00006603,-0.00044770,0.00018581,0.000
 01935,0.00000832,0.00000757,-0.00003304,0.00004041,-0.00009877,-0.0001
 3895,-0.00005917,-0.00001446,0.00006342,-0.00001705,-0.00000036,0.0000
 4315,-0.00001712,0.00005356,0.00001391,-0.00000319,-0.00000655,0.00000
 065,-0.00142037,-0.00178137,-0.00013522,0.12795027,-0.18175592,0.05149
 398,-0.13965026,0.19741957,0.00035420,0.00013558,0.00011293,-0.0003285
 8,-0.00023742,-0.00047458,0.00000476,-0.00004112,0.,-0.00052225,0.0002
 8013,0.00061085,-0.00006157,0.00000003,0.00005501,-0.00008907,0.001587
 73,-0.00132292,0.00534200,-0.01410508,0.00589223,0.00047917,-0.0000711
 2,-0.00093741,0.00007236,-0.00052040,-0.00146665,-0.00007501,-0.000364
 08,0.00007954,-0.00001292,-0.00000023,-0.00001164,0.00006174,0.0000139
 3,-0.00007857,-0.00002002,-0.00001703,0.00001862,-0.00004690,0.0000013
 4,0.00002850,-0.00002237,0.00003518,0.00001691,-0.00000169,-0.00000152
 ,0.00000018,0.00165007,0.00188308,0.00033851,-0.04490222,0.05167172,-0
 .06768150,0.05215370,-0.05739035,0.06869186,0.00023091,0.00010931,-0.0
 0002327,0.00008007,-0.00019448,-0.00011749,0.00000126,-0.00006279,0.00
 000258,-0.00025255,0.00047041,0.00006519,0.00006379,0.00002513,-0.0000
 9921,-0.00010914,0.00211701,0.00049756,-0.00755421,-0.02723101,-0.0130
 3039,0.00040837,0.00039051,-0.00020292,0.00015691,0.00009863,0.0000344
 9,-0.00016323,-0.00018814,0.00041254,0.00000609,-0.00000392,0.00000006
 ,0.00003056,-0.00000464,0.00000008,-0.00001204,-0.00000117,0.00000586,
 -0.00000795,-0.00000036,0.00001166,-0.00001572,0.00003804,0.00000547,-
 0.00000262,-0.00000538,0.00000835,-0.00695776,0.00289247,0.00262448,-0
 .08372731,-0.09821591,-0.02767153,0.00975133,0.02031759,0.00639343,0.0
 9035253,0.00012775,-0.00003217,-0.00015280,0.00004265,-0.00001340,-0.0
 0006935,0.00000559,-0.00000459,0.00002055,0.00005190,0.00010910,0.0002
 2358,0.00007434,0.00003076,-0.00006767,-0.00050043,0.00008357,0.000157
 15,0.00041398,-0.00249314,-0.00227890,-0.00106220,0.00033912,-0.000545
 77,0.00065448,-0.00024303,0.00009818,0.00032701,0.00024786,0.00013001,
 -0.00000700,-0.00000224,0.00003514,-0.00001591,-0.00001889,0.00014729,
 0.00004914,0.00003584,-0.00004421,0.00001574,0.00001631,-0.00003306,0.
 00000671,-0.00003478,-0.00004279,0.00000039,0.00000435,0.00000632,-0.0
 0040351,-0.00025959,0.00102791,-0.09370758,-0.25890808,-0.06560388,-0.
 00989607,-0.02039853,-0.00677426,0.10220955,0.27984895,0.00040682,-0.0
 0000070,0.00009944,-0.00040163,0.00015753,-0.00048280,-0.00001401,0.00
 004384,0.00000500,-0.00040608,-0.00044710,0.00062427,-0.00005531,-0.00
 002714,0.00005382,0.00042492,-0.00145602,-0.00134129,0.00047237,0.0150
 2405,0.00606360,0.00044327,0.00017927,-0.00095477,-0.00012015,0.000531
 46,-0.00143286,-0.00018990,0.00036671,0.00010370,-0.00001222,-0.000004
 91,-0.00001619,0.00007063,-0.00013850,-0.00007939,-0.00003753,0.000000
 12,0.00004409,-0.00003245,0.00001522,0.00004375,-0.00002260,0.00001614
 ,-0.00001711,-0.00000488,-0.00000178,0.00000134,0.00217883,-0.00125031
 ,0.00031297,-0.02637861,-0.06534372,-0.06910506,0.00369240,0.00823186,
 0.00146466,0.03143345,0.07330669,0.07023342,-0.00012483,-0.00002668,-0
 .00014087,-0.00040840,-0.00005024,0.00020836,0.00000562,0.00001327,0.0
 0012376,0.00056049,0.00003596,0.00144478,0.00000343,-0.00000868,-0.000
 02588,-0.00537994,-0.00114962,0.00050120,0.00302078,0.00056162,0.03392
 409,-0.00123395,-0.00022307,-0.00057624,0.00065445,0.00017421,-0.00034
 243,0.00044815,0.00003083,-0.00001925,-0.00000180,-0.00000064,0.000047
 84,-0.00002987,0.00000710,-0.00003343,0.00003015,0.00000895,0.00001312
 ,0.00004092,-0.00000970,0.00001377,0.00000510,0.00001419,0.00002036,0.
 00000251,-0.00000265,-0.00000200,0.00311968,0.00070198,-0.00186122,-0.
 05211327,-0.00017137,-0.04230168,-0.00226089,-0.00275124,-0.02042883,-
 0.00227929,0.00161349,-0.01144733,0.05594095,-0.00000537,-0.00004577,-
 0.00002854,-0.00004671,-0.00014605,0.00003095,0.00001040,-0.00004315,0
 .00001965,0.00003538,0.00036260,0.00024896,-0.00001068,0.00005886,-0.0
 0000423,-0.00114725,0.00117822,0.00008680,0.00077579,-0.00124710,0.005
 79908,-0.00023357,0.00012955,-0.00010027,0.00017274,-0.00037829,-0.000
 05922,0.00002721,0.00025269,0.00000340,-0.00000057,0.00000566,0.000007
 81,0.00000046,-0.00003613,-0.00000471,0.00000055,0.00000588,0.00001541
 ,0.00000593,0.00000273,0.00000720,-0.00000036,0.00000508,-0.00000893,0
 .00000006,0.00000110,0.00000198,0.00069471,-0.00084312,-0.00034153,-0.
 00021082,-0.04985683,-0.00560252,0.00146067,0.00136289,0.02391389,-0.0
 0276086,0.00169257,-0.02920271,0.00123229,0.04753860,0.00006664,0.0000
 1509,-0.00001331,0.00031074,0.00005332,-0.00018166,-0.00000451,-0.0000
 0657,-0.00007807,-0.00052708,-0.00008768,-0.00069348,0.00008471,0.0000
 1451,0.00002363,0.00297122,0.00051515,0.00016084,-0.00436580,-0.000666
 02,-0.01823013,0.00024286,0.00004591,0.00059138,0.00014662,0.00002111,
 0.00013068,0.00004937,0.00000355,-0.00001056,0.00000090,-0.00000324,-0
 .00002012,-0.00001568,0.00001118,0.00043535,0.00008618,0.00005565,-0.0
 0015321,-0.00008476,0.00004071,-0.00015338,0.00002031,-0.00011723,-0.0
 0016180,-0.00000677,0.00001494,0.00001879,-0.00211141,-0.00037783,0.00
 410461,-0.03721677,-0.00476633,-0.32608999,-0.00017827,-0.00044359,-0.
 00533655,-0.00035040,0.00045986,-0.00562059,0.04088188,0.00521752,0.35
 127757\\-0.00002398,-0.00001414,0.00000865,0.00001716,0.00000477,0.000
 00383,-0.00000212,-0.00000236,0.00000184,0.00000379,-0.00000031,-0.000
 00919,-0.00000296,0.00000019,0.00000488,-0.00000399,0.00000127,-0.0000
 0394,-0.00002306,-0.00000067,-0.00000943,0.00000151,-0.00000124,0.0000
 1781,-0.00000045,0.00000071,-0.00000104,0.00001653,0.00000754,-0.00003
 759,-0.00000037,-0.00000431,0.00000449,0.00001710,0.00002904,0.0000125
 3,-0.00000337,0.00000525,0.00000174,0.00000154,0.00000643,-0.00000215,
 0.00000389,-0.00003033,0.00000183,0.00000239,0.00000173,0.00000165,0.0
 0000731,0.00000049,0.00000775,-0.00000731,-0.00000614,0.00000198,0.000
 00050,0.00000152,-0.00000329,-0.00000127,0.00000118,-0.00000012,-0.000
 00284,-0.00000063,-0.00000223\\\@
 The archive entry for this job was punched.


 KNIGHT- SIRE, I'VE JUST RETURNED FROM THE FRONT
 KING-   HOW GOES THE BATTLE                    
 KNIGHT- THE SITUATION IS QUITE FLUID           
 KING-   WHAT DOES *THAT* MEAN                  
 KNIGHT- WE'RE UP THE CREEK                     
                THE WIZARD OF ID                
 Job cpu time:       0 days  1 hours  4 minutes 28.7 seconds.
 Elapsed time:       0 days  0 hours  4 minutes  3.1 seconds.
 File lengths (MBytes):  RWF=    174 Int=      0 D2E=      0 Chk=      7 Scr=      1
 Normal termination of Gaussian 16 at Wed Jun 29 13:47:49 2022.
