 Entering Gaussian System, Link 0=g16
 AtFile(1): /home/561/yj5695/Basis/6-31pGd.gbs
 Initial command:
 /apps/gaussian/g16c01/g16/l1.exe "/jobfs/40918521.gadi-pbs/Gau-903446.inp" -scrdir="/jobfs/40918521.gadi-pbs/"
 Entering Link 1 = /apps/gaussian/g16c01/g16/l1.exe PID=    903447.
  
 Copyright (c) 1988-2019, Gaussian, Inc.  All Rights Reserved.
  
 This is part of the Gaussian(R) 16 program.  It is based on
 the Gaussian(R) 09 system (copyright 2009, Gaussian, Inc.),
 the Gaussian(R) 03 system (copyright 2003, Gaussian, Inc.),
 the Gaussian(R) 98 system (copyright 1998, Gaussian, Inc.),
 the Gaussian(R) 94 system (copyright 1995, Gaussian, Inc.),
 the Gaussian 92(TM) system (copyright 1992, Gaussian, Inc.),
 the Gaussian 90(TM) system (copyright 1990, Gaussian, Inc.),
 the Gaussian 88(TM) system (copyright 1988, Gaussian, Inc.),
 the Gaussian 86(TM) system (copyright 1986, Carnegie Mellon
 University), and the Gaussian 82(TM) system (copyright 1983,
 Carnegie Mellon University). Gaussian is a federally registered
 trademark of Gaussian, Inc.
  
 This software contains proprietary and confidential information,
 including trade secrets, belonging to Gaussian, Inc.
  
 This software is provided under written license and may be
 used, copied, transmitted, or stored only in accord with that
 written license.
  
 The following legend is applicable only to US Government
 contracts under FAR:
  
                    RESTRICTED RIGHTS LEGEND
  
 Use, reproduction and disclosure by the US Government is
 subject to restrictions as set forth in subparagraphs (a)
 and (c) of the Commercial Computer Software - Restricted
 Rights clause in FAR 52.227-19.
  
 Gaussian, Inc.
 340 Quinnipiac St., Bldg. 40, Wallingford CT 06492
  
  
 ---------------------------------------------------------------
 Warning -- This program may not be used in any manner that
 competes with the business of Gaussian, Inc. or will provide
 assistance to any competitor of Gaussian, Inc.  The licensee
 of this program is prohibited from giving any competitor of
 Gaussian, Inc. access to this program.  By using this program,
 the user acknowledges that Gaussian, Inc. is engaged in the
 business of creating and licensing software in the field of
 computational chemistry and represents and warrants to the
 licensee that it is not a competitor of Gaussian, Inc. and that
 it will not use this program in any manner prohibited above.
 ---------------------------------------------------------------
  

 Cite this work as:
 Gaussian 16, Revision C.01,
 M. J. Frisch, G. W. Trucks, H. B. Schlegel, G. E. Scuseria, 
 M. A. Robb, J. R. Cheeseman, G. Scalmani, V. Barone, 
 G. A. Petersson, H. Nakatsuji, X. Li, M. Caricato, A. V. Marenich, 
 J. Bloino, B. G. Janesko, R. Gomperts, B. Mennucci, H. P. Hratchian, 
 J. V. Ortiz, A. F. Izmaylov, J. L. Sonnenberg, D. Williams-Young, 
 F. Ding, F. Lipparini, F. Egidi, J. Goings, B. Peng, A. Petrone, 
 T. Henderson, D. Ranasinghe, V. G. Zakrzewski, J. Gao, N. Rega, 
 G. Zheng, W. Liang, M. Hada, M. Ehara, K. Toyota, R. Fukuda, 
 J. Hasegawa, M. Ishida, T. Nakajima, Y. Honda, O. Kitao, H. Nakai, 
 T. Vreven, K. Throssell, J. A. Montgomery, Jr., J. E. Peralta, 
 F. Ogliaro, M. J. Bearpark, J. J. Heyd, E. N. Brothers, K. N. Kudin, 
 V. N. Staroverov, T. A. Keith, R. Kobayashi, J. Normand, 
 K. Raghavachari, A. P. Rendell, J. C. Burant, S. S. Iyengar, 
 J. Tomasi, M. Cossi, J. M. Millam, M. Klene, C. Adamo, R. Cammi, 
 J. W. Ochterski, R. L. Martin, K. Morokuma, O. Farkas, 
 J. B. Foresman, and D. J. Fox, Gaussian, Inc., Wallingford CT, 2019.
 
 ******************************************
 Gaussian 16:  ES64L-G16RevC.01  3-Jul-2019
                22-May-2022 
 ******************************************
 %nproc=16
 Will use up to   16 processors via shared memory.
 %mem=20gb
 --------------------------------------------------
 #M062X/gen 6D INT(grid=ultrafine) OPT Freq=noraman
 --------------------------------------------------
 1/18=20,19=15,26=4,38=1/1,3;
 2/9=110,12=2,17=6,18=5,40=1/2;
 3/5=7,8=2,11=2,25=1,30=1,71=1,74=-55,75=-5/1,2,3;
 4//1;
 5/5=2,38=5/2;
 6/7=2,8=2,9=2,10=2,28=1/1;
 7//1,2,3,16;
 1/18=20,19=15,26=4/3(2);
 2/9=110/2;
 99//99;
 2/9=110/2;
 3/5=7,6=1,8=2,11=2,25=1,30=1,71=1,74=-55,75=-5,82=7/1,2,3;
 4/5=5,16=3,69=1/1;
 5/5=2,38=5/2;
 7//1,2,3,16;
 1/18=20,19=15,26=4/3(-5);
 2/9=110/2;
 6/7=2,8=2,9=2,10=2,19=2,28=1/1;
 99/9=1/99;
 ----------------
 A.13.a1b3d3.freq
 ----------------
 Symbolic Z-matrix:
 Charge = -1 Multiplicity = 1
 C                    -1.39096   0.64256  -0.89378 
 C                    -2.54107   0.51713  -1.6686 
 H                    -3.50874   0.39064  -1.19422 
 C                    -2.44023   0.56418  -3.0572 
 H                    -3.33314   0.47229  -3.6661 
 C                    -1.19039   0.7322   -3.65913 
 C                    -1.03825   0.78803  -5.13958 
 C                    -0.04019   0.85461  -2.87214 
 H                     0.92653   0.9877   -3.34728 
 C                    -0.13838   0.80833  -1.48731 
 H                     0.7527    0.90634  -0.87355 
 S                    -1.48374   0.50012   0.90265 
 O                    -0.58768   1.59629   1.38071 
 O                    -2.91758   0.70736   1.23493 
 N                    -1.05579  -0.93927   1.3338 
 H                    -0.0432   -1.01874   1.20412 
 O                    -2.19352   0.66105  -5.79215 
 O                     0.0309    0.93402  -5.70804 
 C                    -2.11948   0.70493  -7.22623 
 H                    -3.14409   0.58419  -7.57237 
 H                    -1.49226  -0.11022  -7.59203 
 H                    -1.71597   1.66643  -7.54934 
 

 GradGradGradGradGradGradGradGradGradGradGradGradGradGradGradGradGradGrad
 Berny optimization.
 Initialization pass.
                           ----------------------------
                           !    Initial Parameters    !
                           ! (Angstroms and Degrees)  !
 --------------------------                            --------------------------
 ! Name  Definition              Value          Derivative Info.                !
 --------------------------------------------------------------------------------
 ! R1    R(1,2)                  1.3924         estimate D2E/DX2                !
 ! R2    R(1,10)                 1.396          estimate D2E/DX2                !
 ! R3    R(1,12)                 1.8045         estimate D2E/DX2                !
 ! R4    R(2,3)                  1.0851         estimate D2E/DX2                !
 ! R5    R(2,4)                  1.3931         estimate D2E/DX2                !
 ! R6    R(4,5)                  1.0847         estimate D2E/DX2                !
 ! R7    R(4,6)                  1.3974         estimate D2E/DX2                !
 ! R8    R(6,7)                  1.4893         estimate D2E/DX2                !
 ! R9    R(6,8)                  1.399          estimate D2E/DX2                !
 ! R10   R(7,17)                 1.3329         estimate D2E/DX2                !
 ! R11   R(7,18)                 1.2196         estimate D2E/DX2                !
 ! R12   R(8,9)                  1.0854         estimate D2E/DX2                !
 ! R13   R(8,10)                 1.3891         estimate D2E/DX2                !
 ! R14   R(10,11)                1.0864         estimate D2E/DX2                !
 ! R15   R(12,13)                1.4943         estimate D2E/DX2                !
 ! R16   R(12,14)                1.4864         estimate D2E/DX2                !
 ! R17   R(12,15)                1.5623         estimate D2E/DX2                !
 ! R18   R(15,16)                1.0239         estimate D2E/DX2                !
 ! R19   R(17,19)                1.4367         estimate D2E/DX2                !
 ! R20   R(19,20)                1.0882         estimate D2E/DX2                !
 ! R21   R(19,21)                1.0916         estimate D2E/DX2                !
 ! R22   R(19,22)                1.0917         estimate D2E/DX2                !
 ! A1    A(2,1,10)             121.0138         estimate D2E/DX2                !
 ! A2    A(2,1,12)             120.2916         estimate D2E/DX2                !
 ! A3    A(10,1,12)            118.6069         estimate D2E/DX2                !
 ! A4    A(1,2,3)              120.2537         estimate D2E/DX2                !
 ! A5    A(1,2,4)              119.4622         estimate D2E/DX2                !
 ! A6    A(3,2,4)              120.2828         estimate D2E/DX2                !
 ! A7    A(2,4,5)              119.8103         estimate D2E/DX2                !
 ! A8    A(2,4,6)              119.88           estimate D2E/DX2                !
 ! A9    A(5,4,6)              120.3097         estimate D2E/DX2                !
 ! A10   A(4,6,7)              121.6064         estimate D2E/DX2                !
 ! A11   A(4,6,8)              120.2348         estimate D2E/DX2                !
 ! A12   A(7,6,8)              118.1587         estimate D2E/DX2                !
 ! A13   A(6,7,17)             113.2387         estimate D2E/DX2                !
 ! A14   A(6,7,18)             123.8735         estimate D2E/DX2                !
 ! A15   A(17,7,18)            122.8878         estimate D2E/DX2                !
 ! A16   A(6,8,9)              119.7849         estimate D2E/DX2                !
 ! A17   A(6,8,10)             119.9854         estimate D2E/DX2                !
 ! A18   A(9,8,10)             120.2296         estimate D2E/DX2                !
 ! A19   A(1,10,8)             119.4231         estimate D2E/DX2                !
 ! A20   A(1,10,11)            120.4282         estimate D2E/DX2                !
 ! A21   A(8,10,11)            120.1477         estimate D2E/DX2                !
 ! A22   A(1,12,13)            103.2826         estimate D2E/DX2                !
 ! A23   A(1,12,14)            105.1389         estimate D2E/DX2                !
 ! A24   A(1,12,15)            109.4743         estimate D2E/DX2                !
 ! A25   A(13,12,14)           113.8691         estimate D2E/DX2                !
 ! A26   A(13,12,15)           115.0422         estimate D2E/DX2                !
 ! A27   A(14,12,15)           109.3297         estimate D2E/DX2                !
 ! A28   A(12,15,16)           107.9046         estimate D2E/DX2                !
 ! A29   A(7,17,19)            116.1761         estimate D2E/DX2                !
 ! A30   A(17,19,20)           105.4023         estimate D2E/DX2                !
 ! A31   A(17,19,21)           109.9558         estimate D2E/DX2                !
 ! A32   A(17,19,22)           109.9626         estimate D2E/DX2                !
 ! A33   A(20,19,21)           110.5817         estimate D2E/DX2                !
 ! A34   A(20,19,22)           110.5861         estimate D2E/DX2                !
 ! A35   A(21,19,22)           110.2502         estimate D2E/DX2                !
 ! D1    D(10,1,2,3)          -179.8847         estimate D2E/DX2                !
 ! D2    D(10,1,2,4)            -0.304          estimate D2E/DX2                !
 ! D3    D(12,1,2,3)             3.5691         estimate D2E/DX2                !
 ! D4    D(12,1,2,4)          -176.8502         estimate D2E/DX2                !
 ! D5    D(2,1,10,8)             0.2876         estimate D2E/DX2                !
 ! D6    D(2,1,10,11)          179.9327         estimate D2E/DX2                !
 ! D7    D(12,1,10,8)          176.8907         estimate D2E/DX2                !
 ! D8    D(12,1,10,11)          -3.4642         estimate D2E/DX2                !
 ! D9    D(2,1,12,13)         -137.8956         estimate D2E/DX2                !
 ! D10   D(2,1,12,14)          -18.253          estimate D2E/DX2                !
 ! D11   D(2,1,12,15)           99.0942         estimate D2E/DX2                !
 ! D12   D(10,1,12,13)          45.476          estimate D2E/DX2                !
 ! D13   D(10,1,12,14)         165.1186         estimate D2E/DX2                !
 ! D14   D(10,1,12,15)         -77.5343         estimate D2E/DX2                !
 ! D15   D(1,2,4,5)           -179.6795         estimate D2E/DX2                !
 ! D16   D(1,2,4,6)              0.1879         estimate D2E/DX2                !
 ! D17   D(3,2,4,5)             -0.0988         estimate D2E/DX2                !
 ! D18   D(3,2,4,6)            179.7686         estimate D2E/DX2                !
 ! D19   D(2,4,6,7)           -179.9909         estimate D2E/DX2                !
 ! D20   D(2,4,6,8)             -0.0601         estimate D2E/DX2                !
 ! D21   D(5,4,6,7)             -0.1242         estimate D2E/DX2                !
 ! D22   D(5,4,6,8)            179.8066         estimate D2E/DX2                !
 ! D23   D(4,6,7,17)            -0.0949         estimate D2E/DX2                !
 ! D24   D(4,6,7,18)           179.9486         estimate D2E/DX2                !
 ! D25   D(8,6,7,17)           179.9728         estimate D2E/DX2                !
 ! D26   D(8,6,7,18)             0.0164         estimate D2E/DX2                !
 ! D27   D(4,6,8,9)           -179.8253         estimate D2E/DX2                !
 ! D28   D(4,6,8,10)             0.0437         estimate D2E/DX2                !
 ! D29   D(7,6,8,9)              0.1079         estimate D2E/DX2                !
 ! D30   D(7,6,8,10)           179.9769         estimate D2E/DX2                !
 ! D31   D(6,7,17,19)         -179.9515         estimate D2E/DX2                !
 ! D32   D(18,7,17,19)           0.0054         estimate D2E/DX2                !
 ! D33   D(6,8,10,1)            -0.155          estimate D2E/DX2                !
 ! D34   D(6,8,10,11)         -179.8011         estimate D2E/DX2                !
 ! D35   D(9,8,10,1)           179.7135         estimate D2E/DX2                !
 ! D36   D(9,8,10,11)            0.0674         estimate D2E/DX2                !
 ! D37   D(1,12,15,16)          72.2632         estimate D2E/DX2                !
 ! D38   D(13,12,15,16)        -43.4706         estimate D2E/DX2                !
 ! D39   D(14,12,15,16)       -173.0539         estimate D2E/DX2                !
 ! D40   D(7,17,19,20)         179.8646         estimate D2E/DX2                !
 ! D41   D(7,17,19,21)          60.658          estimate D2E/DX2                !
 ! D42   D(7,17,19,22)         -60.92           estimate D2E/DX2                !
 --------------------------------------------------------------------------------
 Trust Radius=3.00D-01 FncErr=1.00D-07 GrdErr=1.00D-06 EigMax=2.50D+02 EigMin=1.00D-04
 Number of steps in this run=    109 maximum allowed number of steps=    132.
 GradGradGradGradGradGradGradGradGradGradGradGradGradGradGradGradGradGrad

                          Input orientation:                          
 ---------------------------------------------------------------------
 Center     Atomic      Atomic             Coordinates (Angstroms)
 Number     Number       Type             X           Y           Z
 ---------------------------------------------------------------------
      1          6           0       -1.390960    0.642556   -0.893779
      2          6           0       -2.541068    0.517132   -1.668599
      3          1           0       -3.508740    0.390644   -1.194223
      4          6           0       -2.440233    0.564176   -3.057203
      5          1           0       -3.333145    0.472291   -3.666102
      6          6           0       -1.190395    0.732205   -3.659132
      7          6           0       -1.038249    0.788027   -5.139577
      8          6           0       -0.040194    0.854605   -2.872140
      9          1           0        0.926534    0.987696   -3.347275
     10          6           0       -0.138378    0.808329   -1.487312
     11          1           0        0.752695    0.906340   -0.873551
     12         16           0       -1.483745    0.500118    0.902647
     13          8           0       -0.587681    1.596294    1.380711
     14          8           0       -2.917581    0.707362    1.234934
     15          7           0       -1.055794   -0.939268    1.333804
     16          1           0       -0.043204   -1.018741    1.204116
     17          8           0       -2.193520    0.661053   -5.792146
     18          8           0        0.030899    0.934025   -5.708041
     19          6           0       -2.119483    0.704933   -7.226230
     20          1           0       -3.144093    0.584188   -7.572366
     21          1           0       -1.492262   -0.110217   -7.592034
     22          1           0       -1.715966    1.666427   -7.549345
 ---------------------------------------------------------------------
                    Distance matrix (angstroms):
                    1          2          3          4          5
     1  C    0.000000
     2  C    1.392417   0.000000
     3  H    2.153768   1.085091   0.000000
     4  C    2.405726   1.393055   2.154650   0.000000
     5  H    3.389225   2.149282   2.479453   1.084663   0.000000
     6  C    2.774066   2.415118   3.401054   1.397371   2.158467
     7  C    4.262906   3.792036   4.671944   2.520307   2.745426
     8  C    2.404879   2.795848   3.880912   2.424620   3.408822
     9  H    3.392572   3.881191   4.966262   3.405676   4.302575
    10  C    1.395968   2.427052   3.408769   2.796910   3.881570
    11  H    2.159919   3.410639   4.304487   3.883324   4.967981
    12  S    1.804451   2.780203   2.917097   4.074235   4.928947
    13  O    2.593873   3.778704   4.076329   4.918566   5.854167
    14  O    2.620342   2.934017   2.520037   4.320973   4.924237
    15  N    2.752568   3.652611   3.765174   4.843342   5.672555
    16  H    2.996251   4.104963   4.443910   5.139087   6.063490
    17  O    4.963713   4.140669   4.789971   2.747756   2.419595
    18  O    5.028295   4.806859   5.761845   3.642831   3.962260
    19  C    6.374525   5.576761   6.197896   4.183715   3.768502
    20  H    6.905100   5.934863   6.391489   4.569739   3.912437
    21  H    6.741183   6.048193   6.726740   4.681682   4.375056
    22  H    6.741698   6.048540   6.725268   4.681758   4.372734
                    6          7          8          9         10
     6  C    0.000000
     7  C    1.489289   0.000000
     8  C    1.399036   2.478269   0.000000
     9  H    2.154975   2.666943   1.085371   0.000000
    10  C    2.414402   3.761545   1.389074   2.150737   0.000000
    11  H    3.400792   4.628224   2.150746   2.481159   1.086426
    12  S    4.577090   6.065462   4.056909   4.910093   2.759875
    13  O    5.148780   6.585625   4.351618   5.001709   3.008043
    14  O    5.189959   6.646261   5.016880   5.987691   3.891631
    15  N    5.267006   6.699889   4.683949   5.436480   3.443028
    16  H    5.294624   6.670605   4.486123   5.067677   3.254386
    17  O    2.358192   1.332899   3.633279   3.977289   4.772514
    18  O    2.393808   1.219649   2.837904   2.525521   4.225991
    19  C    3.686208   2.351615   4.827416   4.940087   6.072120
    20  H    4.376327   3.224064   5.639099   5.880834   6.790614
    21  H    4.033425   2.650947   5.031579   5.007391   6.320155
    22  H    4.035189   2.652898   5.034234   5.010077   6.322449
                   11         12         13         14         15
    11  H    0.000000
    12  S    2.884711   0.000000
    13  O    2.711889   1.494348   0.000000
    14  O    4.237479   1.486355   2.497976   0.000000
    15  N    3.398428   1.562329   2.578839   2.487452   0.000000
    16  H    2.942124   2.114940   2.676948   3.352972   1.023949
    17  O    5.738722   6.734236   7.409674   7.064437   7.391523
    18  O    4.888154   6.795852   7.146442   7.546510   7.367340
    19  C    6.974705   8.156271   8.787512   8.498721   8.781173
    20  H    7.756472   8.636531   9.365745   8.811073   9.273714
    21  H    7.156203   8.516583   9.178268   8.978605   8.974877
    22  H    7.158090   8.535243   9.001324   8.917805   9.280938
                   16         17         18         19         20
    16  H    0.000000
    17  O    7.509544   0.000000
    18  O    7.183084   2.242683   0.000000
    19  C    8.851707   1.436664   2.642257   0.000000
    20  H    9.445186   2.019574   3.698468   1.088216   0.000000
    21  H    8.960884   2.079957   2.638161   1.091645   1.791963
    22  H    9.307596   2.080044   2.641657   1.091650   1.792015
                   21         22
    21  H    0.000000
    22  H    1.791181   0.000000
 Stoichiometry    C8H8NO4S(1-)
 Framework group  C1[X(C8H8NO4S)]
 Deg. of freedom    60
 Full point group                 C1      NOp   1
 Largest Abelian subgroup         C1      NOp   1
 Largest concise Abelian subgroup C1      NOp   1
                         Standard orientation:                         
 ---------------------------------------------------------------------
 Center     Atomic      Atomic             Coordinates (Angstroms)
 Number     Number       Type             X           Y           Z
 ---------------------------------------------------------------------
      1          6           0       -1.212159   -0.002213   -0.059324
      2          6           0       -0.442587   -1.162448   -0.038426
      3          1           0       -0.921322   -2.136202   -0.044559
      4          6           0        0.946758   -1.062837   -0.018462
      5          1           0        1.551795   -1.963005   -0.007395
      6          6           0        1.554510    0.195446   -0.015589
      7          6           0        3.035957    0.346642    0.005280
      8          6           0        0.772655    1.355474   -0.033957
      9          1           0        1.252411    2.329057   -0.034457
     10          6           0       -0.612887    1.258570   -0.054224
     11          1           0       -1.222539    2.157646   -0.071777
     12         16           0       -3.012800   -0.103182    0.000200
     13          8           0       -3.447175    0.916647   -1.001969
     14          8           0       -3.336146   -1.501619   -0.385898
     15          7           0       -3.500977    0.155883    1.461514
     16          1           0       -3.374862    1.151727    1.663656
     17          8           0        3.683315   -0.818373    0.022282
     18          8           0        3.609449    1.423045    0.007611
     19          6           0        5.117986   -0.745943    0.044057
     20          1           0        5.459361   -1.779134    0.058012
     21          1           0        5.450899   -0.219639    0.940641
     22          1           0        5.478952   -0.234474   -0.850260
 ---------------------------------------------------------------------
 Rotational constants (GHZ):           2.0321487           0.2643273           0.2459405
 General basis read from cards:  (6D, 7F)
 There are   286 symmetry adapted cartesian basis functions of A   symmetry.
 There are   286 symmetry adapted basis functions of A   symmetry.
   286 basis functions,   504 primitive gaussians,   286 cartesian basis functions
    56 alpha electrons       56 beta electrons
       nuclear repulsion energy       986.8708878372 Hartrees.
 NAtoms=   22 NActive=   22 NUniq=   22 SFac= 1.00D+00 NAtFMM=   60 NAOKFM=F Big=F
 Integral buffers will be    131072 words long.
 Raffenetti 2 integral format.
 Two-electron integral symmetry is turned on.
 One-electron integrals computed using PRISM.
 NBasis=   286 RedAO= T EigKep=  1.02D-06  NBF=   286
 NBsUse=   286 1.00D-06 EigRej= -1.00D+00 NBFU=   286
 ExpMin= 4.05D-02 ExpMax= 2.19D+04 ExpMxC= 3.30D+03 IAcc=3 IRadAn=         5 AccDes= 0.00D+00
 Harris functional with IExCor= 1009 and IRadAn=       5 diagonalized for initial guess.
 HarFok:  IExCor= 1009 AccDes= 0.00D+00 IRadAn=         5 IDoV= 1 UseB2=F ITyADJ=14
 ICtDFT=  3500011 ScaDFX=  1.000000  1.000000  1.000000  1.000000
 FoFCou: FMM=F IPFlag=           0 FMFlag=      100000 FMFlg1=           0
         NFxFlg=           0 DoJE=T BraDBF=F KetDBF=T FulRan=T
         wScrn=  0.000000 ICntrl=       500 IOpCl=  0 I1Cent=   200000004 NGrid=           0
         NMat0=    1 NMatS0=      1 NMatT0=    0 NMatD0=    1 NMtDS0=    0 NMtDT0=    0
 Petite list used in FoFCou.
 Requested convergence on RMS density matrix=1.00D-08 within 128 cycles.
 Requested convergence on MAX density matrix=1.00D-06.
 Requested convergence on             energy=1.00D-06.
 No special actions if energy rises.
 SCF Done:  E(RM062X) =  -1063.21943935     A.U. after   17 cycles
            NFock= 17  Conv=0.82D-08     -V/T= 2.0066

 **********************************************************************

            Population analysis using the SCF Density.

 **********************************************************************

 Orbital symmetries:
       Occupied  (A) (A) (A) (A) (A) (A) (A) (A) (A) (A) (A) (A)
                 (A) (A) (A) (A) (A) (A) (A) (A) (A) (A) (A) (A)
                 (A) (A) (A) (A) (A) (A) (A) (A) (A) (A) (A) (A)
                 (A) (A) (A) (A) (A) (A) (A) (A) (A) (A) (A) (A)
                 (A) (A) (A) (A) (A) (A) (A) (A)
       Virtual   (A) (A) (A) (A) (A) (A) (A) (A) (A) (A) (A) (A)
                 (A) (A) (A) (A) (A) (A) (A) (A) (A) (A) (A) (A)
                 (A) (A) (A) (A) (A) (A) (A) (A) (A) (A) (A) (A)
                 (A) (A) (A) (A) (A) (A) (A) (A) (A) (A) (A) (A)
                 (A) (A) (A) (A) (A) (A) (A) (A) (A) (A) (A) (A)
                 (A) (A) (A) (A) (A) (A) (A) (A) (A) (A) (A) (A)
                 (A) (A) (A) (A) (A) (A) (A) (A) (A) (A) (A) (A)
                 (A) (A) (A) (A) (A) (A) (A) (A) (A) (A) (A) (A)
                 (A) (A) (A) (A) (A) (A) (A) (A) (A) (A) (A) (A)
                 (A) (A) (A) (A) (A) (A) (A) (A) (A) (A) (A) (A)
                 (A) (A) (A) (A) (A) (A) (A) (A) (A) (A) (A) (A)
                 (A) (A) (A) (A) (A) (A) (A) (A) (A) (A) (A) (A)
                 (A) (A) (A) (A) (A) (A) (A) (A) (A) (A) (A) (A)
                 (A) (A) (A) (A) (A) (A) (A) (A) (A) (A) (A) (A)
                 (A) (A) (A) (A) (A) (A) (A) (A) (A) (A) (A) (A)
                 (A) (A) (A) (A) (A) (A) (A) (A) (A) (A) (A) (A)
                 (A) (A) (A) (A) (A) (A) (A) (A) (A) (A) (A) (A)
                 (A) (A) (A) (A) (A) (A) (A) (A) (A) (A) (A) (A)
                 (A) (A) (A) (A) (A) (A) (A) (A) (A) (A) (A) (A)
                 (A) (A)
 The electronic state is 1-A.
 Alpha  occ. eigenvalues --  -89.97152 -19.61705 -19.55049 -19.45022 -19.44905
 Alpha  occ. eigenvalues --  -14.56080 -10.60104 -10.53727 -10.46985 -10.46352
 Alpha  occ. eigenvalues --  -10.46171 -10.45829 -10.45297 -10.44999  -8.28002
 Alpha  occ. eigenvalues --   -6.20213  -6.20172  -6.20098  -1.16018  -1.05565
 Alpha  occ. eigenvalues --   -1.03885  -0.91972  -0.86885  -0.80178  -0.78244
 Alpha  occ. eigenvalues --   -0.74802  -0.73686  -0.63124  -0.59387  -0.57216
 Alpha  occ. eigenvalues --   -0.53003  -0.52292  -0.49514  -0.48025  -0.45252
 Alpha  occ. eigenvalues --   -0.42618  -0.41948  -0.40862  -0.40115  -0.39238
 Alpha  occ. eigenvalues --   -0.38582  -0.36018  -0.34729  -0.33973  -0.33453
 Alpha  occ. eigenvalues --   -0.30421  -0.29969  -0.27010  -0.25073  -0.22803
 Alpha  occ. eigenvalues --   -0.21314  -0.20799  -0.20164  -0.18442  -0.16195
 Alpha  occ. eigenvalues --   -0.13094
 Alpha virt. eigenvalues --    0.07825   0.08168   0.10286   0.11553   0.11713
 Alpha virt. eigenvalues --    0.12261   0.12951   0.13931   0.15093   0.15672
 Alpha virt. eigenvalues --    0.16795   0.17096   0.17729   0.18344   0.18622
 Alpha virt. eigenvalues --    0.19553   0.19901   0.19997   0.21773   0.22387
 Alpha virt. eigenvalues --    0.23758   0.24171   0.24590   0.24881   0.25334
 Alpha virt. eigenvalues --    0.25792   0.26414   0.27252   0.28151   0.28815
 Alpha virt. eigenvalues --    0.29042   0.29734   0.30083   0.30786   0.31282
 Alpha virt. eigenvalues --    0.31501   0.32283   0.32834   0.33476   0.34010
 Alpha virt. eigenvalues --    0.34551   0.35160   0.35549   0.36093   0.36494
 Alpha virt. eigenvalues --    0.37225   0.37536   0.37617   0.38233   0.39178
 Alpha virt. eigenvalues --    0.39866   0.40301   0.40571   0.41082   0.41536
 Alpha virt. eigenvalues --    0.42075   0.42800   0.43666   0.43836   0.44532
 Alpha virt. eigenvalues --    0.45519   0.45701   0.46164   0.46477   0.47041
 Alpha virt. eigenvalues --    0.48293   0.48722   0.49337   0.49818   0.51816
 Alpha virt. eigenvalues --    0.52282   0.53771   0.54617   0.55771   0.56729
 Alpha virt. eigenvalues --    0.57325   0.58832   0.61058   0.62919   0.66471
 Alpha virt. eigenvalues --    0.73040   0.74697   0.77248   0.78089   0.79721
 Alpha virt. eigenvalues --    0.80458   0.82780   0.84115   0.84671   0.86219
 Alpha virt. eigenvalues --    0.86741   0.87700   0.89121   0.89637   0.90456
 Alpha virt. eigenvalues --    0.92065   0.93630   0.93972   0.94568   0.95621
 Alpha virt. eigenvalues --    0.96825   0.99990   1.03156   1.04557   1.05886
 Alpha virt. eigenvalues --    1.07774   1.09260   1.10712   1.12462   1.14434
 Alpha virt. eigenvalues --    1.16099   1.18770   1.19646   1.21509   1.22198
 Alpha virt. eigenvalues --    1.23773   1.25038   1.25773   1.26974   1.28417
 Alpha virt. eigenvalues --    1.29522   1.32063   1.32612   1.33480   1.36529
 Alpha virt. eigenvalues --    1.37431   1.38261   1.39583   1.40779   1.41426
 Alpha virt. eigenvalues --    1.42241   1.45781   1.46898   1.47777   1.48770
 Alpha virt. eigenvalues --    1.50750   1.52053   1.52860   1.54219   1.54830
 Alpha virt. eigenvalues --    1.56093   1.56641   1.58087   1.58791   1.59767
 Alpha virt. eigenvalues --    1.60553   1.63125   1.64112   1.65598   1.65958
 Alpha virt. eigenvalues --    1.67024   1.69755   1.70610   1.76860   1.83479
 Alpha virt. eigenvalues --    1.84566   1.87543   1.88826   1.89856   1.93255
 Alpha virt. eigenvalues --    1.97778   1.98820   1.99853   2.00428   2.01892
 Alpha virt. eigenvalues --    2.02874   2.04640   2.06423   2.07987   2.08982
 Alpha virt. eigenvalues --    2.12249   2.14491   2.16099   2.16989   2.17756
 Alpha virt. eigenvalues --    2.18963   2.20302   2.22399   2.25260   2.26953
 Alpha virt. eigenvalues --    2.27530   2.29488   2.30983   2.31248   2.32916
 Alpha virt. eigenvalues --    2.34683   2.37794   2.40551   2.43424   2.44139
 Alpha virt. eigenvalues --    2.45299   2.46002   2.46867   2.51295   2.56266
 Alpha virt. eigenvalues --    2.57770   2.63065   2.64998   2.73540   2.74848
 Alpha virt. eigenvalues --    2.78988   2.80641   2.83891   2.84341   2.90160
 Alpha virt. eigenvalues --    2.92450   2.95446   2.97889   3.05411   3.08570
 Alpha virt. eigenvalues --    3.09455   3.13711   3.24676   3.26641   3.39152
 Alpha virt. eigenvalues --    3.53141   4.15192   4.26266   4.29384   4.37816
 Alpha virt. eigenvalues --    4.40462   4.44226   4.45466   4.47342   4.52075
 Alpha virt. eigenvalues --    4.53822   4.57286   4.67231   4.78597   4.88336
          Condensed to atoms (all electrons):
               1          2          3          4          5          6
     1  C   46.639300 -18.044496   0.074885  -1.943054  -0.012612  -8.099518
     2  C  -18.044496  71.876063   0.239174 -14.451448  -0.009290   4.193284
     3  H    0.074885   0.239174   0.445620  -0.005588  -0.003521  -0.013873
     4  C   -1.943054 -14.451448  -0.005588  32.709948   0.280618   0.643867
     5  H   -0.012612  -0.009290  -0.003521   0.280618   0.491815   0.046756
     6  C   -8.099518   4.193284  -0.013873   0.643867   0.046756  26.593783
     7  C   -2.267226   2.575564   0.003062  -4.582436  -0.017790 -10.102720
     8  C   -1.603628   9.275258  -0.055563 -14.872540   0.038419  -5.196854
     9  H    0.030434  -0.025418   0.000013   0.045886  -0.000124   0.041375
    10  C   -4.136901 -48.173439   0.065608   8.081311  -0.043152  -0.537650
    11  H    0.120529   0.083117  -0.000120  -0.038564   0.000015  -0.009359
    12  S   -2.441053  -0.838993  -0.002775   0.393629   0.002082  -0.138252
    13  O    0.019775  -0.261713   0.001067   0.156800   0.000017  -0.071877
    14  O   -0.427691  -0.280175   0.002128   0.151390   0.000285  -0.020083
    15  N   -0.111092   0.444143  -0.000630  -0.024334   0.000120   0.053319
    16  H   -0.125187   0.033687  -0.000012   0.005554   0.000000   0.002978
    17  O   -0.023420   0.118252   0.000204   0.039899   0.009119  -0.590954
    18  O   -0.000994   0.075563   0.000009  -0.238374  -0.000857  -0.122190
    19  C   -0.029946  -0.064844  -0.000028  -0.265427   0.001219  -0.428270
    20  H   -0.000054  -0.000041  -0.000000   0.010178   0.000059   0.001409
    21  H    0.000310  -0.000738   0.000000  -0.004763  -0.000004   0.003435
    22  H    0.000054  -0.000341   0.000000  -0.003142  -0.000004  -0.007548
               7          8          9         10         11         12
     1  C   -2.267226  -1.603628   0.030434  -4.136901   0.120529  -2.441053
     2  C    2.575564   9.275258  -0.025418 -48.173439   0.083117  -0.838993
     3  H    0.003062  -0.055563   0.000013   0.065608  -0.000120  -0.002775
     4  C   -4.582436 -14.872540   0.045886   8.081311  -0.038564   0.393629
     5  H   -0.017790   0.038419  -0.000124  -0.043152   0.000015   0.002082
     6  C  -10.102720  -5.196854   0.041375  -0.537650  -0.009359  -0.138252
     7  C   16.589866   3.952354  -0.009448  -2.035379  -0.001733  -0.290705
     8  C    3.952354  40.701220   0.279553 -26.598723  -0.141456   0.046552
     9  H   -0.009448   0.279553   0.479427  -0.068881  -0.003395   0.000158
    10  C   -2.035379 -26.598723  -0.068881  76.726928   0.278164   1.695069
    11  H   -0.001733  -0.141456  -0.003395   0.278164   0.467920   0.006899
    12  S   -0.290705   0.046552   0.000158   1.695069   0.006899  15.464293
    13  O   -0.028996  -0.050872   0.000002   0.070902   0.005276   0.208424
    14  O   -0.002754   0.182436   0.000025   0.139895   0.000690   0.257430
    15  N    0.002453   0.001226  -0.000004  -0.303822   0.000538   0.053511
    16  H   -0.000243   0.009968  -0.000000   0.002681  -0.000646   0.127275
    17  O    0.547162  -0.230866   0.000460   0.084663   0.000040  -0.000845
    18  O    0.467754   0.190756   0.004238  -0.014981   0.000064   0.000534
    19  C    0.326930   0.247511   0.000625  -0.070056  -0.000036  -0.001102
    20  H    0.019971  -0.001315   0.000000   0.001316   0.000000   0.000002
    21  H   -0.027632   0.001096  -0.000001  -0.002108   0.000000  -0.000000
    22  H   -0.018371   0.000199  -0.000001  -0.001442   0.000000  -0.000001
              13         14         15         16         17         18
     1  C    0.019775  -0.427691  -0.111092  -0.125187  -0.023420  -0.000994
     2  C   -0.261713  -0.280175   0.444143   0.033687   0.118252   0.075563
     3  H    0.001067   0.002128  -0.000630  -0.000012   0.000204   0.000009
     4  C    0.156800   0.151390  -0.024334   0.005554   0.039899  -0.238374
     5  H    0.000017   0.000285   0.000120   0.000000   0.009119  -0.000857
     6  C   -0.071877  -0.020083   0.053319   0.002978  -0.590954  -0.122190
     7  C   -0.028996  -0.002754   0.002453  -0.000243   0.547162   0.467754
     8  C   -0.050872   0.182436   0.001226   0.009968  -0.230866   0.190756
     9  H    0.000002   0.000025  -0.000004  -0.000000   0.000460   0.004238
    10  C    0.070902   0.139895  -0.303822   0.002681   0.084663  -0.014981
    11  H    0.005276   0.000690   0.000538  -0.000646   0.000040   0.000064
    12  S    0.208424   0.257430   0.053511   0.127275  -0.000845   0.000534
    13  O    8.890527  -0.126468  -0.208974  -0.020129  -0.000002  -0.000007
    14  O   -0.126468   8.945377  -0.179497   0.020756  -0.000018   0.000011
    15  N   -0.208974  -0.179497   7.861668   0.159827  -0.000045  -0.000000
    16  H   -0.020129   0.020756   0.159827   0.451586   0.000000  -0.000000
    17  O   -0.000002  -0.000018  -0.000045   0.000000   8.640329  -0.210625
    18  O   -0.000007   0.000011  -0.000000  -0.000000  -0.210625   8.402121
    19  C   -0.000044   0.000052   0.000032   0.000001   0.077608  -0.030965
    20  H   -0.000000  -0.000000  -0.000000   0.000000  -0.066973   0.001141
    21  H   -0.000000   0.000000   0.000000  -0.000000  -0.028773   0.000575
    22  H    0.000000   0.000000  -0.000000   0.000000  -0.028803   0.000561
              19         20         21         22
     1  C   -0.029946  -0.000054   0.000310   0.000054
     2  C   -0.064844  -0.000041  -0.000738  -0.000341
     3  H   -0.000028  -0.000000   0.000000   0.000000
     4  C   -0.265427   0.010178  -0.004763  -0.003142
     5  H    0.001219   0.000059  -0.000004  -0.000004
     6  C   -0.428270   0.001409   0.003435  -0.007548
     7  C    0.326930   0.019971  -0.027632  -0.018371
     8  C    0.247511  -0.001315   0.001096   0.000199
     9  H    0.000625   0.000000  -0.000001  -0.000001
    10  C   -0.070056   0.001316  -0.002108  -0.001442
    11  H   -0.000036   0.000000   0.000000   0.000000
    12  S   -0.001102   0.000002  -0.000000  -0.000001
    13  O   -0.000044  -0.000000  -0.000000   0.000000
    14  O    0.000052  -0.000000   0.000000   0.000000
    15  N    0.000032  -0.000000   0.000000  -0.000000
    16  H    0.000001   0.000000  -0.000000   0.000000
    17  O    0.077608  -0.066973  -0.028773  -0.028803
    18  O   -0.030965   0.001141   0.000575   0.000561
    19  C    5.383049   0.380547   0.413950   0.414292
    20  H    0.380547   0.506317  -0.028448  -0.028473
    21  H    0.413950  -0.028448   0.485884  -0.032747
    22  H    0.414292  -0.028473  -0.032747   0.485928
 Mulliken charges:
               1
     1  C   -1.618414
     2  C   -0.763169
     3  H    0.250342
     4  C   -0.089411
     5  H    0.216830
     6  C   -0.241059
     7  C    0.900319
     8  C   -0.174733
     9  H    0.225075
    10  C    0.839998
    11  H    0.232059
    12  S    1.457868
    13  O   -0.583708
    14  O   -0.663788
    15  N   -0.748437
    16  H    0.331904
    17  O   -0.336413
    18  O   -0.524331
    19  C   -0.355099
    20  H    0.204362
    21  H    0.219964
    22  H    0.219841
 Sum of Mulliken charges =  -1.00000
 Mulliken charges with hydrogens summed into heavy atoms:
               1
     1  C   -1.618414
     2  C   -0.512827
     4  C    0.127419
     6  C   -0.241059
     7  C    0.900319
     8  C    0.050342
    10  C    1.072058
    12  S    1.457868
    13  O   -0.583708
    14  O   -0.663788
    15  N   -0.416532
    17  O   -0.336413
    18  O   -0.524331
    19  C    0.289068
 Electronic spatial extent (au):  <R**2>=           4264.7527
 Charge=             -1.0000 electrons
 Dipole moment (field-independent basis, Debye):
    X=             14.6139    Y=             -0.0344    Z=              0.3061  Tot=             14.6172
 Quadrupole moment (field-independent basis, Debye-Ang):
   XX=           -151.7067   YY=            -96.7399   ZZ=           -101.4955
   XY=            -16.6180   XZ=             -0.4222   YZ=              3.1909
 Traceless Quadrupole moment (field-independent basis, Debye-Ang):
   XX=            -35.0594   YY=             19.9074   ZZ=             15.1519
   XY=            -16.6180   XZ=             -0.4222   YZ=              3.1909
 Octapole moment (field-independent basis, Debye-Ang**2):
  XXX=            278.7096  YYY=              1.1486  ZZZ=            -11.4708  XYY=             10.1898
  XXY=            -22.0172  XXZ=             -2.2560  XZZ=             38.0718  YZZ=              2.1678
  YYZ=              5.9681  XYZ=            -11.6470
 Hexadecapole moment (field-independent basis, Debye-Ang**3):
 XXXX=          -5301.7495 YYYY=           -601.6811 ZZZZ=           -276.4675 XXXY=           -263.4807
 XXXZ=             44.6093 YYYX=            -59.6121 YYYZ=              2.5326 ZZZX=             42.4300
 ZZZY=             11.5652 XXYY=          -1021.4027 XXZZ=           -932.1709 YYZZ=           -150.6658
 XXYZ=             38.3958 YYXZ=            -19.8257 ZZXY=             -3.9193
 N-N= 9.868708878372D+02 E-N=-4.487567106167D+03  KE= 1.056271321378D+03
 Calling FoFJK, ICntrl=      2127 FMM=F ISym2X=0 I1Cent= 0 IOpClX= 0 NMat=1 NMatS=1 NMatT=0.
 ***** Axes restored to original set *****
 -------------------------------------------------------------------
 Center     Atomic                   Forces (Hartrees/Bohr)
 Number     Number              X              Y              Z
 -------------------------------------------------------------------
      1        6           0.000314510   -0.001266843    0.002466143
      2        6           0.000375345    0.000406948   -0.005402764
      3        1           0.001417350    0.000367480    0.003443775
      4        6          -0.000151228   -0.000180711    0.003614219
      5        1           0.000359359    0.000043214   -0.001405584
      6        6          -0.001267884    0.000125561   -0.007570165
      7        6           0.019560751    0.002216555    0.010101799
      8        6           0.001348003   -0.000039960    0.003225798
      9        1          -0.000598698   -0.000001120   -0.002152560
     10        6          -0.001159005   -0.000279042   -0.006265098
     11        1          -0.001717875    0.000830445    0.002003379
     12       16          -0.010550865    0.012860404    0.033594929
     13        8          -0.000255963   -0.007332151   -0.011075825
     14        8           0.008281362   -0.002755855   -0.011069627
     15        7           0.002003405   -0.004887910   -0.007905790
     16        1          -0.000396864    0.001888320    0.001554931
     17        8          -0.011483666   -0.001046614   -0.014513569
     18        8          -0.008051148   -0.000970074   -0.001488418
     19        6           0.000331650   -0.000228708    0.010054270
     20        1          -0.000990449   -0.000115422    0.000084938
     21        1           0.001236600    0.000804511   -0.000638435
     22        1           0.001395309   -0.000439026   -0.000656347
 -------------------------------------------------------------------
 Cartesian Forces:  Max     0.033594929 RMS     0.006827589

 GradGradGradGradGradGradGradGradGradGradGradGradGradGradGradGradGradGrad
 Berny optimization.
 FormGI is forming the generalized inverse of G from B-inverse, IUseBI=4.
 Internal  Forces:  Max     0.012039735 RMS     0.003598091
 Search for a local minimum.
 Step number   1 out of a maximum of  109
 All quantities printed in internal units (Hartrees-Bohrs-Radians)
 Mixed Optimization -- RFO/linear search
 Second derivative matrix not updated -- first step.
 ITU=  0
     Eigenvalues ---    0.00311   0.00908   0.01207   0.01440   0.01457
     Eigenvalues ---    0.01757   0.02122   0.02150   0.02160   0.02176
     Eigenvalues ---    0.02178   0.02185   0.02197   0.02579   0.03117
     Eigenvalues ---    0.10248   0.10451   0.10710   0.11870   0.16000
     Eigenvalues ---    0.16000   0.16000   0.16000   0.16000   0.16000
     Eigenvalues ---    0.16000   0.16000   0.16967   0.21580   0.22000
     Eigenvalues ---    0.22980   0.23988   0.24957   0.25000   0.25000
     Eigenvalues ---    0.25000   0.25000   0.25000   0.25769   0.33528
     Eigenvalues ---    0.34623   0.34623   0.35020   0.35229   0.35353
     Eigenvalues ---    0.35386   0.35437   0.40047   0.42235   0.42428
     Eigenvalues ---    0.43714   0.46115   0.46203   0.46744   0.47234
     Eigenvalues ---    0.58826   0.59252   0.78579   0.81379   0.95539
 RFO step:  Lambda=-5.69307311D-03 EMin= 3.11419760D-03
 Linear search not attempted -- first point.
 Iteration  1 RMS(Cart)=  0.03155997 RMS(Int)=  0.00104810
 Iteration  2 RMS(Cart)=  0.00094094 RMS(Int)=  0.00054237
 Iteration  3 RMS(Cart)=  0.00000037 RMS(Int)=  0.00054237
 Variable       Old X    -DE/DX   Delta X   Delta X   Delta X     New X
                                 (Linear)    (Quad)   (Total)
    R1        2.63129  -0.00044   0.00000  -0.00110  -0.00109   2.63019
    R2        2.63800   0.00076   0.00000   0.00148   0.00149   2.63948
    R3        3.40992   0.00514   0.00000   0.01951   0.01951   3.42943
    R4        2.05052   0.00020   0.00000   0.00055   0.00055   2.05108
    R5        2.63249   0.00066   0.00000   0.00136   0.00136   2.63385
    R6        2.04972   0.00049   0.00000   0.00136   0.00136   2.05107
    R7        2.64065   0.00141   0.00000   0.00317   0.00316   2.64381
    R8        2.81435  -0.00272   0.00000  -0.00797  -0.00797   2.80638
    R9        2.64379   0.00056   0.00000   0.00138   0.00137   2.64517
   R10        2.51881   0.01113   0.00000   0.01874   0.01874   2.53755
   R11        2.30480  -0.00648   0.00000  -0.00674  -0.00674   2.29806
   R12        2.05105   0.00041   0.00000   0.00114   0.00114   2.05219
   R13        2.62497   0.00081   0.00000   0.00170   0.00171   2.62668
   R14        2.05305  -0.00020   0.00000  -0.00056  -0.00056   2.05248
   R15        2.82391  -0.00907   0.00000  -0.01146  -0.01146   2.81244
   R16        2.80880  -0.01085   0.00000  -0.01324  -0.01324   2.79556
   R17        2.95237   0.00145   0.00000   0.00243   0.00243   2.95480
   R18        1.93498  -0.00073   0.00000  -0.00165  -0.00165   1.93333
   R19        2.71490  -0.00873   0.00000  -0.02149  -0.02149   2.69341
   R20        2.05643   0.00092   0.00000   0.00259   0.00259   2.05902
   R21        2.06291   0.00032   0.00000   0.00092   0.00092   2.06383
   R22        2.06292   0.00032   0.00000   0.00091   0.00091   2.06383
    A1        2.11209  -0.00323   0.00000  -0.01344  -0.01345   2.09863
    A2        2.09948  -0.00089   0.00000  -0.00277  -0.00281   2.09667
    A3        2.07008   0.00414   0.00000   0.01697   0.01694   2.08702
    A4        2.09882  -0.00476   0.00000  -0.02675  -0.02675   2.07208
    A5        2.08501   0.00187   0.00000   0.00734   0.00734   2.09235
    A6        2.09933   0.00289   0.00000   0.01940   0.01940   2.11873
    A7        2.09108   0.00097   0.00000   0.00668   0.00668   2.09776
    A8        2.09230   0.00085   0.00000   0.00352   0.00351   2.09581
    A9        2.09980  -0.00182   0.00000  -0.01020  -0.01020   2.08960
   A10        2.12243   0.00181   0.00000   0.00699   0.00699   2.12942
   A11        2.09849  -0.00206   0.00000  -0.00791  -0.00792   2.09057
   A12        2.06226   0.00025   0.00000   0.00092   0.00092   2.06318
   A13        1.97639   0.00065   0.00000   0.00255   0.00255   1.97894
   A14        2.16200   0.00555   0.00000   0.02171   0.02171   2.18371
   A15        2.14480  -0.00620   0.00000  -0.02426  -0.02426   2.12054
   A16        2.09064  -0.00230   0.00000  -0.01378  -0.01379   2.07685
   A17        2.09414   0.00010   0.00000   0.00034   0.00034   2.09448
   A18        2.09840   0.00221   0.00000   0.01343   0.01342   2.11183
   A19        2.08433   0.00248   0.00000   0.01019   0.01017   2.09450
   A20        2.10187  -0.00384   0.00000  -0.02085  -0.02090   2.08097
   A21        2.09697   0.00137   0.00000   0.01058   0.01053   2.10750
   A22        1.80262  -0.00703   0.00000  -0.04439  -0.04473   1.75789
   A23        1.83502  -0.00908   0.00000  -0.04983  -0.04986   1.78516
   A24        1.91069  -0.00719   0.00000  -0.04674  -0.04721   1.86348
   A25        1.98739   0.00800   0.00000   0.06269   0.06007   2.04746
   A26        2.00787   0.00496   0.00000   0.02230   0.01949   2.02736
   A27        1.90816   0.00711   0.00000   0.03729   0.03472   1.94288
   A28        1.88329  -0.00243   0.00000  -0.01467  -0.01467   1.86862
   A29        2.02765  -0.00623   0.00000  -0.02435  -0.02435   2.00331
   A30        1.83962  -0.00029   0.00000  -0.00010  -0.00011   1.83951
   A31        1.91909   0.00061   0.00000   0.00279   0.00279   1.92188
   A32        1.91921   0.00058   0.00000   0.00261   0.00260   1.92181
   A33        1.93001   0.00055   0.00000   0.00509   0.00508   1.93510
   A34        1.93009   0.00055   0.00000   0.00501   0.00500   1.93509
   A35        1.92423  -0.00189   0.00000  -0.01456  -0.01456   1.90967
    D1       -3.13958   0.00031   0.00000   0.01179   0.01172  -3.12787
    D2       -0.00531   0.00031   0.00000   0.01161   0.01158   0.00627
    D3        0.06229  -0.00014   0.00000  -0.00388  -0.00378   0.05851
    D4       -3.08662  -0.00015   0.00000  -0.00407  -0.00392  -3.09054
    D5        0.00502  -0.00026   0.00000  -0.01029  -0.01028  -0.00526
    D6        3.14042  -0.00067   0.00000  -0.02612  -0.02597   3.11445
    D7        3.08733   0.00003   0.00000   0.00448   0.00448   3.09180
    D8       -0.06046  -0.00039   0.00000  -0.01135  -0.01122  -0.07168
    D9       -2.40673  -0.00151   0.00000  -0.04750  -0.04703  -2.45376
   D10       -0.31857   0.00046   0.00000  -0.01828  -0.01857  -0.33715
   D11        1.72952   0.00037   0.00000  -0.02434  -0.02439   1.70513
   D12        0.79371  -0.00171   0.00000  -0.06178  -0.06139   0.73231
   D13        2.88186   0.00026   0.00000  -0.03256  -0.03294   2.84893
   D14       -1.35323   0.00017   0.00000  -0.03862  -0.03876  -1.39198
   D15       -3.13600  -0.00007   0.00000  -0.00290  -0.00292  -3.13892
   D16        0.00328  -0.00015   0.00000  -0.00560  -0.00563  -0.00235
   D17       -0.00172  -0.00011   0.00000  -0.00328  -0.00326  -0.00499
   D18        3.13755  -0.00019   0.00000  -0.00598  -0.00597   3.13159
   D19       -3.14143   0.00008   0.00000   0.00315   0.00314  -3.13830
   D20       -0.00105  -0.00002   0.00000  -0.00149  -0.00152  -0.00257
   D21       -0.00217  -0.00000   0.00000   0.00046   0.00047  -0.00170
   D22        3.13822  -0.00010   0.00000  -0.00418  -0.00420   3.13402
   D23       -0.00166  -0.00004   0.00000  -0.00125  -0.00127  -0.00292
   D24        3.14070  -0.00004   0.00000  -0.00130  -0.00132   3.13938
   D25        3.14112   0.00007   0.00000   0.00331   0.00333  -3.13874
   D26        0.00029   0.00007   0.00000   0.00326   0.00328   0.00357
   D27       -3.13854   0.00020   0.00000   0.00844   0.00846  -3.13008
   D28        0.00076   0.00007   0.00000   0.00281   0.00283   0.00359
   D29        0.00188   0.00011   0.00000   0.00397   0.00398   0.00587
   D30        3.14119  -0.00003   0.00000  -0.00167  -0.00165   3.13954
   D31       -3.14075   0.00000   0.00000   0.00016   0.00016  -3.14059
   D32        0.00009   0.00001   0.00000   0.00023   0.00023   0.00032
   D33       -0.00271   0.00006   0.00000   0.00297   0.00301   0.00030
   D34       -3.13812   0.00050   0.00000   0.01887   0.01906  -3.11906
   D35        3.13659  -0.00008   0.00000  -0.00272  -0.00278   3.13381
   D36        0.00118   0.00035   0.00000   0.01318   0.01327   0.01445
   D37        1.26123   0.00126   0.00000   0.03010   0.03029   1.29152
   D38       -0.75871   0.01204   0.00000   0.10468   0.10639  -0.65231
   D39       -3.02036  -0.00961   0.00000  -0.03452  -0.03642  -3.05678
   D40        3.13923   0.00001   0.00000   0.00041   0.00041   3.13964
   D41        1.05868  -0.00079   0.00000  -0.00701  -0.00701   1.05167
   D42       -1.06325   0.00079   0.00000   0.00763   0.00764  -1.05562
         Item               Value     Threshold  Converged?
 Maximum Force            0.012040     0.000450     NO 
 RMS     Force            0.003598     0.000300     NO 
 Maximum Displacement     0.110033     0.001800     NO 
 RMS     Displacement     0.031592     0.001200     NO 
 Predicted change in Energy=-3.022499D-03
 GradGradGradGradGradGradGradGradGradGradGradGradGradGradGradGradGradGrad

                          Input orientation:                          
 ---------------------------------------------------------------------
 Center     Atomic      Atomic             Coordinates (Angstroms)
 Number     Number       Type             X           Y           Z
 ---------------------------------------------------------------------
      1          6           0       -1.385143    0.639553   -0.877297
      2          6           0       -2.533893    0.511736   -1.652698
      3          1           0       -3.489199    0.386331   -1.152978
      4          6           0       -2.441832    0.555308   -3.042743
      5          1           0       -3.334716    0.458645   -3.652225
      6          6           0       -1.197529    0.730017   -3.657976
      7          6           0       -1.050638    0.786830   -5.134672
      8          6           0       -0.046439    0.863925   -2.872868
      9          1           0        0.911346    1.009785   -3.363491
     10          6           0       -0.141273    0.818843   -1.486861
     11          1           0        0.741001    0.942235   -0.865541
     12         16           0       -1.486055    0.504533    0.929635
     13          8           0       -0.529454    1.568038    1.340554
     14          8           0       -2.922798    0.748834    1.183718
     15          7           0       -1.085380   -0.961913    1.295532
     16          1           0       -0.072169   -1.035418    1.174357
     17          8           0       -2.213964    0.651612   -5.791590
     18          8           0        0.000079    0.938479   -5.727839
     19          6           0       -2.107119    0.700448   -7.212031
     20          1           0       -3.123894    0.575200   -7.583083
     21          1           0       -1.461021   -0.104902   -7.568004
     22          1           0       -1.694470    1.662054   -7.524744
 ---------------------------------------------------------------------
                    Distance matrix (angstroms):
                    1          2          3          4          5
     1  C    0.000000
     2  C    1.391838   0.000000
     3  H    2.137095   1.085383   0.000000
     4  C    2.410985   1.393772   2.167197   0.000000
     5  H    3.396144   2.154587   2.505060   1.085382   0.000000
     6  C    2.788469   2.419640   3.412460   1.399044   2.154355
     7  C    4.273035   3.794716   4.686242   2.522933   2.742694
     8  C    2.413457   2.792898   3.877978   2.421159   3.403588
     9  H    3.404716   3.878729   4.963855   3.399005   4.291407
    10  C    1.396755   2.417943   3.392219   2.789766   3.875129
    11  H    2.147613   3.395567   4.276242   3.875610   4.960942
    12  S    1.814778   2.786837   2.892030   4.086059   4.940961
    13  O    2.552087   3.754079   4.046508   4.888365   5.833360
    14  O    2.573735   2.872755   2.431537   4.258140   4.862122
    15  N    2.715831   3.600263   3.686639   4.791926   5.617633
    16  H    2.956131   4.055368   4.371951   5.092116   6.014344
    17  O    4.983710   4.153594   4.818019   2.759955   2.422850
    18  O    5.053311   4.817665   5.780076   3.649587   3.957180
    19  C    6.376034   5.578883   6.222614   4.185219   3.773285
    20  H    6.927840   5.960000   6.443242   4.591327   3.938233
    21  H    6.732424   6.043355   6.745915   4.677163   4.377402
    22  H    6.732737   6.042250   6.741507   4.676726   4.374358
                    6          7          8          9         10
     6  C    0.000000
     7  C    1.485071   0.000000
     8  C    1.399762   2.475907   0.000000
     9  H    2.147638   2.652579   1.085974   0.000000
    10  C    2.416053   3.759588   1.389979   2.160140   0.000000
    11  H    3.405970   4.632451   2.157674   2.504662   1.086127
    12  S    4.602203   6.086469   4.081750   4.943050   2.783286
    13  O    5.112134   6.542972   4.299070   4.951322   2.950636
    14  O    5.139933   6.590029   4.974191   5.953643   3.856653
    15  N    5.235690   6.663846   4.667830   5.438842   3.435715
    16  H    5.266369   6.639416   4.470816   5.073679   3.244247
    17  O    2.364655   1.342815   3.641727   3.973854   4.780660
    18  O    2.400428   1.216080   2.856323   2.534884   4.245019
    19  C    3.668724   2.332173   4.806398   4.900825   6.054432
    20  H    4.375079   3.215259   5.633845   5.854655   6.791121
    21  H    4.006849   2.623872   4.998397   4.954653   6.290894
    22  H    4.008433   2.625448   4.999296   4.952955   6.291221
                   11         12         13         14         15
    11  H    0.000000
    12  S    2.893789   0.000000
    13  O    2.621553   1.488282   0.000000
    14  O    4.202415   1.479348   2.534519   0.000000
    15  N    3.410525   1.563613   2.590701   2.513018   0.000000
    16  H    2.955257   2.104854   2.648530   3.362993   1.023075
    17  O    5.751716   6.762126   7.385451   7.011905   7.355573
    18  O    4.918427   6.835120   7.116104   7.506584   7.356456
    19  C    6.960473   8.167670   8.740049   8.435418   8.728461
    20  H    7.758705   8.669134   9.346023   8.770826   9.238402
    21  H    7.132210   8.519502   9.112023   8.913939   8.912791
    22  H    7.127036   8.535796   8.942014   8.841950   9.222443
                   16         17         18         19         20
    16  H    0.000000
    17  O    7.480493   0.000000
    18  O    7.179262   2.233460   0.000000
    19  C    8.802600   1.425291   2.588391   0.000000
    20  H    9.412751   2.010786   3.651453   1.089586   0.000000
    21  H    8.900767   2.072410   2.570927   1.092130   1.796639
    22  H    9.251085   2.072364   2.573699   1.092133   1.796638
                   21         22
    21  H    0.000000
    22  H    1.782836   0.000000
 Stoichiometry    C8H8NO4S(1-)
 Framework group  C1[X(C8H8NO4S)]
 Deg. of freedom    60
 Full point group                 C1      NOp   1
 Largest Abelian subgroup         C1      NOp   1
 Largest concise Abelian subgroup C1      NOp   1
                         Standard orientation:                         
 ---------------------------------------------------------------------
 Center     Atomic      Atomic             Coordinates (Angstroms)
 Number     Number       Type             X           Y           Z
 ---------------------------------------------------------------------
      1          6           0       -1.231130    0.003972   -0.056460
      2          6           0       -0.459387   -1.154217   -0.041584
      3          1           0       -0.962006   -2.116109   -0.055444
      4          6           0        0.931131   -1.061877   -0.018494
      5          1           0        1.537871   -1.961786   -0.009325
      6          6           0        1.550620    0.192528   -0.013117
      7          6           0        3.028148    0.340642    0.007064
      8          6           0        0.769414    1.353824   -0.034126
      9          1           0        1.263748    2.320742   -0.040597
     10          6           0       -0.617125    1.258532   -0.055903
     11          1           0       -1.234617    2.151265   -0.093357
     12         16           0       -3.041810   -0.107166   -0.006433
     13          8           0       -3.412001    0.975213   -0.958481
     14          8           0       -3.283517   -1.501719   -0.436865
     15          7           0       -3.466140    0.109755    1.482786
     16          1           0       -3.349739    1.105644    1.686103
     17          8           0        3.681233   -0.832552    0.022794
     18          8           0        3.625013    1.400166    0.010426
     19          6           0        5.102306   -0.724986    0.043697
     20          1           0        5.469888   -1.750616    0.056432
     21          1           0        5.425007   -0.184859    0.936376
     22          1           0        5.452098   -0.197288   -0.846210
 ---------------------------------------------------------------------
 Rotational constants (GHZ):           2.0312756           0.2654657           0.2469744
 Basis read from rwf:  (6D, 7F)
 There are   286 symmetry adapted cartesian basis functions of A   symmetry.
 There are   286 symmetry adapted basis functions of A   symmetry.
   286 basis functions,   504 primitive gaussians,   286 cartesian basis functions
    56 alpha electrons       56 beta electrons
       nuclear repulsion energy       988.3889604282 Hartrees.
 NAtoms=   22 NActive=   22 NUniq=   22 SFac= 1.00D+00 NAtFMM=   60 NAOKFM=F Big=F
 Integral buffers will be    131072 words long.
 Raffenetti 2 integral format.
 Two-electron integral symmetry is turned on.
 One-electron integrals computed using PRISM.
 NBasis=   286 RedAO= T EigKep=  1.05D-06  NBF=   286
 NBsUse=   286 1.00D-06 EigRej= -1.00D+00 NBFU=   286
 Initial guess from the checkpoint file:  "/jobfs/40918521.gadi-pbs/Gau-903447.chk"
 B after Tr=     0.000000    0.000000    0.000000
         Rot=    0.999973   -0.007328    0.000033    0.000226 Ang=  -0.84 deg.
 ExpMin= 4.05D-02 ExpMax= 2.19D+04 ExpMxC= 3.30D+03 IAcc=3 IRadAn=         5 AccDes= 0.00D+00
 Harris functional with IExCor= 1009 and IRadAn=       5 diagonalized for initial guess.
 HarFok:  IExCor= 1009 AccDes= 0.00D+00 IRadAn=         5 IDoV= 1 UseB2=F ITyADJ=14
 ICtDFT=  3500011 ScaDFX=  1.000000  1.000000  1.000000  1.000000
 FoFCou: FMM=F IPFlag=           0 FMFlag=      100000 FMFlg1=           0
         NFxFlg=           0 DoJE=T BraDBF=F KetDBF=T FulRan=T
         wScrn=  0.000000 ICntrl=       500 IOpCl=  0 I1Cent=   200000004 NGrid=           0
         NMat0=    1 NMatS0=      1 NMatT0=    0 NMatD0=    1 NMtDS0=    0 NMtDT0=    0
 Petite list used in FoFCou.
 Requested convergence on RMS density matrix=1.00D-08 within 128 cycles.
 Requested convergence on MAX density matrix=1.00D-06.
 Requested convergence on             energy=1.00D-06.
 No special actions if energy rises.
 SCF Done:  E(RM062X) =  -1063.22176302     A.U. after   15 cycles
            NFock= 15  Conv=0.92D-08     -V/T= 2.0065
 Calling FoFJK, ICntrl=      2127 FMM=F ISym2X=0 I1Cent= 0 IOpClX= 0 NMat=1 NMatS=1 NMatT=0.
 ***** Axes restored to original set *****
 -------------------------------------------------------------------
 Center     Atomic                   Forces (Hartrees/Bohr)
 Number     Number              X              Y              Z
 -------------------------------------------------------------------
      1        6           0.000834716   -0.000000094   -0.001615902
      2        6          -0.000229402   -0.000567257   -0.004612793
      3        1           0.000107322    0.000164208    0.000520463
      4        6          -0.001171837   -0.000120732    0.001982572
      5        1           0.000042745    0.000026379   -0.000452924
      6        6          -0.000736139   -0.000104385   -0.003428827
      7        6           0.008369648    0.000952140    0.005925780
      8        6           0.000923218    0.000136544    0.002310907
      9        1           0.000012953   -0.000029899   -0.000485101
     10        6          -0.000076885   -0.000058253   -0.003711178
     11        1          -0.000103442    0.000323986    0.000624911
     12       16          -0.001057012    0.004758547   -0.004256714
     13        8          -0.003267301   -0.004039115    0.003090412
     14        8           0.006302215   -0.001425035    0.004249017
     15        7          -0.001923218   -0.000672072    0.000773992
     16        1          -0.000069038    0.001613247    0.002139036
     17        8          -0.006231115   -0.000689622   -0.004952030
     18        8          -0.000843020   -0.000137268    0.000899823
     19        6          -0.001600049   -0.000294520    0.003489358
     20        1          -0.000012415    0.000019343   -0.000589135
     21        1           0.000336281    0.000243834   -0.000944717
     22        1           0.000391775   -0.000099976   -0.000956952
 -------------------------------------------------------------------
 Cartesian Forces:  Max     0.008369648 RMS     0.002470273

 GradGradGradGradGradGradGradGradGradGradGradGradGradGradGradGradGradGrad
 Berny optimization.
 Using GEDIIS/GDIIS optimizer.
 FormGI is forming the generalized inverse of G from B-inverse, IUseBI=4.
 Internal  Forces:  Max     0.008187625 RMS     0.001964133
 Search for a local minimum.
 Step number   2 out of a maximum of  109
 All quantities printed in internal units (Hartrees-Bohrs-Radians)
 Mixed Optimization -- RFO/linear search
 Update second derivatives using D2CorX and points    1    2
 DE= -2.32D-03 DEPred=-3.02D-03 R= 7.69D-01
 TightC=F SS=  1.41D+00  RLast= 2.09D-01 DXNew= 5.0454D-01 6.2805D-01
 Trust test= 7.69D-01 RLast= 2.09D-01 DXMaxT set to 5.05D-01
 ITU=  1  0
 Use linear search instead of GDIIS.
     Eigenvalues ---    0.00310   0.00908   0.01207   0.01431   0.01434
     Eigenvalues ---    0.01754   0.02121   0.02150   0.02157   0.02175
     Eigenvalues ---    0.02179   0.02184   0.02195   0.02579   0.02967
     Eigenvalues ---    0.10205   0.10678   0.11414   0.12452   0.15156
     Eigenvalues ---    0.15997   0.15999   0.16000   0.16000   0.16000
     Eigenvalues ---    0.16000   0.16000   0.21023   0.21957   0.22210
     Eigenvalues ---    0.22952   0.23418   0.24486   0.24980   0.25000
     Eigenvalues ---    0.25000   0.25000   0.25135   0.29849   0.33659
     Eigenvalues ---    0.34623   0.34624   0.35013   0.35239   0.35351
     Eigenvalues ---    0.35386   0.35434   0.39517   0.42331   0.42396
     Eigenvalues ---    0.43708   0.46115   0.46204   0.46929   0.47426
     Eigenvalues ---    0.57003   0.59329   0.77090   0.80403   0.95287
 RFO step:  Lambda=-1.22068891D-03 EMin= 3.09684677D-03
 Quartic linear search produced a step of -0.15688.
 Iteration  1 RMS(Cart)=  0.03804930 RMS(Int)=  0.00073883
 Iteration  2 RMS(Cart)=  0.00082622 RMS(Int)=  0.00004484
 Iteration  3 RMS(Cart)=  0.00000022 RMS(Int)=  0.00004484
 Variable       Old X    -DE/DX   Delta X   Delta X   Delta X     New X
                                 (Linear)    (Quad)   (Total)
    R1        2.63019   0.00226   0.00017   0.00367   0.00385   2.63404
    R2        2.63948   0.00090  -0.00023   0.00221   0.00198   2.64147
    R3        3.42943   0.00595  -0.00306   0.02637   0.02331   3.45274
    R4        2.05108   0.00013  -0.00009   0.00050   0.00041   2.05149
    R5        2.63385  -0.00155  -0.00021  -0.00225  -0.00246   2.63139
    R6        2.05107   0.00022  -0.00021   0.00101   0.00079   2.05187
    R7        2.64381   0.00030  -0.00050   0.00165   0.00116   2.64497
    R8        2.80638  -0.00282   0.00125  -0.00991  -0.00866   2.79771
    R9        2.64517   0.00084  -0.00022   0.00197   0.00176   2.64692
   R10        2.53755   0.00819  -0.00294   0.01845   0.01551   2.55306
   R11        2.29806  -0.00119   0.00106  -0.00349  -0.00244   2.29562
   R12        2.05219   0.00023  -0.00018   0.00095   0.00077   2.05297
   R13        2.62668  -0.00128  -0.00027  -0.00164  -0.00190   2.62478
   R14        2.05248   0.00031   0.00009   0.00053   0.00062   2.05310
   R15        2.81244  -0.00413   0.00180  -0.00857  -0.00677   2.80568
   R16        2.79556  -0.00563   0.00208  -0.01060  -0.00852   2.78704
   R17        2.95480  -0.00071  -0.00038  -0.00012  -0.00050   2.95430
   R18        1.93333  -0.00044   0.00026  -0.00144  -0.00118   1.93215
   R19        2.69341  -0.00107   0.00337  -0.01008  -0.00671   2.68670
   R20        2.05902   0.00021  -0.00041   0.00145   0.00104   2.06006
   R21        2.06383   0.00033  -0.00014   0.00112   0.00098   2.06480
   R22        2.06383   0.00033  -0.00014   0.00113   0.00099   2.06482
    A1        2.09863  -0.00154   0.00211  -0.01002  -0.00790   2.09073
    A2        2.09667   0.00059   0.00044   0.00081   0.00125   2.09793
    A3        2.08702   0.00094  -0.00266   0.00923   0.00657   2.09359
    A4        2.07208  -0.00103   0.00420  -0.01452  -0.01033   2.06175
    A5        2.09235   0.00099  -0.00115   0.00649   0.00534   2.09769
    A6        2.11873   0.00004  -0.00304   0.00802   0.00497   2.12370
    A7        2.09776   0.00058  -0.00105   0.00531   0.00426   2.10203
    A8        2.09581  -0.00033  -0.00055  -0.00014  -0.00070   2.09511
    A9        2.08960  -0.00024   0.00160  -0.00517  -0.00357   2.08603
   A10        2.12942  -0.00003  -0.00110   0.00260   0.00150   2.13092
   A11        2.09057   0.00016   0.00124  -0.00266  -0.00142   2.08915
   A12        2.06318  -0.00013  -0.00014   0.00004  -0.00010   2.06308
   A13        1.97894  -0.00151  -0.00040  -0.00408  -0.00448   1.97446
   A14        2.18371   0.00033  -0.00341   0.00907   0.00567   2.18937
   A15        2.12054   0.00118   0.00381  -0.00499  -0.00118   2.11935
   A16        2.07685  -0.00044   0.00216  -0.00725  -0.00509   2.07176
   A17        2.09448  -0.00000  -0.00005  -0.00012  -0.00017   2.09431
   A18        2.11183   0.00044  -0.00211   0.00735   0.00525   2.11708
   A19        2.09450   0.00072  -0.00160   0.00643   0.00484   2.09933
   A20        2.08097  -0.00092   0.00328  -0.01199  -0.00872   2.07226
   A21        2.10750   0.00019  -0.00165   0.00535   0.00369   2.11120
   A22        1.75789   0.00535   0.00702   0.01167   0.01873   1.77662
   A23        1.78516   0.00513   0.00782   0.00683   0.01465   1.79982
   A24        1.86348   0.00290   0.00741  -0.00015   0.00736   1.87084
   A25        2.04746  -0.00218  -0.00942   0.00554  -0.00385   2.04361
   A26        2.02736  -0.00356  -0.00306  -0.00972  -0.01254   2.01482
   A27        1.94288  -0.00412  -0.00545  -0.00919  -0.01439   1.92848
   A28        1.86862  -0.00182   0.00230  -0.01487  -0.01257   1.85606
   A29        2.00331   0.00253   0.00382  -0.00051   0.00331   2.00661
   A30        1.83951   0.00056   0.00002   0.00315   0.00315   1.84266
   A31        1.92188   0.00099  -0.00044   0.00599   0.00554   1.92742
   A32        1.92181   0.00099  -0.00041   0.00594   0.00553   1.92734
   A33        1.93510  -0.00059  -0.00080  -0.00087  -0.00168   1.93342
   A34        1.93509  -0.00059  -0.00078  -0.00092  -0.00171   1.93338
   A35        1.90967  -0.00126   0.00228  -0.01243  -0.01016   1.89951
    D1       -3.12787   0.00006  -0.00184   0.00610   0.00426  -3.12360
    D2        0.00627   0.00000  -0.00182   0.00357   0.00177   0.00804
    D3        0.05851   0.00014   0.00059   0.00541   0.00598   0.06449
    D4       -3.09054   0.00008   0.00062   0.00289   0.00348  -3.08706
    D5       -0.00526  -0.00002   0.00161  -0.00387  -0.00226  -0.00752
    D6        3.11445  -0.00013   0.00407  -0.01448  -0.01040   3.10404
    D7        3.09180  -0.00011  -0.00070  -0.00340  -0.00411   3.08769
    D8       -0.07168  -0.00022   0.00176  -0.01401  -0.01225  -0.08393
    D9       -2.45376  -0.00091   0.00738  -0.07813  -0.07087  -2.52463
   D10       -0.33715   0.00052   0.00291  -0.06540  -0.06238  -0.39953
   D11        1.70513  -0.00063   0.00383  -0.07266  -0.06885   1.63627
   D12        0.73231  -0.00077   0.00963  -0.07831  -0.06878   0.66354
   D13        2.84893   0.00067   0.00517  -0.06559  -0.06029   2.78863
   D14       -1.39198  -0.00048   0.00608  -0.07285  -0.06676  -1.45875
   D15       -3.13892   0.00002   0.00046   0.00004   0.00050  -3.13842
   D16       -0.00235   0.00003   0.00088  -0.00040   0.00048  -0.00186
   D17       -0.00499  -0.00004   0.00051  -0.00266  -0.00216  -0.00714
   D18        3.13159  -0.00003   0.00094  -0.00309  -0.00217   3.12942
   D19       -3.13830  -0.00001  -0.00049   0.00097   0.00048  -3.13782
   D20       -0.00257  -0.00005   0.00024  -0.00251  -0.00227  -0.00485
   D21       -0.00170   0.00000  -0.00007   0.00057   0.00049  -0.00121
   D22        3.13402  -0.00004   0.00066  -0.00291  -0.00226   3.13176
   D23       -0.00292   0.00000   0.00020   0.00027   0.00047  -0.00245
   D24        3.13938  -0.00001   0.00021  -0.00041  -0.00021   3.13917
   D25       -3.13874   0.00004  -0.00052   0.00371   0.00319  -3.13555
   D26        0.00357   0.00003  -0.00051   0.00302   0.00251   0.00608
   D27       -3.13008   0.00004  -0.00133   0.00464   0.00332  -3.12676
   D28        0.00359   0.00003  -0.00044   0.00221   0.00178   0.00537
   D29        0.00587   0.00000  -0.00062   0.00130   0.00068   0.00654
   D30        3.13954  -0.00001   0.00026  -0.00113  -0.00087   3.13867
   D31       -3.14059  -0.00001  -0.00002  -0.00026  -0.00028  -3.14087
   D32        0.00032   0.00001  -0.00004   0.00041   0.00037   0.00070
   D33        0.00030   0.00001  -0.00047   0.00098   0.00051   0.00081
   D34       -3.11906   0.00013  -0.00299   0.01198   0.00899  -3.11008
   D35        3.13381  -0.00000   0.00044  -0.00157  -0.00113   3.13269
   D36        0.01445   0.00012  -0.00208   0.00943   0.00736   0.02180
   D37        1.29152   0.00185  -0.00475   0.05417   0.04938   1.34090
   D38       -0.65231  -0.00475  -0.01669   0.04496   0.02820  -0.62411
   D39       -3.05678   0.00746   0.00571   0.05776   0.06358  -2.99320
   D40        3.13964   0.00001  -0.00006   0.00082   0.00075   3.14039
   D41        1.05167  -0.00014   0.00110  -0.00312  -0.00203   1.04964
   D42       -1.05562   0.00015  -0.00120   0.00467   0.00348  -1.05214
         Item               Value     Threshold  Converged?
 Maximum Force            0.008188     0.000450     NO 
 RMS     Force            0.001964     0.000300     NO 
 Maximum Displacement     0.133559     0.001800     NO 
 RMS     Displacement     0.038122     0.001200     NO 
 Predicted change in Energy=-7.150475D-04
 GradGradGradGradGradGradGradGradGradGradGradGradGradGradGradGradGradGrad

                          Input orientation:                          
 ---------------------------------------------------------------------
 Center     Atomic      Atomic             Coordinates (Angstroms)
 Number     Number       Type             X           Y           Z
 ---------------------------------------------------------------------
      1          6           0       -1.375582    0.646128   -0.881864
      2          6           0       -2.520914    0.501255   -1.662959
      3          1           0       -3.471677    0.365135   -1.156944
      4          6           0       -2.431339    0.544591   -3.051868
      5          1           0       -3.321333    0.435130   -3.664155
      6          6           0       -1.189436    0.736264   -3.668289
      7          6           0       -1.042572    0.794430   -5.140324
      8          6           0       -0.040612    0.889747   -2.881787
      9          1           0        0.912809    1.051562   -3.376795
     10          6           0       -0.136176    0.844984   -1.496830
     11          1           0        0.739868    0.991138   -0.871079
     12         16           0       -1.479333    0.504344    0.936782
     13          8           0       -0.473305    1.503601    1.376922
     14          8           0       -2.895115    0.808773    1.216128
     15          7           0       -1.156056   -0.980559    1.303684
     16          1           0       -0.141761   -1.082239    1.224474
     17          8           0       -2.213460    0.642043   -5.796874
     18          8           0        0.001944    0.960073   -5.738041
     19          6           0       -2.117378    0.690573   -7.214533
     20          1           0       -3.134391    0.551968   -7.581786
     21          1           0       -1.461773   -0.103537   -7.579843
     22          1           0       -1.716970    1.654772   -7.536861
 ---------------------------------------------------------------------
                    Distance matrix (angstroms):
                    1          2          3          4          5
     1  C    0.000000
     2  C    1.393873   0.000000
     3  H    2.132660   1.085601   0.000000
     4  C    2.415336   1.392470   2.169158   0.000000
     5  H    3.401706   2.156346   2.512689   1.085802   0.000000
     6  C    2.794090   2.418556   3.413680   1.399656   2.153064
     7  C    4.274034   3.789923   4.685313   2.520464   2.738781
     8  C    2.416855   2.790765   3.875888   2.421495   3.403220
     9  H    3.409661   3.876922   4.962120   3.397929   4.288416
    10  C    1.397804   2.415104   3.386938   2.788575   3.874338
    11  H    2.143427   3.391130   4.267401   3.874507   4.960219
    12  S    1.827113   2.800634   2.893528   4.100886   4.956448
    13  O    2.579046   3.799773   4.087398   4.936373   5.887728
    14  O    2.595574   2.919543   2.482078   4.301241   4.913087
    15  N    2.733300   3.586026   3.636989   4.787825   5.601073
    16  H    2.991025   4.062646   4.342164   5.116234   6.025842
    17  O    4.985918   4.147723   4.815469   2.755363   2.412196
    18  O    5.057529   4.814730   5.779831   3.648152   3.952308
    19  C    6.376122   5.569440   6.215659   4.177040   3.757652
    20  H    6.927570   5.950751   6.436401   4.584156   3.923829
    21  H    6.740352   6.041280   6.746331   4.675754   4.368150
    22  H    6.739650   6.039839   6.741327   4.675252   4.365703
                    6          7          8          9         10
     6  C    0.000000
     7  C    1.480486   0.000000
     8  C    1.400692   2.472650   0.000000
     9  H    2.145650   2.645688   1.086383   0.000000
    10  C    2.415866   3.754884   1.388971   2.162709   0.000000
    11  H    3.407574   4.630577   2.159254   2.512404   1.086453
    12  S    4.620012   6.099683   4.098771   4.962735   2.800460
    13  O    5.153232   6.580386   4.324424   4.972270   2.967471
    14  O    5.174179   6.620921   4.994762   5.971111   3.869522
    15  N    5.260144   6.684961   4.718097   5.506052   3.495089
    16  H    5.323881   6.696567   4.556352   5.180435   3.334624
    17  O    2.363975   1.351021   3.644223   3.974675   4.779819
    18  O    2.398614   1.214791   2.857437   2.532495   4.245020
    19  C    3.665926   2.338448   4.808879   4.903119   6.053192
    20  H    4.374046   3.224164   5.636981   5.857591   6.789833
    21  H    4.009948   2.633121   5.007798   4.963719   6.297614
    22  H    4.010960   2.634082   5.006511   4.958402   6.295763
                   11         12         13         14         15
    11  H    0.000000
    12  S    2.903478   0.000000
    13  O    2.605362   1.484699   0.000000
    14  O    4.195568   1.474839   2.524640   0.000000
    15  N    3.494526   1.563350   2.577318   2.496738   0.000000
    16  H    3.076931   2.095020   2.611462   3.340202   1.022452
    17  O    5.753910   6.774956   7.431943   7.048025   7.359951
    18  O    4.922685   6.852382   7.151502   7.535006   7.395466
    19  C    6.963735   8.178370   8.785049   8.467284   8.733662
    20  H    7.761208   8.677989   9.393904   8.804913   9.231145
    21  H    7.145142   8.538309   9.153338   8.958564   8.931947
    22  H    7.135063   8.554682   9.001393   8.872348   9.242015
                   16         17         18         19         20
    16  H    0.000000
    17  O    7.520932   0.000000
    18  O    7.257294   2.238888   0.000000
    19  C    8.846625   1.421740   2.596956   0.000000
    20  H    9.443341   2.010507   3.660948   1.090139   0.000000
    21  H    8.956355   2.073619   2.581853   1.092647   1.796480
    22  H    9.313083   2.073566   2.583219   1.092657   1.796462
                   21         22
    21  H    0.000000
    22  H    1.777251   0.000000
 Stoichiometry    C8H8NO4S(1-)
 Framework group  C1[X(C8H8NO4S)]
 Deg. of freedom    60
 Full point group                 C1      NOp   1
 Largest Abelian subgroup         C1      NOp   1
 Largest concise Abelian subgroup C1      NOp   1
                         Standard orientation:                         
 ---------------------------------------------------------------------
 Center     Atomic      Atomic             Coordinates (Angstroms)
 Number     Number       Type             X           Y           Z
 ---------------------------------------------------------------------
      1          6           0       -1.224332    0.009509   -0.061409
      2          6           0       -0.446781   -1.147257   -0.047641
      3          1           0       -0.955442   -2.106126   -0.066724
      4          6           0        0.942519   -1.056831   -0.022352
      5          1           0        1.552172   -1.955289   -0.014522
      6          6           0        1.562988    0.197747   -0.012930
      7          6           0        3.035796    0.346715    0.009059
      8          6           0        0.780371    1.359196   -0.034941
      9          1           0        1.279057    2.324338   -0.041345
     10          6           0       -0.605022    1.262628   -0.059502
[...]
 00164686,0.01056050,-0.14299766,-0.01066795,-0.00136775,-0.00968007,0.
 00221767,0.00053176,0.00041096,0.00330442,0.00064647,0.00170047,0.0005
 2528,0.00015209,0.00175431,-0.00033448,-0.00009165,0.00528552,-0.00052
 655,0.00010350,-0.01066893,-0.00455596,-0.00115011,0.00213154,-0.00065
 620,-0.00002619,0.00188598,0.01299593,0.00318316,-0.00450702,-0.003176
 80,-0.00047589,0.00082379,0.02293552,0.03925912,0.45551285,-0.00457714
 ,-0.01089758,0.00027687,0.00054947,0.00053785,-0.00564535,0.00072741,-
 0.00005751,0.00097239,-0.00123231,0.00023631,0.00155708,0.00001384,0.0
 0001228,-0.00036459,0.00086039,0.00005464,-0.00159225,-0.00014897,-0.0
 0020493,0.00251417,0.00260227,0.00118965,0.00027087,0.00009822,-0.0000
 0920,-0.00052832,-0.00426094,0.00038773,-0.00102803,0.00272270,-0.0001
 5195,-0.00155914,-0.32387420,-0.16693097,-0.09644146,0.34444282,-0.007
 57975,0.00350505,0.00351158,0.00010075,0.00117779,-0.00472132,0.000264
 56,-0.00000672,-0.00001610,-0.00133034,-0.00099613,0.00161135,0.000023
 75,-0.00005095,-0.00022339,0.00090028,0.00010746,-0.00147125,-0.000131
 73,-0.00008513,0.00188314,0.00080715,-0.00006757,0.00004396,0.00004534
 ,0.00005850,-0.00022933,-0.00116432,0.00079109,-0.00053003,0.00098857,
 -0.00082802,-0.00077888,-0.17279792,-0.20829349,-0.07150300,0.20324217
 ,0.21113127,-0.02723142,-0.01913864,-0.00986532,0.00483514,0.00079976,
 -0.00670400,-0.00031760,-0.00049020,0.00003785,-0.00268138,0.00075840,
 -0.00126182,-0.00005065,0.00000973,-0.00086484,-0.00066838,-0.00029001
 ,-0.00214819,-0.00010884,-0.00007507,0.00361000,-0.00035134,0.00043952
 ,0.00101289,0.00016871,-0.00009062,-0.00022722,0.00087156,-0.00051383,
 -0.00326822,-0.00135784,-0.00035807,-0.00140633,-0.10249363,-0.0734920
 1,-0.12363857,0.12064296,0.08480408,0.11484341,-0.01238219,0.00890376,
 -0.00074147,-0.00328651,-0.00249266,0.00145858,0.00172286,0.00166757,0
 .00207125,0.00272418,-0.00039696,-0.00004287,0.00007941,0.00007452,0.0
 0058745,0.00057744,0.00040342,0.00226557,-0.00027097,0.00021961,-0.003
 26518,-0.00131813,-0.00093575,-0.00166996,-0.00002820,-0.00001489,0.00
 050781,0.00041317,-0.00030797,0.00710043,0.00064405,0.00057026,-0.0008
 3821,-0.44560764,0.13746539,0.07937402,-0.02508660,0.01214324,0.006322
 11,0.48783906,0.00463643,0.00665971,0.00335458,-0.00043463,0.00055065,
 -0.00011859,0.00025134,-0.00066614,0.00009933,0.00013935,-0.00032451,-
 0.00005952,-0.00003551,0.00001351,-0.00007986,-0.00042825,-0.00028039,
 -0.00103288,-0.00001549,0.00002218,0.00113149,0.00117119,-0.00028547,0
 .00105432,0.00001337,-0.00002694,-0.00016959,-0.00000340,0.00057494,-0
 .00334116,-0.00000742,0.00000893,-0.00024845,0.13586994,-0.13168501,-0
 .03270451,-0.02056510,0.01442530,0.00138330,-0.16577769,0.13371637,0.0
 3199294,-0.01070813,-0.00640185,-0.00053917,-0.00070171,-0.00277023,0.
 00144633,0.00031514,-0.00053197,0.00010268,0.00030759,0.00136938,-0.00
 011759,-0.00016760,-0.00017374,0.00108921,0.00045351,-0.00185182,0.000
 38020,-0.00005400,0.00343169,0.00204613,0.00186004,-0.00131241,0.00009
 676,0.00003127,-0.00078341,-0.00396294,-0.00092794,-0.00608738,0.00064
 877,-0.00041885,-0.00009451,0.08637015,-0.03526684,-0.10221445,-0.0129
 1843,0.00101734,0.01624168,-0.09942194,0.03655135,0.08768330,0.0118658
 4,0.00098514,-0.00018127,-0.00145737,-0.00035131,0.00023635,0.00037916
 ,-0.00034222,0.00078856,-0.00018753,0.00018064,0.00160328,-0.00002253,
 0.00006333,0.00017348,0.00161321,0.00035865,0.00036496,0.00007204,-0.0
 0004266,-0.00016840,0.00018712,0.00023621,-0.00211262,0.00003661,-0.00
 010818,-0.00022549,-0.00162976,-0.00047040,-0.00053321,0.00025732,0.00
 021948,-0.00038407,-0.09468628,0.05553109,-0.01191545,0.00411903,-0.03
 220659,0.00206410,-0.00964909,0.04260681,-0.00599260,0.49122389,0.0017
 1268,-0.01076262,0.00006785,-0.00153957,0.00071012,0.00351221,0.000146
 51,-0.00093630,-0.00039261,0.00071397,0.00107450,0.00050038,0.00011980
 ,-0.00005910,0.00050586,0.00000280,-0.00019841,0.00170034,-0.00008020,
 -0.00045256,-0.00279820,-0.00110818,0.00102846,0.00035291,-0.00011008,
 -0.00006960,0.00045755,0.00063200,0.00055671,0.00378490,0.00042133,-0.
 00099123,-0.00044561,0.00198343,-0.31962207,0.04862424,-0.00429445,-0.
 02699683,0.00620880,0.00535574,-0.01516799,0.00596533,-0.12101095,0.41
 500573,-0.00348936,0.02043688,0.00120604,0.00075191,0.00090471,-0.0033
 0317,-0.00027838,0.00049193,-0.00037963,-0.00051310,-0.00166633,0.0015
 9956,-0.00012709,0.00006877,-0.00027803,0.00011145,0.00002430,-0.00365
 644,-0.00002984,0.00009933,0.00494958,0.00096216,-0.00138190,0.0016581
 6,0.00008357,0.00014631,-0.00026623,-0.00094615,0.00093309,-0.00301100
 ,0.00030476,0.00048684,-0.00030996,-0.00393145,0.06736658,-0.08140552,
 -0.00327764,-0.01181192,0.01944930,0.00310633,-0.00362944,0.01103120,0
 .03583474,-0.07971952,0.06404428,0.00047489,-0.00064495,-0.00010594,-0
 .00021469,-0.00003541,0.00025593,0.00010183,-0.00005048,0.00012219,0.0
 0007334,0.00006076,-0.00000436,0.00000529,-0.00000487,0.00002033,0.000
 09539,-0.00008076,0.00017298,-0.00000940,0.00003092,-0.00019173,-0.000
 03323,0.00009758,-0.00022656,-0.00000177,-0.00000171,0.00000281,-0.000
 03970,0.00009208,0.00016419,0.00003616,-0.00000085,-0.00006440,-0.0153
 6442,-0.01753643,0.00499423,0.00234737,-0.00366846,0.00032014,0.002944
 82,0.00263303,-0.00109981,-0.40228195,0.11693907,-0.02862233,0.4118427
 7,-0.00200158,-0.00117376,0.00028824,-0.00007378,0.00006132,-0.0002721
 6,0.00004565,-0.00015085,0.00002620,-0.00010920,0.00010037,-0.00013636
 ,-0.00000987,-0.00000933,-0.00002946,-0.00006371,-0.00010915,-0.000253
 99,-0.00003004,0.00004995,0.00034377,-0.00012667,-0.00015140,0.0001605
 9,0.00000969,0.00002682,0.00003467,0.00043278,0.00017606,0.00040400,-0
 .00017387,-0.00009777,0.00021346,0.04519965,-0.02225302,0.00438852,-0.
 00277512,0.00591410,-0.00001560,0.00317084,-0.00763348,0.00176035,0.05
 433173,-0.04335596,0.00717737,-0.09782728,0.06861804,0.00255809,0.0018
 4427,-0.00085224,-0.00037065,0.00001123,-0.00026579,0.00002924,-0.0002
 0346,0.00017147,-0.00026960,0.00008949,0.00050948,-0.00000369,0.000039
 01,0.00002002,0.00062427,0.00001700,0.00028437,0.00001409,0.00007301,-
 0.00045809,0.00007816,-0.00015547,-0.00094983,0.00000573,-0.00000188,-
 0.00008101,-0.00026928,-0.00059651,-0.00020830,0.00007845,0.00041005,0
 .00000665,-0.00664277,0.00475210,-0.00263746,-0.00129987,-0.00040041,-
 0.00289436,0.00088167,-0.00140055,0.00522577,-0.01959528,0.00935438,-0
 .00795315,0.02414920,-0.01380992,0.00975146,-0.00036011,-0.00032244,0.
 00063543,0.00018395,0.00019846,-0.00214370,0.00006822,0.00003790,-0.00
 026506,-0.00599213,-0.00141629,0.00271149,0.00184776,0.00025187,0.0011
 2260,-0.00161225,-0.00195217,-0.01782341,-0.20897315,-0.02652401,-0.04
 862785,0.00278672,0.00017137,0.00319057,0.00084193,0.00016063,0.001205
 31,0.00227769,0.00043325,-0.00201550,-0.00000054,0.00007182,-0.0000626
 8,-0.00059860,0.00043891,0.00244515,-0.00027392,-0.00031955,-0.0008262
 9,0.00111059,-0.00034241,-0.00083439,0.00013919,0.00067183,-0.00115482
 ,0.00006117,-0.00009038,0.00012878,0.40304011,-0.00005931,-0.00009161,
 0.00015340,0.00020435,-0.00062465,-0.00042729,0.00000843,0.00000794,-0
 .00005097,-0.00131081,0.00061034,0.00060486,0.00030706,0.00038201,0.00
 029538,-0.00139904,0.01050784,-0.00242846,-0.02610075,-0.07125913,-0.0
 0721879,0.00005674,0.00151661,0.00073619,0.00015020,0.00010582,0.00021
 637,0.00048390,-0.00013639,-0.00028721,0.00005204,-0.00022796,0.000006
 44,-0.00003011,-0.00001374,0.00038659,-0.00000838,0.00000957,-0.000110
 27,0.00011004,0.00000209,-0.00014857,0.00001830,0.00022708,-0.00020142
 ,0.00000877,-0.00001474,0.00001593,0.06148940,0.08922062,-0.00161364,-
 0.00044442,-0.00006569,-0.00137003,-0.00027944,-0.00102679,0.00011714,
 0.00007163,-0.00016216,-0.00203375,-0.00033133,-0.00355700,-0.00037781
 ,-0.00000003,-0.00391408,-0.04237340,-0.00722690,-0.03468549,-0.068159
 89,-0.01097737,-0.16415755,0.00731835,0.00159683,-0.00355473,-0.000130
 55,-0.00001356,0.00070410,-0.00042785,-0.00012405,-0.00406846,0.000096
 23,0.00007699,-0.00071993,-0.00073541,0.00002712,0.00491673,-0.0007261
 9,-0.00058153,-0.00181406,0.00150204,-0.00046578,-0.00160085,0.0001127
 7,0.00139654,-0.00198063,0.00007086,-0.00017246,0.00023994,0.07092522,
 0.00395836,0.51278383,0.00005137,0.00025133,-0.00151165,0.00182278,0.0
 0066629,0.00312458,-0.00001563,0.00006088,0.00020584,0.00454023,0.0002
 0866,-0.00177615,0.00094025,0.00009638,-0.00066819,-0.00988751,-0.0064
 0200,0.03120074,-0.53919134,-0.09508353,0.27239946,-0.00750392,-0.0014
 9364,-0.00722207,0.00285284,0.00059698,0.00049521,-0.00014358,0.000235
 57,0.00315242,0.00004666,-0.00000862,0.00031358,-0.00021689,-0.0008895
 0,-0.00200852,0.00094643,0.00065835,0.00080576,-0.00037004,0.00026395,
 0.00066123,0.00003821,-0.00052242,0.00115698,-0.00003621,0.00008508,-0
 .00008670,-0.11131033,-0.02707717,-0.00694845,0.65909897,-0.00006269,0
 .00022180,-0.00025945,0.00061796,-0.00136146,0.00067581,0.00007553,-0.
 00041798,0.00006537,0.00033447,0.00370941,-0.00016817,0.00009011,0.000
 47445,-0.00012994,-0.00674949,0.01822833,0.00720297,-0.09493044,-0.100
 82878,0.05742316,-0.00166670,0.00009963,-0.00144075,0.00059428,-0.0000
 8854,0.00012581,0.00011017,-0.00070369,0.00062511,0.00000742,-0.000000
 71,0.00006721,-0.00000196,-0.00030787,-0.00049429,0.00024562,0.0002321
 5,0.00019482,-0.00018186,0.00012408,0.00013354,-0.00000737,0.00004680,
 0.00026125,-0.00001197,0.00000652,-0.00004046,-0.02719107,0.02397852,-
 0.00142296,0.12798019,0.06140859,0.00180320,0.00010117,0.00045472,0.00
 058031,0.00009761,-0.00498046,-0.00003661,0.00004241,-0.00075102,-0.00
 815448,-0.00143748,-0.00363334,0.00045212,0.00009080,0.00023350,0.0456
 2338,0.01004240,-0.03181185,0.26639356,0.05626733,-0.28232930,0.004395
 84,0.00077885,0.00150999,0.00045245,0.00011104,-0.00165384,0.00178091,
 0.00034384,-0.00086958,-0.00014036,0.00001416,-0.00016258,0.00013870,0
 .00043082,0.00463576,-0.00113242,-0.00079806,-0.00158601,0.00111372,-0
 .00043375,-0.00161880,-0.00006898,0.00126531,-0.00193632,0.00005775,-0
 .00014938,0.00016631,-0.00301197,-0.00066110,0.03162351,-0.30508501,-0
 .06495269,0.29086627,0.00008619,0.00001913,0.00016414,0.00038144,0.000
 01236,-0.00007179,0.00000002,-0.00000262,-0.00000274,-0.00042841,-0.00
 000293,0.00074272,0.00062837,0.00017262,0.00001595,-0.00522535,-0.0019
 4631,-0.00051966,0.00128095,0.00085497,-0.04502132,0.00054775,0.000084
 28,-0.00160345,-0.00001436,-0.00002822,0.00005089,-0.00058817,-0.00009
 887,0.00007944,0.00002140,0.00002874,-0.00011649,0.00007246,-0.0000231
 0,-0.00018809,0.00002864,0.00002971,0.00006340,-0.00008065,0.00002727,
 0.00005843,-0.00002489,-0.00003473,0.00007686,-0.00000362,0.00000493,-
 0.00001258,-0.09094165,-0.00548575,0.03469873,-0.00192765,0.00095806,-
 0.00361387,0.63751628,0.00000603,0.00008222,0.00004158,0.00001794,0.00
 020892,-0.00002493,0.00000068,0.00000658,0.00000062,-0.00001501,-0.000
 39606,0.00013760,0.00015366,-0.00023433,-0.00000033,-0.00194110,0.0044
 6219,-0.00011105,0.00068513,0.00238636,-0.00766631,0.00003898,0.000429
 86,-0.00027000,-0.00002779,0.00012645,0.00001745,-0.00006047,-0.000179
 57,-0.00001093,0.00002671,-0.00009739,-0.00002247,-0.00001738,0.000019
 87,-0.00000830,-0.00001691,-0.00003935,-0.00003258,0.00003022,-0.00003
 729,-0.00001002,0.00000933,-0.00004746,0.00001140,0.00000095,-0.000000
 95,0.00000436,-0.00486507,-0.06778890,0.01054229,0.00046082,-0.0063627
 4,-0.00075224,0.00708522,0.59988459,0.00033598,0.00011755,0.00001449,0
 .00060904,0.00012459,0.00058468,-0.00002753,-0.00002409,0.00004709,0.0
 0023338,0.00003209,0.00026522,0.00073136,0.00014364,-0.00041450,0.0001
 8527,0.00000999,0.00537106,-0.03788751,-0.00626410,-0.04535265,-0.0008
 0955,-0.00013378,-0.00089368,-0.00005690,-0.00001190,-0.00020490,-0.00
 060964,-0.00012007,0.00118020,0.00004738,-0.00000579,0.00006631,0.0001
 6957,-0.00003425,-0.00221251,0.00042360,0.00030077,0.00081347,-0.00057
 408,0.00019284,0.00075001,-0.00001759,-0.00060210,0.00089595,-0.000028
 09,0.00007491,-0.00011399,0.00711550,0.00520977,-0.23587931,0.01872901
 ,0.00357600,-0.00394837,0.01792433,0.00605272,0.48853465,0.00000361,-0
 .00000681,-0.00001517,-0.00006152,-0.00000153,-0.00010544,0.00000341,0
 .00000222,-0.00001245,-0.00006999,-0.00001446,0.00000270,-0.00005692,-
 0.00002462,-0.00000374,0.00016355,-0.00000070,-0.00029947,-0.00009554,
 -0.00013175,0.00281454,0.00010593,0.00001414,0.00005110,0.00002792,0.0
 0000431,0.00002865,0.00007053,0.00002172,-0.00008886,-0.00000186,0.000
 00187,-0.00000550,-0.00003542,-0.00000482,0.00027127,-0.00003783,-0.00
 002887,-0.00009578,0.00008366,-0.00002212,-0.00009191,0.00000616,0.000
 07718,-0.00010851,0.00000376,-0.00000890,0.00001352,0.00532781,0.00098
 200,0.00102482,0.00045496,-0.00002749,-0.00208168,-0.29961751,-0.04546
 660,-0.08413033,0.31666695,0.00000342,-0.00001082,-0.00000477,-0.00000
 497,-0.00004165,-0.00001866,-0.00000044,0.00000513,-0.00000169,-0.0000
 0429,-0.00001541,-0.00000053,-0.00002482,0.00006554,0.00000167,0.00003
 907,0.00019966,-0.00004282,-0.00022883,0.00021827,0.00067991,0.0000101
 5,0.00000214,0.00001948,0.00000381,0.00000839,0.00000507,0.00001781,-0
 .00001201,-0.00001225,-0.00000010,-0.00000073,0.00000007,-0.00001507,0
 .00002793,0.00004510,-0.00000676,-0.00001323,-0.00001603,0.00002082,-0
 .00001319,-0.00001544,0.00000284,-0.00000006,-0.00002212,0.00000161,-0
 .00000080,0.00000416,0.00190998,0.00052458,0.00086973,-0.00005595,0.00
 083421,-0.00045026,-0.04575621,-0.06371055,-0.01598795,0.04990206,0.05
 795619,-0.00005243,-0.00001905,0.00001719,0.00004089,0.00000384,-0.000
 05523,0.00000459,0.00000351,-0.00002758,-0.00022771,-0.00004302,0.0000
 6912,0.00002909,0.00000659,-0.00002559,-0.00194760,-0.00036648,-0.0004
 4541,0.00682107,0.00145957,-0.00579405,0.00041116,0.00009485,-0.000427
 32,-0.00000701,-0.00000078,0.00003302,-0.00010475,-0.00002502,-0.00017
 486,0.00000894,0.00000644,-0.00005479,-0.00005205,-0.00000254,0.000240
 33,-0.00002117,-0.00002160,-0.00008548,0.00008701,-0.00002382,-0.00007
 881,0.00000902,0.00007049,-0.00009538,0.00000423,-0.00000867,0.0000110
 5,-0.04011693,-0.00710289,-0.02943701,-0.00070406,-0.00018290,0.002820
 79,-0.07164229,-0.01356316,-0.06983692,0.09017252,0.01647476,0.0935263
 6,-0.00001966,-0.00000888,-0.00001299,0.00002515,-0.00000899,0.0000786
 8,-0.00000208,0.00000291,0.00000497,0.00000317,-0.00004630,-0.00001123
 ,0.00003506,0.00004714,-0.00004451,-0.00007127,0.00054815,0.00014657,0
 .00004064,-0.00089394,-0.00236064,-0.00002009,-0.00006531,0.00002067,-
 0.00001009,-0.00000979,-0.00002711,0.00000754,0.00002490,0.00002766,0.
 00000259,-0.00000446,0.00000432,0.00000510,0.00002730,-0.00013281,0.00
 001911,0.00000539,0.00004890,-0.00002447,0.00000106,0.00004594,0.00000
 209,-0.00005483,0.00004939,-0.00000061,0.00000726,-0.00000399,0.002128
 09,-0.00242409,0.00544479,0.00012531,-0.00024310,-0.00014112,-0.161752
 11,0.12418944,0.05365704,-0.01590694,0.02163174,0.00883532,0.16817008,
 -0.00004417,-0.00001113,0.00000999,-0.00002323,-0.00000679,0.00004442,
 -0.00000017,-0.00000101,0.00000704,0.00002959,0.00002381,0.00003409,-0
 .00004215,-0.00000893,0.00001865,-0.00027187,-0.00040388,0.00000112,0.
 00386785,0.00118105,-0.00010704,0.00006626,-0.00000372,0.00001560,-0.0
 0001882,-0.00000946,-0.00001457,-0.00001537,0.00001540,-0.00005265,0.0
 0000088,0.00000228,-0.00000474,0.00001281,-0.00001120,0.00003352,-0.00
 001317,-0.00000188,-0.00001503,-0.00000489,0.00000480,-0.00001084,-0.0
 0000272,0.00001656,-0.00001635,-0.00000016,-0.00000246,0.00000263,-0.0
 0501376,0.00638262,-0.00319483,-0.00097296,0.00008007,0.00211452,0.121
 98857,-0.19082325,-0.05986749,-0.00511432,0.00616869,0.00358055,-0.134
 22319,0.19757792,-0.00011973,-0.00002300,-0.00003348,-0.00013625,0.000
 02520,-0.00002148,0.00000618,0.00000061,-0.00000911,-0.00004298,0.0000
 1733,-0.00001361,-0.00016566,-0.00013314,0.00010179,-0.00053656,0.0007
 6350,-0.00068950,0.00967487,0.00041864,0.00179338,0.00023442,0.0002130
 3,0.00018185,-0.00003636,-0.00000496,0.00000515,0.00009424,-0.00004994
 ,-0.00026659,0.00000196,-0.00001993,-0.00001780,-0.00002815,-0.0000386
 7,0.00033393,-0.00006112,-0.00003255,-0.00012815,0.00008437,-0.0000228
 3,-0.00011022,-0.00000129,0.00010929,-0.00012351,0.00000351,-0.0000124
 4,0.00001241,0.01944049,-0.02653485,-0.03260015,-0.00317094,-0.0004720
 1,0.00153342,0.04797793,-0.05419155,-0.07263541,-0.00550652,0.00851674
 ,0.00516099,-0.06155928,0.06603561,0.09230200,-0.00003710,-0.00000022,
 -0.00000506,0.00000916,0.00001329,0.00008997,-0.00000050,-0.00000455,0
 .00000656,0.00000155,0.00003664,0.00000318,0.00002825,-0.00002951,-0.0
 0003502,-0.00001747,-0.00041513,0.00011464,0.00127164,0.00104035,-0.00
 217103,-0.00001392,0.00005134,0.00002627,-0.00002030,0.00000529,-0.000
 03047,0.00001048,-0.00002035,0.00000399,0.00000116,0.00000266,0.000001
 58,0.00001547,-0.00000893,-0.00010606,0.00001423,0.00001827,0.00004037
 ,-0.00003475,0.00001827,0.00004001,-0.00000046,-0.00002092,0.00004053,
 -0.00000118,0.00000279,-0.00000679,0.00024944,0.00002420,0.00358601,-0
 .00031492,0.00006033,0.00067456,-0.07995916,-0.08029476,0.02397976,-0.
 00703473,-0.02744587,0.00845217,0.00724339,0.01979497,-0.00615311,0.07
 858976,0.00003991,0.00000552,-0.00000952,0.00003430,0.00000996,-0.0000
 1260,0.00000042,-0.00000400,-0.00000449,-0.00003764,0.00003583,-0.0000
 3518,0.00006628,-0.00000628,-0.00003858,0.00043483,-0.00041882,0.00006
 443,-0.00425515,-0.00011101,-0.00082574,-0.00008559,0.00000430,-0.0000
 1557,0.00001657,-0.00000016,0.00000332,0.00001224,0.00000187,0.0000696
 3,-0.00000121,0.00000191,0.00000641,0.00000170,-0.00002520,-0.00009289
 ,0.00002579,0.00002701,0.00003954,-0.00002274,0.00001786,0.00003448,-0
 .00000115,-0.00000578,0.00004025,-0.00000140,0.00000050,-0.00000895,0.
 00220175,0.00668149,0.00669519,0.00094130,0.00062719,-0.00206529,-0.07
 788712,-0.27788922,0.06721663,-0.00015251,-0.00219228,-0.00034066,-0.0
 0850240,-0.02016951,0.00543593,0.08717183,0.29340883,-0.00011729,-0.00
 003891,-0.00003714,-0.00010891,-0.00007301,-0.00001840,0.00000492,0.00
 000692,-0.00001024,-0.00003724,-0.00002906,-0.00001960,-0.00019852,0.0
 0005762,0.00010602,-0.00019576,-0.00091090,-0.00072159,0.00895564,0.00
 313912,0.00185033,0.00029486,-0.00010201,0.00017080,-0.00003490,-0.000
 00749,0.00000510,0.00006631,0.00007318,-0.00025915,-0.00000786,0.00002
 351,-0.00001831,-0.00004648,0.00003810,0.00033001,-0.00006196,-0.00005
 283,-0.00011603,0.00009133,-0.00003647,-0.00010257,0.00000898,0.000081
 66,-0.00013509,0.00000486,-0.00001163,0.00001528,0.00796207,0.03358854
 ,-0.03104421,-0.00306308,-0.00078744,0.00143722,0.02093946,0.05985585,
 -0.06703089,-0.00183378,-0.01004420,0.00465961,-0.00407060,-0.00861421
 ,0.00522408,-0.02855204,-0.07615633,0.08571479\\0.00002003,0.00000969,
 0.00001427,-0.00000242,-0.00000167,-0.00001009,0.00000194,-0.00000290,
 0.00000294,-0.00000382,-0.00000389,0.00000856,0.00000042,-0.00000114,0
 .00000124,0.00000768,0.00000274,-0.00000237,-0.00000312,-0.00000247,0.
 00000300,-0.00000344,0.00000124,-0.00000712,-0.00000155,0.00000139,-0.
 00000139,-0.00000600,0.00000118,-0.00000705,-0.00000210,0.00000187,0.0
 0000220,-0.00001120,-0.00000657,0.00000068,0.00000086,-0.00000135,-0.0
 0000132,0.00000596,-0.00000352,-0.00000334,-0.00000121,0.00000581,0.00
 001597,0.00000697,-0.00000077,-0.00001020,0.00000299,0.00000014,0.0000
 0368,-0.00000148,0.00000252,-0.00000318,-0.00000727,-0.00000024,-0.000
 00747,-0.00000150,-0.00000151,0.00000069,-0.00000045,0.00000092,0.0000
 0001,-0.00000129,-0.00000145,0.00000028\\\@
 The archive entry for this job was punched.


 SEE YOU NOW,
 YOUR BAIT OF FALSEHOOD TAKES THIS CARP OF TRUTH.
 AND THUS DO WE OF WISDOM AND OF REACH...
 BY INDIRECTIONS FIND DIRECTIONS OUT.    -- HAMLET, II, 1
 Job cpu time:       0 days  1 hours 14 minutes 31.4 seconds.
 Elapsed time:       0 days  0 hours  4 minutes 41.9 seconds.
 File lengths (MBytes):  RWF=    208 Int=      0 D2E=      0 Chk=      8 Scr=      1
 Normal termination of Gaussian 16 at Sun May 22 15:45:11 2022.
