 Entering Gaussian System, Link 0=g16
 AtFile(1): /home/561/yj5695/Basis/6-31pGd.gbs
 Initial command:
 /apps/gaussian/g16c01/g16/l1.exe "/jobfs/40919109.gadi-pbs/Gau-3068851.inp" -scrdir="/jobfs/40919109.gadi-pbs/"
 Entering Link 1 = /apps/gaussian/g16c01/g16/l1.exe PID=   3068852.
  
 Copyright (c) 1988-2019, Gaussian, Inc.  All Rights Reserved.
  
 This is part of the Gaussian(R) 16 program.  It is based on
 the Gaussian(R) 09 system (copyright 2009, Gaussian, Inc.),
 the Gaussian(R) 03 system (copyright 2003, Gaussian, Inc.),
 the Gaussian(R) 98 system (copyright 1998, Gaussian, Inc.),
 the Gaussian(R) 94 system (copyright 1995, Gaussian, Inc.),
 the Gaussian 92(TM) system (copyright 1992, Gaussian, Inc.),
 the Gaussian 90(TM) system (copyright 1990, Gaussian, Inc.),
 the Gaussian 88(TM) system (copyright 1988, Gaussian, Inc.),
 the Gaussian 86(TM) system (copyright 1986, Carnegie Mellon
 University), and the Gaussian 82(TM) system (copyright 1983,
 Carnegie Mellon University). Gaussian is a federally registered
 trademark of Gaussian, Inc.
  
 This software contains proprietary and confidential information,
 including trade secrets, belonging to Gaussian, Inc.
  
 This software is provided under written license and may be
 used, copied, transmitted, or stored only in accord with that
 written license.
  
 The following legend is applicable only to US Government
 contracts under FAR:
  
                    RESTRICTED RIGHTS LEGEND
  
 Use, reproduction and disclosure by the US Government is
 subject to restrictions as set forth in subparagraphs (a)
 and (c) of the Commercial Computer Software - Restricted
 Rights clause in FAR 52.227-19.
  
 Gaussian, Inc.
 340 Quinnipiac St., Bldg. 40, Wallingford CT 06492
  
  
 ---------------------------------------------------------------
 Warning -- This program may not be used in any manner that
 competes with the business of Gaussian, Inc. or will provide
 assistance to any competitor of Gaussian, Inc.  The licensee
 of this program is prohibited from giving any competitor of
 Gaussian, Inc. access to this program.  By using this program,
 the user acknowledges that Gaussian, Inc. is engaged in the
 business of creating and licensing software in the field of
 computational chemistry and represents and warrants to the
 licensee that it is not a competitor of Gaussian, Inc. and that
 it will not use this program in any manner prohibited above.
 ---------------------------------------------------------------
  

 Cite this work as:
 Gaussian 16, Revision C.01,
 M. J. Frisch, G. W. Trucks, H. B. Schlegel, G. E. Scuseria, 
 M. A. Robb, J. R. Cheeseman, G. Scalmani, V. Barone, 
 G. A. Petersson, H. Nakatsuji, X. Li, M. Caricato, A. V. Marenich, 
 J. Bloino, B. G. Janesko, R. Gomperts, B. Mennucci, H. P. Hratchian, 
 J. V. Ortiz, A. F. Izmaylov, J. L. Sonnenberg, D. Williams-Young, 
 F. Ding, F. Lipparini, F. Egidi, J. Goings, B. Peng, A. Petrone, 
 T. Henderson, D. Ranasinghe, V. G. Zakrzewski, J. Gao, N. Rega, 
 G. Zheng, W. Liang, M. Hada, M. Ehara, K. Toyota, R. Fukuda, 
 J. Hasegawa, M. Ishida, T. Nakajima, Y. Honda, O. Kitao, H. Nakai, 
 T. Vreven, K. Throssell, J. A. Montgomery, Jr., J. E. Peralta, 
 F. Ogliaro, M. J. Bearpark, J. J. Heyd, E. N. Brothers, K. N. Kudin, 
 V. N. Staroverov, T. A. Keith, R. Kobayashi, J. Normand, 
 K. Raghavachari, A. P. Rendell, J. C. Burant, S. S. Iyengar, 
 J. Tomasi, M. Cossi, J. M. Millam, M. Klene, C. Adamo, R. Cammi, 
 J. W. Ochterski, R. L. Martin, K. Morokuma, O. Farkas, 
 J. B. Foresman, and D. J. Fox, Gaussian, Inc., Wallingford CT, 2019.
 
 ******************************************
 Gaussian 16:  ES64L-G16RevC.01  3-Jul-2019
                22-May-2022 
 ******************************************
 %nproc=16
 Will use up to   16 processors via shared memory.
 %mem=20gb
 --------------------------------------------------
 #M062X/gen 6D INT(grid=ultrafine) OPT Freq=noraman
 --------------------------------------------------
 1/18=20,19=15,26=4,38=1/1,3;
 2/9=110,12=2,17=6,18=5,40=1/2;
 3/5=7,8=2,11=2,25=1,30=1,71=1,74=-55,75=-5/1,2,3;
 4//1;
 5/5=2,38=5/2;
 6/7=2,8=2,9=2,10=2,28=1/1;
 7//1,2,3,16;
 1/18=20,19=15,26=4/3(2);
 2/9=110/2;
 99//99;
 2/9=110/2;
 3/5=7,6=1,8=2,11=2,25=1,30=1,71=1,74=-55,75=-5,82=7/1,2,3;
 4/5=5,16=3,69=1/1;
 5/5=2,38=5/2;
 7//1,2,3,16;
 1/18=20,19=15,26=4/3(-5);
 2/9=110/2;
 6/7=2,8=2,9=2,10=2,19=2,28=1/1;
 99/9=1/99;
 ----------------
 A.14.a2b3d2.freq
 ----------------
 Symbolic Z-matrix:
 Charge = -1 Multiplicity = 1
 C                    -1.12812   0.62277  -0.84396 
 C                    -2.30082   0.35721  -1.56273 
 C                    -3.55349  -0.13851  -0.91466 
 C                    -2.32839   0.55238  -2.94455 
 H                    -3.23798   0.32621  -3.49394 
 C                    -1.2057    1.04691  -3.60503 
 C                    -0.04709   1.32999  -2.8846 
 H                     0.83326   1.71044  -3.3936 
 C                    -0.00479   1.10819  -1.50799 
 H                     0.9072    1.29547  -0.95031 
 S                    -1.01771   0.31214   0.94083 
 O                    -1.80219  -0.95108   1.10176 
 O                     0.43828   0.14487   1.19051 
 N                    -1.53741   1.53696   1.75507 
 H                    -2.55284   1.5765    1.63657 
 O                    -4.15319  -1.13606  -1.26914 
 O                    -3.97445   0.67135   0.053 
 C                    -5.10615   0.22063   0.81526 
 H                    -1.23741   1.20703  -4.67816 
 H                    -5.26284   0.98069   1.57857 
 H                    -4.87873  -0.74443   1.27349 
 H                    -5.98308   0.13779   0.17064 
 

 GradGradGradGradGradGradGradGradGradGradGradGradGradGradGradGradGradGrad
 Berny optimization.
 Initialization pass.
                           ----------------------------
                           !    Initial Parameters    !
                           ! (Angstroms and Degrees)  !
 --------------------------                            --------------------------
 ! Name  Definition              Value          Derivative Info.                !
 --------------------------------------------------------------------------------
 ! R1    R(1,2)                  1.4008         estimate D2E/DX2                !
 ! R2    R(1,9)                  1.3923         estimate D2E/DX2                !
 ! R3    R(1,11)                 1.815          estimate D2E/DX2                !
 ! R4    R(2,3)                  1.495          estimate D2E/DX2                !
 ! R5    R(2,4)                  1.3958         estimate D2E/DX2                !
 ! R6    R(3,16)                 1.2167         estimate D2E/DX2                !
 ! R7    R(3,17)                 1.3302         estimate D2E/DX2                !
 ! R8    R(4,5)                  1.0864         estimate D2E/DX2                !
 ! R9    R(4,6)                  1.3933         estimate D2E/DX2                !
 ! R10   R(6,7)                  1.3934         estimate D2E/DX2                !
 ! R11   R(6,19)                 1.0855         estimate D2E/DX2                !
 ! R12   R(7,8)                  1.0857         estimate D2E/DX2                !
 ! R13   R(7,9)                  1.395          estimate D2E/DX2                !
 ! R14   R(9,10)                 1.0853         estimate D2E/DX2                !
 ! R15   R(11,12)                1.4957         estimate D2E/DX2                !
 ! R16   R(11,13)                1.4867         estimate D2E/DX2                !
 ! R17   R(11,14)                1.5599         estimate D2E/DX2                !
 ! R18   R(14,15)                1.0231         estimate D2E/DX2                !
 ! R19   R(17,18)                1.437          estimate D2E/DX2                !
 ! R20   R(18,20)                1.0885         estimate D2E/DX2                !
 ! R21   R(18,21)                1.0923         estimate D2E/DX2                !
 ! R22   R(18,22)                1.0915         estimate D2E/DX2                !
 ! A1    A(2,1,9)              119.7888         estimate D2E/DX2                !
 ! A2    A(2,1,11)             121.5368         estimate D2E/DX2                !
 ! A3    A(9,1,11)             118.6586         estimate D2E/DX2                !
 ! A4    A(1,2,3)              122.8121         estimate D2E/DX2                !
 ! A5    A(1,2,4)              119.8671         estimate D2E/DX2                !
 ! A6    A(3,2,4)              117.3207         estimate D2E/DX2                !
 ! A7    A(2,3,16)             123.9562         estimate D2E/DX2                !
 ! A8    A(2,3,17)             112.2498         estimate D2E/DX2                !
 ! A9    A(16,3,17)            123.7189         estimate D2E/DX2                !
 ! A10   A(2,4,5)              119.2121         estimate D2E/DX2                !
 ! A11   A(2,4,6)              120.199          estimate D2E/DX2                !
 ! A12   A(5,4,6)              120.5844         estimate D2E/DX2                !
 ! A13   A(4,6,7)              119.804          estimate D2E/DX2                !
 ! A14   A(4,6,19)             119.8332         estimate D2E/DX2                !
 ! A15   A(7,6,19)             120.3625         estimate D2E/DX2                !
 ! A16   A(6,7,8)              120.1994         estimate D2E/DX2                !
 ! A17   A(6,7,9)              120.2072         estimate D2E/DX2                !
 ! A18   A(8,7,9)              119.587          estimate D2E/DX2                !
 ! A19   A(1,9,7)              120.1066         estimate D2E/DX2                !
 ! A20   A(1,9,10)             119.5443         estimate D2E/DX2                !
 ! A21   A(7,9,10)             120.3403         estimate D2E/DX2                !
 ! A22   A(1,11,12)            102.6182         estimate D2E/DX2                !
 ! A23   A(1,11,13)            104.1219         estimate D2E/DX2                !
 ! A24   A(1,11,14)            111.0175         estimate D2E/DX2                !
 ! A25   A(12,11,13)           113.6137         estimate D2E/DX2                !
 ! A26   A(12,11,14)           115.6107         estimate D2E/DX2                !
 ! A27   A(13,11,14)           109.0848         estimate D2E/DX2                !
 ! A28   A(11,14,15)           107.4916         estimate D2E/DX2                !
 ! A29   A(3,17,18)            116.3688         estimate D2E/DX2                !
 ! A30   A(17,18,20)           105.4456         estimate D2E/DX2                !
 ! A31   A(17,18,21)           109.6144         estimate D2E/DX2                !
 ! A32   A(17,18,22)           110.0753         estimate D2E/DX2                !
 ! A33   A(20,18,21)           110.6537         estimate D2E/DX2                !
 ! A34   A(20,18,22)           110.5778         estimate D2E/DX2                !
 ! A35   A(21,18,22)           110.3642         estimate D2E/DX2                !
 ! D1    D(9,1,2,3)           -178.7258         estimate D2E/DX2                !
 ! D2    D(9,1,2,4)              1.4077         estimate D2E/DX2                !
 ! D3    D(11,1,2,3)             2.7434         estimate D2E/DX2                !
 ! D4    D(11,1,2,4)          -177.1231         estimate D2E/DX2                !
 ! D5    D(2,1,9,7)              0.0296         estimate D2E/DX2                !
 ! D6    D(2,1,9,10)          -178.8927         estimate D2E/DX2                !
 ! D7    D(11,1,9,7)           178.6025         estimate D2E/DX2                !
 ! D8    D(11,1,9,10)           -0.3198         estimate D2E/DX2                !
 ! D9    D(2,1,11,12)           37.682          estimate D2E/DX2                !
 ! D10   D(2,1,11,13)          156.3409         estimate D2E/DX2                !
 ! D11   D(2,1,11,14)          -86.4106         estimate D2E/DX2                !
 ! D12   D(9,1,11,12)         -140.8648         estimate D2E/DX2                !
 ! D13   D(9,1,11,13)          -22.2059         estimate D2E/DX2                !
 ! D14   D(9,1,11,14)           95.0426         estimate D2E/DX2                !
 ! D15   D(1,2,3,16)          -126.5182         estimate D2E/DX2                !
 ! D16   D(1,2,3,17)            56.5352         estimate D2E/DX2                !
 ! D17   D(4,2,3,16)            53.3515         estimate D2E/DX2                !
 ! D18   D(4,2,3,17)          -123.5951         estimate D2E/DX2                !
 ! D19   D(1,2,4,5)            178.9171         estimate D2E/DX2                !
 ! D20   D(1,2,4,6)             -1.8547         estimate D2E/DX2                !
 ! D21   D(3,2,4,5)             -0.9566         estimate D2E/DX2                !
 ! D22   D(3,2,4,6)            178.2716         estimate D2E/DX2                !
 ! D23   D(2,3,17,18)         -174.6992         estimate D2E/DX2                !
 ! D24   D(16,3,17,18)           8.3458         estimate D2E/DX2                !
 ! D25   D(2,4,6,7)              0.8569         estimate D2E/DX2                !
 ! D26   D(2,4,6,19)          -179.3076         estimate D2E/DX2                !
 ! D27   D(5,4,6,7)           -179.9255         estimate D2E/DX2                !
 ! D28   D(5,4,6,19)            -0.0901         estimate D2E/DX2                !
 ! D29   D(4,6,7,8)            179.6634         estimate D2E/DX2                !
 ! D30   D(4,6,7,9)              0.5884         estimate D2E/DX2                !
 ! D31   D(19,6,7,8)            -0.1712         estimate D2E/DX2                !
 ! D32   D(19,6,7,9)          -179.2462         estimate D2E/DX2                !
 ! D33   D(6,7,9,1)             -1.0314         estimate D2E/DX2                !
 ! D34   D(6,7,9,10)           177.8822         estimate D2E/DX2                !
 ! D35   D(8,7,9,1)            179.8879         estimate D2E/DX2                !
 ! D36   D(8,7,9,10)            -1.1985         estimate D2E/DX2                !
 ! D37   D(1,11,14,15)          71.0797         estimate D2E/DX2                !
 ! D38   D(12,11,14,15)        -45.2601         estimate D2E/DX2                !
 ! D39   D(13,11,14,15)       -174.7464         estimate D2E/DX2                !
 ! D40   D(3,17,18,20)         177.1006         estimate D2E/DX2                !
 ! D41   D(3,17,18,21)          57.9608         estimate D2E/DX2                !
 ! D42   D(3,17,18,22)         -63.6104         estimate D2E/DX2                !
 --------------------------------------------------------------------------------
 Trust Radius=3.00D-01 FncErr=1.00D-07 GrdErr=1.00D-06 EigMax=2.50D+02 EigMin=1.00D-04
 Number of steps in this run=    109 maximum allowed number of steps=    132.
 GradGradGradGradGradGradGradGradGradGradGradGradGradGradGradGradGradGrad

                          Input orientation:                          
 ---------------------------------------------------------------------
 Center     Atomic      Atomic             Coordinates (Angstroms)
 Number     Number       Type             X           Y           Z
 ---------------------------------------------------------------------
      1          6           0       -1.128124    0.622771   -0.843958
      2          6           0       -2.300817    0.357206   -1.562734
      3          6           0       -3.553494   -0.138506   -0.914659
      4          6           0       -2.328391    0.552376   -2.944554
      5          1           0       -3.237984    0.326208   -3.493942
      6          6           0       -1.205703    1.046909   -3.605027
      7          6           0       -0.047092    1.329993   -2.884601
      8          1           0        0.833262    1.710436   -3.393603
      9          6           0       -0.004787    1.108193   -1.507986
     10          1           0        0.907204    1.295472   -0.950307
     11         16           0       -1.017713    0.312141    0.940825
     12          8           0       -1.802186   -0.951081    1.101760
     13          8           0        0.438275    0.144867    1.190506
     14          7           0       -1.537414    1.536956    1.755068
     15          1           0       -2.552845    1.576501    1.636575
     16          8           0       -4.153193   -1.136065   -1.269141
     17          8           0       -3.974446    0.671350    0.052997
     18          6           0       -5.106153    0.220629    0.815256
     19          1           0       -1.237407    1.207030   -4.678162
     20          1           0       -5.262837    0.980695    1.578569
     21          1           0       -4.878731   -0.744429    1.273487
     22          1           0       -5.983075    0.137793    0.170640
 ---------------------------------------------------------------------
                    Distance matrix (angstroms):
                    1          2          3          4          5
     1  C    0.000000
     2  C    1.400847   0.000000
     3  C    2.543022   1.494969   0.000000
     4  C    2.420351   1.395808   2.469548   0.000000
     5  H    3.400275   2.146813   2.639736   1.086433   0.000000
     6  C    2.794533   2.417835   3.762368   1.393275   2.159146
     7  C    2.415163   2.787996   4.281590   2.410935   3.400098
     8  H    3.395694   3.873727   5.367250   3.396881   4.301302
     9  C    1.392283   2.416347   3.807836   2.787795   3.874156
    10  H    2.146251   3.398059   4.685657   3.872762   4.959045
    11  S    1.814975   2.813573   3.174286   4.107525   4.959532
    12  O    2.591755   3.009947   2.791649   4.348556   4.981311
    13  O    2.611713   3.889478   4.521752   4.991917   5.957501
    14  N    2.785353   3.603110   3.741550   4.866364   5.648890
    15  H    3.015373   3.433041   3.232853   4.699570   5.324927
    16  O    3.524958   2.397364   1.216725   2.997956   2.815242
    17  O    2.984700   2.347404   1.330198   3.421836   3.638993
    18  C    4.328906   3.680136   2.352092   4.686384   4.697913
    19  H    3.880003   3.399844   4.619381   2.150399   2.486068
    20  H    4.805476   4.362349   3.223454   5.408611   5.500796
    21  H    4.518835   3.987906   2.628950   5.096843   5.154289
    22  H    4.983490   4.075752   2.675273   4.820065   4.582596
                    6          7          8          9         10
     6  C    0.000000
     7  C    1.393388   0.000000
     8  H    2.154611   1.085746   0.000000
     9  C    2.417342   1.395011   2.149552   0.000000
    10  H    3.402014   2.157166   2.479387   1.085267   0.000000
    11  S    4.608688   4.075784   4.916158   2.767019   2.872042
    12  O    5.147971   4.916781   5.851286   3.779157   4.074159
    13  O    5.149125   4.271604   4.860152   2.899338   2.475251
    14  N    5.392662   4.877543   5.670892   3.630469   3.654248
    15  H    5.437798   5.174997   6.065175   4.074331   4.329304
    16  O    4.348498   5.054821   6.122143   4.722607   5.623312
    17  O    4.603056   4.948474   6.006064   4.287854   5.022614
    18  C    5.952743   6.365039   7.430388   5.675311   6.358692
    19  H    1.085478   2.156115   2.488208   3.402814   4.301637
    20  H    6.582886   6.873565   7.900471   6.098374   6.675605
    21  H    6.363955   6.703555   7.773992   5.909664   6.525603
    22  H    6.156739   6.781721   7.851082   6.284855   7.076206
                   11         12         13         14         15
    11  S    0.000000
    12  O    1.495670   0.000000
    13  O    1.486682   2.495725   0.000000
    14  N    1.559889   2.585971   2.481933   0.000000
    15  H    2.106965   2.690388   3.345946   1.023086   0.000000
    16  O    4.100303   3.344044   5.363975   4.809697   4.285127
    17  O    3.107980   2.907043   4.587289   3.096037   2.312567
    18  C    4.091391   3.517270   5.557628   3.918145   3.005384
    19  H    5.694042   6.195477   6.194947   6.448668   6.460866
    20  H    4.344509   3.991893   5.775109   3.770856   2.775321
    21  H    4.016772   3.088256   5.391501   4.074437   3.305797
    22  H    5.027763   4.419555   6.501840   4.922599   3.998165
                   16         17         18         19         20
    16  O    0.000000
    17  O    2.246497   0.000000
    18  C    2.663356   1.436993   0.000000
    19  H    5.060961   5.492013   6.791011   0.000000
    20  H    3.717719   2.020648   1.088530   7.443253   0.000000
    21  H    2.672965   2.076478   1.092261   7.244969   1.793506
    22  H    2.654082   2.081614   1.091506   6.868444   1.792064
                   21         22
    21  H    0.000000
    22  H    1.792809   0.000000
 Stoichiometry    C8H8NO4S(1-)
 Framework group  C1[X(C8H8NO4S)]
 Deg. of freedom    60
 Full point group                 C1      NOp   1
 Largest Abelian subgroup         C1      NOp   1
 Largest concise Abelian subgroup C1      NOp   1
                         Standard orientation:                         
 ---------------------------------------------------------------------
 Center     Atomic      Atomic             Coordinates (Angstroms)
 Number     Number       Type             X           Y           Z
 ---------------------------------------------------------------------
      1          6           0        0.895761    0.309676   -0.026830
      2          6           0        0.487602   -1.027302    0.064101
      3          6           0       -0.942902   -1.428006    0.231512
      4          6           0        1.436080   -2.049426    0.001403
      5          1           0        1.109733   -3.081820    0.090822
      6          6           0        2.782278   -1.745528   -0.189948
      7          6           0        3.183067   -0.415650   -0.300960
      8          1           0        4.231145   -0.171290   -0.444708
      9          6           0        2.242856    0.610784   -0.208829
     10          1           0        2.557039    1.648285   -0.260660
     11         16           0       -0.288673    1.676347    0.126333
     12          8           0       -1.223904    1.181276    1.183346
     13          8           0        0.542781    2.830077    0.559708
     14          7           0       -0.942114    2.007357   -1.250875
     15          1           0       -1.575761    1.238485   -1.483321
     16          8           0       -1.344538   -2.159925    1.116613
     17          8           0       -1.717688   -0.945425   -0.736087
     18          6           0       -3.129170   -1.177574   -0.599061
     19          1           0        3.513391   -2.545679   -0.249054
     20          1           0       -3.589822   -0.670571   -1.445019
     21          1           0       -3.480974   -0.751941    0.343331
     22          1           0       -3.337835   -2.248393   -0.633556
 ---------------------------------------------------------------------
 Rotational constants (GHZ):           0.7764242           0.6942116           0.4219239
 General basis read from cards:  (6D, 7F)
 There are   286 symmetry adapted cartesian basis functions of A   symmetry.
 There are   286 symmetry adapted basis functions of A   symmetry.
   286 basis functions,   504 primitive gaussians,   286 cartesian basis functions
    56 alpha electrons       56 beta electrons
       nuclear repulsion energy      1064.7596344068 Hartrees.
 NAtoms=   22 NActive=   22 NUniq=   22 SFac= 1.00D+00 NAtFMM=   60 NAOKFM=F Big=F
 Integral buffers will be    131072 words long.
 Raffenetti 2 integral format.
 Two-electron integral symmetry is turned on.
 One-electron integrals computed using PRISM.
 NBasis=   286 RedAO= T EigKep=  1.96D-06  NBF=   286
 NBsUse=   285 1.00D-06 EigRej=  9.03D-07 NBFU=   285
 ExpMin= 4.05D-02 ExpMax= 2.19D+04 ExpMxC= 3.30D+03 IAcc=3 IRadAn=         5 AccDes= 0.00D+00
 Harris functional with IExCor= 1009 and IRadAn=       5 diagonalized for initial guess.
 HarFok:  IExCor= 1009 AccDes= 0.00D+00 IRadAn=         5 IDoV= 1 UseB2=F ITyADJ=14
 ICtDFT=  3500011 ScaDFX=  1.000000  1.000000  1.000000  1.000000
 FoFCou: FMM=F IPFlag=           0 FMFlag=      100000 FMFlg1=           0
         NFxFlg=           0 DoJE=T BraDBF=F KetDBF=T FulRan=T
         wScrn=  0.000000 ICntrl=       500 IOpCl=  0 I1Cent=   200000004 NGrid=           0
         NMat0=    1 NMatS0=      1 NMatT0=    0 NMatD0=    1 NMtDS0=    0 NMtDT0=    0
 Petite list used in FoFCou.
 Requested convergence on RMS density matrix=1.00D-08 within 128 cycles.
 Requested convergence on MAX density matrix=1.00D-06.
 Requested convergence on             energy=1.00D-06.
 No special actions if energy rises.
 SCF Done:  E(RM062X) =  -1063.21254252     A.U. after   18 cycles
            NFock= 18  Conv=0.15D-08     -V/T= 2.0066

 **********************************************************************

            Population analysis using the SCF Density.

 **********************************************************************

 Orbital symmetries:
       Occupied  (A) (A) (A) (A) (A) (A) (A) (A) (A) (A) (A) (A)
                 (A) (A) (A) (A) (A) (A) (A) (A) (A) (A) (A) (A)
                 (A) (A) (A) (A) (A) (A) (A) (A) (A) (A) (A) (A)
                 (A) (A) (A) (A) (A) (A) (A) (A) (A) (A) (A) (A)
                 (A) (A) (A) (A) (A) (A) (A) (A)
       Virtual   (A) (A) (A) (A) (A) (A) (A) (A) (A) (A) (A) (A)
                 (A) (A) (A) (A) (A) (A) (A) (A) (A) (A) (A) (A)
                 (A) (A) (A) (A) (A) (A) (A) (A) (A) (A) (A) (A)
                 (A) (A) (A) (A) (A) (A) (A) (A) (A) (A) (A) (A)
                 (A) (A) (A) (A) (A) (A) (A) (A) (A) (A) (A) (A)
                 (A) (A) (A) (A) (A) (A) (A) (A) (A) (A) (A) (A)
                 (A) (A) (A) (A) (A) (A) (A) (A) (A) (A) (A) (A)
                 (A) (A) (A) (A) (A) (A) (A) (A) (A) (A) (A) (A)
                 (A) (A) (A) (A) (A) (A) (A) (A) (A) (A) (A) (A)
                 (A) (A) (A) (A) (A) (A) (A) (A) (A) (A) (A) (A)
                 (A) (A) (A) (A) (A) (A) (A) (A) (A) (A) (A) (A)
                 (A) (A) (A) (A) (A) (A) (A) (A) (A) (A) (A) (A)
                 (A) (A) (A) (A) (A) (A) (A) (A) (A) (A) (A) (A)
                 (A) (A) (A) (A) (A) (A) (A) (A) (A) (A) (A) (A)
                 (A) (A) (A) (A) (A) (A) (A) (A) (A) (A) (A) (A)
                 (A) (A) (A) (A) (A) (A) (A) (A) (A) (A) (A) (A)
                 (A) (A) (A) (A) (A) (A) (A) (A) (A) (A) (A) (A)
                 (A) (A) (A) (A) (A) (A) (A) (A) (A) (A) (A) (A)
                 (A) (A) (A) (A) (A) (A) (A) (A) (A) (A) (A) (A)
                 (A)
 The electronic state is 1-A.
 Alpha  occ. eigenvalues --  -89.97060 -19.58545 -19.52623 -19.44976 -19.44695
 Alpha  occ. eigenvalues --  -14.55548 -10.57854 -10.50153 -10.46497 -10.46118
 Alpha  occ. eigenvalues --  -10.45926 -10.45819 -10.45720 -10.44778  -8.27882
 Alpha  occ. eigenvalues --   -6.20094  -6.20059  -6.19971  -1.13013  -1.03737
 Alpha  occ. eigenvalues --   -1.02906  -0.91870  -0.86462  -0.79729  -0.76901
 Alpha  occ. eigenvalues --   -0.74488  -0.71747  -0.61634  -0.59797  -0.55050
 Alpha  occ. eigenvalues --   -0.52929  -0.49989  -0.46466  -0.45416  -0.45160
 Alpha  occ. eigenvalues --   -0.42254  -0.41847  -0.39973  -0.38655  -0.38218
 Alpha  occ. eigenvalues --   -0.35877  -0.34684  -0.33679  -0.33335  -0.32271
 Alpha  occ. eigenvalues --   -0.30849  -0.27029  -0.25046  -0.24073  -0.22423
 Alpha  occ. eigenvalues --   -0.21201  -0.20417  -0.19827  -0.18258  -0.16117
 Alpha  occ. eigenvalues --   -0.12779
 Alpha virt. eigenvalues --    0.10092   0.10456   0.11072   0.11766   0.12078
 Alpha virt. eigenvalues --    0.13113   0.14286   0.15128   0.15958   0.16726
 Alpha virt. eigenvalues --    0.17134   0.17670   0.18381   0.18431   0.19861
 Alpha virt. eigenvalues --    0.20196   0.20441   0.22026   0.22622   0.22997
 Alpha virt. eigenvalues --    0.23391   0.23758   0.24299   0.24924   0.25689
 Alpha virt. eigenvalues --    0.26863   0.27186   0.27601   0.28683   0.29255
 Alpha virt. eigenvalues --    0.29965   0.31003   0.31036   0.31568   0.31997
 Alpha virt. eigenvalues --    0.32323   0.32787   0.33843   0.34070   0.34318
 Alpha virt. eigenvalues --    0.34836   0.35296   0.36006   0.36609   0.37463
 Alpha virt. eigenvalues --    0.37946   0.38754   0.39652   0.40758   0.41059
 Alpha virt. eigenvalues --    0.41507   0.41708   0.42738   0.43488   0.43647
 Alpha virt. eigenvalues --    0.44136   0.44784   0.45388   0.46069   0.46304
 Alpha virt. eigenvalues --    0.47188   0.48516   0.48873   0.49213   0.49674
 Alpha virt. eigenvalues --    0.50009   0.50496   0.51148   0.52260   0.52711
 Alpha virt. eigenvalues --    0.54452   0.55792   0.56051   0.56848   0.57361
 Alpha virt. eigenvalues --    0.60454   0.61623   0.65738   0.68079   0.71315
 Alpha virt. eigenvalues --    0.73789   0.79215   0.80625   0.81525   0.82670
 Alpha virt. eigenvalues --    0.83390   0.83751   0.85216   0.86173   0.87403
 Alpha virt. eigenvalues --    0.88786   0.89270   0.90221   0.91478   0.92384
 Alpha virt. eigenvalues --    0.93488   0.95360   0.96227   0.97396   0.98232
 Alpha virt. eigenvalues --    1.01358   1.02051   1.05851   1.07080   1.09115
 Alpha virt. eigenvalues --    1.10417   1.10691   1.11985   1.12963   1.13991
 Alpha virt. eigenvalues --    1.17213   1.18555   1.19880   1.21813   1.22681
 Alpha virt. eigenvalues --    1.25628   1.26130   1.26768   1.27704   1.29703
 Alpha virt. eigenvalues --    1.31913   1.32558   1.33442   1.35775   1.36579
 Alpha virt. eigenvalues --    1.39047   1.40626   1.42914   1.43893   1.45284
 Alpha virt. eigenvalues --    1.48420   1.50117   1.51245   1.52598   1.54211
 Alpha virt. eigenvalues --    1.54863   1.57062   1.57282   1.57575   1.58602
 Alpha virt. eigenvalues --    1.59871   1.60268   1.61940   1.63420   1.64004
 Alpha virt. eigenvalues --    1.64941   1.65651   1.66969   1.69161   1.69895
 Alpha virt. eigenvalues --    1.74499   1.77023   1.82308   1.84954   1.87516
 Alpha virt. eigenvalues --    1.89631   1.92720   1.96008   1.96592   1.98229
 Alpha virt. eigenvalues --    1.99064   2.00126   2.01597   2.03013   2.04859
 Alpha virt. eigenvalues --    2.07271   2.08327   2.11151   2.11752   2.13087
 Alpha virt. eigenvalues --    2.15439   2.16579   2.18460   2.19103   2.20776
 Alpha virt. eigenvalues --    2.22241   2.24104   2.26746   2.28767   2.30435
 Alpha virt. eigenvalues --    2.30926   2.32713   2.34029   2.35673   2.37899
 Alpha virt. eigenvalues --    2.38677   2.43384   2.44591   2.45496   2.47231
 Alpha virt. eigenvalues --    2.49305   2.50736   2.52877   2.58590   2.62278
 Alpha virt. eigenvalues --    2.63768   2.72367   2.75270   2.76695   2.79232
 Alpha virt. eigenvalues --    2.82309   2.82512   2.85678   2.87078   2.91824
 Alpha virt. eigenvalues --    2.95569   2.99600   3.05222   3.08728   3.12308
 Alpha virt. eigenvalues --    3.12846   3.29273   3.29960   3.35020   3.51771
 Alpha virt. eigenvalues --    4.21771   4.28873   4.37826   4.39670   4.41763
 Alpha virt. eigenvalues --    4.44032   4.46796   4.50169   4.54257   4.57112
 Alpha virt. eigenvalues --    4.63243   4.68466   4.73599   4.89815
          Condensed to atoms (all electrons):
               1          2          3          4          5          6
     1  C   29.033866 -10.434602  -2.687394  -1.517321   0.102851   0.013653
     2  C  -10.434602  57.970561 -11.007287 -17.889803  -0.009813   4.545309
     3  C   -2.687394 -11.007287  16.522432   4.461271   0.009559  -1.663787
     4  C   -1.517321 -17.889803   4.461271  18.331263   0.301812  -3.092284
     5  H    0.102851  -0.009813   0.009559   0.301812   0.499581  -0.081274
     6  C    0.013653   4.545309  -1.663787  -3.092284  -0.081274   8.561300
     7  C   -2.179311  -8.109561   0.959984   2.875800   0.000723  -1.175610
     8  H    0.065349  -0.030532  -0.001076   0.012040  -0.000141   0.012944
     9  C   -5.608685  -8.714286   1.344406   4.063872  -0.032525  -1.590145
    10  H   -0.065407   0.034723   0.007081  -0.004016   0.000014  -0.004507
    11  S    0.888674  -0.136776  -2.525663  -1.025966   0.002094   0.265822
    12  O   -0.115988   0.031354  -0.273206  -0.094824   0.000062   0.037849
    13  O   -0.039061  -0.229797  -0.099633  -0.067339   0.000025   0.038043
    14  N   -0.096083  -0.016979  -0.009482   0.043958   0.000071  -0.011983
    15  H   -0.013361  -0.037944  -0.075615  -0.010163  -0.000000  -0.001104
    16  O   -0.038233  -0.018456   0.523593  -0.005040   0.000312  -0.005491
    17  O   -0.218817  -0.167071   0.318160  -0.044802   0.000918   0.042628
    18  C   -0.027136  -0.146811   0.022418  -0.064548   0.000231  -0.011185
    19  H    0.013929   0.014948  -0.004335  -0.029359  -0.003687   0.294251
    20  H    0.007994   0.001939   0.006488  -0.000318   0.000000   0.000121
    21  H    0.003435   0.012939  -0.044117   0.007513  -0.000000   0.000247
    22  H   -0.004833  -0.020050   0.017995  -0.006593  -0.000002  -0.000312
               7          8          9         10         11         12
     1  C   -2.179311   0.065349  -5.608685  -0.065407   0.888674  -0.115988
     2  C   -8.109561  -0.030532  -8.714286   0.034723  -0.136776   0.031354
     3  C    0.959984  -0.001076   1.344406   0.007081  -2.525663  -0.273206
     4  C    2.875800   0.012040   4.063872  -0.004016  -1.025966  -0.094824
     5  H    0.000723  -0.000141  -0.032525   0.000014   0.002094   0.000062
     6  C   -1.175610   0.012944  -1.590145  -0.004507   0.265822   0.037849
     7  C   12.327789   0.294755   0.494727  -0.045871   0.284809   0.044164
     8  H    0.294755   0.522647  -0.055350  -0.003704   0.001550   0.000046
     9  C    0.494727  -0.055350  16.223151   0.378327  -0.367301   0.177600
    10  H   -0.045871  -0.003704   0.378327   0.443856   0.005807   0.000671
    11  S    0.284809   0.001550  -0.367301   0.005807  16.296724   0.297158
    12  O    0.044164   0.000046   0.177600   0.000671   0.297158   8.892757
    13  O    0.121048   0.000344  -0.047747   0.001582   0.281839  -0.101218
    14  N    0.036633   0.000129   0.036726  -0.000520   0.111657  -0.203733
    15  H    0.007645   0.000000   0.043652  -0.000006   0.090107  -0.012596
    16  O    0.011727  -0.000004   0.001120   0.000023  -0.008591  -0.006199
    17  O   -0.000953   0.000002  -0.107212   0.000006   0.085201  -0.012316
    18  C   -0.006181   0.000004  -0.045189  -0.000032  -0.018034  -0.035126
    19  H    0.018140  -0.003992  -0.006565  -0.000125   0.000028  -0.000001
    20  H    0.000132  -0.000000   0.000006   0.000000  -0.001308   0.000500
    21  H    0.000051  -0.000000   0.002603   0.000000  -0.010756   0.000724
    22  H   -0.000026   0.000000  -0.001156   0.000000   0.003931  -0.000303
              13         14         15         16         17         18
     1  C   -0.039061  -0.096083  -0.013361  -0.038233  -0.218817  -0.027136
     2  C   -0.229797  -0.016979  -0.037944  -0.018456  -0.167071  -0.146811
     3  C   -0.099633  -0.009482  -0.075615   0.523593   0.318160   0.022418
     4  C   -0.067339   0.043958  -0.010163  -0.005040  -0.044802  -0.064548
     5  H    0.000025   0.000071  -0.000000   0.000312   0.000918   0.000231
     6  C    0.038043  -0.011983  -0.001104  -0.005491   0.042628  -0.011185
     7  C    0.121048   0.036633   0.007645   0.011727  -0.000953  -0.006181
     8  H    0.000344   0.000129   0.000000  -0.000004   0.000002   0.000004
     9  C   -0.047747   0.036726   0.043652   0.001120  -0.107212  -0.045189
    10  H    0.001582  -0.000520  -0.000006   0.000023   0.000006  -0.000032
    11  S    0.281839   0.111657   0.090107  -0.008591   0.085201  -0.018034
    12  O   -0.101218  -0.203733  -0.012596  -0.006199  -0.012316  -0.035126
    13  O    8.945682  -0.166641   0.020616  -0.000265  -0.000038   0.001799
    14  N   -0.166641   7.850273   0.183489   0.000102   0.023736   0.009986
    15  H    0.020616   0.183489   0.427365  -0.000043  -0.001524   0.012392
    16  O   -0.000265   0.000102  -0.000043   8.187575  -0.163997  -0.040557
    17  O   -0.000038   0.023736  -0.001524  -0.163997   8.595465   0.099015
    18  C    0.001799   0.009986   0.012392  -0.040557   0.099015   5.453581
    19  H   -0.000003   0.000006  -0.000000   0.000020   0.000035  -0.000035
    20  H   -0.000018  -0.000168   0.000081   0.001565  -0.061296   0.390212
    21  H    0.000066   0.000215  -0.000043   0.003249  -0.029107   0.411893
    22  H   -0.000003  -0.000162  -0.000051  -0.001435  -0.034063   0.395184
              19         20         21         22
     1  C    0.013929   0.007994   0.003435  -0.004833
     2  C    0.014948   0.001939   0.012939  -0.020050
     3  C   -0.004335   0.006488  -0.044117   0.017995
     4  C   -0.029359  -0.000318   0.007513  -0.006593
     5  H   -0.003687   0.000000  -0.000000  -0.000002
     6  C    0.294251   0.000121   0.000247  -0.000312
     7  C    0.018140   0.000132   0.000051  -0.000026
     8  H   -0.003992  -0.000000  -0.000000   0.000000
     9  C   -0.006565   0.000006   0.002603  -0.001156
    10  H   -0.000125   0.000000   0.000000   0.000000
    11  S    0.000028  -0.001308  -0.010756   0.003931
    12  O   -0.000001   0.000500   0.000724  -0.000303
    13  O   -0.000003  -0.000018   0.000066  -0.000003
    14  N    0.000006  -0.000168   0.000215  -0.000162
    15  H   -0.000000   0.000081  -0.000043  -0.000051
    16  O    0.000020   0.001565   0.003249  -0.001435
    17  O    0.000035  -0.061296  -0.029107  -0.034063
    18  C   -0.000035   0.390212   0.411893   0.395184
    19  H    0.522744   0.000000  -0.000000   0.000000
    20  H    0.000000   0.503877  -0.025019  -0.030192
    21  H   -0.000000  -0.025019   0.444063  -0.032550
    22  H    0.000000  -0.030192  -0.032550   0.508687
 Mulliken charges:
               1
     1  C   -1.083519
     2  C    0.357996
     3  C    0.198209
     4  C   -0.245151
     5  H    0.209186
     6  C   -0.174484
     7  C    0.039384
     8  H    0.184990
     9  C   -0.190028
    10  H    0.252098
    11  S    1.478993
    12  O   -0.627375
    13  O   -0.659280
    14  N   -0.791231
    15  H    0.367102
    16  O   -0.440975
    17  O   -0.323970
    18  C   -0.401880
    19  H    0.184002
    20  H    0.205405
    21  H    0.254595
    22  H    0.205934
 Sum of Mulliken charges =  -1.00000
 Mulliken charges with hydrogens summed into heavy atoms:
               1
     1  C   -1.083519
     2  C    0.357996
     3  C    0.198209
     4  C   -0.035965
     6  C    0.009518
     7  C    0.224373
     9  C    0.062070
    11  S    1.478993
    12  O   -0.627375
    13  O   -0.659280
    14  N   -0.424129
    16  O   -0.440975
    17  O   -0.323970
    18  C    0.264053
 Electronic spatial extent (au):  <R**2>=           2727.4672
 Charge=             -1.0000 electrons
 Dipole moment (field-independent basis, Debye):
    X=              1.8852    Y=             -8.4147    Z=             -2.6856  Tot=              9.0318
 Quadrupole moment (field-independent basis, Debye-Ang):
   XX=            -87.1216   YY=           -122.9666   ZZ=           -105.6210
   XY=              2.3781   XZ=              4.2378   YZ=              4.7489
 Traceless Quadrupole moment (field-independent basis, Debye-Ang):
   XX=             18.1148   YY=            -17.7302   ZZ=             -0.3846
   XY=              2.3781   XZ=              4.2378   YZ=              4.7489
 Octapole moment (field-independent basis, Debye-Ang**2):
  XXX=            -29.2128  YYY=            -70.3547  ZZZ=              6.5770  XYY=              9.7086
  XXY=             -7.7040  XXZ=            -14.1413  XZZ=             -5.9305  YZZ=             -7.0714
  YYZ=             -5.7431  XYZ=            -11.5289
 Hexadecapole moment (field-independent basis, Debye-Ang**3):
 XXXX=          -1711.1045 YYYY=          -1743.0141 ZZZZ=           -361.4841 XXXY=             56.7279
 XXXZ=             12.4559 YYYX=             -5.8167 YYYZ=             44.2973 ZZZX=             14.3283
 ZZZY=             23.3154 XXYY=           -575.7533 XXZZ=           -388.8443 YYZZ=           -373.6033
 XXYZ=             11.5629 YYXZ=             -1.8455 ZZXY=             16.4604
 N-N= 1.064759634407D+03 E-N=-4.644355189514D+03  KE= 1.056232776124D+03
 Calling FoFJK, ICntrl=      2127 FMM=F ISym2X=0 I1Cent= 0 IOpClX= 0 NMat=1 NMatS=1 NMatT=0.
 ***** Axes restored to original set *****
 -------------------------------------------------------------------
 Center     Atomic                   Forces (Hartrees/Bohr)
 Number     Number              X              Y              Z
 -------------------------------------------------------------------
      1        6          -0.001485187    0.000143693   -0.000824195
      2        6           0.002212754    0.002981884   -0.001640454
      3        6          -0.001326128   -0.018830529   -0.003673241
      4        6           0.000909283    0.001154509    0.000081298
      5        1          -0.000234629   -0.000913305   -0.000005960
      6        6          -0.001132524   -0.000239376   -0.000744613
      7        6          -0.000708310   -0.000660993    0.002292460
      8        1           0.000695248    0.000355775   -0.000871652
      9        6           0.000196100    0.000993284   -0.005261508
     10        1          -0.001198048   -0.001411417    0.002974556
     11       16           0.013170571   -0.016724257    0.029410976
     12        8          -0.001883677    0.009175095   -0.008451170
     13        8          -0.008815698    0.004447446   -0.009673286
     14        7          -0.002797489    0.005449018   -0.005495504
     15        1           0.001954904   -0.001289556    0.000054356
     16        8           0.001335202    0.010430629    0.000870448
     17        8          -0.009895818    0.005026926    0.007752620
     18        6           0.008082343   -0.000004802   -0.004641765
     19        1          -0.000013170    0.000060101   -0.001039493
     20        1           0.000553604    0.000777462    0.000496445
     21        1           0.001054569   -0.000042293   -0.000738007
     22        1          -0.000673900   -0.000879294   -0.000872310
 -------------------------------------------------------------------
 Cartesian Forces:  Max     0.029410976 RMS     0.006242229

 GradGradGradGradGradGradGradGradGradGradGradGradGradGradGradGradGradGrad
 Berny optimization.
 FormGI is forming the generalized inverse of G from B-inverse, IUseBI=4.
 Internal  Forces:  Max     0.011314052 RMS     0.003525707
 Search for a local minimum.
 Step number   1 out of a maximum of  109
 All quantities printed in internal units (Hartrees-Bohrs-Radians)
 Mixed Optimization -- RFO/linear search
 Second derivative matrix not updated -- first step.
 ITU=  0
     Eigenvalues ---    0.00230   0.00833   0.01202   0.01371   0.01437
     Eigenvalues ---    0.01721   0.02113   0.02160   0.02164   0.02168
     Eigenvalues ---    0.02171   0.02177   0.02178   0.02615   0.03150
     Eigenvalues ---    0.10125   0.10264   0.10714   0.11859   0.15997
     Eigenvalues ---    0.15998   0.15999   0.16000   0.16000   0.16000
     Eigenvalues ---    0.16000   0.16000   0.17212   0.21737   0.21999
     Eigenvalues ---    0.22491   0.24477   0.24972   0.24981   0.24992
     Eigenvalues ---    0.25000   0.25000   0.25000   0.25000   0.32911
     Eigenvalues ---    0.34553   0.34639   0.34983   0.35228   0.35309
     Eigenvalues ---    0.35340   0.35365   0.40001   0.42118   0.42385
     Eigenvalues ---    0.43849   0.45947   0.46387   0.46673   0.46851
     Eigenvalues ---    0.59459   0.59828   0.78129   0.81262   0.96849
 RFO step:  Lambda=-8.33356762D-03 EMin= 2.30000000D-03
 Linear search not attempted -- first point.
 Iteration  1 RMS(Cart)=  0.15232332 RMS(Int)=  0.00895887
 Iteration  2 RMS(Cart)=  0.01225450 RMS(Int)=  0.00054771
 Iteration  3 RMS(Cart)=  0.00007579 RMS(Int)=  0.00054639
 Iteration  4 RMS(Cart)=  0.00000005 RMS(Int)=  0.00054639
 Variable       Old X    -DE/DX   Delta X   Delta X   Delta X     New X
                                 (Linear)    (Quad)   (Total)
    R1        2.64722   0.00082   0.00000   0.00178   0.00181   2.64903
    R2        2.63103  -0.00014   0.00000  -0.00038  -0.00041   2.63062
    R3        3.42981   0.00566   0.00000   0.02195   0.02195   3.45175
    R4        2.82508   0.00155   0.00000   0.00459   0.00459   2.82967
    R5        2.63769   0.00055   0.00000   0.00125   0.00132   2.63901
    R6        2.29928  -0.00946   0.00000  -0.00969  -0.00969   2.28959
    R7        2.51371   0.00471   0.00000   0.00780   0.00780   2.52151
    R8        2.05306   0.00039   0.00000   0.00108   0.00108   2.05414
    R9        2.63291  -0.00066   0.00000  -0.00131  -0.00128   2.63163
   R10        2.63312   0.00066   0.00000   0.00137   0.00134   2.63446
   R11        2.05126   0.00104   0.00000   0.00287   0.00287   2.05412
   R12        2.05176   0.00110   0.00000   0.00303   0.00303   2.05480
   R13        2.63619  -0.00027   0.00000  -0.00065  -0.00072   2.63547
   R14        2.05086   0.00028   0.00000   0.00077   0.00077   2.05162
   R15        2.82641  -0.00767   0.00000  -0.00972  -0.00972   2.81669
   R16        2.80942  -0.01076   0.00000  -0.01310  -0.01310   2.79632
   R17        2.94776   0.00071   0.00000   0.00116   0.00116   2.94893
   R18        1.93335  -0.00200   0.00000  -0.00447  -0.00447   1.92888
   R19        2.71552  -0.01011   0.00000  -0.02475  -0.02475   2.69077
   R20        2.05702   0.00081   0.00000   0.00227   0.00227   2.05929
   R21        2.06407  -0.00005   0.00000  -0.00015  -0.00015   2.06393
   R22        2.06265   0.00112   0.00000   0.00316   0.00316   2.06581
    A1        2.09071  -0.00241   0.00000  -0.00949  -0.00946   2.08125
    A2        2.12122   0.00488   0.00000   0.01900   0.01898   2.14020
    A3        2.07098  -0.00247   0.00000  -0.00943  -0.00945   2.06153
    A4        2.14348   0.00089   0.00000   0.00336   0.00289   2.14637
    A5        2.09208   0.00086   0.00000   0.00341   0.00315   2.09523
    A6        2.04763  -0.00175   0.00000  -0.00688  -0.00734   2.04029
    A7        2.16344   0.00095   0.00000   0.00277   0.00214   2.16558
    A8        1.95913   0.00136   0.00000   0.00431   0.00369   1.96282
    A9        2.15930  -0.00237   0.00000  -0.01020  -0.01081   2.14849
   A10        2.08064  -0.00080   0.00000  -0.00411  -0.00432   2.07632
   A11        2.09787   0.00086   0.00000   0.00411   0.00411   2.10198
   A12        2.10459  -0.00005   0.00000   0.00037   0.00015   2.10475
   A13        2.09098  -0.00131   0.00000  -0.00570  -0.00570   2.08528
   A14        2.09148   0.00064   0.00000   0.00273   0.00266   2.09414
   A15        2.10072   0.00067   0.00000   0.00293   0.00285   2.10357
   A16        2.09787  -0.00048   0.00000  -0.00259  -0.00256   2.09532
   A17        2.09801   0.00011   0.00000   0.00017   0.00012   2.09813
   A18        2.08719   0.00037   0.00000   0.00242   0.00245   2.08963
   A19        2.09626   0.00189   0.00000   0.00788   0.00781   2.10407
   A20        2.08644  -0.00450   0.00000  -0.02498  -0.02497   2.06148
   A21        2.10033   0.00261   0.00000   0.01724   0.01726   2.11760
   A22        1.79103  -0.00757   0.00000  -0.04610  -0.04645   1.74458
   A23        1.81727  -0.00828   0.00000  -0.04513  -0.04517   1.77210
   A24        1.93762  -0.00725   0.00000  -0.04653  -0.04699   1.89063
   A25        1.98293   0.00786   0.00000   0.06217   0.05965   2.04258
   A26        2.01779   0.00555   0.00000   0.02395   0.02111   2.03890
   A27        1.90389   0.00654   0.00000   0.03417   0.03174   1.93563
   A28        1.87608  -0.00210   0.00000  -0.01246  -0.01246   1.86362
   A29        2.03102  -0.00876   0.00000  -0.03390  -0.03390   1.99712
   A30        1.84037  -0.00045   0.00000  -0.00182  -0.00184   1.83853
   A31        1.91313  -0.00215   0.00000  -0.01394  -0.01396   1.89917
   A32        1.92118   0.00048   0.00000   0.00308   0.00307   1.92424
   A33        1.93127   0.00082   0.00000   0.00415   0.00412   1.93539
   A34        1.92995   0.00106   0.00000   0.00873   0.00872   1.93866
   A35        1.92622   0.00020   0.00000  -0.00045  -0.00047   1.92575
    D1       -3.11935  -0.00232   0.00000  -0.08193  -0.08201   3.08182
    D2        0.02457  -0.00094   0.00000  -0.02787  -0.02777  -0.00320
    D3        0.04788  -0.00236   0.00000  -0.08544  -0.08554  -0.03766
    D4       -3.09138  -0.00098   0.00000  -0.03138  -0.03130  -3.12268
    D5        0.00052   0.00075   0.00000   0.02405   0.02400   0.02452
    D6       -3.12227   0.00044   0.00000   0.01527   0.01534  -3.10693
    D7        3.11720   0.00090   0.00000   0.02787   0.02779  -3.13819
    D8       -0.00558   0.00059   0.00000   0.01909   0.01912   0.01354
    D9        0.65768  -0.00284   0.00000  -0.15474  -0.15424   0.50343
   D10        2.72866  -0.00052   0.00000  -0.12272  -0.12301   2.60565
   D11       -1.50815  -0.00098   0.00000  -0.13032  -0.13049  -1.63864
   D12       -2.45856  -0.00288   0.00000  -0.15821  -0.15772  -2.61628
   D13       -0.38757  -0.00055   0.00000  -0.12618  -0.12650  -0.51406
   D14        1.65881  -0.00102   0.00000  -0.13378  -0.13398   1.52483
   D15       -2.20816  -0.00141   0.00000  -0.08607  -0.08620  -2.29436
   D16        0.98672   0.00007   0.00000  -0.02219  -0.02218   0.96454
   D17        0.93116  -0.00276   0.00000  -0.13883  -0.13884   0.79232
   D18       -2.15714  -0.00127   0.00000  -0.07495  -0.07482  -2.23196
   D19        3.12269  -0.00049   0.00000  -0.01890  -0.01881   3.10389
   D20       -0.03237   0.00045   0.00000   0.01223   0.01227  -0.02010
   D21       -0.01670   0.00081   0.00000   0.03223   0.03220   0.01551
   D22        3.11143   0.00176   0.00000   0.06336   0.06329  -3.10847
   D23       -3.04908   0.00291   0.00000   0.07265   0.07285  -2.97622
   D24        0.14566   0.00428   0.00000   0.13589   0.13568   0.28135
   D25        0.01496   0.00016   0.00000   0.00702   0.00702   0.02198
   D26       -3.12951  -0.00037   0.00000  -0.01109  -0.01109  -3.14060
   D27       -3.14029   0.00111   0.00000   0.03854   0.03858  -3.10172
   D28       -0.00157   0.00059   0.00000   0.02044   0.02047   0.01890
   D29        3.13572  -0.00031   0.00000  -0.01054  -0.01054   3.12518
   D30        0.01027  -0.00036   0.00000  -0.01095  -0.01094  -0.00067
   D31       -0.00299   0.00022   0.00000   0.00766   0.00767   0.00468
   D32       -3.12844   0.00017   0.00000   0.00725   0.00727  -3.12116
   D33       -0.01800  -0.00011   0.00000  -0.00469  -0.00474  -0.02275
   D34        3.10463   0.00012   0.00000   0.00370   0.00374   3.10837
   D35        3.13964  -0.00015   0.00000  -0.00505  -0.00510   3.13454
   D36       -0.02092   0.00009   0.00000   0.00334   0.00339  -0.01752
   D37        1.24057  -0.00003   0.00000   0.00307   0.00317   1.24374
   D38       -0.78994   0.01131   0.00000   0.08050   0.08221  -0.70773
   D39       -3.04990  -0.01024   0.00000  -0.05728  -0.05908  -3.10898
   D40        3.09099  -0.00032   0.00000   0.00618   0.00619   3.09718
   D41        1.01161   0.00007   0.00000   0.00948   0.00947   1.02108
   D42       -1.11021   0.00092   0.00000   0.01709   0.01709  -1.09312
         Item               Value     Threshold  Converged?
 Maximum Force            0.011314     0.000450     NO 
 RMS     Force            0.003526     0.000300     NO 
 Maximum Displacement     0.653785     0.001800     NO 
 RMS     Displacement     0.155019     0.001200     NO 
 Predicted change in Energy=-5.148232D-03
 GradGradGradGradGradGradGradGradGradGradGradGradGradGradGradGradGradGrad

                          Input orientation:                          
 ---------------------------------------------------------------------
 Center     Atomic      Atomic             Coordinates (Angstroms)
 Number     Number       Type             X           Y           Z
 ---------------------------------------------------------------------
      1          6           0       -1.159802    0.639293   -0.822609
      2          6           0       -2.331347    0.412302   -1.558151
      3          6           0       -3.591880   -0.111067   -0.942245
      4          6           0       -2.338725    0.611119   -2.940412
      5          1           0       -3.246443    0.395864   -3.498352
      6          6           0       -1.193630    1.057959   -3.594953
      7          6           0       -0.028196    1.281212   -2.863220
      8          1           0        0.875530    1.615451   -3.367100
      9          6           0       -0.010563    1.059256   -1.486478
     10          1           0        0.895004    1.197901   -0.903889
     11         16           0       -1.063099    0.373990    0.982021
     12          8           0       -2.083288   -0.701229    1.139476
     13          8           0        0.354928   -0.014837    1.148346
     14          7           0       -1.355350    1.731577    1.693865
     15          1           0       -2.350045    1.922469    1.567333
     16          8           0       -4.238251   -1.030128   -1.395568
     17          8           0       -4.006819    0.635851    0.082630
     18          6           0       -5.075204    0.066103    0.831910
     19          1           0       -1.207800    1.211134   -4.671010
     20          1           0       -5.261464    0.765860    1.646254
     21          1           0       -4.756343   -0.904600    1.217824
     22          1           0       -5.960862   -0.048040    0.201337
 ---------------------------------------------------------------------
                    Distance matrix (angstroms):
                    1          2          3          4          5
     1  C    0.000000
     2  C    1.401807   0.000000
     3  C    2.548010   1.497397   0.000000
     4  C    2.423993   1.396506   2.466702   0.000000
     5  H    3.401901   2.145240   2.628686   1.087006   0.000000
     6  C    2.803983   2.420710   3.762324   1.392600   2.159107
     7  C    2.420059   2.786164   4.281171   2.406975   3.397697
     8  H    3.401455   3.873490   5.368290   3.394434   4.300614
     9  C    1.392064   2.410337   3.806793   2.781203   3.867641
    10  H    2.130933   3.384459   4.674077   3.866361   4.952382
    11  S    1.826589   2.839435   3.214469   4.131456   4.984096
    12  O    2.549432   2.928938   2.637746   4.293366   4.905711
    13  O    2.570400   3.837140   4.467340   4.936146   5.893247
    14  N    2.750266   3.642618   3.917459   4.868160   5.685023
    15  H    2.962270   3.471254   3.460550   4.694628   5.366117
    16  O    3.548534   2.396523   1.211598   2.947615   2.727423
    17  O    2.987469   2.355704   1.334328   3.452815   3.668678
    18  C    4.289096   3.655269   2.319324   4.692096   4.712141
    19  H    3.890950   3.404465   4.619062   2.152668   2.489147
    20  H    4.789043   4.356467   3.202631   5.440942   5.537525
    21  H    4.413851   3.914189   2.579063   5.043134   5.119895
    22  H    4.956921   4.059691   2.631317   4.839933   4.610078
                    6          7          8          9         10
     6  C    0.000000
     7  C    1.394099   0.000000
     8  H    2.155026   1.087351   0.000000
     9  C    2.417709   1.394630   2.152034   0.000000
    10  H    3.409370   2.167537   2.498427   1.085672   0.000000
    11  S    4.629638   4.084110   4.920809   2.769641   2.840713
    12  O    5.128456   4.916814   5.867780   3.780362   4.080718
    13  O    5.103706   4.233106   4.828884   2.868721   2.444193
    14  N    5.333996   4.767723   5.532059   3.517819   3.478106
    15  H    5.360399   5.043014   5.903154   3.942598   4.142738
    16  O    4.297339   5.022037   6.085785   4.716687   5.617488
    17  O    4.649390   4.992390   6.057853   4.314097   5.031599
    18  C    5.970554   6.372029   7.446032   5.657903   6.319600
    19  H    1.086996   2.159741   2.490766   3.405537   4.314297
    20  H    6.640998   6.927340   7.969832   6.121442   6.677723
    21  H    6.301380   6.617255   7.687014   5.804516   6.392175
    22  H    6.193670   6.808446   7.889056   6.283381   7.055266
                   11         12         13         14         15
    11  S    0.000000
    12  O    1.490528   0.000000
    13  O    1.479747   2.533005   0.000000
    14  N    1.560505   2.599190   2.504517   0.000000
    15  H    2.096809   2.671706   3.353444   1.020720   0.000000
    16  O    4.207858   3.343425   5.347861   5.048042   4.589328
    17  O    3.089168   2.569956   4.536957   3.290438   2.569947
    18  C    4.026700   3.104022   5.439946   4.165824   3.378377
    19  H    5.716511   6.179430   6.148986   6.387821   6.381821
    20  H    4.268611   3.536945   5.692211   4.024004   3.133741
    21  H    3.915411   2.681925   5.188603   4.329296   3.728906
    22  H    4.977515   4.042565   6.386480   5.158044   4.334379
                   16         17         18         19         20
    16  O    0.000000
    17  O    2.239222   0.000000
    18  C    2.619899   1.423896   0.000000
    19  H    4.993536   5.546399   6.822758   0.000000
    20  H    3.677666   2.008969   1.089730   7.519194   0.000000
    21  H    2.667207   2.055101   1.092184   7.193528   1.796980
    22  H    2.545975   2.073664   1.093179   6.922202   1.799827
                   21         22
    21  H    0.000000
    22  H    1.793824   0.000000
 Stoichiometry    C8H8NO4S(1-)
 Framework group  C1[X(C8H8NO4S)]
 Deg. of freedom    60
 Full point group                 C1      NOp   1
 Largest Abelian subgroup         C1      NOp   1
 Largest concise Abelian subgroup C1      NOp   1
                         Standard orientation:                         
 ---------------------------------------------------------------------
 Center     Atomic      Atomic             Coordinates (Angstroms)
 Number     Number       Type             X           Y           Z
 ---------------------------------------------------------------------
      1          6           0        0.883459    0.306761   -0.010956
      2          6           0        0.469003   -1.032227    0.009068
      3          6           0       -0.960142   -1.440435    0.191030
      4          6           0        1.412989   -2.057768   -0.076871
      5          1           0        1.075465   -3.089692   -0.024015
      6          6           0        2.767338   -1.760831   -0.206873
      7          6           0        3.179058   -0.429030   -0.224313
      8          1           0        4.235607   -0.186764   -0.310013
      9          6           0        2.241077    0.597047   -0.113181
     10          1           0        2.544233    1.639358   -0.093980
     11         16           0       -0.287251    1.702145    0.126039
     12          8           0       -1.362018    1.058501    0.933673
     13          8           0        0.544727    2.720913    0.803960
     14          7           0       -0.670116    2.164587   -1.314356
     15          1           0       -1.265050    1.435373   -1.709540
     16          8           0       -1.330234   -2.284485    0.977529
     17          8           0       -1.769687   -0.876731   -0.707471
     18          6           0       -3.157380   -1.063095   -0.448519
     19          1           0        3.495766   -2.564843   -0.274081
     20          1           0       -3.673787   -0.512001   -1.234095
     21          1           0       -3.390770   -0.649722    0.535105
     22          1           0       -3.409357   -2.126267   -0.483362
 ---------------------------------------------------------------------
 Rotational constants (GHZ):           0.7836026           0.7018748           0.4204999
 Basis read from rwf:  (6D, 7F)
 There are   286 symmetry adapted cartesian basis functions of A   symmetry.
 There are   286 symmetry adapted basis functions of A   symmetry.
   286 basis functions,   504 primitive gaussians,   286 cartesian basis functions
    56 alpha electrons       56 beta electrons
       nuclear repulsion energy      1068.0903521995 Hartrees.
 NAtoms=   22 NActive=   22 NUniq=   22 SFac= 1.00D+00 NAtFMM=   60 NAOKFM=F Big=F
 Integral buffers will be    131072 words long.
 Raffenetti 2 integral format.
 Two-electron integral symmetry is turned on.
 One-electron integrals computed using PRISM.
 NBasis=   286 RedAO= T EigKep=  1.93D-06  NBF=   286
 NBsUse=   285 1.00D-06 EigRej=  9.81D-07 NBFU=   285
 Initial guess from the checkpoint file:  "/jobfs/40919109.gadi-pbs/Gau-3068852.chk"
 B after Tr=    -0.000000   -0.000000    0.000000
         Rot=    0.999818   -0.015635    0.008433    0.006923 Ang=  -2.18 deg.
 ExpMin= 4.05D-02 ExpMax= 2.19D+04 ExpMxC= 3.30D+03 IAcc=3 IRadAn=         5 AccDes= 0.00D+00
 Harris functional with IExCor= 1009 and IRadAn=       5 diagonalized for initial guess.
 HarFok:  IExCor= 1009 AccDes= 0.00D+00 IRadAn=         5 IDoV= 1 UseB2=F ITyADJ=14
 ICtDFT=  3500011 ScaDFX=  1.000000  1.000000  1.000000  1.000000
 FoFCou: FMM=F IPFlag=           0 FMFlag=      100000 FMFlg1=           0
         NFxFlg=           0 DoJE=T BraDBF=F KetDBF=T FulRan=T
         wScrn=  0.000000 ICntrl=       500 IOpCl=  0 I1Cent=   200000004 NGrid=           0
         NMat0=    1 NMatS0=      1 NMatT0=    0 NMatD0=    1 NMtDS0=    0 NMtDT0=    0
 Petite list used in FoFCou.
 Requested convergence on RMS density matrix=1.00D-08 within 128 cycles.
 Requested convergence on MAX density matrix=1.00D-06.
 Requested convergence on             energy=1.00D-06.
 No special actions if energy rises.
 SCF Done:  E(RM062X) =  -1063.21312734     A.U. after   17 cycles
            NFock= 17  Conv=0.17D-08     -V/T= 2.0065
 Calling FoFJK, ICntrl=      2127 FMM=F ISym2X=0 I1Cent= 0 IOpClX= 0 NMat=1 NMatS=1 NMatT=0.
 ***** Axes restored to original set *****
 -------------------------------------------------------------------
 Center     Atomic                   Forces (Hartrees/Bohr)
 Number     Number              X              Y              Z
 -------------------------------------------------------------------
      1        6          -0.003093616    0.000428466   -0.002717986
      2        6           0.002790024   -0.001380817    0.000834014
      3        6          -0.001195412    0.004355538   -0.003810207
      4        6           0.000873905   -0.000687714   -0.001523909
      5        1          -0.000146424   -0.000193558    0.000260898
      6        6          -0.001487357   -0.000352112   -0.000326566
      7        6           0.001224091   -0.000036273    0.002146511
      8        1           0.000129372   -0.000132955   -0.000195993
      9        6           0.000213360    0.002800353   -0.003574706
     10        1           0.000080753   -0.000355425    0.000431477
     11       16           0.001095715   -0.004790987   -0.005523492
     12        8           0.010118388   -0.002386164    0.008032146
     13        8          -0.006551000    0.000731565    0.004594266
     14        7           0.002591082   -0.000736899    0.000054976
     15        1          -0.002335892   -0.001726392    0.000808369
     16        8           0.001356247   -0.002184929   -0.000300101
     17        8          -0.007384692    0.005352800   -0.000797201
     18        6           0.002741449    0.001970414   -0.000566946
     19        1          -0.000020998    0.000294988    0.000117695
     20        1          -0.000416453   -0.000608288    0.000645718
     21        1           0.000051453   -0.000064095    0.000834716
     22        1          -0.000633994   -0.000297518    0.000576320
 -------------------------------------------------------------------
 Cartesian Forces:  Max     0.010118388 RMS     0.002776344

 GradGradGradGradGradGradGradGradGradGradGradGradGradGradGradGradGradGrad
 Berny optimization.
 Using GEDIIS/GDIIS optimizer.
 FormGI is forming the generalized inverse of G from B-inverse, IUseBI=4.
 Internal  Forces:  Max     0.014426573 RMS     0.003939668
 Search for a local minimum.
 Step number   2 out of a maximum of  109
 All quantities printed in internal units (Hartrees-Bohrs-Radians)
 Mixed Optimization -- RFO/linear search
 Update second derivatives using D2CorX and points    1    2
 DE= -5.85D-04 DEPred=-5.15D-03 R= 1.14D-01
 Trust test= 1.14D-01 RLast= 4.74D-01 DXMaxT set to 3.00D-01
 ITU=  0  0
 Use linear search instead of GDIIS.
     Eigenvalues ---    0.00346   0.01004   0.01202   0.01359   0.01417
     Eigenvalues ---    0.01786   0.02118   0.02164   0.02167   0.02171
     Eigenvalues ---    0.02173   0.02177   0.02237   0.03119   0.03330
     Eigenvalues ---    0.10301   0.10655   0.11023   0.12533   0.14832
     Eigenvalues ---    0.15996   0.15998   0.15998   0.16000   0.16000
     Eigenvalues ---    0.16000   0.16006   0.16763   0.21426   0.21990
     Eigenvalues ---    0.22542   0.23750   0.24518   0.24914   0.24964
     Eigenvalues ---    0.24979   0.24999   0.25000   0.31471   0.32907
     Eigenvalues ---    0.34556   0.34630   0.34978   0.35227   0.35300
     Eigenvalues ---    0.35339   0.35366   0.39225   0.42236   0.42680
     Eigenvalues ---    0.43961   0.45954   0.46388   0.46690   0.46907
     Eigenvalues ---    0.59214   0.59888   0.76998   0.80177   0.96370
 RFO step:  Lambda=-6.43379710D-03 EMin= 3.46186023D-03
 Quartic linear search produced a step of -0.44943.
 Iteration  1 RMS(Cart)=  0.15789813 RMS(Int)=  0.01250358
 Iteration  2 RMS(Cart)=  0.01690421 RMS(Int)=  0.00037131
 Iteration  3 RMS(Cart)=  0.00020581 RMS(Int)=  0.00035328
 Iteration  4 RMS(Cart)=  0.00000006 RMS(Int)=  0.00035328
 Variable       Old X    -DE/DX   Delta X   Delta X   Delta X     New X
                                 (Linear)    (Quad)   (Total)
    R1        2.64903   0.00441  -0.00082   0.00828   0.00743   2.65646
    R2        2.63062   0.00294   0.00019   0.00301   0.00323   2.63385
    R3        3.45175   0.00942  -0.00986   0.05303   0.04316   3.49492
    R4        2.82967   0.00023  -0.00206   0.00718   0.00512   2.83479
    R5        2.63901   0.00140  -0.00059   0.00368   0.00302   2.64204
    R6        2.28959   0.00105   0.00435  -0.01379  -0.00943   2.28016
    R7        2.52151   0.00585  -0.00351   0.01703   0.01352   2.53503
    R8        2.05414   0.00003  -0.00049   0.00165   0.00116   2.05531
    R9        2.63163  -0.00144   0.00057  -0.00377  -0.00323   2.62841
   R10        2.63446  -0.00039  -0.00060   0.00130   0.00073   2.63519
   R11        2.05412  -0.00007  -0.00129   0.00413   0.00284   2.05697
   R12        2.05480   0.00016  -0.00136   0.00474   0.00337   2.05817
   R13        2.63547  -0.00208   0.00032  -0.00360  -0.00321   2.63226
   R14        2.05162   0.00025  -0.00034   0.00152   0.00118   2.05280
   R15        2.81669  -0.00436   0.00437  -0.01752  -0.01316   2.80354
   R16        2.79632  -0.00595   0.00589  -0.02353  -0.01764   2.77868
   R17        2.94893  -0.00179  -0.00052   0.00007  -0.00046   2.94847
   R18        1.92888   0.00185   0.00201  -0.00429  -0.00228   1.92660
   R19        2.69077  -0.00092   0.01112  -0.03794  -0.02682   2.66396
   R20        2.05929   0.00016  -0.00102   0.00362   0.00260   2.06189
   R21        2.06393   0.00037   0.00007   0.00037   0.00044   2.06436
   R22        2.06581   0.00021  -0.00142   0.00501   0.00359   2.06940
    A1        2.08125  -0.00373   0.00425  -0.02173  -0.01758   2.06367
    A2        2.14020   0.01299  -0.00853   0.05605   0.04749   2.18769
    A3        2.06153  -0.00928   0.00425  -0.03462  -0.03037   2.03116
    A4        2.14637   0.00754  -0.00130   0.02090   0.01985   2.16622
    A5        2.09523  -0.00063  -0.00142   0.00403   0.00260   2.09783
    A6        2.04029  -0.00680   0.00330  -0.02557  -0.02202   2.01827
    A7        2.16558  -0.00077  -0.00096  -0.00097  -0.00373   2.16185
    A8        1.96282  -0.00113  -0.00166   0.00044  -0.00299   1.95982
    A9        2.14849   0.00165   0.00486  -0.01504  -0.01197   2.13652
   A10        2.07632  -0.00130   0.00194  -0.00976  -0.00767   2.06865
   A11        2.10198   0.00186  -0.00185   0.01022   0.00826   2.11024
   A12        2.10475  -0.00053  -0.00007  -0.00060  -0.00052   2.10423
   A13        2.08528  -0.00035   0.00256  -0.01035  -0.00783   2.07744
   A14        2.09414   0.00024  -0.00119   0.00518   0.00404   2.09818
   A15        2.10357   0.00013  -0.00128   0.00508   0.00385   2.10742
   A16        2.09532  -0.00001   0.00115  -0.00351  -0.00240   2.09292
   A17        2.09813  -0.00022  -0.00005  -0.00133  -0.00137   2.09675
   A18        2.08963   0.00022  -0.00110   0.00465   0.00351   2.09314
   A19        2.10407   0.00310  -0.00351   0.01906   0.01548   2.11954
   A20        2.06148  -0.00196   0.01122  -0.04209  -0.03098   2.03049
   A21        2.11760  -0.00115  -0.00776   0.02283   0.01495   2.13254
   A22        1.74458   0.01443   0.02088  -0.02604  -0.00490   1.73968
   A23        1.77210   0.00433   0.02030  -0.05765  -0.03752   1.73458
   A24        1.89063  -0.00300   0.02112  -0.06843  -0.04733   1.84329
   A25        2.04258  -0.00766  -0.02681   0.05379   0.02724   2.06982
   A26        2.03890  -0.00248  -0.00949   0.02675   0.01767   2.05657
   A27        1.93563  -0.00195  -0.01426   0.03204   0.01717   1.95279
   A28        1.86362  -0.00248   0.00560  -0.02669  -0.02109   1.84253
   A29        1.99712   0.00437   0.01523  -0.04055  -0.02532   1.97180
   A30        1.83853   0.00094   0.00083   0.00017   0.00098   1.83950
   A31        1.89917  -0.00001   0.00627  -0.02081  -0.01454   1.88463
   A32        1.92424   0.00136  -0.00138   0.00951   0.00812   1.93237
   A33        1.93539  -0.00120  -0.00185   0.00099  -0.00087   1.93451
   A34        1.93866  -0.00067  -0.00392   0.01100   0.00705   1.94571
   A35        1.92575  -0.00033   0.00021  -0.00135  -0.00113   1.92462
    D1        3.08182   0.00574   0.03686   0.00858   0.04539   3.12720
    D2       -0.00320   0.00342   0.01248   0.02327   0.03551   0.03231
    D3       -0.03766   0.00660   0.03845   0.02525   0.06394   0.02628
    D4       -3.12268   0.00428   0.01407   0.03994   0.05407  -3.06861
    D5        0.02452  -0.00253  -0.01079  -0.01194  -0.02276   0.00176
    D6       -3.10693  -0.00075  -0.00689   0.01105   0.00371  -3.10322
    D7       -3.13819  -0.00307  -0.01249  -0.02671  -0.03867   3.10632
    D8        0.01354  -0.00129  -0.00859  -0.00372  -0.01219   0.00135
    D9        0.50343   0.00548   0.06932   0.08016   0.14932   0.65276
   D10        2.60565   0.00359   0.05529   0.11024   0.16503   2.77068
   D11       -1.63864   0.00226   0.05865   0.09185   0.15085  -1.48779
   D12       -2.61628   0.00627   0.07089   0.09651   0.16744  -2.44884
   D13       -0.51406   0.00437   0.05685   0.12659   0.18314  -0.33092
   D14        1.52483   0.00305   0.06021   0.10820   0.16897   1.69380
   D15       -2.29436   0.00246   0.03874   0.00824   0.04710  -2.24726
   D16        0.96454   0.00462   0.00997   0.15379   0.16374   1.12828
   D17        0.79232   0.00488   0.06240  -0.00517   0.05724   0.84956
   D18       -2.23196   0.00705   0.03363   0.14037   0.17388  -2.05808
   D19        3.10389  -0.00027   0.00845  -0.02881  -0.02052   3.08337
   D20       -0.02010  -0.00205  -0.00552  -0.02029  -0.02593  -0.04602
   D21        0.01551  -0.00290  -0.01447  -0.01641  -0.03085  -0.01534
   D22       -3.10847  -0.00468  -0.02844  -0.00789  -0.03626   3.13845
   D23       -2.97622   0.00152  -0.03274   0.12181   0.08932  -2.88690
   D24        0.28135   0.00385  -0.06098   0.26462   0.20338   0.48473
   D25        0.02198  -0.00020  -0.00316   0.00573   0.00251   0.02448
   D26       -3.14060   0.00085   0.00498   0.00079   0.00574  -3.13486
   D27       -3.10172  -0.00200  -0.01734   0.01447  -0.00295  -3.10466
   D28        0.01890  -0.00095  -0.00920   0.00953   0.00029   0.01918
   D29        3.12518   0.00039   0.00474  -0.00789  -0.00311   3.12207
   D30       -0.00067   0.00109   0.00492   0.00555   0.01044   0.00977
   D31        0.00468  -0.00066  -0.00345  -0.00292  -0.00636  -0.00168
   D32       -3.12116   0.00004  -0.00327   0.01053   0.00719  -3.11398
   D33       -0.02275   0.00025   0.00213  -0.00261  -0.00025  -0.02300
   D34        3.10837  -0.00159  -0.00168  -0.02673  -0.02855   3.07982
   D35        3.13454   0.00095   0.00229   0.01086   0.01335  -3.13529
   D36       -0.01752  -0.00089  -0.00152  -0.01326  -0.01495  -0.03247
   D37        1.24374   0.00526  -0.00142   0.03881   0.03734   1.28108
   D38       -0.70773  -0.00938  -0.03695   0.10281   0.06589  -0.64184
   D39       -3.10898   0.00781   0.02655  -0.04975  -0.02317  -3.13215
   D40        3.09718  -0.00032  -0.00278   0.00986   0.00707   3.10425
   D41        1.02108   0.00058  -0.00426   0.01905   0.01477   1.03585
   D42       -1.09312   0.00016  -0.00768   0.02807   0.02043  -1.07270
         Item               Value     Threshold  Converged?
 Maximum Force            0.014427     0.000450     NO 
 RMS     Force            0.003940     0.000300     NO 
 Maximum Displacement     0.677222     0.001800     NO 
 RMS     Displacement     0.164946     0.001200     NO 
 Predicted change in Energy=-6.096099D-03
 GradGradGradGradGradGradGradGradGradGradGradGradGradGradGradGradGradGrad

                          Input orientation:                          
 ---------------------------------------------------------------------
 Center     Atomic      Atomic             Coordinates (Angstroms)
 Number     Number       Type             X           Y           Z
 ---------------------------------------------------------------------
      1          6           0       -1.146364    0.618037   -0.794424
      2          6           0       -2.327862    0.397730   -1.523552
      3          6           0       -3.607662   -0.101579   -0.920960
      4          6           0       -2.346268    0.591498   -2.908042
      5          1           0       -3.258871    0.360452   -3.452738
      6          6           0       -1.219972    1.055261   -3.579581
      7          6           0       -0.053241    1.299185   -2.855825
      8          1           0        0.842495    1.645118   -3.369834
      9          6           0       -0.020942    1.067994   -1.482591
     10          1           0        0.884815    1.192620   -0.895979
     11         16           0       -0.931193    0.302185    1.015086
     12          8           0       -1.739993   -0.934151    1.150316
     13          8           0        0.534288    0.193559    1.066912
     14          7           0       -1.444581    1.590399    1.730180
     15          1           0       -2.460225    1.564098    1.645454
     16          8           0       -4.233202   -1.038866   -1.352343
     17          8           0       -4.128545    0.766776   -0.041065
     18          6           0       -5.131331    0.195243    0.768279
     19          1           0       -1.248729    1.208066   -4.656919
     20          1           0       -5.436494    0.987200    1.453982
     21          1           0       -4.688558   -0.641532    1.313375
     22          1           0       -5.971214   -0.151850    0.157278
 ---------------------------------------------------------------------
                    Distance matrix (angstroms):
                    1          2          3          4          5
     1  C    0.000000
     2  C    1.405739   0.000000
     3  C    2.567460   1.500105   0.000000
     4  C    2.430608   1.398105   2.453562   0.000000
     5  H    3.405242   2.142411   2.597119   1.087621   0.000000
     6  C    2.820227   2.426318   3.756009   1.390893   2.157767
     7  C    2.430690   2.785943   4.282494   2.400317   3.393169
     8  H    3.412212   3.875035   5.371390   3.389923   4.298656
     9  C    1.393775   2.402668   3.814170   2.768773   3.855682
    10  H    2.113326   3.368530   4.675247   3.853524   4.939601
    11  S    1.849429   2.899051   3.327880   4.180559   5.038148
    12  O    2.558065   3.044515   2.910593   4.377836   5.017080
    13  O    2.543490   3.865759   4.603748   4.925060   5.902808
    14  N    2.721773   3.576230   3.817100   4.829488   5.627349
    15  H    2.928185   3.379428   3.267656   4.657603   5.298883
    16  O    3.547559   2.392371   1.206606   2.939184   2.705378
    17  O    3.079461   2.361445   1.341482   3.380354   3.544142
    18  C    4.301252   3.626697   2.294166   4.629140   4.620648
    19  H    3.908642   3.411621   4.608376   2.154836   2.491821
    20  H    4.857657   4.344741   3.189109   5.360349   5.404698
    21  H    4.310044   3.834202   2.540106   4.982675   5.075806
    22  H    4.977715   4.049845   2.598365   4.805100   4.544389
                    6          7          8          9         10
     6  C    0.000000
     7  C    1.394483   0.000000
     8  H    2.155388   1.089136   0.000000
     9  C    2.415617   1.392934   2.154131   0.000000
    10  H    3.413315   2.175386   2.515255   1.086297   0.000000
    11  S    4.664920   4.092525   4.917008   2.766480   2.782612
    12  O    5.157529   4.886930   5.809787   3.727724   3.949696
    13  O    5.040819   4.117701   4.678325   2.751887   2.230231
    14  N    5.341384   4.801258   5.589620   3.552683   3.532849
    15  H    5.394268   5.111288   6.005634   3.997610   4.217365
    16  O    4.292494   5.019862   6.085782   4.711577   5.601955
    17  O    4.589566   4.981409   6.046770   4.363615   5.103528
    18  C    5.911197   6.335600   7.410312   5.651920   6.321276
    19  H    1.088501   2.163663   2.494157   3.406382   4.323994
    20  H    6.566616   6.902984   7.945298   6.161023   6.747108
    21  H    6.233074   6.529531   7.599590   5.703205   6.269597
    22  H    6.164051   6.797551   7.880117   6.291497   7.065557
                   11         12         13         14         15
    11  S    0.000000
    12  O    1.483567   0.000000
    13  O    1.470415   2.539890   0.000000
    14  N    1.560263   2.607079   2.511375   0.000000
    15  H    2.080319   2.646723   3.343680   1.019511   0.000000
    16  O    4.278598   3.534170   5.486403   4.918475   4.348064
    17  O    3.399170   3.165078   4.826820   3.319537   2.502671
    18  C    4.208742   3.594810   5.673484   4.057566   3.126981
    19  H    5.752660   6.209220   6.080347   6.401529   6.427627
    20  H    4.578166   4.177071   6.035721   4.046666   3.037705
    21  H    3.885533   2.967533   5.294926   3.959625   3.152864
    22  H    5.132621   4.416034   6.577864   5.099006   4.181650
                   16         17         18         19         20
    16  O    0.000000
    17  O    2.233998   0.000000
    18  C    2.612796   1.409705   0.000000
    19  H    4.987585   5.458405   6.747828   0.000000
    20  H    3.664467   1.998621   1.091104   7.411429   0.000000
    21  H    2.733364   2.032598   1.092415   7.134273   1.797761
    22  H    2.467071   2.068489   1.095080   6.879515   1.806877
                   21         22
    21  H    0.000000
    22  H    1.794869   0.000000
 Stoichiometry    C8H8NO4S(1-)
 Framework group  C1[X(C8H8NO4S)]
 Deg. of freedom    60
 Full point group                 C1      NOp   1
 Largest Abelian subgroup         C1      NOp   1
 Largest concise Abelian subgroup C1      NOp   1
                         Standard orientation:                         
 ---------------------------------------------------------------------
 Center     Atomic      Atomic             Coordinates (Angstroms)
 Number     Number       Type             X           Y           Z
 ---------------------------------------------------------------------
      1          6           0        0.894229    0.129870   -0.026456
      2          6           0        0.201493   -1.091215    0.045446
      3          6           0       -1.281934   -1.207000    0.236111
      4          6           0        0.901006   -2.300644   -0.006131
      5          1           0        0.344097   -3.227988    0.107032
      6          6           0        2.280414   -2.321164   -0.183317
      7          6           0        2.968227   -1.112008   -0.280480
      8          1           0        4.050667   -1.111002   -0.401061
      9          6           0        2.278086    0.094446   -0.188611
     10          1           0        2.786357    1.054387   -0.203282
[...]
 32344126,0.03309804,0.21812051,0.35139357,0.01864676,0.02606190,-0.004
 29358,0.00040283,0.00087355,-0.00085529,0.00453181,-0.00191220,-0.0021
 9102,-0.00027477,-0.00061884,0.00132644,-0.00011982,0.00001666,-0.0002
 6045,0.00114655,0.00051899,-0.00032621,0.00180648,-0.00078965,-0.00181
 273,0.00022418,0.00007785,-0.00085025,-0.00438395,0.00023665,-0.004461
 18,0.00031581,0.00070002,0.00005217,0.03035689,0.03872082,-0.08692619,
 -0.03258660,-0.04501585,0.07004926,-0.01496242,0.00410610,0.00112208,0
 .00199832,0.00195640,-0.00632146,0.00136281,0.00142420,0.00373555,-0.0
 0130994,-0.00095072,0.00090305,0.00002391,-0.00000978,-0.00065371,0.00
 043754,0.00039597,-0.00037070,0.00267211,-0.00004288,-0.00004528,0.000
 20769,0.00019036,-0.00061458,-0.00349925,-0.00265880,-0.00049885,0.001
 78606,0.00217699,-0.00179070,-0.48952747,0.07368141,-0.05838220,-0.023
 27618,0.00376101,-0.00472281,0.54533715,0.00763507,0.00625823,0.000506
 02,-0.00058366,-0.00029874,0.00240051,-0.00034112,-0.00212172,0.001019
 75,0.00104779,0.00004314,-0.00006589,0.00005914,-0.00011136,0.00025026
 ,-0.00016138,-0.00009272,0.00038753,0.00094124,-0.00002369,0.00013987,
 -0.00005572,-0.00006023,0.00004455,-0.00107020,-0.00021438,0.00064344,
 0.00118788,-0.00043405,-0.00000491,0.07477146,-0.09460305,0.01305634,-
 0.03242438,0.00972434,-0.00378447,-0.09449200,0.08832649,-0.03152925,0
 .00775018,-0.00640182,0.00347123,0.00274809,-0.00406962,0.00365812,0.0
 0064610,-0.00374656,-0.00125867,-0.00139163,-0.00235987,-0.00003180,-0
 .00009847,-0.00089236,-0.00137212,-0.00030169,-0.00062295,-0.00078507,
 -0.00075651,0.00100821,0.00019011,0.00023426,-0.00017441,0.00071458,0.
 00204487,-0.00329232,-0.00201948,-0.00022940,-0.00164308,-0.06827840,0
 .01332222,-0.09012633,0.00494041,0.00073376,0.01611352,0.07338161,-0.0
 1155976,0.08005464,0.01058369,0.00346003,0.00105962,-0.00150320,-0.000
 78113,0.00100440,-0.00262589,0.00175941,0.00375273,0.00037850,-0.00009
 202,0.00175688,0.00004661,-0.00011538,0.00034408,0.00128597,0.00040999
 ,0.00011901,0.00012936,0.00012262,-0.00120397,-0.00003932,0.00006720,-
 0.00005070,-0.00104562,-0.00076773,-0.00009225,0.00038242,0.00030475,-
 0.00089025,-0.11931880,0.09190980,0.04673496,0.01152040,-0.02075351,-0
 .00720885,-0.02165300,0.03961122,0.02007328,0.54067671,0.00221238,-0.0
 0116469,-0.00079030,0.00083722,0.00114786,-0.00231935,0.00305222,-0.00
 316913,-0.00099495,-0.00102852,0.00012185,-0.00020654,-0.00004958,-0.0
 0002000,-0.00039768,0.00038828,0.00003570,-0.00014000,0.00033991,0.000
 66245,-0.00095014,0.00014398,0.00009107,-0.00045246,-0.00107309,0.0008
 7697,-0.00269811,0.00002400,-0.00081916,0.00013374,0.04636879,-0.25283
 747,-0.10054612,0.00359384,-0.02940764,-0.02117944,0.00642353,-0.00536
 302,-0.00786209,-0.11021098,0.30965029,0.00990647,-0.02199978,-0.00386
 285,0.00036242,0.00063573,-0.00147143,0.00536916,-0.00038628,-0.003958
 55,-0.00071836,0.00147595,-0.00018827,-0.00015908,0.00002440,-0.000509
 95,-0.00057746,-0.00008178,-0.00126119,0.00040047,0.00188947,0.0011923
 3,0.00028729,0.00011649,-0.00062744,-0.00160136,0.00049888,-0.00495390
 ,0.00038787,-0.00069227,-0.00049516,0.02753564,-0.11172994,-0.12764284
 ,0.00109095,-0.00100348,0.01641853,-0.00424063,0.00110045,0.00853446,-
 0.01617954,0.13891748,0.13130028,0.00141675,-0.00073724,0.00038418,-0.
 00019037,0.00012715,0.00014201,0.00073172,-0.00039341,-0.00063364,-0.0
 0003007,0.00010017,0.00020456,-0.00000822,0.00000241,-0.00001668,0.000
 05841,0.00002271,-0.00012175,0.00005230,0.00011385,0.00002344,0.000018
 16,0.00001250,-0.00004602,-0.00017826,0.00005208,-0.00044140,0.0000624
 7,0.00000006,-0.00012614,-0.02032842,-0.01076005,-0.00859198,0.0021342
 5,-0.00323386,-0.00093882,0.00121484,0.00349891,0.00160634,-0.42030041
 ,0.05086085,-0.01558347,0.43917215,-0.00076164,-0.00124738,-0.00028014
 ,0.00014341,0.00031483,-0.00024467,0.00065398,-0.00087147,-0.00159387,
 -0.00009309,-0.00008764,0.00002863,0.00000987,0.00001771,-0.00001408,0
 .00002427,0.00000646,0.00001013,-0.00014753,0.00002735,0.00007814,-0.0
 0001911,-0.00000887,0.00002630,-0.00017272,0.00018768,0.00021607,0.000
 03399,-0.00016572,-0.00006362,0.04154203,-0.01439405,-0.00178994,-0.00
 386606,0.00446566,0.00108239,0.00497386,-0.00374084,-0.00548198,-0.002
 73384,-0.02328382,-0.00737413,-0.03810755,0.03875911,-0.00289647,-0.00
 010675,-0.00093645,0.00021455,0.00005704,-0.00035493,0.00084390,-0.001
 89772,-0.00213208,-0.00009884,0.00003077,-0.00056541,0.00001131,0.0000
 3967,-0.00005616,-0.00036913,-0.00014150,0.00005732,0.00010020,-0.0001
 9896,0.00034490,-0.00001955,-0.00003944,0.00005211,0.00033164,-0.00009
 335,0.00020131,-0.00004184,0.00008086,0.00021808,0.02007043,-0.0081191
 3,-0.00473299,0.00065033,0.00081314,-0.00225133,0.00180988,-0.00422417
 ,0.00406352,-0.04546944,-0.00222571,-0.01469604,0.02570974,0.01418746,
 0.01888839,-0.00053674,-0.00127563,0.00457309,-0.02093825,-0.04068515,
 -0.00864381,-0.29898006,-0.28479206,-0.09981463,-0.00276924,-0.0015265
 4,-0.00447400,0.00040163,-0.00062646,0.00114250,-0.00084841,0.00138425
 ,0.00066601,-0.00049947,-0.00046514,0.00058658,-0.00000304,-0.00035907
 ,0.00008343,-0.00171784,0.00205180,-0.00033430,-0.00055200,-0.00012933
 ,0.00037725,-0.00019962,-0.00253636,0.00595367,0.00134795,0.00164270,-
 0.00171826,-0.00086950,0.00056104,-0.00147781,0.00059568,-0.00058540,-
 0.00254499,-0.00010298,-0.00008287,0.00028343,0.29555256,-0.00112060,0
 .00004122,0.00531683,-0.03003154,-0.01099433,-0.01111946,-0.29272165,-
 0.47977480,-0.16353096,0.00041456,0.00028896,-0.00475765,0.00077694,-0
 .00043056,0.00093156,-0.00057282,0.00014241,0.00064332,0.00011724,-0.0
 0001039,0.00020396,-0.00003584,-0.00008735,0.00012104,-0.00152174,-0.0
 0012782,-0.00136328,-0.00047922,-0.00027224,0.00037238,0.00189905,-0.0
 0604882,0.00243253,0.00127789,0.00475596,0.00060304,-0.00116985,0.0013
 8598,-0.00055937,-0.00076667,0.00130157,-0.00097611,0.00011509,0.00046
 724,0.00112588,0.33365444,0.55296022,0.00157726,0.00192785,-0.00207607
 ,0.00452936,0.00081462,0.02001918,-0.10169939,-0.16873089,-0.16211072,
 -0.00055665,0.00037202,-0.00315798,0.00045493,-0.00047790,0.00160833,-
 0.00095781,-0.00009789,0.00189904,0.00082908,0.00001719,0.00053907,0.0
 0015152,-0.00003119,0.00010365,0.00114386,0.00029401,0.00084221,0.0002
 6839,-0.00000350,-0.00026277,0.00410821,0.00096671,-0.00433123,-0.0034
 9804,-0.00149350,0.00034542,-0.00116301,-0.00012774,0.00109166,-0.0010
 9807,0.00051487,0.00097476,0.00027978,0.00040023,0.00056249,0.11342892
 ,0.23700408,0.17029957,0.00059371,-0.00010039,0.00088484,-0.01209362,0
 .01592995,0.03463024,-0.12016773,0.01465831,0.06832269,-0.00527784,-0.
 00118632,-0.00159319,0.00017169,0.00081018,0.00020315,-0.00021763,-0.0
 0134768,0.00118043,-0.00009857,-0.00000520,0.00102739,-0.00020865,0.00
 004556,0.00007007,0.00038089,-0.00013832,-0.00090408,-0.00018179,-0.00
 011025,0.00015156,0.00067651,0.00377708,0.00309304,-0.00681116,0.00494
 040,-0.00661103,-0.00158692,-0.00033520,-0.00096973,0.00044512,-0.0022
 0257,-0.00375466,-0.00348420,-0.00028183,-0.00054080,0.03315136,-0.005
 12290,-0.01001753,0.29286616,-0.00107631,-0.00033155,0.00068935,-0.004
 25269,0.01217889,0.00003625,0.00988562,-0.14541390,-0.07401897,0.00006
 126,0.00092423,0.00033404,-0.00005799,-0.00029980,0.00058822,-0.000313
 04,-0.00092429,0.00021641,0.00034946,0.00006628,0.00036420,0.00002865,
 0.00010949,0.00006372,0.00065992,-0.00044501,-0.00050841,0.00004120,0.
 00000326,-0.00004196,0.00097751,-0.00818089,-0.00272582,0.00560795,0.0
 0111520,0.00401248,-0.00048562,0.00156336,0.00074404,-0.00168776,0.002
 75091,0.00007684,-0.00132344,-0.00011631,0.00081709,-0.01055031,-0.059
 79222,-0.06730543,0.06727118,0.31694740,0.00001653,-0.00030486,-0.0031
 8328,0.01924978,-0.01597823,-0.02009062,0.06589057,-0.09340000,-0.1978
 5835,0.00311233,0.00092207,0.00203607,-0.00003065,-0.00105065,0.000402
 13,0.00081628,0.00146681,0.00008776,0.00006751,0.00005341,-0.00129602,
 0.00022942,-0.00010706,0.00003111,0.00017769,0.00046971,0.00205028,0.0
 0039550,0.00019879,-0.00041334,0.00644834,0.00015285,-0.01172437,-0.00
 820368,0.00205598,0.00180441,-0.00143755,0.00009364,0.00289158,-0.0025
 3285,0.00140589,0.00289675,-0.00172692,0.00085524,-0.00007832,-0.00965
 230,-0.07205028,-0.03036489,-0.18749761,0.09948200,0.41379563,0.000411
 39,-0.00017184,-0.00070042,0.00391618,-0.00120744,0.00335458,-0.019639
 55,0.01597074,0.03636486,-0.00069617,0.00041805,0.00068768,0.00001440,
 -0.00013199,0.00003957,0.00018852,0.00008441,0.00029354,0.00017552,0.0
 0009598,-0.00016233,0.00007877,0.00001043,-0.00004923,0.00007644,0.000
 10127,0.00010994,0.00007165,0.00005526,-0.00006997,-0.00316256,-0.0001
 8712,-0.00114456,0.00028985,-0.00155023,0.00206690,0.00092902,-0.00023
 212,0.00035689,0.00014135,0.00065090,0.00131164,0.00002365,-0.00085060
 ,-0.00145562,-0.00807638,-0.01009464,-0.00859804,-0.13854766,-0.047684
 55,0.06176548,0.55137517,-0.00009020,-0.00011564,-0.00012491,0.0003459
 3,-0.00189439,-0.00447263,0.01708481,0.01678041,-0.00785400,0.00119366
 ,0.00043039,-0.00020418,-0.00002231,-0.00011602,0.00003577,-0.00011370
 ,0.00029087,-0.00028312,-0.00000585,-0.00001832,-0.00009326,0.00004059
 ,-0.00000638,0.00000003,0.00005926,0.00004358,0.00025894,0.00003468,0.
 00000580,-0.00004583,0.00039431,0.00315549,-0.00015919,-0.00123259,-0.
 00208200,0.00144513,0.00010489,-0.00072481,0.00008626,0.00023342,-0.00
 105281,-0.00010086,-0.00066957,-0.00009406,-0.00031884,0.00171690,-0.0
 0585362,-0.00498660,-0.06663584,-0.11451062,0.04469013,-0.04169077,0.5
 9738909,0.00018994,0.00007948,-0.00020286,0.00051403,-0.00260604,0.001
 28738,0.03525961,0.00000525,-0.04128848,-0.00018183,-0.00017708,-0.000
 18593,0.00007243,-0.00002537,-0.00019412,-0.00020230,0.00008234,0.0000
 0229,-0.00000122,-0.00004876,0.00028016,-0.00005492,-0.00006471,0.0000
 1194,0.00005220,0.00042604,-0.00035502,-0.00003519,-0.00003799,0.00005
 451,0.00168500,-0.00072631,0.00216922,-0.00097275,0.00170878,-0.002084
 35,-0.00042925,0.00021522,-0.00042252,-0.00009106,-0.00012519,-0.00208
 621,-0.00066785,0.00002007,0.00176838,0.00212324,0.01016349,0.00517470
 ,0.05969509,0.02241556,-0.12806603,0.04763936,0.05239276,0.56924628,-0
 .00139586,-0.00018075,-0.00008545,-0.00371331,-0.00377630,0.00165539,0
 .00116503,0.00005458,0.00089657,0.00470113,-0.00324509,0.02724764,0.00
 040269,0.00150663,-0.00043315,-0.05750152,-0.00702854,0.00045758,0.005
 51810,0.00457913,-0.02657857,0.00048760,0.00121096,0.00082361,-0.00379
 857,-0.00291965,-0.00262246,0.00023579,0.00021390,-0.00116266,-0.00049
 740,0.00011377,0.00013242,0.00027173,0.00014715,0.00001169,0.00023358,
 0.00005109,-0.00014822,0.00007207,0.00003572,0.00004928,0.00000995,-0.
 00001450,-0.00002619,-0.00034349,-0.00015554,-0.00018816,-0.00049763,0
 .00007299,0.00039201,0.00001737,0.00010609,-0.00005493,0.05470102,-0.0
 0027155,-0.00102902,-0.00018512,-0.00353237,0.00572837,0.00176050,0.00
 038654,0.00051311,0.00043558,0.00127940,0.00166880,0.00991501,0.001491
 22,-0.00360640,-0.00072249,-0.00743723,-0.04339240,0.04239174,0.000701
 63,0.00364261,-0.00576307,0.00134700,-0.00351750,-0.00041347,-0.002837
 56,0.00629883,0.00014320,0.00001100,0.00022687,-0.00025528,0.00008161,
 -0.00065971,-0.00042615,-0.00014335,-0.00004256,0.00011370,0.00023638,
 0.00005002,0.00005195,0.00004890,-0.00011612,-0.00024917,-0.00001826,-
 0.00001596,0.00001598,-0.00014591,-0.00019892,0.00000760,-0.00035541,-
 0.00008779,0.00025943,-0.00005070,0.00005661,-0.00004009,0.00925872,0.
 03448903,-0.00007934,-0.00032692,0.00060173,0.00277086,0.00182508,0.00
 099141,-0.00125657,-0.00026933,-0.00012252,-0.00259074,0.00102931,-0.0
 1036365,0.00054729,-0.00050874,0.00064477,0.00044063,0.04267948,-0.336
 78232,0.00347039,0.00319871,-0.01252440,-0.00021667,-0.00072452,0.0006
 8702,-0.00391739,-0.00021980,0.00033695,0.00030619,0.00020151,-0.00062
 749,-0.00013588,-0.00006751,0.00056672,0.00005719,0.00013305,-0.000182
 42,0.00000104,0.00011069,-0.00028293,0.00008287,-0.00018681,-0.0002532
 2,-0.00000625,0.00001994,0.00003599,0.00048171,0.00027976,0.00005056,0
 .00050690,-0.00002604,-0.00042704,-0.00011089,-0.00009965,0.00009935,-
 0.00041666,-0.04707585,0.35760706,0.00002904,-0.00015394,0.00009741,-0
 .00002249,0.00070092,0.00096309,-0.00308772,-0.00568112,-0.00084305,-0
 .00034656,-0.00008016,-0.00003776,0.00000049,0.00003167,-0.00000975,-0
 .00003400,-0.00007416,0.00004303,0.00001049,0.00000474,0.00009299,-0.0
 0000844,0.00000477,-0.00000383,0.00000219,-0.00000089,-0.00014337,-0.0
 0002195,-0.00001436,0.00002568,-0.00015387,0.00106047,0.00104470,-0.00
 012084,-0.00037361,-0.00046658,0.00005016,-0.00022107,-0.00021719,0.00
 027918,-0.00049072,-0.00069184,-0.00036955,-0.00014622,0.00037301,0.00
 196739,0.00128816,-0.00061163,-0.01287232,0.01683988,0.02723304,-0.059
 50541,0.03545106,0.02823609,-0.00003158,-0.00002201,0.00002561,0.06677
 630,0.00002712,0.00006745,0.00005865,-0.00005613,0.00050827,0.00042267
 ,-0.00368878,-0.00252622,0.00141426,-0.00008499,-0.00001929,0.00002521
 ,-0.00000092,0.00000808,0.00003116,0.00002769,-0.00004126,0.00003951,0
 .00000816,-0.00000165,-0.00001246,0.00000509,0.00000681,-0.00000291,0.
 00000052,-0.00003374,-0.00000417,0.00000142,0.00000217,-0.00000133,-0.
 00015137,-0.00072769,-0.00025594,0.00054462,0.00050531,0.00019098,0.00
 015838,0.00012733,0.00003773,-0.00016623,0.00016238,0.00036716,0.00020
 695,0.00017949,-0.00027348,0.00148940,0.00136768,-0.00092149,-0.006924
 21,0.01277869,0.01689051,0.04290551,-0.19685123,-0.14058664,-0.0000044
 4,-0.00000164,-0.00000180,-0.03867324,0.20366297,-0.00001283,0.0000325
 0,-0.00011000,0.00012272,-0.00067393,-0.00064246,0.00189664,0.00393010
 ,0.00033588,0.00028507,0.00009468,0.00003379,-0.00000782,-0.00005055,0
 .00001714,0.00001175,0.00008711,-0.00002831,0.00002756,0.00001056,-0.0
 0006039,0.00002077,-0.00000514,-0.00000526,0.00001998,0.00003217,0.000
 08184,0.00002551,0.00001147,-0.00002105,-0.00009490,-0.00017139,-0.000
 61098,0.00005973,-0.00016152,0.00019242,0.00001411,0.00001711,0.000147
 20,-0.00007766,0.00024666,0.00025953,0.00028841,-0.00012680,-0.0000129
 6,0.00009515,-0.00071572,0.00015156,0.01155419,-0.01371482,-0.02292704
 ,0.03263905,-0.13037797,-0.17501100,0.00003128,0.00001442,-0.00003731,
 -0.04736547,0.14423512,0.19526164,0.00016522,0.00040907,0.00027610,-0.
 00058841,0.00041450,-0.00071078,0.00202021,-0.00471116,-0.00193310,0.0
 0000107,-0.00003793,-0.00013655,-0.00000284,0.00002915,-0.00004161,-0.
 00005853,-0.00000596,-0.00010873,0.00000210,-0.00003321,0.00007180,0.0
 0000093,0.00000173,-0.00002773,-0.00006461,-0.00001381,-0.00030020,-0.
 00004546,-0.00001950,0.00005841,-0.00195271,-0.00350031,0.00141611,0.0
 0155927,0.00215257,-0.00046185,0.00075180,0.00056226,-0.00028443,0.000
 13816,0.00085053,-0.00033869,0.00014559,-0.00023730,0.00018055,0.00040
 862,0.00089078,0.00095834,0.00286966,-0.02491513,0.02234674,-0.1018258
 9,0.10316917,-0.05641183,-0.00001410,-0.00000219,0.00000601,-0.0013611
 4,0.00233746,-0.00258349,0.10661071,-0.00000810,0.00007265,0.00011281,
 -0.00022507,0.00003631,0.00003504,0.00145285,-0.00151454,-0.00422768,-
 0.00000753,-0.00000338,-0.00011845,-0.00000185,0.00001957,-0.00002649,
 -0.00005572,-0.00004317,-0.00005271,-0.00000047,-0.00000737,0.00007457
 ,-0.00000657,0.00000415,-0.00000359,0.00000782,-0.00000854,-0.00009152
 ,-0.00000855,-0.00000667,0.00002328,-0.00058510,-0.00040848,0.00064732
 ,0.00116327,-0.00016279,-0.00079483,0.00015391,0.00009103,-0.00011187,
 0.00020298,0.00014172,-0.00043306,-0.00000127,-0.00035455,0.00032559,0
 .00051653,0.00092173,0.00149932,-0.00450257,-0.01222403,0.01520600,0.0
 9452355,-0.22691900,0.09014009,-0.00000884,-0.00000144,0.00001071,0.00
 950757,-0.01503555,0.00902635,-0.09845017,0.24564643,0.00004116,-0.000
 06626,-0.00018642,0.00044504,-0.00038245,0.00033740,-0.00068105,0.0079
 6827,0.00316366,-0.00008099,0.00001564,0.00014412,-0.00000732,0.000000
 17,-0.00000957,0.00005844,0.00001023,0.00002892,0.00000263,0.00003131,
 -0.00003598,0.00000760,-0.00000874,-0.00000445,-0.00000795,0.00003362,
 0.00004103,0.00001234,0.00000939,-0.00001277,0.00004836,0.00079141,-0.
 00020991,-0.00074711,-0.00066577,-0.00028601,-0.00012937,-0.00016748,0
 .00003250,0.00008174,-0.00012234,-0.00005831,0.00009677,-0.00009475,-0
 .00001623,-0.00154993,-0.00262370,0.00049024,0.00301835,0.02099651,-0.
 02047456,-0.04975768,0.08575876,-0.09892950,0.00000206,-0.00000239,-0.
 00000950,0.00980575,-0.01882193,0.01256224,0.04740708,-0.10576949,0.10
 915651,0.00005730,-0.00002561,-0.00006789,0.00027286,0.00029459,0.0007
 7106,-0.00035715,-0.00728030,-0.00656655,-0.00019394,0.00003766,-0.000
 12676,0.00001505,0.00001045,0.00003710,-0.00003797,-0.00007420,0.00010
 868,0.00002145,0.00001604,0.00006184,-0.00001600,-0.00000431,0.0000181
 9,0.00006300,0.00001411,-0.00003094,-0.00000237,-0.00000906,-0.0000067
 9,0.00098339,0.00026156,0.00012333,-0.00067320,-0.00004296,-0.00001658
 ,-0.00032030,-0.00001026,-0.00002041,-0.00018900,-0.00014131,-0.000311
 09,-0.00004777,0.00013346,0.00033889,0.00301183,0.00335887,0.00065869,
 -0.02910937,-0.00944878,0.00294035,-0.22625566,-0.04947394,-0.11636387
 ,-0.00002257,-0.00002584,0.00003369,0.00882063,0.00203800,0.00305024,-
 0.00875962,-0.00366666,-0.00806592,0.25273942,-0.00003162,0.00004812,0
 .00007892,-0.00010241,0.00009245,0.00004877,0.00164356,-0.00048379,-0.
 00212366,-0.00006995,-0.00003020,-0.00010992,0.00000793,0.00002605,-0.
 00000715,-0.00006283,-0.00004552,0.00002583,0.00002262,-0.00001162,0.0
 0007525,-0.00000835,-0.00000116,0.00000136,0.00000473,0.00003481,-0.00
 013238,-0.00001661,-0.00000743,0.00001962,-0.00017508,-0.00111275,0.00
 029120,0.00087665,0.00064875,-0.00055888,0.00006629,0.00021871,-0.0000
 4668,-0.00005508,0.00029109,-0.00007600,0.00013192,-0.00004485,0.00014
 557,0.00074316,-0.00004192,0.00035762,-0.01818396,-0.00611131,-0.00131
 136,-0.05096411,-0.06791334,-0.03321089,-0.00001707,-0.00000478,0.0000
 1871,-0.01895774,-0.00413836,-0.01174041,0.02110946,0.00975592,0.01310
 997,0.06403850,0.06883112,-0.00020873,-0.00005075,0.00013292,-0.000556
 07,0.00032666,-0.00091832,0.00104247,0.00237068,0.00244919,0.00024491,
 -0.00001687,0.00000817,-0.00000498,-0.00000665,-0.00000210,0.00000275,
 0.00000753,-0.00005147,-0.00001433,-0.00001190,-0.00004058,-0.00000306
 ,0.00000127,0.00000890,-0.00001588,-0.00003270,0.00007671,0.00000484,0
 .00000127,-0.00001529,0.00029012,0.00042096,-0.00063672,-0.00057013,-0
 .00039944,0.00047883,-0.00016723,-0.00005098,0.00009747,-0.00011494,-0
 .00002142,0.00048872,0.00016567,0.00013939,-0.00035961,0.00041506,-0.0
 0150132,-0.00184878,0.02755068,0.00750474,0.01090813,-0.12458074,-0.03
 554675,-0.13126819,0.00001695,0.00002397,-0.00000876,-0.01754993,-0.00
 283081,-0.00957650,-0.00938219,-0.00547137,-0.00572345,0.12343474,0.03
 514451,0.13580069\\0.00002110,0.00000634,0.00001378,0.00000237,0.00001
 051,-0.00001367,-0.00003177,-0.00007629,-0.00002636,-0.00001030,-0.000
 00331,0.00002487,-0.00000184,-0.00000179,-0.00000259,0.00001007,0.0000
 0438,-0.00000445,0.00000027,-0.00000065,-0.00000842,-0.00000332,0.0000
 0024,-0.00000470,-0.00001740,-0.00000403,0.00000178,0.00000171,-0.0000
 0099,0.00000163,0.00004507,0.00004868,-0.00000909,-0.00002699,-0.00004
 627,0.00001160,-0.00001792,0.00000764,-0.00000436,0.00000554,-0.000006
 91,-0.00000849,0.00000418,-0.00000042,-0.00000418,0.00001268,0.0000373
 7,0.00002245,0.00002267,0.00004943,-0.00000498,-0.00003364,-0.00004242
 ,0.00003225,-0.00000142,-0.00000430,-0.00000218,0.00000409,0.00000683,
 -0.00000500,0.00000895,0.00000938,-0.00000688,0.00000589,0.00000657,-0
 .00000299\\\@
 The archive entry for this job was punched.


 NO HUMAN INVESTIGATION CAN BECOME REAL SCIENCE
 WITHOUT GOING THROUGH MATHEMATICAL PEOPLE.
 -- LEONARDO DA VINCI, IN "PENSIERI" CA. 1492
 Job cpu time:       0 days  1 hours 23 minutes  0.5 seconds.
 Elapsed time:       0 days  0 hours  5 minutes 12.8 seconds.
 File lengths (MBytes):  RWF=    207 Int=      0 D2E=      0 Chk=      9 Scr=      1
 Normal termination of Gaussian 16 at Sun May 22 15:58:16 2022.
