 Entering Gaussian System, Link 0=g16
 AtFile(1): /home/561/yj5695/Basis/6-31pGd.gbs
 Initial command:
 /apps/gaussian/g16c01/g16/l1.exe "/jobfs/40766132.gadi-pbs/Gau-2077758.inp" -scrdir="/jobfs/40766132.gadi-pbs/"
 Entering Link 1 = /apps/gaussian/g16c01/g16/l1.exe PID=   2077767.
  
 Copyright (c) 1988-2019, Gaussian, Inc.  All Rights Reserved.
  
 This is part of the Gaussian(R) 16 program.  It is based on
 the Gaussian(R) 09 system (copyright 2009, Gaussian, Inc.),
 the Gaussian(R) 03 system (copyright 2003, Gaussian, Inc.),
 the Gaussian(R) 98 system (copyright 1998, Gaussian, Inc.),
 the Gaussian(R) 94 system (copyright 1995, Gaussian, Inc.),
 the Gaussian 92(TM) system (copyright 1992, Gaussian, Inc.),
 the Gaussian 90(TM) system (copyright 1990, Gaussian, Inc.),
 the Gaussian 88(TM) system (copyright 1988, Gaussian, Inc.),
 the Gaussian 86(TM) system (copyright 1986, Carnegie Mellon
 University), and the Gaussian 82(TM) system (copyright 1983,
 Carnegie Mellon University). Gaussian is a federally registered
 trademark of Gaussian, Inc.
  
 This software contains proprietary and confidential information,
 including trade secrets, belonging to Gaussian, Inc.
  
 This software is provided under written license and may be
 used, copied, transmitted, or stored only in accord with that
 written license.
  
 The following legend is applicable only to US Government
 contracts under FAR:
  
                    RESTRICTED RIGHTS LEGEND
  
 Use, reproduction and disclosure by the US Government is
 subject to restrictions as set forth in subparagraphs (a)
 and (c) of the Commercial Computer Software - Restricted
 Rights clause in FAR 52.227-19.
  
 Gaussian, Inc.
 340 Quinnipiac St., Bldg. 40, Wallingford CT 06492
  
  
 ---------------------------------------------------------------
 Warning -- This program may not be used in any manner that
 competes with the business of Gaussian, Inc. or will provide
 assistance to any competitor of Gaussian, Inc.  The licensee
 of this program is prohibited from giving any competitor of
 Gaussian, Inc. access to this program.  By using this program,
 the user acknowledges that Gaussian, Inc. is engaged in the
 business of creating and licensing software in the field of
 computational chemistry and represents and warrants to the
 licensee that it is not a competitor of Gaussian, Inc. and that
 it will not use this program in any manner prohibited above.
 ---------------------------------------------------------------
  

 Cite this work as:
 Gaussian 16, Revision C.01,
 M. J. Frisch, G. W. Trucks, H. B. Schlegel, G. E. Scuseria, 
 M. A. Robb, J. R. Cheeseman, G. Scalmani, V. Barone, 
 G. A. Petersson, H. Nakatsuji, X. Li, M. Caricato, A. V. Marenich, 
 J. Bloino, B. G. Janesko, R. Gomperts, B. Mennucci, H. P. Hratchian, 
 J. V. Ortiz, A. F. Izmaylov, J. L. Sonnenberg, D. Williams-Young, 
 F. Ding, F. Lipparini, F. Egidi, J. Goings, B. Peng, A. Petrone, 
 T. Henderson, D. Ranasinghe, V. G. Zakrzewski, J. Gao, N. Rega, 
 G. Zheng, W. Liang, M. Hada, M. Ehara, K. Toyota, R. Fukuda, 
 J. Hasegawa, M. Ishida, T. Nakajima, Y. Honda, O. Kitao, H. Nakai, 
 T. Vreven, K. Throssell, J. A. Montgomery, Jr., J. E. Peralta, 
 F. Ogliaro, M. J. Bearpark, J. J. Heyd, E. N. Brothers, K. N. Kudin, 
 V. N. Staroverov, T. A. Keith, R. Kobayashi, J. Normand, 
 K. Raghavachari, A. P. Rendell, J. C. Burant, S. S. Iyengar, 
 J. Tomasi, M. Cossi, J. M. Millam, M. Klene, C. Adamo, R. Cammi, 
 J. W. Ochterski, R. L. Martin, K. Morokuma, O. Farkas, 
 J. B. Foresman, and D. J. Fox, Gaussian, Inc., Wallingford CT, 2019.
 
 ******************************************
 Gaussian 16:  ES64L-G16RevC.01  3-Jul-2019
                20-May-2022 
 ******************************************
 %nproc=16
 Will use up to   16 processors via shared memory.
 %mem=20gb
 --------------------------------------------------
 #M062X/gen 6D INT(grid=ultrafine) OPT Freq=noraman
 --------------------------------------------------
 1/18=20,19=15,26=4,38=1/1,3;
 2/9=110,12=2,17=6,18=5,40=1/2;
 3/5=7,8=2,11=2,25=1,30=1,71=1,74=-55,75=-5/1,2,3;
 4//1;
 5/5=2,38=5/2;
 6/7=2,8=2,9=2,10=2,28=1/1;
 7//1,2,3,16;
 1/18=20,19=15,26=4/3(2);
 2/9=110/2;
 99//99;
 2/9=110/2;
 3/5=7,6=1,8=2,11=2,25=1,30=1,71=1,74=-55,75=-5,82=7/1,2,3;
 4/5=5,16=3,69=1/1;
 5/5=2,38=5/2;
 7//1,2,3,16;
 1/18=20,19=15,26=4/3(-5);
 2/9=110/2;
 6/7=2,8=2,9=2,10=2,19=2,28=1/1;
 99/9=1/99;
 ------------
 A.16.a2.freq
 ------------
 Symbolic Z-matrix:
 Charge = -1 Multiplicity = 1
 C                    -1.20637   0.60769  -0.63202 
 S                    -1.70074   0.36693   1.14182 
 O                    -1.78397  -1.11169   1.19866 
 O                    -0.55221   0.97486   1.84357 
 N                    -3.00123   1.16099   1.38166 
 H                    -3.79553   0.60637   1.05347 
 F                    -2.17142   0.15993  -1.44572 
 F                    -0.07996  -0.05145  -0.92713 
 F                    -1.00768   1.902    -0.90301 
 

 GradGradGradGradGradGradGradGradGradGradGradGradGradGradGradGradGradGrad
 Berny optimization.
 Initialization pass.
                           ----------------------------
                           !    Initial Parameters    !
                           ! (Angstroms and Degrees)  !
 --------------------------                            --------------------------
 ! Name  Definition              Value          Derivative Info.                !
 --------------------------------------------------------------------------------
 ! R1    R(1,2)                  1.8571         estimate D2E/DX2                !
 ! R2    R(1,7)                  1.3394         estimate D2E/DX2                !
 ! R3    R(1,8)                  1.338          estimate D2E/DX2                !
 ! R4    R(1,9)                  1.3372         estimate D2E/DX2                !
 ! R5    R(2,3)                  1.4821         estimate D2E/DX2                !
 ! R6    R(2,4)                  1.4769         estimate D2E/DX2                !
 ! R7    R(2,5)                  1.5425         estimate D2E/DX2                !
 ! R8    R(5,6)                  1.0229         estimate D2E/DX2                !
 ! A1    A(2,1,7)              110.1906         estimate D2E/DX2                !
 ! A2    A(2,1,8)              111.7712         estimate D2E/DX2                !
 ! A3    A(2,1,9)              111.0144         estimate D2E/DX2                !
 ! A4    A(7,1,8)              107.9313         estimate D2E/DX2                !
 ! A5    A(7,1,9)              107.9098         estimate D2E/DX2                !
 ! A6    A(8,1,9)              107.8802         estimate D2E/DX2                !
 ! A7    A(1,2,3)              100.4233         estimate D2E/DX2                !
 ! A8    A(1,2,4)              101.1553         estimate D2E/DX2                !
 ! A9    A(1,2,5)              107.8311         estimate D2E/DX2                !
 ! A10   A(3,2,4)              115.8572         estimate D2E/DX2                !
 ! A11   A(3,2,5)              117.4053         estimate D2E/DX2                !
 ! A12   A(4,2,5)              111.7083         estimate D2E/DX2                !
 ! A13   A(2,5,6)              109.0081         estimate D2E/DX2                !
 ! D1    D(7,1,2,3)             63.4116         estimate D2E/DX2                !
 ! D2    D(7,1,2,4)           -177.3619         estimate D2E/DX2                !
 ! D3    D(7,1,2,5)            -60.0097         estimate D2E/DX2                !
 ! D4    D(8,1,2,3)            -56.5951         estimate D2E/DX2                !
 ! D5    D(8,1,2,4)             62.6314         estimate D2E/DX2                !
 ! D6    D(8,1,2,5)            179.9836         estimate D2E/DX2                !
 ! D7    D(9,1,2,3)           -177.0986         estimate D2E/DX2                !
 ! D8    D(9,1,2,4)            -57.8721         estimate D2E/DX2                !
 ! D9    D(9,1,2,5)             59.4801         estimate D2E/DX2                !
 ! D10   D(1,2,5,6)             81.7474         estimate D2E/DX2                !
 ! D11   D(3,2,5,6)            -30.6387         estimate D2E/DX2                !
 ! D12   D(4,2,5,6)           -167.9606         estimate D2E/DX2                !
 --------------------------------------------------------------------------------
 Trust Radius=3.00D-01 FncErr=1.00D-07 GrdErr=1.00D-06 EigMax=2.50D+02 EigMin=1.00D-04
 Number of steps in this run=     43 maximum allowed number of steps=    100.
 GradGradGradGradGradGradGradGradGradGradGradGradGradGradGradGradGradGrad

                          Input orientation:                          
 ---------------------------------------------------------------------
 Center     Atomic      Atomic             Coordinates (Angstroms)
 Number     Number       Type             X           Y           Z
 ---------------------------------------------------------------------
      1          6           0       -1.206373    0.607691   -0.632017
      2         16           0       -1.700740    0.366933    1.141824
      3          8           0       -1.783969   -1.111693    1.198660
      4          8           0       -0.552212    0.974859    1.843570
      5          7           0       -3.001225    1.160985    1.381659
      6          1           0       -3.795528    0.606371    1.053467
      7          9           0       -2.171416    0.159928   -1.445725
      8          9           0       -0.079962   -0.051453   -0.927131
      9          9           0       -1.007683    1.901996   -0.903010
 ---------------------------------------------------------------------
                    Distance matrix (angstroms):
                    1          2          3          4          5
     1  C    0.000000
     2  S    1.857114   0.000000
     3  O    2.577067   1.482058   0.000000
     4  O    2.586749   1.476867   2.507356   0.000000
     5  N    2.753637   1.542499   2.584622   2.499134   0.000000
     6  H    3.089430   2.110278   2.649376   3.358443   1.022851
     7  F    1.339372   2.638142   2.959714   3.755715   3.112041
     8  F    1.338046   2.661304   2.923480   2.992177   3.915903
     9  F    1.337214   2.649168   3.755258   2.934406   3.121381
                    6          7          8          9
     6  H    0.000000
     7  F    3.013803   0.000000
     8  F    4.261564   2.165133   0.000000
     9  F    3.643971   2.164165   2.162686   0.000000
 Stoichiometry    CHF3NO2S(1-)
 Framework group  C1[X(CHF3NO2S)]
 Deg. of freedom    21
 Full point group                 C1      NOp   1
 Largest Abelian subgroup         C1      NOp   1
 Largest concise Abelian subgroup C1      NOp   1
                         Standard orientation:                         
 ---------------------------------------------------------------------
 Center     Atomic      Atomic             Coordinates (Angstroms)
 Number     Number       Type             X           Y           Z
 ---------------------------------------------------------------------
      1          6           0       -0.951773    0.030303   -0.016518
      2         16           0        0.903495   -0.047890    0.010613
      3          8           0        1.145229   -0.175178    1.467272
      4          8           0        1.150030   -1.262990   -0.791816
      5          7           0        1.439864    1.217200   -0.690214
      6          1           0        1.432749    1.994622   -0.025542
      7          9           0       -1.377812    1.124553    0.627707
      8          9           0       -1.502153   -1.036359    0.574818
      9          9           0       -1.411051    0.086778   -1.271116
 ---------------------------------------------------------------------
 Rotational constants (GHZ):           2.6469247           1.5688563           1.5674585
 General basis read from cards:  (6D, 7F)
 There are   158 symmetry adapted cartesian basis functions of A   symmetry.
 There are   158 symmetry adapted basis functions of A   symmetry.
   158 basis functions,   284 primitive gaussians,   158 cartesian basis functions
    37 alpha electrons       37 beta electrons
       nuclear repulsion energy       549.0332572452 Hartrees.
 NAtoms=    9 NActive=    9 NUniq=    9 SFac= 1.00D+00 NAtFMM=   60 NAOKFM=F Big=F
 Integral buffers will be    131072 words long.
 Raffenetti 2 integral format.
 Two-electron integral symmetry is turned on.
 One-electron integrals computed using PRISM.
 NBasis=   158 RedAO= T EigKep=  2.88D-04  NBF=   158
 NBsUse=   158 1.00D-06 EigRej= -1.00D+00 NBFU=   158
 ExpMin= 4.05D-02 ExpMax= 2.19D+04 ExpMxC= 3.30D+03 IAcc=3 IRadAn=         5 AccDes= 0.00D+00
 Harris functional with IExCor= 1009 and IRadAn=       5 diagonalized for initial guess.
 HarFok:  IExCor= 1009 AccDes= 0.00D+00 IRadAn=         5 IDoV= 1 UseB2=F ITyADJ=14
 ICtDFT=  3500011 ScaDFX=  1.000000  1.000000  1.000000  1.000000
 FoFCou: FMM=F IPFlag=           0 FMFlag=      100000 FMFlg1=           0
         NFxFlg=           0 DoJE=T BraDBF=F KetDBF=T FulRan=T
         wScrn=  0.000000 ICntrl=       500 IOpCl=  0 I1Cent=   200000004 NGrid=           0
         NMat0=    1 NMatS0=      1 NMatT0=    0 NMatD0=    1 NMtDS0=    0 NMtDT0=    0
 Petite list used in FoFCou.
 Keep R1 ints in memory in canonical form, NReq=94662320.
 Requested convergence on RMS density matrix=1.00D-08 within 128 cycles.
 Requested convergence on MAX density matrix=1.00D-06.
 Requested convergence on             energy=1.00D-06.
 No special actions if energy rises.
 SCF Done:  E(RM062X) =  -941.410262946     A.U. after   13 cycles
            NFock= 13  Conv=0.62D-08     -V/T= 2.0058

 **********************************************************************

            Population analysis using the SCF Density.

 **********************************************************************

 Orbital symmetries:
       Occupied  (A) (A) (A) (A) (A) (A) (A) (A) (A) (A) (A) (A)
                 (A) (A) (A) (A) (A) (A) (A) (A) (A) (A) (A) (A)
                 (A) (A) (A) (A) (A) (A) (A) (A) (A) (A) (A) (A)
                 (A)
       Virtual   (A) (A) (A) (A) (A) (A) (A) (A) (A) (A) (A) (A)
                 (A) (A) (A) (A) (A) (A) (A) (A) (A) (A) (A) (A)
                 (A) (A) (A) (A) (A) (A) (A) (A) (A) (A) (A) (A)
                 (A) (A) (A) (A) (A) (A) (A) (A) (A) (A) (A) (A)
                 (A) (A) (A) (A) (A) (A) (A) (A) (A) (A) (A) (A)
                 (A) (A) (A) (A) (A) (A) (A) (A) (A) (A) (A) (A)
                 (A) (A) (A) (A) (A) (A) (A) (A) (A) (A) (A) (A)
                 (A) (A) (A) (A) (A) (A) (A) (A) (A) (A) (A) (A)
                 (A) (A) (A) (A) (A) (A) (A) (A) (A) (A) (A) (A)
                 (A) (A) (A) (A) (A) (A) (A) (A) (A) (A) (A) (A)
                 (A)
 The electronic state is 1-A.
 Alpha  occ. eigenvalues --  -89.97875 -25.16788 -25.16368 -25.16336 -19.46110
 Alpha  occ. eigenvalues --  -19.45745 -14.56969 -10.65595  -8.28773  -6.20972
 Alpha  occ. eigenvalues --   -6.20954  -6.20862  -1.33058  -1.23986  -1.23678
 Alpha  occ. eigenvalues --   -1.05155  -0.93379  -0.81533  -0.68753  -0.58358
 Alpha  occ. eigenvalues --   -0.55395  -0.55243  -0.48603  -0.43620  -0.43553
 Alpha  occ. eigenvalues --   -0.40481  -0.39707  -0.39104  -0.37542  -0.37472
 Alpha  occ. eigenvalues --   -0.35440  -0.26077  -0.22869  -0.21258  -0.19597
 Alpha  occ. eigenvalues --   -0.16919  -0.15280
 Alpha virt. eigenvalues --    0.14265   0.16285   0.17769   0.17902   0.19734
 Alpha virt. eigenvalues --    0.20147   0.20692   0.25330   0.27492   0.27634
 Alpha virt. eigenvalues --    0.29330   0.30997   0.32140   0.34012   0.34769
 Alpha virt. eigenvalues --    0.36362   0.38142   0.40064   0.40235   0.41101
 Alpha virt. eigenvalues --    0.41531   0.42187   0.43076   0.43849   0.44769
 Alpha virt. eigenvalues --    0.45995   0.46591   0.47463   0.47954   0.48554
 Alpha virt. eigenvalues --    0.48833   0.50068   0.50233   0.51677   0.52527
 Alpha virt. eigenvalues --    0.53775   0.56361   0.60495   0.61471   0.62500
 Alpha virt. eigenvalues --    0.74532   0.79317   0.81530   0.82358   0.87148
 Alpha virt. eigenvalues --    0.92634   1.01714   1.08156   1.09249   1.15081
 Alpha virt. eigenvalues --    1.17836   1.23272   1.23808   1.31411   1.34902
 Alpha virt. eigenvalues --    1.37551   1.44438   1.45011   1.47689   1.49341
 Alpha virt. eigenvalues --    1.50176   1.53523   1.55480   1.58098   1.61999
 Alpha virt. eigenvalues --    1.62796   1.72256   1.75662   1.79543   1.79675
 Alpha virt. eigenvalues --    1.81232   1.83325   1.83839   1.85541   1.87165
 Alpha virt. eigenvalues --    1.87256   1.95275   1.95896   1.97846   2.00628
 Alpha virt. eigenvalues --    2.00722   2.01978   2.02392   2.03695   2.06070
 Alpha virt. eigenvalues --    2.07348   2.09316   2.11391   2.14042   2.15900
 Alpha virt. eigenvalues --    2.19271   2.20606   2.24492   2.25495   2.26192
 Alpha virt. eigenvalues --    2.32400   2.36823   2.37662   2.43401   2.48690
 Alpha virt. eigenvalues --    2.51146   2.52672   2.54383   2.63416   2.81627
 Alpha virt. eigenvalues --    2.91242   2.95432   2.96461   3.07519   3.11307
 Alpha virt. eigenvalues --    3.37938   3.40418   3.40698   4.16335   4.24056
 Alpha virt. eigenvalues --    4.34563   4.39731   4.69368   5.73625   5.76025
 Alpha virt. eigenvalues --    6.43240
          Condensed to atoms (all electrons):
               1          2          3          4          5          6
     1  C    5.101731   0.141132  -0.067700  -0.173825  -0.055522  -0.028454
     2  S    0.141132  14.283096   0.138819   0.308421   0.090962   0.093488
     3  O   -0.067700   0.138819   8.950589  -0.169476  -0.191412  -0.016778
     4  O   -0.173825   0.308421  -0.169476   8.887177  -0.226676   0.017498
     5  N   -0.055522   0.090962  -0.191412  -0.226676   8.067942   0.160608
     6  H   -0.028454   0.093488  -0.016778   0.017498   0.160608   0.429227
     7  F    0.093276  -0.034285   0.009975   0.012041   0.009017  -0.000110
     8  F    0.138931  -0.046304  -0.003929   0.004399   0.016910  -0.000269
     9  F    0.147698  -0.058831   0.013676   0.005888  -0.014680  -0.000620
               7          8          9
     1  C    0.093276   0.138931   0.147698
     2  S   -0.034285  -0.046304  -0.058831
     3  O    0.009975  -0.003929   0.013676
     4  O    0.012041   0.004399   0.005888
     5  N    0.009017   0.016910  -0.014680
     6  H   -0.000110  -0.000269  -0.000620
     7  F    9.323142  -0.041456  -0.042873
     8  F   -0.041456   9.303578  -0.057606
     9  F   -0.042873  -0.057606   9.309649
 Mulliken charges:
               1
     1  C    0.702733
     2  S    1.083502
     3  O   -0.663766
     4  O   -0.665447
     5  N   -0.857149
     6  H    0.345409
     7  F   -0.328728
     8  F   -0.314254
     9  F   -0.302301
 Sum of Mulliken charges =  -1.00000
 Mulliken charges with hydrogens summed into heavy atoms:
               1
     1  C    0.702733
     2  S    1.083502
     3  O   -0.663766
     4  O   -0.665447
     5  N   -0.511739
     7  F   -0.328728
     8  F   -0.314254
     9  F   -0.302301
 Electronic spatial extent (au):  <R**2>=            876.5891
 Charge=             -1.0000 electrons
 Dipole moment (field-independent basis, Debye):
    X=             -4.2816    Y=              1.6265    Z=              0.8708  Tot=              4.6621
 Quadrupole moment (field-independent basis, Debye-Ang):
   XX=            -64.4089   YY=            -58.1429   ZZ=            -64.1451
   XY=              1.6612   XZ=              1.9430   YZ=              1.7141
 Traceless Quadrupole moment (field-independent basis, Debye-Ang):
   XX=             -2.1766   YY=              4.0894   ZZ=             -1.9128
   XY=              1.6612   XZ=              1.9430   YZ=              1.7141
 Octapole moment (field-independent basis, Debye-Ang**2):
  XXX=            -35.7702  YYY=              6.2099  ZZZ=             -0.9000  XYY=            -10.9007
  XXY=             -1.1616  XXZ=              5.0074  XZZ=            -19.2028  YZZ=             -2.1395
  YYZ=              8.0523  XYZ=              3.0145
 Hexadecapole moment (field-independent basis, Debye-Ang**3):
 XXXX=           -546.9549 YYYY=           -248.8663 ZZZZ=           -264.1336 XXXY=            -11.3335
 XXXZ=             13.6289 YYYX=              7.6466 YYYZ=              6.8667 ZZZX=             -0.9817
 ZZZY=              8.2426 XXYY=           -138.8889 XXZZ=           -147.4237 YYZZ=            -92.0892
 XXYZ=              7.1485 YYXZ=             13.5382 ZZXY=             -3.8318
 N-N= 5.490332572452D+02 E-N=-3.341766114163D+03  KE= 9.360045559851D+02
 Calling FoFJK, ICntrl=      2127 FMM=F ISym2X=0 I1Cent= 0 IOpClX= 0 NMat=1 NMatS=1 NMatT=0.
 ***** Axes restored to original set *****
 -------------------------------------------------------------------
 Center     Atomic                   Forces (Hartrees/Bohr)
 Number     Number              X              Y              Z
 -------------------------------------------------------------------
      1        6          -0.000649162    0.000094719    0.013543300
      2       16           0.014511272   -0.006802385    0.016799601
      3        8          -0.002889962    0.003781933   -0.003703483
      4        8          -0.006484962   -0.001689471   -0.006381734
      5        7          -0.008324581    0.004383978   -0.002746898
      6        1           0.003044125   -0.001019333    0.000626264
      7        9          -0.002996939   -0.001101226   -0.007922765
      8        9           0.002501045   -0.000624096   -0.004760910
      9        9           0.001289163    0.002975882   -0.005453375
 -------------------------------------------------------------------
 Cartesian Forces:  Max     0.016799601 RMS     0.006366078

 GradGradGradGradGradGradGradGradGradGradGradGradGradGradGradGradGradGrad
 Berny optimization.
 FormGI is forming the generalized inverse of G from B-inverse, IUseBI=4.
 Internal  Forces:  Max     0.008768224 RMS     0.003999912
 Search for a local minimum.
 Step number   1 out of a maximum of   43
 All quantities printed in internal units (Hartrees-Bohrs-Radians)
 Mixed Optimization -- RFO/linear search
 Second derivative matrix not updated -- first step.
 ITU=  0
     Eigenvalues ---    0.00230   0.03380   0.08279   0.08524   0.09258
     Eigenvalues ---    0.10467   0.15540   0.16000   0.20932   0.22089
     Eigenvalues ---    0.25000   0.25000   0.25000   0.25000   0.43886
     Eigenvalues ---    0.57346   0.57645   0.57834   0.64164   0.82939
     Eigenvalues ---    0.84878
 RFO step:  Lambda=-2.03508790D-03 EMin= 2.30000000D-03
 Linear search not attempted -- first point.
 Iteration  1 RMS(Cart)=  0.02262425 RMS(Int)=  0.00062657
 Iteration  2 RMS(Cart)=  0.00054308 RMS(Int)=  0.00022040
 Iteration  3 RMS(Cart)=  0.00000027 RMS(Int)=  0.00022040
 Variable       Old X    -DE/DX   Delta X   Delta X   Delta X     New X
                                 (Linear)    (Quad)   (Total)
    R1        3.50944   0.00460   0.00000   0.02065   0.02065   3.53008
    R2        2.53105   0.00734   0.00000   0.01276   0.01276   2.54381
    R3        2.52854   0.00346   0.00000   0.00598   0.00598   2.53452
    R4        2.52697   0.00418   0.00000   0.00720   0.00720   2.53416
    R5        2.80068  -0.00375   0.00000  -0.00452  -0.00452   2.79617
    R6        2.79087  -0.00877   0.00000  -0.01031  -0.01031   2.78057
    R7        2.91490   0.00585   0.00000   0.00909   0.00909   2.92399
    R8        1.93291  -0.00201   0.00000  -0.00456  -0.00456   1.92835
    A1        1.92319   0.00507   0.00000   0.01885   0.01867   1.94186
    A2        1.95078   0.00477   0.00000   0.01949   0.01926   1.97004
    A3        1.93757   0.00605   0.00000   0.02470   0.02444   1.96201
    A4        1.88376  -0.00540   0.00000  -0.02272  -0.02285   1.86091
    A5        1.88338  -0.00591   0.00000  -0.02454  -0.02473   1.85865
    A6        1.88287  -0.00544   0.00000  -0.01927  -0.01954   1.86332
    A7        1.75272  -0.00149   0.00000  -0.01618  -0.01657   1.73614
    A8        1.76549  -0.00167   0.00000  -0.00868  -0.00860   1.75689
    A9        1.88201  -0.00450   0.00000  -0.02886  -0.02915   1.85286
   A10        2.02209   0.00325   0.00000   0.03287   0.03268   2.05477
   A11        2.04911  -0.00016   0.00000  -0.00930  -0.01011   2.03900
   A12        1.94968   0.00264   0.00000   0.01738   0.01707   1.96675
   A13        1.90255  -0.00479   0.00000  -0.02955  -0.02955   1.87300
    D1        1.10674  -0.00175   0.00000  -0.00883  -0.00866   1.09808
    D2       -3.09555   0.00070   0.00000   0.01819   0.01811  -3.07744
    D3       -1.04737   0.00114   0.00000   0.02242   0.02229  -1.02508
    D4       -0.98777  -0.00148   0.00000  -0.00566  -0.00544  -0.99321
    D5        1.09312   0.00097   0.00000   0.02136   0.02133   1.11445
    D6        3.14131   0.00140   0.00000   0.02559   0.02551  -3.11637
    D7       -3.09095  -0.00197   0.00000  -0.01141  -0.01125  -3.10220
    D8       -1.01006   0.00048   0.00000   0.01561   0.01552  -0.99454
    D9        1.03812   0.00092   0.00000   0.01984   0.01970   1.05783
   D10        1.42676  -0.00021   0.00000   0.00311   0.00338   1.43014
   D11       -0.53475   0.00488   0.00000   0.04870   0.04868  -0.48606
   D12       -2.93146  -0.00333   0.00000  -0.01431  -0.01456  -2.94602
         Item               Value     Threshold  Converged?
 Maximum Force            0.008768     0.000450     NO 
 RMS     Force            0.004000     0.000300     NO 
 Maximum Displacement     0.058000     0.001800     NO 
 RMS     Displacement     0.022637     0.001200     NO 
 Predicted change in Energy=-1.027393D-03
 GradGradGradGradGradGradGradGradGradGradGradGradGradGradGradGradGradGrad

                          Input orientation:                          
 ---------------------------------------------------------------------
 Center     Atomic      Atomic             Coordinates (Angstroms)
 Number     Number       Type             X           Y           Z
 ---------------------------------------------------------------------
      1          6           0       -1.209955    0.609053   -0.614999
      2         16           0       -1.695984    0.367936    1.172516
      3          8           0       -1.799454   -1.107857    1.199830
      4          8           0       -0.547195    0.986437    1.852810
      5          7           0       -3.007693    1.163724    1.373272
      6          1           0       -3.772759    0.577886    1.037476
      7          9           0       -2.176683    0.177127   -1.446220
      8          9           0       -0.093634   -0.056568   -0.946099
      9          9           0       -0.995750    1.897880   -0.917290
 ---------------------------------------------------------------------
                    Distance matrix (angstroms):
                    1          2          3          4          5
     1  C    0.000000
     2  S    1.868040   0.000000
     3  O    2.566884   1.479668   0.000000
     4  O    2.582974   1.471414   2.525985   0.000000
     5  N    2.737288   1.547308   2.578760   2.513053   0.000000
     6  H    3.049527   2.091724   2.600389   3.352006   1.020437
     7  F    1.346125   2.669318   2.965648   3.767468   3.100562
     8  F    1.341212   2.690029   2.935990   3.021170   3.919226
     9  F    1.341022   2.682974   3.763322   2.950489   3.135853
                    6          7          8          9
     6  H    0.000000
     7  F    2.979398   0.000000
     8  F    4.227654   2.154954   0.000000
     9  F    3.643526   2.152990   2.152792   0.000000
 Stoichiometry    CHF3NO2S(1-)
 Framework group  C1[X(CHF3NO2S)]
 Deg. of freedom    21
 Full point group                 C1      NOp   1
 Largest Abelian subgroup         C1      NOp   1
 Largest concise Abelian subgroup C1      NOp   1
                         Standard orientation:                         
 ---------------------------------------------------------------------
 Center     Atomic      Atomic             Coordinates (Angstroms)
 Number     Number       Type             X           Y           Z
 ---------------------------------------------------------------------
      1          6           0       -0.938904    0.019996   -0.020098
      2         16           0        0.927272   -0.054639    0.017131
      3          8           0        1.147748    0.088769    1.473236
      4          8           0        1.158847   -1.377838   -0.583348
      5          7           0        1.422615    1.103486   -0.881505
      6          1           0        1.398781    1.955179   -0.319952
      7          9           0       -1.388756    1.209304    0.421753
      8          9           0       -1.513589   -0.917105    0.748296
      9          9           0       -1.432409   -0.138066   -1.256952
 ---------------------------------------------------------------------
 Rotational constants (GHZ):           2.6497544           1.5567711           1.5505807
 Basis read from rwf:  (6D, 7F)
 There are   158 symmetry adapted cartesian basis functions of A   symmetry.
 There are   158 symmetry adapted basis functions of A   symmetry.
   158 basis functions,   284 primitive gaussians,   158 cartesian basis functions
    37 alpha electrons       37 beta electrons
       nuclear repulsion energy       547.7968124020 Hartrees.
 NAtoms=    9 NActive=    9 NUniq=    9 SFac= 1.00D+00 NAtFMM=   60 NAOKFM=F Big=F
 Integral buffers will be    131072 words long.
 Raffenetti 2 integral format.
 Two-electron integral symmetry is turned on.
 One-electron integrals computed using PRISM.
 NBasis=   158 RedAO= T EigKep=  2.91D-04  NBF=   158
 NBsUse=   158 1.00D-06 EigRej= -1.00D+00 NBFU=   158
 Initial guess from the checkpoint file:  "/jobfs/40766132.gadi-pbs/Gau-2077767.chk"
 B after Tr=     0.000000   -0.000000   -0.000000
         Rot=    0.996394    0.084818   -0.001320   -0.002049 Ang=   9.74 deg.
 ExpMin= 4.05D-02 ExpMax= 2.19D+04 ExpMxC= 3.30D+03 IAcc=3 IRadAn=         5 AccDes= 0.00D+00
 Harris functional with IExCor= 1009 and IRadAn=       5 diagonalized for initial guess.
 HarFok:  IExCor= 1009 AccDes= 0.00D+00 IRadAn=         5 IDoV= 1 UseB2=F ITyADJ=14
 ICtDFT=  3500011 ScaDFX=  1.000000  1.000000  1.000000  1.000000
 FoFCou: FMM=F IPFlag=           0 FMFlag=      100000 FMFlg1=           0
         NFxFlg=           0 DoJE=T BraDBF=F KetDBF=T FulRan=T
         wScrn=  0.000000 ICntrl=       500 IOpCl=  0 I1Cent=   200000004 NGrid=           0
         NMat0=    1 NMatS0=      1 NMatT0=    0 NMatD0=    1 NMtDS0=    0 NMtDT0=    0
 Petite list used in FoFCou.
 Keep R1 ints in memory in canonical form, NReq=94662320.
 Requested convergence on RMS density matrix=1.00D-08 within 128 cycles.
 Requested convergence on MAX density matrix=1.00D-06.
 Requested convergence on             energy=1.00D-06.
 No special actions if energy rises.
 SCF Done:  E(RM062X) =  -941.411207966     A.U. after   11 cycles
            NFock= 11  Conv=0.66D-08     -V/T= 2.0058
 Calling FoFJK, ICntrl=      2127 FMM=F ISym2X=0 I1Cent= 0 IOpClX= 0 NMat=1 NMatS=1 NMatT=0.
 ***** Axes restored to original set *****
 -------------------------------------------------------------------
 Center     Atomic                   Forces (Hartrees/Bohr)
 Number     Number              X              Y              Z
 -------------------------------------------------------------------
      1        6           0.001079506    0.001105429    0.000311234
      2       16           0.005599454   -0.001699091   -0.000491219
      3        8           0.000188882    0.002473450    0.001074659
      4        8          -0.004663480   -0.002791538   -0.001219984
      5        7          -0.001839264    0.002792272    0.000903456
      6        1           0.000065804   -0.001197822    0.000482481
      7        9          -0.003944177   -0.001795482   -0.001437877
      8        9           0.003142130   -0.002170764    0.000043272
      9        9           0.000371145    0.003283547    0.000333979
 -------------------------------------------------------------------
 Cartesian Forces:  Max     0.005599454 RMS     0.002239688

 GradGradGradGradGradGradGradGradGradGradGradGradGradGradGradGradGradGrad
 Berny optimization.
 Using GEDIIS/GDIIS optimizer.
 FormGI is forming the generalized inverse of G from B-inverse, IUseBI=4.
 Internal  Forces:  Max     0.005377943 RMS     0.001851858
 Search for a local minimum.
 Step number   2 out of a maximum of   43
 All quantities printed in internal units (Hartrees-Bohrs-Radians)
 Mixed Optimization -- RFO/linear search
 Update second derivatives using D2CorX and points    1    2
 DE= -9.45D-04 DEPred=-1.03D-03 R= 9.20D-01
 TightC=F SS=  1.41D+00  RLast= 1.13D-01 DXNew= 5.0454D-01 3.3751D-01
 Trust test= 9.20D-01 RLast= 1.13D-01 DXMaxT set to 3.38D-01
 ITU=  1  0
 Use linear search instead of GDIIS.
     Eigenvalues ---    0.00230   0.03303   0.07899   0.08200   0.09671
     Eigenvalues ---    0.10871   0.15162   0.16449   0.20664   0.21587
     Eigenvalues ---    0.24874   0.25000   0.25000   0.29703   0.43931
     Eigenvalues ---    0.54019   0.57751   0.57781   0.63431   0.81425
     Eigenvalues ---    0.83512
 RFO step:  Lambda=-2.68503422D-04 EMin= 2.30008481D-03
 Quartic linear search produced a step of -0.05911.
 Iteration  1 RMS(Cart)=  0.01041378 RMS(Int)=  0.00008716
 Iteration  2 RMS(Cart)=  0.00007289 RMS(Int)=  0.00001365
 Iteration  3 RMS(Cart)=  0.00000000 RMS(Int)=  0.00001365
 Variable       Old X    -DE/DX   Delta X   Delta X   Delta X     New X
                                 (Linear)    (Quad)   (Total)
    R1        3.53008   0.00094  -0.00122   0.00795   0.00673   3.53681
    R2        2.54381   0.00430  -0.00075   0.00949   0.00873   2.55254
    R3        2.53452   0.00368  -0.00035   0.00715   0.00679   2.54132
    R4        2.53416   0.00314  -0.00043   0.00649   0.00606   2.54022
    R5        2.79617  -0.00246   0.00027  -0.00365  -0.00339   2.79278
    R6        2.78057  -0.00538   0.00061  -0.00793  -0.00732   2.77325
    R7        2.92399   0.00250  -0.00054   0.00540   0.00486   2.92885
    R8        1.92835   0.00048   0.00027   0.00016   0.00043   1.92878
    A1        1.94186  -0.00211  -0.00110  -0.00474  -0.00584   1.93602
    A2        1.97004  -0.00098  -0.00114   0.00012  -0.00101   1.96903
    A3        1.96201  -0.00112  -0.00144   0.00062  -0.00082   1.96119
    A4        1.86091   0.00163   0.00135   0.00138   0.00273   1.86364
    A5        1.85865   0.00170   0.00146   0.00136   0.00283   1.86148
    A6        1.86332   0.00127   0.00116   0.00160   0.00277   1.86609
    A7        1.73614   0.00126   0.00098   0.00517   0.00617   1.74232
    A8        1.75689   0.00119   0.00051   0.00553   0.00603   1.76292
    A9        1.85286   0.00104   0.00172   0.00158   0.00332   1.85618
   A10        2.05477  -0.00076  -0.00193  -0.00059  -0.00256   2.05221
   A11        2.03900  -0.00073   0.00060  -0.00547  -0.00485   2.03415
   A12        1.96675  -0.00089  -0.00101  -0.00224  -0.00326   1.96349
   A13        1.87300  -0.00153   0.00175  -0.01460  -0.01285   1.86015
    D1        1.09808   0.00008   0.00051   0.00606   0.00656   1.10464
    D2       -3.07744   0.00003  -0.00107   0.00877   0.00771  -3.06973
    D3       -1.02508  -0.00007  -0.00132   0.00923   0.00792  -1.01716
    D4       -0.99321   0.00015   0.00032   0.00757   0.00787  -0.98534
    D5        1.11445   0.00010  -0.00126   0.01028   0.00902   1.12348
    D6       -3.11637   0.00000  -0.00151   0.01074   0.00923  -3.10714
    D7       -3.10220   0.00002   0.00066   0.00494   0.00559  -3.09661
    D8       -0.99454  -0.00002  -0.00092   0.00765   0.00674  -0.98779
    D9        1.05783  -0.00012  -0.00116   0.00811   0.00695   1.06478
   D10        1.43014   0.00066  -0.00020   0.01720   0.01698   1.44712
   D11       -0.48606  -0.00120  -0.00288   0.01254   0.00969  -0.47637
   D12       -2.94602   0.00221   0.00086   0.02354   0.02439  -2.92164
         Item               Value     Threshold  Converged?
 Maximum Force            0.005378     0.000450     NO 
 RMS     Force            0.001852     0.000300     NO 
 Maximum Displacement     0.028527     0.001800     NO 
 RMS     Displacement     0.010418     0.001200     NO 
 Predicted change in Energy=-1.385498D-04
 GradGradGradGradGradGradGradGradGradGradGradGradGradGradGradGradGradGrad

                          Input orientation:                          
 ---------------------------------------------------------------------
 Center     Atomic      Atomic             Coordinates (Angstroms)
 Number     Number       Type             X           Y           Z
 ---------------------------------------------------------------------
      1          6           0       -1.205977    0.611276   -0.620568
      2         16           0       -1.696339    0.370823    1.169575
      3          8           0       -1.802728   -1.102763    1.206221
      4          8           0       -0.556004    0.987105    1.857691
      5          7           0       -3.011432    1.165543    1.372268
      6          1           0       -3.768805    0.562790    1.048493
      7          9           0       -2.182499    0.183371   -1.449915
      8          9           0       -0.091668   -0.065015   -0.951404
      9          9           0       -0.983654    1.902487   -0.921065
 ---------------------------------------------------------------------
                    Distance matrix (angstroms):
                    1          2          3          4          5
     1  C    0.000000
     2  S    1.871599   0.000000
     3  O    2.575111   1.477876   0.000000
     4  O    2.589494   1.467539   2.519183   0.000000
     5  N    2.745592   1.549882   2.575606   2.509303   0.000000
     6  H    3.058792   2.084857   2.581551   3.340200   1.020664
     7  F    1.350746   2.670808   2.975471   3.772497   3.101049
     8  F    1.344807   2.695083   2.942787   3.035388   3.929216
     9  F    1.344229   2.687877   3.771969   2.956737   3.148705
                    6          7          8          9
     6  H    0.000000
     7  F    2.983684   0.000000
     8  F    4.232619   2.163743   0.000000
     9  F    3.664834   2.161543   2.160468   0.000000
 Stoichiometry    CHF3NO2S(1-)
 Framework group  C1[X(CHF3NO2S)]
 Deg. of freedom    21
 Full point group                 C1      NOp   1
 Largest Abelian subgroup         C1      NOp   1
 Largest concise Abelian subgroup C1      NOp   1
                         Standard orientation:                         
 ---------------------------------------------------------------------
 Center     Atomic      Atomic             Coordinates (Angstroms)
 Number     Number       Type             X           Y           Z
 ---------------------------------------------------------------------
      1          6           0       -0.944176    0.019448   -0.020081
      2         16           0        0.925531   -0.056482    0.016158
      3          8           0        1.155475    0.081742    1.469478
      4          8           0        1.164285   -1.372665   -0.587439
      5          7           0        1.426837    1.105876   -0.878129
      6          1           0        1.415838    1.945432   -0.297801
      7          9           0       -1.386995    1.217069    0.420522
      8          9           0       -1.519250   -0.916456    0.755727
      9          9           0       -1.438780   -0.141964   -1.259543
 ---------------------------------------------------------------------
 Rotational constants (GHZ):           2.6460113           1.5497430           1.5439773
 Basis read from rwf:  (6D, 7F)
 There are   158 symmetry adapted cartesian basis functions of A   symmetry.
 There are   158 symmetry adapted basis functions of A   symmetry.
   158 basis functions,   284 primitive gaussians,   158 cartesian basis functions
    37 alpha electrons       37 beta electrons
       nuclear repulsion energy       547.0662621108 Hartrees.
 NAtoms=    9 NActive=    9 NUniq=    9 SFac= 1.00D+00 NAtFMM=   60 NAOKFM=F Big=F
 Integral buffers will be    131072 words long.
 Raffenetti 2 integral format.
 Two-electron integral symmetry is turned on.
 One-electron integrals computed using PRISM.
 NBasis=   158 RedAO= T EigKep=  2.94D-04  NBF=   158
 NBsUse=   158 1.00D-06 EigRej= -1.00D+00 NBFU=   158
 Initial guess from the checkpoint file:  "/jobfs/40766132.gadi-pbs/Gau-2077767.chk"
 B after Tr=     0.000000   -0.000000    0.000000
         Rot=    1.000000   -0.000432   -0.000469    0.000533 Ang=  -0.10 deg.
 ExpMin= 4.05D-02 ExpMax= 2.19D+04 ExpMxC= 3.30D+03 IAcc=3 IRadAn=         5 AccDes= 0.00D+00
 Harris functional with IExCor= 1009 and IRadAn=       5 diagonalized for initial guess.
 HarFok:  IExCor= 1009 AccDes= 0.00D+00 IRadAn=         5 IDoV= 1 UseB2=F ITyADJ=14
 ICtDFT=  3500011 ScaDFX=  1.000000  1.000000  1.000000  1.000000
 FoFCou: FMM=F IPFlag=           0 FMFlag=      100000 FMFlg1=           0
         NFxFlg=           0 DoJE=T BraDBF=F KetDBF=T FulRan=T
         wScrn=  0.000000 ICntrl=       500 IOpCl=  0 I1Cent=   200000004 NGrid=           0
         NMat0=    1 NMatS0=      1 NMatT0=    0 NMatD0=    1 NMtDS0=    0 NMtDT0=    0
 Petite list used in FoFCou.
 Keep R1 ints in memory in canonical form, NReq=94662320.
 Requested convergence on RMS density matrix=1.00D-08 within 128 cycles.
 Requested convergence on MAX density matrix=1.00D-06.
 Requested convergence on             energy=1.00D-06.
 No special actions if energy rises.
 SCF Done:  E(RM062X) =  -941.411348006     A.U. after   11 cycles
            NFock= 11  Conv=0.35D-08     -V/T= 2.0058
 Calling FoFJK, ICntrl=      2127 FMM=F ISym2X=0 I1Cent= 0 IOpClX= 0 NMat=1 NMatS=1 NMatT=0.
 ***** Axes restored to original set *****
 -------------------------------------------------------------------
 Center     Atomic                   Forces (Hartrees/Bohr)
 Number     Number              X              Y              Z
 -------------------------------------------------------------------
      1        6           0.000317766    0.000585536   -0.000457738
      2       16           0.001230511   -0.000594645    0.000931896
      3        8           0.000367896    0.000694253   -0.000396901
      4        8          -0.000520727   -0.000757340   -0.000755023
      5        7          -0.000562073    0.001193699   -0.000533504
      6        1          -0.000677941   -0.000489780    0.000286320
      7        9           0.000125140   -0.000070063    0.000411430
      8        9          -0.000222325    0.000152326    0.000131488
      9        9          -0.000058247   -0.000713986    0.000382032
 -------------------------------------------------------------------
 Cartesian Forces:  Max     0.001230511 RMS     0.000587682

 GradGradGradGradGradGradGradGradGradGradGradGradGradGradGradGradGradGrad
 Berny optimization.
 Using GEDIIS/GDIIS optimizer.
 FormGI is forming the generalized inverse of G from B-inverse, IUseBI=4.
 Internal  Forces:  Max     0.001375515 RMS     0.000469064
 Search for a local minimum.
 Step number   3 out of a maximum of   43
 All quantities printed in internal units (Hartrees-Bohrs-Radians)
 Mixed Optimization -- En-DIIS/RFO-DIIS
 Update second derivatives using D2CorX and points    1    2    3
 DE= -1.40D-04 DEPred=-1.39D-04 R= 1.01D+00
 TightC=F SS=  1.41D+00  RLast= 4.63D-02 DXNew= 5.6762D-01 1.3876D-01
 Trust test= 1.01D+00 RLast= 4.63D-02 DXMaxT set to 3.38D-01
 ITU=  1  1  0
 Use linear search instead of GDIIS.
     Eigenvalues ---    0.00232   0.02866   0.07923   0.08266   0.09608
     Eigenvalues ---    0.10999   0.15189   0.18393   0.20674   0.22301
     Eigenvalues ---    0.24742   0.25000   0.25042   0.29636   0.43876
     Eigenvalues ---    0.52384   0.57661   0.58259   0.65529   0.78169
     Eigenvalues ---    0.83481
 RFO step:  Lambda=-3.06174710D-05 EMin= 2.31990962D-03
 Quartic linear search produced a step of  0.01771.
 Iteration  1 RMS(Cart)=  0.00383738 RMS(Int)=  0.00001869
 Iteration  2 RMS(Cart)=  0.00001802 RMS(Int)=  0.00000272
 Iteration  3 RMS(Cart)=  0.00000000 RMS(Int)=  0.00000272
 Variable       Old X    -DE/DX   Delta X   Delta X   Delta X     New X
                                 (Linear)    (Quad)   (Total)
    R1        3.53681  -0.00041   0.00012  -0.00088  -0.00076   3.53605
    R2        2.55254  -0.00032   0.00015   0.00052   0.00068   2.55322
    R3        2.54132  -0.00030   0.00012   0.00027   0.00039   2.54170
    R4        2.54022  -0.00078   0.00011  -0.00064  -0.00054   2.53969
    R5        2.79278  -0.00073  -0.00006  -0.00132  -0.00138   2.79141
    R6        2.77325  -0.00108  -0.00013  -0.00221  -0.00234   2.77091
    R7        2.92885   0.00138   0.00009   0.00283   0.00292   2.93177
    R8        1.92878   0.00070   0.00001   0.00161   0.00162   1.93040
    A1        1.93602  -0.00040  -0.00010  -0.00188  -0.00198   1.93403
    A2        1.96903   0.00002  -0.00002   0.00015   0.00013   1.96916
    A3        1.96119  -0.00023  -0.00001  -0.00057  -0.00058   1.96061
    A4        1.86364   0.00018   0.00005   0.00051   0.00056   1.86420
    A5        1.86148   0.00038   0.00005   0.00170   0.00175   1.86323
    A6        1.86609   0.00010   0.00005   0.00029   0.00034   1.86643
    A7        1.74232  -0.00038   0.00011  -0.00237  -0.00226   1.74006
    A8        1.76292  -0.00051   0.00011  -0.00272  -0.00262   1.76031
    A9        1.85618  -0.00017   0.00006  -0.00117  -0.00111   1.85506
   A10        2.05221  -0.00010  -0.00005  -0.00083  -0.00089   2.05132
   A11        2.03415   0.00035  -0.00009   0.00183   0.00174   2.03589
   A12        1.96349   0.00047  -0.00006   0.00329   0.00322   1.96671
   A13        1.86015   0.00032  -0.00023   0.00024   0.00001   1.86016
    D1        1.10464   0.00015   0.00012  -0.00271  -0.00260   1.10204
    D2       -3.06973  -0.00025   0.00014  -0.00525  -0.00511  -3.07484
    D3       -1.01716  -0.00001   0.00014  -0.00323  -0.00309  -1.02025
    D4       -0.98534   0.00018   0.00014  -0.00215  -0.00201  -0.98734
    D5        1.12348  -0.00022   0.00016  -0.00468  -0.00452   1.11896
    D6       -3.10714   0.00002   0.00016  -0.00266  -0.00250  -3.10964
    D7       -3.09661   0.00020   0.00010  -0.00222  -0.00213  -3.09873
    D8       -0.98779  -0.00020   0.00012  -0.00476  -0.00464  -0.99244
    D9        1.06478   0.00004   0.00012  -0.00274  -0.00262   1.06216
   D10        1.44712   0.00034   0.00030   0.01141   0.01172   1.45883
   D11       -0.47637   0.00074   0.00017   0.01415   0.01433  -0.46204
   D12       -2.92164  -0.00013   0.00043   0.00908   0.00951  -2.91213
         Item               Value     Threshold  Converged?
 Maximum Force            0.001376     0.000450     NO 
 RMS     Force            0.000469     0.000300     NO 
 Maximum Displacement     0.011612     0.001800     NO 
 RMS     Displacement     0.003840     0.001200     NO 
 Predicted change in Energy=-1.535359D-05
 GradGradGradGradGradGradGradGradGradGradGradGradGradGradGradGradGradGrad

                          Input orientation:                          
 ---------------------------------------------------------------------
 Center     Atomic      Atomic             Coordinates (Angstroms)
 Number     Number       Type             X           Y           Z
 ---------------------------------------------------------------------
      1          6           0       -1.204840    0.611478   -0.620157
      2         16           0       -1.697020    0.371359    1.169111
      3          8           0       -1.803385   -1.101578    1.202412
      4          8           0       -0.554680    0.984088    1.854431
      5          7           0       -3.012738    1.168706    1.369222
      6          1           0       -3.771968    0.561983    1.054638
      7          9           0       -2.181188    0.180329   -1.448614
      8          9           0       -0.089047   -0.063522   -0.949454
      9          9           0       -0.984241    1.902773   -0.920294
 ---------------------------------------------------------------------
                    Distance matrix (angstroms):
                    1          2          3          4          5
     1  C    0.000000
     2  S    1.871197   0.000000
     3  O    2.571881   1.477148   0.000000
     4  O    2.585563   1.466302   2.516823   0.000000
     5  N    2.745292   1.551426   2.577703   2.512283   0.000000
     6  H    3.065540   2.086829   2.581587   3.341974   1.021522
     7  F    1.351105   2.668970   2.968832   3.768510   3.099769
     8  F    1.345011   2.694998   2.940585   3.029203   3.929710
     9  F    1.343945   2.686800   3.768687   2.954252   3.145718
                    6          7          8          9
     6  H    0.000000
     7  F    2.990404   0.000000
     8  F    4.239287   2.164643   0.000000
     9  F    3.670081   2.163010   2.160680   0.000000
 Stoichiometry    CHF3NO2S(1-)
 Framework group  C1[X(CHF3NO2S)]
 Deg. of freedom    21
 Full point group                 C1      NOp   1
 Largest Abelian subgroup         C1      NOp   1
 Largest concise Abelian subgroup C1      NOp   1
                         Standard orientation:                         
 ---------------------------------------------------------------------
 Center     Atomic      Atomic             Coordinates (Angstroms)
 Number     Number       Type             X           Y           Z
 ---------------------------------------------------------------------
      1          6           0       -0.943487    0.020740   -0.020389
      2         16           0        0.925718   -0.057930    0.015115
      3          8           0        1.151954    0.055671    1.470408
      4          8           0        1.159036   -1.365012   -0.607092
      5          7           0        1.427502    1.119936   -0.861108
      6          1           0        1.427738    1.948369   -0.263441
      7          9           0       -1.382763    1.211158    0.443752
      8          9           0       -1.520160   -0.929055    0.737497
      9          9           0       -1.436936   -0.116632   -1.262897
 ---------------------------------------------------------------------
 Rotational constants (GHZ):           2.6444021           1.5518275           1.5464510
 Basis read from rwf:  (6D, 7F)
 There are   158 symmetry adapted cartesian basis functions of A   symmetry.
 There are   158 symmetry adapted basis functions of A   symmetry.
   158 basis functions,   284 primitive gaussians,   158 cartesian basis functions
    37 alpha electrons       37 beta electrons
       nuclear repulsion energy       547.2075054628 Hartrees.
 NAtoms=    9 NActive=    9 NUniq=    9 SFac= 1.00D+00 NAtFMM=   60 NAOKFM=F Big=F
 Integral buffers will be    131072 words long.
 Raffenetti 2 integral format.
 Two-electron integral symmetry is turned on.
 One-electron integrals computed using PRISM.
 NBasis=   158 RedAO= T EigKep=  2.93D-04  NBF=   158
 NBsUse=   158 1.00D-06 EigRej= -1.00D+00 NBFU=   158
 Initial guess from the checkpoint file:  "/jobfs/40766132.gadi-pbs/Gau-2077767.chk"
 B after Tr=    -0.000000    0.000000    0.000000
         Rot=    0.999962   -0.008673    0.000215    0.000836 Ang=  -1.00 deg.
 Keep R1 ints in memory in canonical form, NReq=94662320.
 Requested convergence on RMS density matrix=1.00D-08 within 128 cycles.
 Requested convergence on MAX density matrix=1.00D-06.
 Requested convergence on             energy=1.00D-06.
 No special actions if energy rises.
 SCF Done:  E(RM062X) =  -941.411362981     A.U. after   10 cycles
            NFock= 10  Conv=0.53D-08     -V/T= 2.0058
 Calling FoFJK, ICntrl=      2127 FMM=F ISym2X=0 I1Cent= 0 IOpClX= 0 NMat=1 NMatS=1 NMatT=0.
 ***** Axes restored to original set *****
 -------------------------------------------------------------------
 Center     Atomic                   Forces (Hartrees/Bohr)
 Number     Number              X              Y              Z
 -------------------------------------------------------------------
      1        6          -0.000144351    0.000292282   -0.000141265
      2       16           0.000071305   -0.000215742   -0.000791794
      3        8          -0.000167809   -0.000147715    0.000163416
      4        8           0.000164328    0.000185773    0.000436959
      5        7           0.000053619    0.000122609   -0.000316573
      6        1          -0.000003991   -0.000102518    0.000352843
      7        9           0.000553710    0.000238650    0.000239002
      8        9          -0.000438538    0.000276357    0.000047518
      9        9          -0.000088271   -0.000649696    0.000009894
 -------------------------------------------------------------------
 Cartesian Forces:  Max     0.000791794 RMS     0.000304818

 GradGradGradGradGradGradGradGradGradGradGradGradGradGradGradGradGradGrad
 Berny optimization.
 Using GEDIIS/GDIIS optimizer.
 FormGI is forming the generalized inverse of G from B-inverse, IUseBI=4.
 Internal  Forces:  Max     0.000639569 RMS     0.000250997
 Search for a local minimum.
 Step number   4 out of a maximum of   43
 All quantities printed in internal units (Hartrees-Bohrs-Radians)
 Mixed Optimization -- En-DIIS/RFO-DIIS
 Swapping is turned off.
 Update second derivatives using D2CorX and points    1    2    3    4
 DE= -1.50D-05 DEPred=-1.54D-05 R= 9.75D-01
 TightC=F SS=  1.41D+00  RLast= 2.44D-02 DXNew= 5.6762D-01 7.3128D-02
 Trust test= 9.75D-01 RLast= 2.44D-02 DXMaxT set to 3.38D-01
 ITU=  1  1  1  0
     Eigenvalues ---    0.00231   0.01701   0.07933   0.08279   0.09692
     Eigenvalues ---    0.11000   0.15592   0.20560   0.21868   0.23096
     Eigenvalues ---    0.24725   0.24999   0.26341   0.29692   0.44506
     Eigenvalues ---    0.57075   0.57588   0.61550   0.64082   0.82753
     Eigenvalues ---    0.84406
 En-DIIS/RFO-DIIS/Sim-DIIS IScMMF=       -3 using points:     4    3
 RFO step:  Lambda=-1.11571647D-05.
 DidBck=F Rises=F RFO-DIIS coefs:    1.77198   -0.77198
 Iteration  1 RMS(Cart)=  0.00334613 RMS(Int)=  0.00001934
 Iteration  2 RMS(Cart)=  0.00001672 RMS(Int)=  0.00000224
 Iteration  3 RMS(Cart)=  0.00000000 RMS(Int)=  0.00000224
 Variable       Old X    -DE/DX   Delta X   Delta X   Delta X     New X
                                 (Linear)    (Quad)   (Total)
    R1        3.53605  -0.00016  -0.00059  -0.00007  -0.00066   3.53539
    R2        2.55322  -0.00062   0.00052  -0.00105  -0.00052   2.55270
    R3        2.54170  -0.00052   0.00030  -0.00083  -0.00053   2.54117
    R4        2.53969  -0.00064  -0.00041  -0.00067  -0.00109   2.53860
    R5        2.79141   0.00016  -0.00106   0.00065  -0.00041   2.79099
    R6        2.77091   0.00041  -0.00180   0.00119  -0.00061   2.77030
    R7        2.93177  -0.00003   0.00225  -0.00108   0.00118   2.93295
    R8        1.93040  -0.00004   0.00125  -0.00081   0.00044   1.93084
    A1        1.93403   0.00025  -0.00153   0.00185   0.00032   1.93435
    A2        1.96916   0.00005   0.00010   0.00017   0.00027   1.96943
    A3        1.96061   0.00016  -0.00045   0.00107   0.00062   1.96123
    A4        1.86420  -0.00017   0.00043  -0.00105  -0.00062   1.86358
    A5        1.86323  -0.00021   0.00135  -0.00154  -0.00019   1.86304
    A6        1.86643  -0.00013   0.00027  -0.00077  -0.00050   1.86593
    A7        1.74006   0.00038  -0.00174   0.00350   0.00176   1.74182
    A8        1.76031   0.00023  -0.00202   0.00264   0.00062   1.76093
    A9        1.85506  -0.00004  -0.00086   0.00060  -0.00026   1.85480
   A10        2.05132  -0.00004  -0.00069   0.00042  -0.00028   2.05104
   A11        2.03589  -0.00018   0.00134  -0.00203  -0.00069   2.03519
   A12        1.96671  -0.00019   0.00249  -0.00299  -0.00051   1.96620
   A13        1.86016   0.00001   0.00001  -0.00051  -0.00050   1.85966
    D1        1.10204  -0.00008  -0.00201  -0.00025  -0.00226   1.09978
    D2       -3.07484   0.00008  -0.00395   0.00216  -0.00179  -3.07663
    D3       -1.02025  -0.00004  -0.00239   0.00021  -0.00218  -1.02243
    D4       -0.98734  -0.00007  -0.00155  -0.00032  -0.00187  -0.98921
    D5        1.11896   0.00009  -0.00349   0.00209  -0.00140   1.11756
    D6       -3.10964  -0.00003  -0.00193   0.00014  -0.00179  -3.11143
    D7       -3.09873  -0.00006  -0.00164  -0.00022  -0.00187  -3.10060
    D8       -0.99244   0.00010  -0.00358   0.00218  -0.00140  -0.99383
    D9        1.06216  -0.00002  -0.00202   0.00024  -0.00179   1.06037
   D10        1.45883   0.00029   0.00904   0.00306   0.01211   1.47094
   D11       -0.46204  -0.00007   0.01106  -0.00060   0.01047  -0.45158
   D12       -2.91213   0.00046   0.00734   0.00513   0.01246  -2.89967
         Item               Value     Threshold  Converged?
 Maximum Force            0.000640     0.000450     NO 
 RMS     Force            0.000251     0.000300     YES
 Maximum Displacement     0.014412     0.001800     NO 
 RMS     Displacement     0.003348     0.001200     NO 
 Predicted change in Energy=-5.579924D-06
 GradGradGradGradGradGradGradGradGradGradGradGradGradGradGradGradGradGrad

                          Input orientation:                          
 ---------------------------------------------------------------------
 Center     Atomic      Atomic             Coordinates (Angstroms)
 Number     Number       Type             X           Y           Z
 ---------------------------------------------------------------------
      1          6           0       -1.203870    0.611860   -0.620956
      2         16           0       -1.697348    0.371424    1.167548
      3          8           0       -1.806066   -1.101084    1.202523
      4          8           0       -0.555685    0.982761    1.854545
      5          7           0       -3.012858    1.170514    1.366916
      6          1           0       -3.773330    0.559896    1.062265
      7          9           0       -2.178584    0.179857   -1.450441
      8          9           0       -0.087616   -0.062146   -0.949575
      9          9           0       -0.983750    1.902537   -0.921529
 ---------------------------------------------------------------------
                    Distance matrix (angstroms):
                    1          2          3          4          5
     1  C    0.000000
     2  S    1.870849   0.000000
     3  O    2.573304   1.476931   0.000000
     4  O    2.585695   1.465977   2.516146   0.000000
     5  N    2.745208   1.552049   2.577504   2.512117   0.000000
     6  H    3.072142   2.087177   2.578499   3.340623   1.021756
     7  F    1.350828   2.668736   2.969477   3.768473   3.100792
     8  F    1.344730   2.694705   2.943466   3.028863   3.929711
     9  F    1.343370   2.686590   3.769554   2.955641   3.144855
                    6          7          8          9
     6  H    0.000000
     7  F    3.000222   0.000000
     8  F    4.244871   2.163696   0.000000
     9  F    3.676938   2.162175   2.159589   0.000000
 Stoichiometry    CHF3NO2S(1-)
 Framework group  C1[X(CHF3NO2S)]
 Deg. of freedom    21
 Full point group                 C1      NOp   1
 Largest Abelian subgroup         C1      NOp   1
 Largest concise Abelian subgroup C1      NOp   1
                         Standard orientation:                         
 ---------------------------------------------------------------------
 Center     Atomic      Atomic             Coordinates (Angstroms)
 Number     Number       Type             X           Y           Z
 ---------------------------------------------------------------------
      1          6           0       -0.943659    0.020931   -0.020317
      2         16           0        0.925178   -0.058284    0.015037
      3          8           0        1.154160    0.056701    1.469571
      4          8           0        1.158874   -1.365432   -0.606123
      5          7           0        1.427051    1.119096   -0.862890
      6          1           0        1.438537    1.945667   -0.262361
      7          9           0       -1.382908    1.210571    0.445038
      8          9           0       -1.520775   -0.928950    0.736626
      9          9           0       -1.437768   -0.115235   -1.262074
 ---------------------------------------------------------------------
 Rotational constants (GHZ):           2.6459363           1.5513777           1.5460147
 Basis read from rwf:  (6D, 7F)
 There are   158 symmetry adapted cartesian basis functions of A   symmetry.
 There are   158 symmetry adapted basis functions of A   symmetry.
   158 basis functions,   284 primitive gaussians,   158 cartesian basis functions
    37 alpha electrons       37 beta electrons
       nuclear repulsion energy       547.2323962551 Hartrees.
 NAtoms=    9 NActive=    9 NUniq=    9 SFac= 1.00D+00 NAtFMM=   60 NAOKFM=F Big=F
 Integral buffers will be    131072 words long.
 Raffenetti 2 integral format.
 Two-electron integral symmetry is turned on.
 One-electron integrals computed using PRISM.
 NBasis=   158 RedAO= T EigKep=  2.93D-04  NBF=   158
 NBsUse=   158 1.00D-06 EigRej= -1.00D+00 NBFU=   158
 Initial guess from the checkpoint file:  "/jobfs/40766132.gadi-pbs/Gau-2077767.chk"
 B after Tr=     0.000000    0.000000   -0.000000
         Rot=    1.000000    0.000024   -0.000196    0.000155 Ang=   0.03 deg.
 Keep R1 ints in memory in canonical form, NReq=94662320.
 Requested convergence on RMS density matrix=1.00D-08 within 128 cycles.
 Requested convergence on MAX density matrix=1.00D-06.
 Requested convergence on             energy=1.00D-06.
 No special actions if energy rises.
 SCF Done:  E(RM062X) =  -941.411370112     A.U. after   10 cycles
            NFock= 10  Conv=0.30D-08     -V/T= 2.0058
 Calling FoFJK, ICntrl=      2127 FMM=F ISym2X=0 I1Cent= 0 IOpClX= 0 NMat=1 NMatS=1 NMatT=0.
 ***** Axes restored to original set *****
 -------------------------------------------------------------------
 Center     Atomic                   Forces (Hartrees/Bohr)
 Number     Number              X              Y              Z
 -------------------------------------------------------------------
      1        6          -0.000188691    0.000038634   -0.000283981
      2       16          -0.000758524    0.000156714   -0.000289978
      3        8          -0.000122265   -0.000375607   -0.000046775
      4        8           0.000619986    0.000381960    0.000348740
      5        7           0.000174953   -0.000304129   -0.000398705
      6        1           0.000162599    0.000093760    0.000249556
      7        9           0.000275698    0.000138267    0.000211346
      8        9          -0.000094134    0.000010783    0.000118017
      9        9          -0.000069622   -0.000140382    0.000091780
 -------------------------------------------------------------------
 Cartesian Forces:  Max     0.000758524 RMS     0.000284612

 GradGradGradGradGradGradGradGradGradGradGradGradGradGradGradGradGradGrad
 Berny optimization.
 Using GEDIIS/GDIIS optimizer.
 FormGI is forming the generalized inverse of G from B-inverse, IUseBI=4.
 Internal  Forces:  Max     0.000805663 RMS     0.000204446
 Search for a local minimum.
 Step number   5 out of a maximum of   43
 All quantities printed in internal units (Hartrees-Bohrs-Radians)
 Mixed Optimization -- En-DIIS/RFO-DIIS
 Swapping is turned off.
 Update second derivatives using D2CorX and points    1    2    3    4    5
 DE= -7.13D-06 DEPred=-5.58D-06 R= 1.28D+00
 TightC=F SS=  1.41D+00  RLast= 2.13D-02 DXNew= 5.6762D-01 6.3772D-02
 Trust test= 1.28D+00 RLast= 2.13D-02 DXMaxT set to 3.38D-01
 ITU=  1  1  1  1  0
     Eigenvalues ---    0.00231   0.00994   0.07923   0.08283   0.09637
     Eigenvalues ---    0.11250   0.15354   0.20392   0.21408   0.24461
     Eigenvalues ---    0.24939   0.25429   0.26819   0.32047   0.45153
     Eigenvalues ---    0.56401   0.57665   0.59021   0.66993   0.83341
     Eigenvalues ---    0.94058
 En-DIIS/RFO-DIIS/Sim-DIIS IScMMF=       -3 using points:     5    4    3
 RFO step:  Lambda=-5.70143386D-06.
 DidBck=F Rises=F RFO-DIIS coefs:    1.65051   -0.46581   -0.18470
 Iteration  1 RMS(Cart)=  0.00268588 RMS(Int)=  0.00001539
 Iteration  2 RMS(Cart)=  0.00001358 RMS(Int)=  0.00000035
 Iteration  3 RMS(Cart)=  0.00000000 RMS(Int)=  0.00000035
 Variable       Old X    -DE/DX   Delta X   Delta X   Delta X     New X
                                 (Linear)    (Quad)   (Total)
    R1        3.53539  -0.00014  -0.00057  -0.00054  -0.00110   3.53429
    R2        2.55270  -0.00037  -0.00021  -0.00056  -0.00078   2.55192
    R3        2.54117  -0.00011  -0.00027  -0.00002  -0.00029   2.54088
    R4        2.53860  -0.00017  -0.00081   0.00005  -0.00075   2.53785
    R5        2.79099   0.00038  -0.00052   0.00068   0.00016   2.79115
    R6        2.77030   0.00081  -0.00083   0.00131   0.00048   2.77077
    R7        2.93295  -0.00042   0.00131  -0.00117   0.00014   2.93309
    R8        1.93084  -0.00025   0.00059  -0.00083  -0.00024   1.93060
    A1        1.93435   0.00009  -0.00016   0.00027   0.00011   1.93447
    A2        1.96943  -0.00015   0.00020  -0.00090  -0.00070   1.96873
    A3        1.96123  -0.00010   0.00030  -0.00077  -0.00047   1.96076
    A4        1.86358   0.00005  -0.00030   0.00059   0.00029   1.86387
    A5        1.86304   0.00001   0.00020   0.00019   0.00039   1.86343
    A6        1.86593   0.00013  -0.00026   0.00075   0.00048   1.86641
    A7        1.74182   0.00007   0.00073   0.00006   0.00078   1.74260
    A8        1.76093  -0.00009  -0.00008  -0.00056  -0.00064   1.76029
    A9        1.85480  -0.00009  -0.00037  -0.00040  -0.00077   1.85403
   A10        2.05104   0.00007  -0.00035   0.00080   0.00045   2.05149
   A11        2.03519  -0.00004  -0.00013  -0.00018  -0.00031   2.03489
   A12        1.96620   0.00004   0.00026   0.00002   0.00028   1.96648
   A13        1.85966   0.00003  -0.00033   0.00026  -0.00006   1.85959
    D1        1.09978  -0.00004  -0.00195   0.00052  -0.00143   1.09835
    D2       -3.07663   0.00004  -0.00211   0.00121  -0.00090  -3.07753
    D3       -1.02243   0.00001  -0.00199   0.00084  -0.00115  -1.02358
    D4       -0.98921  -0.00005  -0.00159   0.00018  -0.00141  -0.99062
    D5        1.11756   0.00002  -0.00175   0.00087  -0.00087   1.11668
    D6       -3.11143  -0.00000  -0.00163   0.00050  -0.00112  -3.11255
    D7       -3.10060  -0.00003  -0.00161   0.00043  -0.00118  -3.10178
    D8       -0.99383   0.00004  -0.00177   0.00112  -0.00064  -0.99448
    D9        1.06037   0.00001  -0.00165   0.00075  -0.00090   1.05947
   D10        1.47094   0.00016   0.01004   0.00067   0.01071   1.48164
   D11       -0.45158   0.00015   0.00945   0.00094   0.01039  -0.44119
   D12       -2.89967   0.00003   0.00986  -0.00020   0.00966  -2.89001
         Item               Value     Threshold  Converged?
 Maximum Force            0.000806     0.000450     NO 
 RMS     Force            0.000204     0.000300     YES
 Maximum Displacement     0.011467     0.001800     NO 
 RMS     Displacement     0.002686     0.001200     NO 
 Predicted change in Energy=-2.822816D-06
 GradGradGradGradGradGradGradGradGradGradGradGradGradGradGradGradGradGrad

                          Input orientation:                          
 ---------------------------------------------------------------------
 Center     Atomic      Atomic             Coordinates (Angstroms)
 Number     Number       Type             X           Y           Z
 ---------------------------------------------------------------------
      1          6           0       -1.203357    0.612049   -0.621406
      2         16           0       -1.697756    0.371525    1.166221
      3          8           0       -1.808154   -1.100928    1.201754
      4          8           0       -0.555628    0.982553    1.853256
      5          7           0       -3.012874    1.171797    1.363992
      6          1           0       -3.774204    0.558050    1.068333
      7          9           0       -2.176947    0.179757   -1.451391
      8          9           0       -0.086671   -0.061747   -0.948355
      9          9           0       -0.983515    1.902561   -0.921108
 ---------------------------------------------------------------------
                    Distance matrix (angstroms):
                    1          2          3          4          5
     1  C    0.000000
     2  S    1.870265   0.000000
     3  O    2.573709   1.477014   0.000000
     4  O    2.584720   1.466230   2.516778   0.000000
     5  N    2.743989   1.552122   2.577393   2.512619   0.000000
     6  H    3.076911   2.087105   2.575920   3.339991   1.021627
     7  F    1.350418   2.668013   2.969064   3.767473   3.099887
     8  F    1.344576   2.693464   2.943869   3.026467   3.928262
     9  F    1.342972   2.685359   3.769286   2.954081   3.142291
                    6          7          8          9
     6  H    0.000000
     7  F    3.007215   0.000000
     8  F    4.248420   2.163475   0.000000
     9  F    3.681511   2.161836   2.159533   0.000000
 Stoichiometry    CHF3NO2S(1-)
 Framework group  C1[X(CHF3NO2S)]
 Deg. of freedom    21
 Full point group                 C1      NOp   1
 Largest Abelian subgroup         C1      NOp   1
 Largest concise Abelian subgroup C1      NOp   1
                         Standard orientation:                         
 ---------------------------------------------------------------------
 Center     Atomic      Atomic             Coordinates (Angstroms)
 Number     Number       Type             X           Y           Z
 ---------------------------------------------------------------------
      1          6           0       -0.943578    0.021297   -0.020208
      2         16           0        0.924649   -0.058490    0.015161
      3          8           0        1.155099    0.063009    1.469018
      4          8           0        1.156843   -1.368581   -0.600938
      5          7           0        1.425736    1.115275   -0.868169
      6          1           0        1.447282    1.942110   -0.268500
      7          9           0       -1.382333    1.212158    0.441283
      8          9           0       -1.520044   -0.926169    0.739976
      9          9           0       -1.437166   -0.118922   -1.261290
 ---------------------------------------------------------------------
 Rotational constants (GHZ):           2.6458481           1.5524004           1.5469173
 Basis read from rwf:  (6D, 7F)
 There are   158 symmetry adapted cartesian basis functions of A   symmetry.
 There are   158 symmetry adapted basis functions of A   symmetry.
   158 basis functions,   284 primitive gaussians,   158 cartesian basis functions
    37 alpha electrons       37 beta electrons
       nuclear repulsion energy       547.3134161072 Hartrees.
 NAtoms=    9 NActive=    9 NUniq=    9 SFac= 1.00D+00 NAtFMM=   60 NAOKFM=F Big=F
 Integral buffers will be    131072 words long.
 Raffenetti 2 integral format.
 Two-electron integral symmetry is turned on.
 One-electron integrals computed using PRISM.
 NBasis=   158 RedAO= T EigKep=  2.93D-04  NBF=   158
 NBsUse=   158 1.00D-06 EigRej= -1.00D+00 NBFU=   158
 Initial guess from the checkpoint file:  "/jobfs/40766132.gadi-pbs/Gau-2077767.chk"
 B after Tr=    -0.000000   -0.000000   -0.000000
         Rot=    0.999998    0.001892   -0.000167    0.000182 Ang=   0.22 deg.
 Keep R1 ints in memory in canonical form, NReq=94662320.
 Requested convergence on RMS density matrix=1.00D-08 within 128 cycles.
 Requested convergence on MAX density matrix=1.00D-06.
 Requested convergence on             energy=1.00D-06.
 No special actions if energy rises.
 SCF Done:  E(RM062X) =  -941.411373415     A.U. after    9 cycles
            NFock=  9  Conv=0.83D-08     -V/T= 2.0058
 Calling FoFJK, ICntrl=      2127 FMM=F ISym2X=0 I1Cent= 0 IOpClX= 0 NMat=1 NMatS=1 NMatT=0.
 ***** Axes restored to original set *****
 -------------------------------------------------------------------
 Center     Atomic                   Forces (Hartrees/Bohr)
 Number     Number              X              Y              Z
 -------------------------------------------------------------------
      1        6          -0.000196245   -0.000136160    0.000019891
      2       16          -0.000701073    0.000341455   -0.000144041
      3        8          -0.000076005   -0.000318668   -0.000001906
      4        8           0.000451076    0.000234748    0.000239731
      5        7           0.000199285   -0.000354744   -0.000172922
      6        1           0.000127086    0.000103144    0.000104413
      7        9           0.000119582    0.000057158    0.000008049
      8        9           0.000063279   -0.000042595   -0.000017530
      9        9           0.000013015    0.000115664   -0.000035685
 -------------------------------------------------------------------
 Cartesian Forces:  Max     0.000701073 RMS     0.000226192

 GradGradGradGradGradGradGradGradGradGradGradGradGradGradGradGradGradGrad
 Berny optimization.
 Using GEDIIS/GDIIS optimizer.
 FormGI is forming the generalized inverse of G from B-inverse, IUseBI=4.
 Internal  Forces:  Max     0.000561811 RMS     0.000146315
 Search for a local minimum.
 Step number   6 out of a maximum of   43
 All quantities printed in internal units (Hartrees-Bohrs-Radians)
 Mixed Optimization -- En-DIIS/RFO-DIIS
 Swapping is turned off.
 Update second derivatives using D2CorX and points    1    2    3    4    5
                                                      6
 DE= -3.30D-06 DEPred=-2.82D-06 R= 1.17D+00
 TightC=F SS=  1.41D+00  RLast= 1.82D-02 DXNew= 5.6762D-01 5.4717D-02
 Trust test= 1.17D+00 RLast= 1.82D-02 DXMaxT set to 3.38D-01
 ITU=  1  1  1  1  1  0
     Eigenvalues ---    0.00228   0.00880   0.07922   0.08285   0.09728
     Eigenvalues ---    0.11495   0.15465   0.20201   0.21680   0.24734
     Eigenvalues ---    0.24981   0.25114   0.27153   0.32274   0.45163
     Eigenvalues ---    0.53466   0.57695   0.58977   0.70372   0.83440
     Eigenvalues ---    0.86608
 En-DIIS/RFO-DIIS/Sim-DIIS IScMMF=       -3 using points:     6    5    4    3
 RFO step:  Lambda=-1.52056623D-06.
 DidBck=F Rises=F RFO-DIIS coefs:    1.12460    0.04690   -0.12349   -0.04800
 Iteration  1 RMS(Cart)=  0.00124627 RMS(Int)=  0.00000219
 Iteration  2 RMS(Cart)=  0.00000186 RMS(Int)=  0.00000009
 Iteration  3 RMS(Cart)=  0.00000000 RMS(Int)=  0.00000009
 Variable       Old X    -DE/DX   Delta X   Delta X   Delta X     New X
                                 (Linear)    (Quad)   (Total)
    R1        3.53429   0.00002  -0.00029  -0.00001  -0.00029   3.53399
    R2        2.55192  -0.00011  -0.00015  -0.00031  -0.00046   2.55146
    R3        2.54088   0.00008  -0.00011   0.00007  -0.00004   2.54084
    R4        2.53785   0.00012  -0.00031   0.00020  -0.00011   2.53774
    R5        2.79115   0.00032  -0.00012   0.00049   0.00037   2.79152
    R6        2.77077   0.00056  -0.00016   0.00085   0.00070   2.77147
    R7        2.93309  -0.00042   0.00036  -0.00086  -0.00050   2.93259
    R8        1.93060  -0.00019   0.00012  -0.00046  -0.00034   1.93026
    A1        1.93447   0.00013  -0.00003   0.00054   0.00052   1.93498
    A2        1.96873  -0.00002  -0.00003  -0.00022  -0.00025   1.96848
    A3        1.96076  -0.00002   0.00002  -0.00026  -0.00024   1.96052
    A4        1.86387  -0.00005  -0.00004   0.00001  -0.00004   1.86383
    A5        1.86343  -0.00006   0.00010  -0.00011  -0.00001   1.86342
    A6        1.86641   0.00000  -0.00001   0.00003   0.00002   1.86643
    A7        1.74260   0.00002   0.00029  -0.00000   0.00029   1.74289
    A8        1.76029  -0.00007  -0.00010  -0.00033  -0.00043   1.75986
    A9        1.85403   0.00004  -0.00019   0.00024   0.00005   1.85408
   A10        2.05149   0.00003  -0.00003   0.00010   0.00007   2.05156
   A11        2.03489  -0.00005  -0.00007  -0.00021  -0.00029   2.03460
   A12        1.96648   0.00003   0.00010   0.00017   0.00027   1.96675
   A13        1.85959   0.00002  -0.00009   0.00042   0.00033   1.85992
    D1        1.09835  -0.00001  -0.00069  -0.00028  -0.00097   1.09738
    D2       -3.07753  -0.00000  -0.00066  -0.00027  -0.00094  -3.07847
    D3       -1.02358   0.00002  -0.00067  -0.00014  -0.00080  -1.02438
    D4       -0.99062  -0.00003  -0.00059  -0.00052  -0.00111  -0.99174
    D5        1.11668  -0.00001  -0.00057  -0.00052  -0.00108   1.11560
    D6       -3.11255   0.00001  -0.00057  -0.00038  -0.00095  -3.11350
    D7       -3.10178  -0.00001  -0.00057  -0.00021  -0.00078  -3.10256
    D8       -0.99448   0.00001  -0.00054  -0.00021  -0.00075  -0.99523
    D9        1.05947   0.00003  -0.00054  -0.00007  -0.00061   1.05886
   D10        1.48164   0.00006   0.00397  -0.00005   0.00392   1.48556
   D11       -0.44119   0.00003   0.00378  -0.00010   0.00367  -0.43751
   D12       -2.89001   0.00001   0.00380  -0.00023   0.00357  -2.88644
         Item               Value     Threshold  Converged?
 Maximum Force            0.000562     0.000450     NO 
 RMS     Force            0.000146     0.000300     YES
 Maximum Displacement     0.005129     0.001800     NO 
 RMS     Displacement     0.001246     0.001200     NO 
 Predicted change in Energy=-7.466961D-07
 GradGradGradGradGradGradGradGradGradGradGradGradGradGradGradGradGradGrad

                          Input orientation:                          
 ---------------------------------------------------------------------
 Center     Atomic      Atomic             Coordinates (Angstroms)
 Number     Number       Type             X           Y           Z
 ---------------------------------------------------------------------
      1          6           0       -1.203246    0.612043   -0.621650
      2         16           0       -1.698130    0.371619    1.165693
      3          8           0       -1.809366   -1.100962    1.201487
      4          8           0       -0.555338    0.982363    1.852663
      5          7           0       -3.012822    1.172144    1.363209
      6          1           0       -3.774653    0.557642    1.071047
      7          9           0       -2.175782    0.179436   -1.452309
      8          9           0       -0.086039   -0.061275   -0.947723
      9          9           0       -0.983730    1.902606   -0.921121
 ---------------------------------------------------------------------
                    Distance matrix (angstroms):
                    1          2          3          4          5
     1  C    0.000000
     2  S    1.870109   0.000000
     3  O    2.574024   1.477211   0.000000
     4  O    2.584405   1.466598   2.517312   0.000000
     5  N    2.743710   1.551860   2.577106   2.512929   0.000000
     6  H    3.079013   2.086986   2.574944   3.339955   1.021449
     7  F    1.350174   2.668149   2.969229   3.767409   3.100523
     8  F    1.344557   2.693095   2.944471   3.025159   3.927822
     9  F    1.342916   2.684973   3.769425   2.953684   3.141489
                    6          7          8          9
     6  H    0.000000
     7  F    3.011105   0.000000
     8  F    4.250220   2.163233   0.000000
     9  F    3.683329   2.161588   2.159488   0.000000
 Stoichiometry    CHF3NO2S(1-)
 Framework group  C1[X(CHF3NO2S)]
 Deg. of freedom    21
 Full point group                 C1      NOp   1
 Largest Abelian subgroup         C1      NOp   1
 Largest concise Abelian subgroup C1      NOp   1
                         Standard orientation:                         
 ---------------------------------------------------------------------
 Center     Atomic      Atomic             Coordinates (Angstroms)
 Number     Number       Type             X           Y           Z
 ---------------------------------------------------------------------
      1          6           0       -0.943536    0.021537   -0.020150
      2         16           0        0.924529   -0.058401    0.015247
      3          8           0        1.155683    0.069046    1.468683
[...]
 Vib (Bot)    3  0.102600D+01          0.011149          0.025672
 Vib (Bot)    4  0.657376D+00         -0.182186         -0.419499
 Vib (Bot)    5  0.572696D+00         -0.242076         -0.557401
 Vib (Bot)    6  0.551136D+00         -0.258742         -0.595774
 Vib (Bot)    7  0.382074D+00         -0.417852         -0.962141
 Vib (Bot)    8  0.330411D+00         -0.480945         -1.107417
 Vib (Bot)    9  0.313850D+00         -0.503279         -1.158842
 Vib (Bot)   10  0.281977D+00         -0.549787         -1.265931
 Vib (Bot)   11  0.275849D+00         -0.559329         -1.287902
 Vib (Bot)   12  0.243178D+00         -0.614076         -1.413962
 Vib (V=0)       0.363542D+02          1.560554          3.593309
 Vib (V=0)    1  0.362612D+01          0.559442          1.288162
 Vib (V=0)    2  0.169337D+01          0.228753          0.526723
 Vib (V=0)    3  0.164135D+01          0.215202          0.495521
 Vib (V=0)    4  0.132592D+01          0.122517          0.282107
 Vib (V=0)    5  0.126025D+01          0.100457          0.231310
 Vib (V=0)    6  0.124414D+01          0.094871          0.218448
 Vib (V=0)    7  0.112927D+01          0.052798          0.121571
 Vib (V=0)    8  0.109931D+01          0.041120          0.094682
 Vib (V=0)    9  0.109034D+01          0.037562          0.086490
 Vib (V=0)   10  0.107403D+01          0.031017          0.071418
 Vib (V=0)   11  0.107105D+01          0.029808          0.068635
 Vib (V=0)   12  0.105600D+01          0.023664          0.054488
 Electronic      0.100000D+01          0.000000          0.000000
 Translational   0.707466D+08          7.849706         18.074615
 Rotational      0.344281D+06          5.536913         12.749213
 ***** Axes restored to original set *****
 -------------------------------------------------------------------
 Center     Atomic                   Forces (Hartrees/Bohr)
 Number     Number              X              Y              Z
 -------------------------------------------------------------------
      1        6          -0.000086825   -0.000128549    0.000074365
      2       16          -0.000307036    0.000207433    0.000035499
      3        8          -0.000031229   -0.000133078   -0.000006197
      4        8           0.000124378    0.000067067    0.000049954
      5        7           0.000129086   -0.000168884   -0.000053444
      6        1           0.000056891    0.000039956    0.000025905
      7        9          -0.000020785   -0.000002754   -0.000052159
      8        9           0.000106069   -0.000065666   -0.000028067
      9        9           0.000029451    0.000184474   -0.000045857
 -------------------------------------------------------------------
 Cartesian Forces:  Max     0.000307036 RMS     0.000108764
 FormGI is forming the generalized inverse of G from B-inverse, IUseBI=4.

 GradGradGradGradGradGradGradGradGradGradGradGradGradGradGradGradGradGrad
 Berny optimization.
 Internal  Forces:  Max     0.000231164 RMS     0.000071290
 Search for a local minimum.
 Step number   1 out of a maximum of    2
 All quantities printed in internal units (Hartrees-Bohrs-Radians)
 Second derivative matrix not updated -- analytic derivatives used.
 ITU=  0
     Eigenvalues ---    0.00322   0.00850   0.08985   0.09613   0.10455
     Eigenvalues ---    0.12541   0.14682   0.16403   0.16810   0.18008
     Eigenvalues ---    0.22827   0.23325   0.25369   0.32694   0.35809
     Eigenvalues ---    0.36796   0.44545   0.46634   0.54647   0.57383
     Eigenvalues ---    0.61567
 Angle between quadratic step and forces=  56.52 degrees.
 Linear search not attempted -- first point.
 Iteration  1 RMS(Cart)=  0.00051734 RMS(Int)=  0.00000018
 Iteration  2 RMS(Cart)=  0.00000017 RMS(Int)=  0.00000001
 Variable       Old X    -DE/DX   Delta X   Delta X   Delta X     New X
                                 (Linear)    (Quad)   (Total)
    R1        3.53399   0.00006   0.00000   0.00032   0.00032   3.53431
    R2        2.55146   0.00005   0.00000   0.00002   0.00002   2.55148
    R3        2.54084   0.00013   0.00000   0.00024   0.00024   2.54109
    R4        2.53774   0.00019   0.00000   0.00051   0.00051   2.53825
    R5        2.79152   0.00014   0.00000   0.00026   0.00026   2.79179
    R6        2.77147   0.00015   0.00000   0.00023   0.00023   2.77170
    R7        2.93259  -0.00023   0.00000  -0.00061  -0.00061   2.93198
    R8        1.93026  -0.00007   0.00000  -0.00021  -0.00021   1.93005
    A1        1.93498   0.00005   0.00000   0.00039   0.00039   1.93537
    A2        1.96848  -0.00001   0.00000  -0.00004  -0.00004   1.96844
    A3        1.96052  -0.00001   0.00000  -0.00012  -0.00012   1.96040
    A4        1.86383  -0.00002   0.00000  -0.00002  -0.00002   1.86381
    A5        1.86342  -0.00002   0.00000  -0.00015  -0.00015   1.86327
    A6        1.86643   0.00000   0.00000  -0.00008  -0.00008   1.86636
    A7        1.74289  -0.00001   0.00000  -0.00009  -0.00009   1.74280
    A8        1.75986  -0.00005   0.00000  -0.00035  -0.00035   1.75951
    A9        1.85408   0.00004   0.00000   0.00028   0.00028   1.85436
   A10        2.05156   0.00002   0.00000   0.00009   0.00009   2.05165
   A11        2.03460  -0.00002   0.00000  -0.00017  -0.00017   2.03443
   A12        1.96675   0.00001   0.00000   0.00019   0.00019   1.96695
   A13        1.85992  -0.00001   0.00000   0.00013   0.00013   1.86005
    D1        1.09738  -0.00000   0.00000   0.00001   0.00001   1.09739
    D2       -3.07847   0.00000   0.00000  -0.00004  -0.00004  -3.07850
    D3       -1.02438   0.00001   0.00000   0.00013   0.00013  -1.02425
    D4       -0.99174  -0.00001   0.00000  -0.00021  -0.00021  -0.99195
    D5        1.11560  -0.00001   0.00000  -0.00026  -0.00026   1.11534
    D6       -3.11350   0.00000   0.00000  -0.00009  -0.00009  -3.11359
    D7       -3.10256  -0.00000   0.00000   0.00001   0.00001  -3.10256
    D8       -0.99523  -0.00000   0.00000  -0.00004  -0.00004  -0.99526
    D9        1.05886   0.00001   0.00000   0.00013   0.00013   1.05899
   D10        1.48556   0.00002   0.00000   0.00097   0.00097   1.48653
   D11       -0.43751   0.00001   0.00000   0.00098   0.00098  -0.43653
   D12       -2.88644  -0.00001   0.00000   0.00079   0.00079  -2.88565
         Item               Value     Threshold  Converged?
 Maximum Force            0.000231     0.000450     YES
 RMS     Force            0.000071     0.000300     YES
 Maximum Displacement     0.001947     0.001800     NO 
 RMS     Displacement     0.000517     0.001200     YES
 Predicted change in Energy=-2.300257D-07
                           ----------------------------
                           ! Non-Optimized Parameters !
                           ! (Angstroms and Degrees)  !
 --------------------------                            --------------------------
 ! Name  Definition              Value          Derivative Info.                !
 --------------------------------------------------------------------------------
 ! R1    R(1,2)                  1.8703         -DE/DX =    0.0001              !
 ! R2    R(1,7)                  1.3502         -DE/DX =    0.0                 !
 ! R3    R(1,8)                  1.3447         -DE/DX =    0.0001              !
 ! R4    R(1,9)                  1.3432         -DE/DX =    0.0002              !
 ! R5    R(2,3)                  1.4773         -DE/DX =    0.0001              !
 ! R6    R(2,4)                  1.4667         -DE/DX =    0.0001              !
 ! R7    R(2,5)                  1.5515         -DE/DX =   -0.0002              !
 ! R8    R(5,6)                  1.0213         -DE/DX =   -0.0001              !
 ! A1    A(2,1,7)              110.8887         -DE/DX =    0.0                 !
 ! A2    A(2,1,8)              112.7832         -DE/DX =    0.0                 !
 ! A3    A(2,1,9)              112.3227         -DE/DX =    0.0                 !
 ! A4    A(7,1,8)              106.7884         -DE/DX =    0.0                 !
 ! A5    A(7,1,9)              106.7577         -DE/DX =    0.0                 !
 ! A6    A(8,1,9)              106.9343         -DE/DX =    0.0                 !
 ! A7    A(1,2,3)               99.8552         -DE/DX =    0.0                 !
 ! A8    A(1,2,4)              100.8124         -DE/DX =    0.0                 !
 ! A9    A(1,2,5)              106.2471         -DE/DX =    0.0                 !
 ! A10   A(3,2,4)              117.5509         -DE/DX =    0.0                 !
 ! A11   A(3,2,5)              116.5643         -DE/DX =    0.0                 !
 ! A12   A(4,2,5)              112.6977         -DE/DX =    0.0                 !
 ! A13   A(2,5,6)              106.5729         -DE/DX =    0.0                 !
 ! D1    D(7,1,2,3)             62.8757         -DE/DX =    0.0                 !
 ! D2    D(7,1,2,4)           -176.3853         -DE/DX =    0.0                 !
 ! D3    D(7,1,2,5)            -58.6853         -DE/DX =    0.0                 !
 ! D4    D(8,1,2,3)            -56.8345         -DE/DX =    0.0                 !
 ! D5    D(8,1,2,4)             63.9044         -DE/DX =    0.0                 !
 ! D6    D(8,1,2,5)           -178.3956         -DE/DX =    0.0                 !
 ! D7    D(9,1,2,3)           -177.7635         -DE/DX =    0.0                 !
 ! D8    D(9,1,2,4)            -57.0245         -DE/DX =    0.0                 !
 ! D9    D(9,1,2,5)             60.6755         -DE/DX =    0.0                 !
 ! D10   D(1,2,5,6)             85.1718         -DE/DX =    0.0                 !
 ! D11   D(3,2,5,6)            -25.0115         -DE/DX =    0.0                 !
 ! D12   D(4,2,5,6)           -165.3353         -DE/DX =    0.0                 !
 --------------------------------------------------------------------------------
 GradGradGradGradGradGradGradGradGradGradGradGradGradGradGradGradGradGrad


 ----------------------------------------------------------------------

 Electric dipole moment (input orientation):
 (Debye = 10**-18 statcoulomb cm , SI units = C m)
                  (au)            (Debye)         (10**-30 SI)
   Tot        0.165732D+01      0.421248D+01      0.140513D+02
   x         -0.529092D-01     -0.134482D+00     -0.448583D+00
   y         -0.125910D+00     -0.320032D+00     -0.106751D+01
   z         -0.165168D+01     -0.419815D+01     -0.140035D+02

 Dipole polarizability, Alpha (input orientation).
 (esu units = cm**3 , SI units = C**2 m**2 J**-1)
 Alpha(0;0):
               (au)            (10**-24 esu)      (10**-40 SI)
   iso        0.540702D+02      0.801238D+01      0.891498D+01
   aniso      0.668328D+01      0.990360D+00      0.110192D+01
   xx         0.561437D+02      0.831964D+01      0.925685D+01
   yx        -0.196229D+01     -0.290781D+00     -0.323538D+00
   yy         0.524429D+02      0.777124D+01      0.864667D+01
   zx        -0.258050D+01     -0.382391D+00     -0.425467D+00
   zy         0.897712D+00      0.133027D+00      0.148013D+00
   zz         0.536241D+02      0.794627D+01      0.884141D+01

 ----------------------------------------------------------------------

 Dipole orientation:
     6         -2.23654642         -1.24526114          1.15547475
    16         -3.27854011         -0.53677208         -2.14625342
     8         -3.48741753          2.24284300         -1.99554112
     8         -1.16292570         -1.58632457         -3.59665044
     7         -5.77543418         -2.01983259         -2.55385025
     1         -7.19531493         -0.90564273         -1.86944017
     9         -4.02232964         -0.55160361          2.84063308
     9         -0.10519150         -0.02080008          1.79883326
     9         -1.80682897         -3.71951176          1.52094196

 Electric dipole moment (dipole orientation):
 (Debye = 10**-18 statcoulomb cm , SI units = C m)
                  (au)            (Debye)         (10**-30 SI)
   Tot        0.165732D+01      0.421248D+01      0.140513D+02
   x          0.000000D+00      0.000000D+00      0.000000D+00
   y          0.000000D+00      0.000000D+00      0.000000D+00
   z          0.165732D+01      0.421248D+01      0.140513D+02

 Dipole polarizability, Alpha (dipole orientation).
 (esu units = cm**3 , SI units = C**2 m**2 J**-1)
 Alpha(0;0):
               (au)            (10**-24 esu)      (10**-40 SI)
   iso        0.540702D+02      0.801238D+01      0.891498D+01
   aniso      0.668328D+01      0.990360D+00      0.110192D+01
   xx         0.563107D+02      0.834438D+01      0.928437D+01
   yx         0.178990D+01      0.265235D+00      0.295114D+00
   yy         0.523180D+02      0.775273D+01      0.862607D+01
   zx         0.263947D+01      0.391128D+00      0.435189D+00
   zy         0.744417D+00      0.110311D+00      0.122738D+00
   zz         0.535820D+02      0.794004D+01      0.883448D+01

 ----------------------------------------------------------------------
 Unable to Open any file for archive entry.
 1\1\GINC-GADI-CPU-CLX-2751\Freq\RM062X\Gen\C1H1F3N1O2S1(1-)\YJ5695\20-
 May-2022\0\\#N Geom=AllCheck Guess=TCheck SCRF=Check GenChk RM062X/Chk
 Bas Freq\\A.16.a2.freq\\-1,1\C,-1.2032460887,0.6120432556,-0.621650434
 4\S,-1.698129791,0.3716193557,1.1656926481\O,-1.8093658396,-1.10096226
 82,1.2014874509\O,-0.555338303,0.9823631272,1.852663457\N,-3.012822247
 5,1.1721440635,1.3632087924\H,-3.774653295,0.5576421427,1.0710471608\F
 ,-2.1757823035,0.1794364721,-1.4523091137\F,-0.0860390157,-0.061275417
 1,-0.947723029\F,-0.9837301158,1.9026062685,-0.9211209321\\Version=ES6
 4L-G16RevC.01\State=1-A\HF=-941.4113743\RMSD=1.707e-09\RMSF=1.088e-04\
 ZeroPoint=0.0389696\Thermal=0.0464091\ETot=-941.3649652\HTot=-941.3640
 21\GTot=-941.4049008\Dipole=-0.0529092,-0.1259102,-1.6516798\DipoleDer
 iv=1.3784065,0.0147358,0.052853,0.0438322,1.4228145,-0.0149705,-0.0578
 649,0.0388582,1.3749558,2.4235869,-0.1009518,-0.0128201,-0.072816,2.14
 65336,0.1091136,-0.0112085,0.1132135,1.7628917,-0.7332353,-0.0053758,0
 .029172,0.0220859,-1.5184551,0.1840901,0.0542448,0.0094208,-0.6712283,
 -1.1098329,-0.182471,-0.3690227,-0.2405478,-0.7230411,-0.2004763,-0.22
 36533,-0.1358109,-0.913073,-1.2979222,0.3551479,0.2405349,0.3849224,-0
 .7115542,-0.014644,0.1344955,0.0703952,-0.8046408,0.1322788,-0.0716428
 ,-0.0434081,-0.1156716,0.0934897,-0.081262,-0.0819394,-0.095517,0.2286
 325,-0.6017684,-0.1587922,-0.2814058,-0.1483933,-0.343192,-0.1271942,-
 0.3159373,-0.1540735,-0.85415,-0.8702419,0.302863,0.289856,0.292377,-0
 .4414437,-0.1038063,0.3719649,-0.145495,-0.5830516,-0.3212715,-0.15351
 31,0.0942409,-0.1657887,-0.9251517,0.2491495,0.1298982,0.2990087,-0.54
 03362\Polar=56.1437177,-1.9622881,52.4429015,-2.5805013,0.8977125,53.6
 240628\Quadrupole=3.3462166,-1.2467444,-2.0994722,1.330439,0.524943,-0
 .9711059\PG=C01 [X(C1H1F3N1O2S1)]\NImag=0\\0.51678706,0.00084872,0.523
 20985,-0.01528499,-0.00840975,0.54469055,-0.03148758,-0.00471317,0.040
 16465,0.85877540,-0.00601834,-0.01904178,0.02057402,0.07325547,0.88629
 554,0.04119895,0.01792920,-0.16476563,0.12065012,0.09292032,0.49871473
 ,-0.00008873,-0.00747790,-0.00310514,-0.09282935,-0.02747372,0.0015304
 2,0.06916911,0.00426222,-0.02720805,-0.01837330,-0.03436625,-0.5117202
 5,0.01484737,0.03603351,0.56460269,-0.00130261,0.01888751,0.00771444,0
 .00338715,0.01716790,-0.08635883,-0.00250510,-0.01952440,0.05676093,-0
 .01534306,-0.00694794,0.00539041,-0.35894616,-0.15043428,-0.17101204,0
 .00467303,-0.00100703,-0.00584874,0.39247665,-0.00808544,-0.00450642,0
 .00252871,-0.15066008,-0.16573159,-0.09255820,-0.03285578,-0.01154816,
 -0.01959157,0.16868593,0.15748488,-0.03041578,-0.01413843,0.00192150,-
 0.17139129,-0.09547166,-0.19502973,-0.00421144,0.00050730,0.01604251,0
 .20184941,0.11036400,0.18476289,-0.01288909,0.01262412,-0.01659040,-0.
 30465536,0.13834208,0.03532323,0.00455144,0.00342913,0.00001198,-0.032
 91480,0.01449009,0.00096102,0.59117056,0.00530285,-0.00388043,0.007941
 95,0.08328968,-0.14909324,-0.02363034,0.03605538,-0.02285109,-0.007586
 50,-0.01886108,0.01239285,-0.00223880,0.04548588,0.32160038,0.00975328
 ,-0.00722161,0.00893344,0.02052435,-0.02072688,-0.07786770,-0.00144347
 ,-0.00197569,0.01861424,-0.01832744,0.00425959,0.00968368,0.05397932,0
 .10114865,0.08913566,-0.00146223,0.00073740,0.00046715,-0.03524527,-0.
 02826292,-0.01400711,0.00717798,-0.00215130,0.00164709,-0.00524664,0.0
 0404163,0.00050601,-0.24880618,-0.15072015,-0.07479695,0.28170582,-0.0
 0047322,-0.00094340,-0.00049686,0.03097242,-0.00285058,0.00135821,-0.0
 0108769,-0.00027570,0.00019342,0.00542776,0.00152238,-0.00043571,-0.21
 106852,-0.16727406,-0.07455390,0.17536287,0.17002351,0.00357299,-0.001
 25605,0.00084038,0.00715437,-0.00565149,-0.00339403,0.00250983,0.00153
 095,-0.00211300,-0.00277662,0.00003845,0.00503178,-0.09430055,-0.06809
 302,-0.03998458,0.08608159,0.07369889,0.04212452,-0.15616880,-0.039133
 84,-0.09741879,-0.01557005,-0.00657871,0.00494231,0.00389525,0.0035469
 7,0.00011305,0.00237032,0.00065080,-0.00439912,0.00678440,-0.00125091,
 0.00200013,0.00111231,0.00062560,-0.00208081,0.24851574,-0.03909467,-0
 .08661824,-0.04268017,-0.00586318,-0.00388175,0.00098018,0.00212570,0.
 00560473,0.00086875,0.00033348,0.00131228,-0.00191346,0.00000297,0.001
 21678,-0.00012669,0.00034078,-0.00020832,-0.00006329,0.07667692,0.1127
 1427,-0.09249155,-0.04132993,-0.18786306,-0.03965810,-0.01794145,0.002
 41387,0.00496338,0.00796795,-0.00064466,-0.00349958,-0.00186308,-0.017
 46856,0.00840627,-0.00073522,0.00108639,0.00086898,0.00007872,-0.00154
 755,0.14013553,0.06331407,0.17600944,-0.22078255,0.08314616,0.06895458
 ,-0.01959484,0.01727212,-0.01360781,0.00362240,-0.00657167,0.00089956,
 0.00904176,0.00029712,0.00470146,-0.00417446,0.00055961,0.00766583,0.0
 0039899,0.00029853,0.00003887,-0.07560358,0.01290878,-0.01380860,0.303
 81374,0.08427417,-0.11607058,-0.03668311,0.00721243,-0.00751840,0.0061
 2329,-0.00218634,0.00693888,0.00003081,-0.00180351,0.00138192,-0.00071
 633,0.00086052,0.00107424,-0.00301439,-0.00018503,-0.00010409,0.000198
 96,0.00562857,0.01478444,0.00686964,-0.14030445,0.16443480,0.06726463,
 -0.03427632,-0.10639831,0.02023044,-0.01702019,0.01203237,-0.00139894,
 0.00560793,-0.00068294,-0.00391711,-0.00007051,-0.00234914,0.00814334,
 -0.00231774,-0.00770109,-0.00010255,-0.00026849,-0.00076481,-0.0305739
 4,0.01024183,0.01413720,-0.05275321,0.03598121,0.07726141,-0.07856501,
 -0.03908354,0.01742253,-0.00044679,-0.01010170,-0.00501806,-0.00017113
 ,-0.00317558,0.00359762,0.00388889,0.00343573,0.00239972,0.00093348,0.
 00013873,0.00064495,0.00036523,-0.00005774,-0.00019967,-0.01533559,-0.
 04743077,-0.00491634,0.00327854,0.04650366,-0.00689268,0.08605238,-0.0
 4101629,-0.26494095,0.07559852,0.00087268,-0.02645795,-0.01797002,-0.0
 0313314,-0.00354305,0.00955408,0.00460667,0.00769185,0.00404309,-0.004
 16627,0.00681457,0.00221093,0.00083673,0.00011026,-0.00040340,-0.04016
 540,-0.04492418,-0.01636069,0.03239381,-0.06492122,0.00212229,0.049771
 22,0.39017068,0.01770508,0.06981538,-0.10507331,-0.00106170,0.02614944
 ,0.01425495,0.00366045,0.00941188,-0.00933267,-0.00185830,-0.00310738,
 -0.00259491,0.00406578,-0.00448897,-0.00190004,-0.00066422,0.00042574,
 -0.00019271,-0.01271836,-0.03062121,0.01387693,-0.00209067,-0.00879009
 ,0.01446531,-0.00703806,-0.05879479,0.07649646\\0.00008683,0.00012855,
 -0.00007437,0.00030704,-0.00020743,-0.00003550,0.00003123,0.00013308,0
 .00000620,-0.00012438,-0.00006707,-0.00004995,-0.00012909,0.00016888,0
 .00005344,-0.00005689,-0.00003996,-0.00002591,0.00002078,0.00000275,0.
 00005216,-0.00010607,0.00006567,0.00002807,-0.00002945,-0.00018447,0.0
 0004586\\\@
 The archive entry for this job was punched.


 COMMON SENSE IS NOT SO COMMON.   -- VOLTAIRE
 Job cpu time:       0 days  0 hours 12 minutes 36.2 seconds.
 Elapsed time:       0 days  0 hours  0 minutes 49.1 seconds.
 File lengths (MBytes):  RWF=     35 Int=      0 D2E=      0 Chk=      3 Scr=      1
 Normal termination of Gaussian 16 at Fri May 20 19:51:21 2022.
