 Entering Gaussian System, Link 0=g16
 AtFile(1): /home/561/yj5695/Basis/6-31pGd.gbs
 Initial command:
 /apps/gaussian/g16c01/g16/l1.exe "/jobfs/40766276.gadi-pbs/Gau-2413160.inp" -scrdir="/jobfs/40766276.gadi-pbs/"
 Entering Link 1 = /apps/gaussian/g16c01/g16/l1.exe PID=   2413161.
  
 Copyright (c) 1988-2019, Gaussian, Inc.  All Rights Reserved.
  
 This is part of the Gaussian(R) 16 program.  It is based on
 the Gaussian(R) 09 system (copyright 2009, Gaussian, Inc.),
 the Gaussian(R) 03 system (copyright 2003, Gaussian, Inc.),
 the Gaussian(R) 98 system (copyright 1998, Gaussian, Inc.),
 the Gaussian(R) 94 system (copyright 1995, Gaussian, Inc.),
 the Gaussian 92(TM) system (copyright 1992, Gaussian, Inc.),
 the Gaussian 90(TM) system (copyright 1990, Gaussian, Inc.),
 the Gaussian 88(TM) system (copyright 1988, Gaussian, Inc.),
 the Gaussian 86(TM) system (copyright 1986, Carnegie Mellon
 University), and the Gaussian 82(TM) system (copyright 1983,
 Carnegie Mellon University). Gaussian is a federally registered
 trademark of Gaussian, Inc.
  
 This software contains proprietary and confidential information,
 including trade secrets, belonging to Gaussian, Inc.
  
 This software is provided under written license and may be
 used, copied, transmitted, or stored only in accord with that
 written license.
  
 The following legend is applicable only to US Government
 contracts under FAR:
  
                    RESTRICTED RIGHTS LEGEND
  
 Use, reproduction and disclosure by the US Government is
 subject to restrictions as set forth in subparagraphs (a)
 and (c) of the Commercial Computer Software - Restricted
 Rights clause in FAR 52.227-19.
  
 Gaussian, Inc.
 340 Quinnipiac St., Bldg. 40, Wallingford CT 06492
  
  
 ---------------------------------------------------------------
 Warning -- This program may not be used in any manner that
 competes with the business of Gaussian, Inc. or will provide
 assistance to any competitor of Gaussian, Inc.  The licensee
 of this program is prohibited from giving any competitor of
 Gaussian, Inc. access to this program.  By using this program,
 the user acknowledges that Gaussian, Inc. is engaged in the
 business of creating and licensing software in the field of
 computational chemistry and represents and warrants to the
 licensee that it is not a competitor of Gaussian, Inc. and that
 it will not use this program in any manner prohibited above.
 ---------------------------------------------------------------
  

 Cite this work as:
 Gaussian 16, Revision C.01,
 M. J. Frisch, G. W. Trucks, H. B. Schlegel, G. E. Scuseria, 
 M. A. Robb, J. R. Cheeseman, G. Scalmani, V. Barone, 
 G. A. Petersson, H. Nakatsuji, X. Li, M. Caricato, A. V. Marenich, 
 J. Bloino, B. G. Janesko, R. Gomperts, B. Mennucci, H. P. Hratchian, 
 J. V. Ortiz, A. F. Izmaylov, J. L. Sonnenberg, D. Williams-Young, 
 F. Ding, F. Lipparini, F. Egidi, J. Goings, B. Peng, A. Petrone, 
 T. Henderson, D. Ranasinghe, V. G. Zakrzewski, J. Gao, N. Rega, 
 G. Zheng, W. Liang, M. Hada, M. Ehara, K. Toyota, R. Fukuda, 
 J. Hasegawa, M. Ishida, T. Nakajima, Y. Honda, O. Kitao, H. Nakai, 
 T. Vreven, K. Throssell, J. A. Montgomery, Jr., J. E. Peralta, 
 F. Ogliaro, M. J. Bearpark, J. J. Heyd, E. N. Brothers, K. N. Kudin, 
 V. N. Staroverov, T. A. Keith, R. Kobayashi, J. Normand, 
 K. Raghavachari, A. P. Rendell, J. C. Burant, S. S. Iyengar, 
 J. Tomasi, M. Cossi, J. M. Millam, M. Klene, C. Adamo, R. Cammi, 
 J. W. Ochterski, R. L. Martin, K. Morokuma, O. Farkas, 
 J. B. Foresman, and D. J. Fox, Gaussian, Inc., Wallingford CT, 2019.
 
 ******************************************
 Gaussian 16:  ES64L-G16RevC.01  3-Jul-2019
                20-May-2022 
 ******************************************
 %nproc=16
 Will use up to   16 processors via shared memory.
 %mem=20gb
 --------------------------------------------------
 #M062X/gen 6D INT(grid=ultrafine) OPT Freq=noraman
 --------------------------------------------------
 1/18=20,19=15,26=4,38=1/1,3;
 2/9=110,12=2,17=6,18=5,40=1/2;
 3/5=7,8=2,11=2,25=1,30=1,71=1,74=-55,75=-5/1,2,3;
 4//1;
 5/5=2,38=5/2;
 6/7=2,8=2,9=2,10=2,28=1/1;
 7//1,2,3,16;
 1/18=20,19=15,26=4/3(2);
 2/9=110/2;
 99//99;
 2/9=110/2;
 3/5=7,6=1,8=2,11=2,25=1,30=1,71=1,74=-55,75=-5,82=7/1,2,3;
 4/5=5,16=3,69=1/1;
 5/5=2,38=5/2;
 7//1,2,3,16;
 1/18=20,19=15,26=4/3(-5);
 2/9=110/2;
 6/7=2,8=2,9=2,10=2,19=2,28=1/1;
 99/9=1/99;
 ------------
 A.17.a1.freq
 ------------
 Symbolic Z-matrix:
 Charge = -1 Multiplicity = 1
 S                    -1.74038   0.26174   1.26711 
 O                    -0.6263    0.88197   2.05815 
 O                    -3.01067   1.04524   1.3262 
 N                    -2.04942  -1.23067   1.63 
 H                    -1.15743  -1.72595   1.70785 
 C                    -1.18423   0.39761  -0.43135 
 H                    -1.96726   0.00475  -1.08251 
 H                    -0.26889  -0.1883   -0.5434 
 H                    -0.99015   1.44901  -0.65484 
 

 GradGradGradGradGradGradGradGradGradGradGradGradGradGradGradGradGradGrad
 Berny optimization.
 Initialization pass.
                           ----------------------------
                           !    Initial Parameters    !
                           ! (Angstroms and Degrees)  !
 --------------------------                            --------------------------
 ! Name  Definition              Value          Derivative Info.                !
 --------------------------------------------------------------------------------
 ! R1    R(1,2)                  1.5005         estimate D2E/DX2                !
 ! R2    R(1,3)                  1.4937         estimate D2E/DX2                !
 ! R3    R(1,4)                  1.5667         estimate D2E/DX2                !
 ! R4    R(1,6)                  1.7924         estimate D2E/DX2                !
 ! R5    R(4,5)                  1.0232         estimate D2E/DX2                !
 ! R6    R(6,7)                  1.0916         estimate D2E/DX2                !
 ! R7    R(6,8)                  1.0926         estimate D2E/DX2                !
 ! R8    R(6,9)                  1.0923         estimate D2E/DX2                !
 ! A1    A(2,1,3)              113.1881         estimate D2E/DX2                !
 ! A2    A(2,1,4)              114.7143         estimate D2E/DX2                !
 ! A3    A(2,1,6)              103.7594         estimate D2E/DX2                !
 ! A4    A(3,1,4)              108.8303         estimate D2E/DX2                !
 ! A5    A(3,1,6)              105.1658         estimate D2E/DX2                !
 ! A6    A(4,1,6)              110.6655         estimate D2E/DX2                !
 ! A7    A(1,4,5)              107.864          estimate D2E/DX2                !
 ! A8    A(1,6,7)              108.3864         estimate D2E/DX2                !
 ! A9    A(1,6,8)              108.4512         estimate D2E/DX2                !
 ! A10   A(1,6,9)              108.7833         estimate D2E/DX2                !
 ! A11   A(7,6,8)              110.292          estimate D2E/DX2                !
 ! A12   A(7,6,9)              110.5999         estimate D2E/DX2                !
 ! A13   A(8,6,9)              110.265          estimate D2E/DX2                !
 ! D1    D(2,1,4,5)            -44.6104         estimate D2E/DX2                !
 ! D2    D(3,1,4,5)           -172.5563         estimate D2E/DX2                !
 ! D3    D(6,1,4,5)             72.3537         estimate D2E/DX2                !
 ! D4    D(2,1,6,7)           -177.4821         estimate D2E/DX2                !
 ! D5    D(2,1,6,8)             62.7711         estimate D2E/DX2                !
 ! D6    D(2,1,6,9)            -57.1726         estimate D2E/DX2                !
 ! D7    D(3,1,6,7)            -58.3788         estimate D2E/DX2                !
 ! D8    D(3,1,6,8)           -178.1256         estimate D2E/DX2                !
 ! D9    D(3,1,6,9)             61.9308         estimate D2E/DX2                !
 ! D10   D(4,1,6,7)             58.9855         estimate D2E/DX2                !
 ! D11   D(4,1,6,8)            -60.7613         estimate D2E/DX2                !
 ! D12   D(4,1,6,9)            179.295          estimate D2E/DX2                !
 --------------------------------------------------------------------------------
 Trust Radius=3.00D-01 FncErr=1.00D-07 GrdErr=1.00D-06 EigMax=2.50D+02 EigMin=1.00D-04
 Number of steps in this run=     43 maximum allowed number of steps=    100.
 GradGradGradGradGradGradGradGradGradGradGradGradGradGradGradGradGradGrad

                          Input orientation:                          
 ---------------------------------------------------------------------
 Center     Atomic      Atomic             Coordinates (Angstroms)
 Number     Number       Type             X           Y           Z
 ---------------------------------------------------------------------
      1         16           0       -1.740377    0.261739    1.267111
      2          8           0       -0.626298    0.881971    2.058152
      3          8           0       -3.010668    1.045244    1.326199
      4          7           0       -2.049417   -1.230670    1.629997
      5          1           0       -1.157432   -1.725953    1.707849
      6          6           0       -1.184225    0.397606   -0.431346
      7          1           0       -1.967255    0.004748   -1.082507
      8          1           0       -0.268893   -0.188297   -0.543399
      9          1           0       -0.990153    1.449011   -0.654835
 ---------------------------------------------------------------------
                    Distance matrix (angstroms):
                    1          2          3          4          5
     1  S    0.000000
     2  O    1.500535   0.000000
     3  O    1.493657   2.499527   0.000000
     4  N    1.566677   2.582990   2.489193   0.000000
     5  H    2.117781   2.684415   3.355544   1.023232   0.000000
     6  C    1.792351   2.596823   2.616160   2.765678   3.014362
     7  H    2.374494   3.525823   2.823687   2.981725   3.381897
     8  H    2.376077   2.835715   3.540388   2.996741   2.867404
     9  H    2.380405   2.795393   2.858322   3.677389   3.961143
                    6          7          8          9
     6  C    0.000000
     7  H    1.091551   0.000000
     8  H    1.092552   1.792299   0.000000
     9  H    1.092275   1.795418   1.792599   0.000000
 Stoichiometry    CH4NO2S(1-)
 Framework group  C1[X(CH4NO2S)]
 Deg. of freedom    21
 Full point group                 C1      NOp   1
 Largest Abelian subgroup         C1      NOp   1
 Largest concise Abelian subgroup C1      NOp   1
                         Standard orientation:                         
 ---------------------------------------------------------------------
 Center     Atomic      Atomic             Coordinates (Angstroms)
 Number     Number       Type             X           Y           Z
 ---------------------------------------------------------------------
      1         16           0        0.135257   -0.041416    0.012148
      2          8           0        0.290612   -0.228734    1.492817
      3          8           0        0.346552   -1.299249   -0.765169
      4          7           0        1.029080    1.089005   -0.602431
      5          1           0        0.970035    1.904899    0.012250
      6          6           0       -1.602910    0.347306   -0.188326
      7          1           0       -1.810739    0.455729   -1.254411
      8          1           0       -1.810513    1.283457    0.335307
      9          1           0       -2.196317   -0.464443    0.238285
 ---------------------------------------------------------------------
 Rotational constants (GHZ):           4.8736437           4.4608077           4.4289518
 General basis read from cards:  (6D, 7F)
 There are   107 symmetry adapted cartesian basis functions of A   symmetry.
 There are   107 symmetry adapted basis functions of A   symmetry.
   107 basis functions,   200 primitive gaussians,   107 cartesian basis functions
    25 alpha electrons       25 beta electrons
       nuclear repulsion energy       265.2633557998 Hartrees.
 NAtoms=    9 NActive=    9 NUniq=    9 SFac= 1.00D+00 NAtFMM=   60 NAOKFM=F Big=F
 Integral buffers will be    131072 words long.
 Raffenetti 2 integral format.
 Two-electron integral symmetry is turned on.
 One-electron integrals computed using PRISM.
 NBasis=   107 RedAO= T EigKep=  4.78D-04  NBF=   107
 NBsUse=   107 1.00D-06 EigRej= -1.00D+00 NBFU=   107
 ExpMin= 4.05D-02 ExpMax= 2.19D+04 ExpMxC= 3.30D+03 IAcc=3 IRadAn=         5 AccDes= 0.00D+00
 Harris functional with IExCor= 1009 and IRadAn=       5 diagonalized for initial guess.
 HarFok:  IExCor= 1009 AccDes= 0.00D+00 IRadAn=         5 IDoV= 1 UseB2=F ITyADJ=14
 ICtDFT=  3500011 ScaDFX=  1.000000  1.000000  1.000000  1.000000
 FoFCou: FMM=F IPFlag=           0 FMFlag=      100000 FMFlg1=           0
         NFxFlg=           0 DoJE=T BraDBF=F KetDBF=T FulRan=T
         wScrn=  0.000000 ICntrl=       500 IOpCl=  0 I1Cent=   200000004 NGrid=           0
         NMat0=    1 NMatS0=      1 NMatT0=    0 NMatD0=    1 NMtDS0=    0 NMtDT0=    0
 Petite list used in FoFCou.
 Keep R1 ints in memory in canonical form, NReq=31601774.
 Requested convergence on RMS density matrix=1.00D-08 within 128 cycles.
 Requested convergence on MAX density matrix=1.00D-06.
 Requested convergence on             energy=1.00D-06.
 No special actions if energy rises.
 SCF Done:  E(RM062X) =  -643.743745474     A.U. after   13 cycles
            NFock= 13  Conv=0.53D-08     -V/T= 2.0054

 **********************************************************************

            Population analysis using the SCF Density.

 **********************************************************************

 Orbital symmetries:
       Occupied  (A) (A) (A) (A) (A) (A) (A) (A) (A) (A) (A) (A)
                 (A) (A) (A) (A) (A) (A) (A) (A) (A) (A) (A) (A)
                 (A)
       Virtual   (A) (A) (A) (A) (A) (A) (A) (A) (A) (A) (A) (A)
                 (A) (A) (A) (A) (A) (A) (A) (A) (A) (A) (A) (A)
                 (A) (A) (A) (A) (A) (A) (A) (A) (A) (A) (A) (A)
                 (A) (A) (A) (A) (A) (A) (A) (A) (A) (A) (A) (A)
                 (A) (A) (A) (A) (A) (A) (A) (A) (A) (A) (A) (A)
                 (A) (A) (A) (A) (A) (A) (A) (A) (A) (A) (A) (A)
                 (A) (A) (A) (A) (A) (A) (A) (A) (A) (A)
 The electronic state is 1-A.
 Alpha  occ. eigenvalues --  -89.94733 -19.42606 -19.42354 -14.53675 -10.41163
 Alpha  occ. eigenvalues --   -8.25633  -6.17838  -6.17785  -6.17731  -1.01111
 Alpha  occ. eigenvalues --   -0.89170  -0.77671  -0.67838  -0.48697  -0.39219
 Alpha  occ. eigenvalues --   -0.36502  -0.36242  -0.32971  -0.30829  -0.22365
 Alpha  occ. eigenvalues --   -0.19479  -0.17374  -0.16254  -0.14048  -0.11156
 Alpha virt. eigenvalues --    0.13693   0.17387   0.18773   0.19101   0.20654
 Alpha virt. eigenvalues --    0.21014   0.21308   0.27270   0.28572   0.29439
 Alpha virt. eigenvalues --    0.32758   0.34328   0.35820   0.36288   0.38168
 Alpha virt. eigenvalues --    0.39130   0.39803   0.41041   0.42197   0.43452
 Alpha virt. eigenvalues --    0.45076   0.45874   0.47524   0.48208   0.49233
 Alpha virt. eigenvalues --    0.49871   0.51732   0.53025   0.76566   0.76859
 Alpha virt. eigenvalues --    0.80772   0.81877   0.82922   0.86497   0.96455
 Alpha virt. eigenvalues --    0.99271   1.01554   1.14257   1.16741   1.17950
 Alpha virt. eigenvalues --    1.20908   1.23817   1.23943   1.33365   1.33881
 Alpha virt. eigenvalues --    1.36235   1.39119   1.47398   1.50059   1.52079
 Alpha virt. eigenvalues --    1.52801   1.57617   1.59104   1.59952   1.61244
 Alpha virt. eigenvalues --    1.75281   1.90216   1.91509   1.93755   1.99478
 Alpha virt. eigenvalues --    2.01374   2.07281   2.07876   2.09897   2.12864
 Alpha virt. eigenvalues --    2.23804   2.27301   2.36469   2.38265   2.39167
 Alpha virt. eigenvalues --    2.43808   2.47933   2.52962   2.59048   2.79263
 Alpha virt. eigenvalues --    3.03231   3.09379   4.13402   4.25012   4.27306
 Alpha virt. eigenvalues --    4.34656   4.45116
          Condensed to atoms (all electrons):
               1          2          3          4          5          6
     1  S   14.360621   0.115930   0.375185   0.084030   0.108486  -0.140121
     2  O    0.115930   9.019986  -0.173403  -0.173867  -0.022889  -0.055585
     3  O    0.375185  -0.173403   8.953463  -0.242191   0.020417  -0.230066
     4  N    0.084030  -0.173867  -0.242191   8.189010   0.138757  -0.092186
     5  H    0.108486  -0.022889   0.020417   0.138757   0.478688  -0.037472
     6  C   -0.140121  -0.055585  -0.230066  -0.092186  -0.037472   6.292908
     7  H   -0.026780   0.009486  -0.005615  -0.010689   0.000386   0.373962
     8  H   -0.010667  -0.007301   0.009119  -0.006492  -0.000032   0.350308
     9  H   -0.005392  -0.010199  -0.005303   0.010135  -0.000030   0.355078
               7          8          9
     1  S   -0.026780  -0.010667  -0.005392
     2  O    0.009486  -0.007301  -0.010199
     3  O   -0.005615   0.009119  -0.005303
     4  N   -0.010689  -0.006492   0.010135
     5  H    0.000386  -0.000032  -0.000030
     6  C    0.373962   0.350308   0.355078
     7  H    0.485506  -0.028018  -0.027864
     8  H   -0.028018   0.513398  -0.029069
     9  H   -0.027864  -0.029069   0.486325
 Mulliken charges:
               1
     1  S    1.138708
     2  O   -0.702158
     3  O   -0.701607
     4  N   -0.896506
     5  H    0.313689
     6  C   -0.816827
     7  H    0.229626
     8  H    0.208754
     9  H    0.226321
 Sum of Mulliken charges =  -1.00000
 Mulliken charges with hydrogens summed into heavy atoms:
               1
     1  S    1.138708
     2  O   -0.702158
     3  O   -0.701607
     4  N   -0.582817
     6  C   -0.152126
 Electronic spatial extent (au):  <R**2>=            435.6284
 Charge=             -1.0000 electrons
 Dipole moment (field-independent basis, Debye):
    X=             -4.4674    Y=              2.3030    Z=              0.4339  Tot=              5.0448
 Quadrupole moment (field-independent basis, Debye-Ang):
   XX=            -44.0621   YY=            -45.2137   ZZ=            -51.0902
   XY=             -0.6194   XZ=              2.4559   YZ=              1.4728
 Traceless Quadrupole moment (field-independent basis, Debye-Ang):
   XX=              2.7266   YY=              1.5750   ZZ=             -4.3015
   XY=             -0.6194   XZ=              2.4559   YZ=              1.4728
 Octapole moment (field-independent basis, Debye-Ang**2):
  XXX=             -5.2609  YYY=              5.7893  ZZZ=             -4.5767  XYY=             -2.5786
  XXY=             -5.3859  XXZ=              4.8173  XZZ=             -6.0961  YZZ=             -0.9677
  YYZ=              9.8434  XYZ=              2.7669
 Hexadecapole moment (field-independent basis, Debye-Ang**3):
 XXXX=           -264.2587 YYYY=           -188.0408 ZZZZ=           -201.2957 XXXY=             -3.7855
 XXXZ=              5.7696 YYYX=              3.0914 YYYZ=              6.1563 ZZZX=              5.2555
 ZZZY=              7.4625 XXYY=            -73.1156 XXZZ=            -74.3072 YYZZ=            -70.2841
 XXYZ=              4.6096 YYXZ=              4.5937 ZZXY=             -3.5714
 N-N= 2.652633557998D+02 E-N=-2.061730638373D+03  KE= 6.402981279877D+02
 Calling FoFJK, ICntrl=      2127 FMM=F ISym2X=0 I1Cent= 0 IOpClX= 0 NMat=1 NMatS=1 NMatT=0.
 ***** Axes restored to original set *****
 -------------------------------------------------------------------
 Center     Atomic                   Forces (Hartrees/Bohr)
 Number     Number              X              Y              Z
 -------------------------------------------------------------------
      1       16          -0.015828870    0.016546054    0.035610114
      2        8           0.000023556   -0.005752244   -0.011749737
      3        8           0.011002301   -0.006200907   -0.009198536
      4        7           0.001343379   -0.006824647   -0.008111272
      5        1           0.000802175    0.002057403    0.001917661
      6        6           0.002138277   -0.000074293   -0.008214913
      7        1          -0.000292307   -0.000179830    0.000024638
      8        1           0.000698805    0.000198123   -0.000557112
      9        1           0.000112683    0.000230340    0.000279157
 -------------------------------------------------------------------
 Cartesian Forces:  Max     0.035610114 RMS     0.009435071

 GradGradGradGradGradGradGradGradGradGradGradGradGradGradGradGradGradGrad
 Berny optimization.
 FormGI is forming the generalized inverse of G from B-inverse, IUseBI=4.
 Internal  Forces:  Max     0.012972181 RMS     0.005353039
 Search for a local minimum.
 Step number   1 out of a maximum of   43
 All quantities printed in internal units (Hartrees-Bohrs-Radians)
 Mixed Optimization -- RFO/linear search
 Second derivative matrix not updated -- first step.
 ITU=  0
     Eigenvalues ---    0.00471   0.03060   0.06020   0.06065   0.08467
     Eigenvalues ---    0.09823   0.16000   0.16000   0.16000   0.16000
     Eigenvalues ---    0.16907   0.21461   0.25000   0.26729   0.34519
     Eigenvalues ---    0.34551   0.34634   0.43826   0.58242   0.76500
     Eigenvalues ---    0.78816
 RFO step:  Lambda=-4.61793494D-03 EMin= 4.71486927D-03
 Linear search not attempted -- first point.
 Iteration  1 RMS(Cart)=  0.03156449 RMS(Int)=  0.00165448
 Iteration  2 RMS(Cart)=  0.00123401 RMS(Int)=  0.00101766
 Iteration  3 RMS(Cart)=  0.00000096 RMS(Int)=  0.00101766
 Variable       Old X    -DE/DX   Delta X   Delta X   Delta X     New X
                                 (Linear)    (Quad)   (Total)
    R1        2.83560  -0.00856   0.00000  -0.01112  -0.01112   2.82448
    R2        2.82260  -0.01297   0.00000  -0.01636  -0.01636   2.80624
    R3        2.96059   0.00268   0.00000   0.00457   0.00457   2.96516
    R4        3.38705   0.00886   0.00000   0.03260   0.03260   3.41965
    R5        1.93363  -0.00015   0.00000  -0.00035  -0.00035   1.93328
    R6        2.06273   0.00026   0.00000   0.00073   0.00073   2.06347
    R7        2.06462   0.00054   0.00000   0.00154   0.00154   2.06616
    R8        2.06410   0.00018   0.00000   0.00053   0.00053   2.06463
    A1        1.97551   0.00740   0.00000   0.06052   0.05784   2.03335
    A2        2.00214   0.00590   0.00000   0.02299   0.01968   2.02182
    A3        1.81094  -0.00751   0.00000  -0.04846  -0.04893   1.76202
    A4        1.89945   0.00828   0.00000   0.04597   0.04351   1.94295
    A5        1.83549  -0.00883   0.00000  -0.04662  -0.04642   1.78907
    A6        1.93148  -0.00803   0.00000  -0.04967  -0.05018   1.88130
    A7        1.88258  -0.00330   0.00000  -0.02006  -0.02006   1.86253
    A8        1.89170  -0.00034   0.00000  -0.00169  -0.00169   1.89001
    A9        1.89283   0.00106   0.00000   0.00695   0.00695   1.89978
   A10        1.89863  -0.00060   0.00000  -0.00450  -0.00450   1.89413
   A11        1.92496  -0.00011   0.00000   0.00117   0.00117   1.92613
   A12        1.93033   0.00032   0.00000   0.00097   0.00097   1.93130
   A13        1.92449  -0.00034   0.00000  -0.00285  -0.00284   1.92165
    D1       -0.77860   0.01251   0.00000   0.11508   0.11700  -0.66160
    D2       -3.01168  -0.00922   0.00000  -0.02422  -0.02640  -3.03808
    D3        1.26281   0.00107   0.00000   0.03288   0.03315   1.29596
    D4       -3.09765  -0.00093   0.00000  -0.02279  -0.02233  -3.11998
    D5        1.09556  -0.00122   0.00000  -0.02721  -0.02676   1.06880
    D6       -0.99785  -0.00109   0.00000  -0.02523  -0.02477  -1.02262
    D7       -1.01890   0.00021   0.00000   0.00339   0.00317  -1.01574
    D8       -3.10888  -0.00008   0.00000  -0.00103  -0.00126  -3.11014
    D9        1.08090   0.00005   0.00000   0.00095   0.00073   1.08163
   D10        1.02949   0.00098   0.00000   0.00644   0.00621   1.03570
   D11       -1.06049   0.00069   0.00000   0.00202   0.00178  -1.05871
   D12        3.12929   0.00082   0.00000   0.00400   0.00377   3.13306
         Item               Value     Threshold  Converged?
 Maximum Force            0.012972     0.000450     NO 
 RMS     Force            0.005353     0.000300     NO 
 Maximum Displacement     0.081896     0.001800     NO 
 RMS     Displacement     0.031436     0.001200     NO 
 Predicted change in Energy=-2.438137D-03
 GradGradGradGradGradGradGradGradGradGradGradGradGradGradGradGradGradGrad

                          Input orientation:                          
 ---------------------------------------------------------------------
 Center     Atomic      Atomic             Coordinates (Angstroms)
 Number     Number       Type             X           Y           Z
 ---------------------------------------------------------------------
      1         16           0       -1.759768    0.267806    1.301296
      2          8           0       -0.600830    0.867394    2.030227
      3          8           0       -3.014004    1.062646    1.282861
      4          7           0       -2.047516   -1.245289    1.600979
      5          1           0       -1.138282   -1.704372    1.696694
      6          6           0       -1.190870    0.393657   -0.411938
      7          1           0       -1.974307    0.000253   -1.062930
      8          1           0       -0.274060   -0.191529   -0.523602
      9          1           0       -0.995081    1.444834   -0.636367
 ---------------------------------------------------------------------
                    Distance matrix (angstroms):
                    1          2          3          4          5
     1  S    0.000000
     2  O    1.494652   0.000000
     3  O    1.484998   2.533790   0.000000
     4  N    1.569097   2.596264   2.522273   0.000000
     5  H    2.105248   2.648410   3.368379   1.023047   0.000000
     6  C    1.809600   2.556706   2.577540   2.733464   2.975032
     7  H    2.388970   3.493708   2.777119   2.941624   3.349658
     8  H    2.397617   2.783907   3.513340   2.961318   2.822284
     9  H    2.392630   2.756736   2.811682   3.653779   3.921884
                    6          7          8          9
     6  C    0.000000
     7  H    1.091939   0.000000
     8  H    1.093367   1.794017   0.000000
     9  H    1.092554   1.796567   1.791723   0.000000
 Stoichiometry    CH4NO2S(1-)
 Framework group  C1[X(CH4NO2S)]
 Deg. of freedom    21
 Full point group                 C1      NOp   1
 Largest Abelian subgroup         C1      NOp   1
 Largest concise Abelian subgroup C1      NOp   1
                         Standard orientation:                         
 ---------------------------------------------------------------------
 Center     Atomic      Atomic             Coordinates (Angstroms)
 Number     Number       Type             X           Y           Z
 ---------------------------------------------------------------------
      1         16           0        0.165555   -0.064535    0.034161
      2          8           0        0.225195    0.143189    1.513106
      3          8           0        0.226027   -1.470321   -0.440524
      4          7           0        1.089413    0.868133   -0.825305
      5          1           0        1.073073    1.789262   -0.380468
      6          6           0       -1.551958    0.391119   -0.308158
      7          1           0       -1.735156    0.258887   -1.376467
      8          1           0       -1.703986    1.435520   -0.022563
      9          1           0       -2.206731   -0.257693    0.278349
 ---------------------------------------------------------------------
 Rotational constants (GHZ):           4.8127619           4.5383277           4.4361204
 Basis read from rwf:  (6D, 7F)
 There are   107 symmetry adapted cartesian basis functions of A   symmetry.
 There are   107 symmetry adapted basis functions of A   symmetry.
   107 basis functions,   200 primitive gaussians,   107 cartesian basis functions
    25 alpha electrons       25 beta electrons
       nuclear repulsion energy       265.5145098908 Hartrees.
 NAtoms=    9 NActive=    9 NUniq=    9 SFac= 1.00D+00 NAtFMM=   60 NAOKFM=F Big=F
 Integral buffers will be    131072 words long.
 Raffenetti 2 integral format.
 Two-electron integral symmetry is turned on.
 One-electron integrals computed using PRISM.
 NBasis=   107 RedAO= T EigKep=  4.87D-04  NBF=   107
 NBsUse=   107 1.00D-06 EigRej= -1.00D+00 NBFU=   107
 Initial guess from the checkpoint file:  "/jobfs/40766276.gadi-pbs/Gau-2413161.chk"
 B after Tr=    -0.000000    0.000000   -0.000000
         Rot=    0.992102    0.120180    0.010672    0.034296 Ang=  14.41 deg.
 ExpMin= 4.05D-02 ExpMax= 2.19D+04 ExpMxC= 3.30D+03 IAcc=3 IRadAn=         5 AccDes= 0.00D+00
 Harris functional with IExCor= 1009 and IRadAn=       5 diagonalized for initial guess.
 HarFok:  IExCor= 1009 AccDes= 0.00D+00 IRadAn=         5 IDoV= 1 UseB2=F ITyADJ=14
 ICtDFT=  3500011 ScaDFX=  1.000000  1.000000  1.000000  1.000000
 FoFCou: FMM=F IPFlag=           0 FMFlag=      100000 FMFlg1=           0
         NFxFlg=           0 DoJE=T BraDBF=F KetDBF=T FulRan=T
         wScrn=  0.000000 ICntrl=       500 IOpCl=  0 I1Cent=   200000004 NGrid=           0
         NMat0=    1 NMatS0=      1 NMatT0=    0 NMatD0=    1 NMtDS0=    0 NMtDT0=    0
 Petite list used in FoFCou.
 Keep R1 ints in memory in canonical form, NReq=31601774.
 Requested convergence on RMS density matrix=1.00D-08 within 128 cycles.
 Requested convergence on MAX density matrix=1.00D-06.
 Requested convergence on             energy=1.00D-06.
 No special actions if energy rises.
 SCF Done:  E(RM062X) =  -643.745334593     A.U. after   12 cycles
            NFock= 12  Conv=0.88D-08     -V/T= 2.0054
 Calling FoFJK, ICntrl=      2127 FMM=F ISym2X=0 I1Cent= 0 IOpClX= 0 NMat=1 NMatS=1 NMatT=0.
 ***** Axes restored to original set *****
 -------------------------------------------------------------------
 Center     Atomic                   Forces (Hartrees/Bohr)
 Number     Number              X              Y              Z
 -------------------------------------------------------------------
      1       16           0.002046292    0.006008437   -0.005473392
      2        8          -0.004686495   -0.002286926    0.002643027
      3        8           0.004555709   -0.004541916    0.005174415
      4        7          -0.002651408   -0.000967734    0.000986426
      5        1           0.000104273    0.001781420    0.002394095
      6        6           0.000412838   -0.000337751   -0.005064412
      7        1          -0.000036539   -0.000065894   -0.000335851
      8        1           0.000188401    0.000131096   -0.000143194
      9        1           0.000066929    0.000279267   -0.000181113
 -------------------------------------------------------------------
 Cartesian Forces:  Max     0.006008437 RMS     0.002832868

 GradGradGradGradGradGradGradGradGradGradGradGradGradGradGradGradGradGrad
 Berny optimization.
 Using GEDIIS/GDIIS optimizer.
 FormGI is forming the generalized inverse of G from B-inverse, IUseBI=4.
 Internal  Forces:  Max     0.007864104 RMS     0.003026776
 Search for a local minimum.
 Step number   2 out of a maximum of   43
 All quantities printed in internal units (Hartrees-Bohrs-Radians)
 Mixed Optimization -- RFO/linear search
 Update second derivatives using D2CorX and points    1    2
 DE= -1.59D-03 DEPred=-2.44D-03 R= 6.52D-01
 TightC=F SS=  1.41D+00  RLast= 1.79D-01 DXNew= 5.0454D-01 5.3696D-01
 Trust test= 6.52D-01 RLast= 1.79D-01 DXMaxT set to 5.05D-01
 ITU=  1  0
 Use linear search instead of GDIIS.
     Eigenvalues ---    0.00471   0.02828   0.06022   0.06055   0.09364
     Eigenvalues ---    0.10335   0.15624   0.16000   0.16000   0.16000
     Eigenvalues ---    0.20852   0.23950   0.24959   0.29844   0.34516
     Eigenvalues ---    0.34556   0.34635   0.43833   0.58156   0.73831
     Eigenvalues ---    0.77501
 RFO step:  Lambda=-7.44255215D-04 EMin= 4.71226934D-03
 Quartic linear search produced a step of -0.23753.
 Iteration  1 RMS(Cart)=  0.02460760 RMS(Int)=  0.00042289
 Iteration  2 RMS(Cart)=  0.00035839 RMS(Int)=  0.00015263
 Iteration  3 RMS(Cart)=  0.00000004 RMS(Int)=  0.00015263
 Variable       Old X    -DE/DX   Delta X   Delta X   Delta X     New X
                                 (Linear)    (Quad)   (Total)
    R1        2.82448  -0.00326   0.00264  -0.00773  -0.00508   2.81940
    R2        2.80624  -0.00634   0.00389  -0.01271  -0.00882   2.79742
    R3        2.96516   0.00033  -0.00109   0.00228   0.00119   2.96635
    R4        3.41965   0.00562  -0.00774   0.02917   0.02143   3.44108
    R5        1.93328  -0.00048   0.00008  -0.00098  -0.00089   1.93239
    R6        2.06347   0.00025  -0.00017   0.00084   0.00067   2.06413
    R7        2.06616   0.00010  -0.00037   0.00085   0.00049   2.06665
    R8        2.06463   0.00032  -0.00013   0.00091   0.00079   2.06541
    A1        2.03335  -0.00231  -0.01374   0.00799  -0.00548   2.02787
    A2        2.02182  -0.00434  -0.00467  -0.00947  -0.01362   2.00821
    A3        1.76202   0.00577   0.01162   0.00775   0.01950   1.78151
    A4        1.94295  -0.00444  -0.01033  -0.00454  -0.01446   1.92849
    A5        1.78907   0.00453   0.01103   0.00134   0.01234   1.80142
    A6        1.88130   0.00431   0.01192  -0.00080   0.01129   1.89258
    A7        1.86253  -0.00230   0.00476  -0.01909  -0.01433   1.84820
    A8        1.89001   0.00032   0.00040   0.00106   0.00146   1.89147
    A9        1.89978   0.00019  -0.00165   0.00376   0.00210   1.90188
   A10        1.89413   0.00006   0.00107  -0.00181  -0.00074   1.89338
   A11        1.92613  -0.00017  -0.00028   0.00017  -0.00011   1.92601
   A12        1.93130  -0.00018  -0.00023  -0.00048  -0.00070   1.93060
   A13        1.92165  -0.00020   0.00067  -0.00258  -0.00191   1.91974
    D1       -0.66160  -0.00523  -0.02779   0.05624   0.02823  -0.63337
    D2       -3.03808   0.00786   0.00627   0.05905   0.06564  -2.97244
    D3        1.29596   0.00236  -0.00787   0.06017   0.05221   1.34817
    D4       -3.11998  -0.00050   0.00530  -0.01598  -0.01078  -3.13076
    D5        1.06880  -0.00059   0.00636  -0.01897  -0.01272   1.05608
    D6       -1.02262  -0.00050   0.00588  -0.01698  -0.01121  -1.03383
    D7       -1.01574   0.00075  -0.00075  -0.00395  -0.00462  -1.02035
    D8       -3.11014   0.00066   0.00030  -0.00694  -0.00656  -3.11670
    D9        1.08163   0.00075  -0.00017  -0.00496  -0.00505   1.07658
   D10        1.03570  -0.00031  -0.00147  -0.00877  -0.01022   1.02548
   D11       -1.05871  -0.00040  -0.00042  -0.01176  -0.01216  -1.07086
   D12        3.13306  -0.00030  -0.00090  -0.00977  -0.01065   3.12241
         Item               Value     Threshold  Converged?
 Maximum Force            0.007864     0.000450     NO 
 RMS     Force            0.003027     0.000300     NO 
 Maximum Displacement     0.085341     0.001800     NO 
 RMS     Displacement     0.024679     0.001200     NO 
 Predicted change in Energy=-5.496327D-04
 GradGradGradGradGradGradGradGradGradGradGradGradGradGradGradGradGradGrad

                          Input orientation:                          
 ---------------------------------------------------------------------
 Center     Atomic      Atomic             Coordinates (Angstroms)
 Number     Number       Type             X           Y           Z
 ---------------------------------------------------------------------
      1         16           0       -1.755529    0.262637    1.294783
      2          8           0       -0.606501    0.844195    2.048090
      3          8           0       -3.007996    1.051718    1.302107
      4          7           0       -2.055511   -1.247389    1.601178
      5          1           0       -1.144904   -1.690857    1.741855
      6          6           0       -1.188020    0.398566   -0.430116
      7          1           0       -1.970841    0.004721   -1.082172
      8          1           0       -0.267691   -0.180278   -0.548232
      9          1           0       -0.997725    1.452085   -0.650272
 ---------------------------------------------------------------------
                    Distance matrix (angstroms):
                    1          2          3          4          5
     1  S    0.000000
     2  O    1.491962   0.000000
     3  O    1.480330   2.523240   0.000000
     4  N    1.569727   2.583425   2.506504   0.000000
     5  H    2.094964   2.609626   3.344579   1.022575   0.000000
     6  C    1.820939   2.584232   2.596058   2.754607   3.014134
     7  H    2.400582   3.516345   2.802977   2.962316   3.395922
     8  H    2.409676   2.811623   3.528575   2.992489   2.880252
     9  H    2.402559   2.793518   2.830772   3.670844   3.952470
                    6          7          8          9
     6  C    0.000000
     7  H    1.092292   0.000000
     8  H    1.093625   1.794447   0.000000
     9  H    1.092970   1.796763   1.791081   0.000000
 Stoichiometry    CH4NO2S(1-)
 Framework group  C1[X(CH4NO2S)]
 Deg. of freedom    21
 Full point group                 C1      NOp   1
 Largest Abelian subgroup         C1      NOp   1
 Largest concise Abelian subgroup C1      NOp   1
                         Standard orientation:                         
 ---------------------------------------------------------------------
 Center     Atomic      Atomic             Coordinates (Angstroms)
 Number     Number       Type             X           Y           Z
 ---------------------------------------------------------------------
      1         16           0        0.159264   -0.058234    0.030090
      2          8           0        0.290930    0.193551    1.494747
      3          8           0        0.257874   -1.470837   -0.401423
      4          7           0        1.045843    0.859012   -0.884613
      5          1           0        1.058801    1.776276   -0.432818
      6          6           0       -1.590260    0.347608   -0.270372
      7          1           0       -1.804413    0.185378   -1.329108
      8          1           0       -1.763448    1.393871   -0.003248
      9          1           0       -2.208935   -0.304229    0.351666
 ---------------------------------------------------------------------
 Rotational constants (GHZ):           4.8436055           4.5016516           4.4073490
 Basis read from rwf:  (6D, 7F)
 There are   107 symmetry adapted cartesian basis functions of A   symmetry.
 There are   107 symmetry adapted basis functions of A   symmetry.
   107 basis functions,   200 primitive gaussians,   107 cartesian basis functions
    25 alpha electrons       25 beta electrons
       nuclear repulsion energy       265.3802639225 Hartrees.
 NAtoms=    9 NActive=    9 NUniq=    9 SFac= 1.00D+00 NAtFMM=   60 NAOKFM=F Big=F
 Integral buffers will be    131072 words long.
 Raffenetti 2 integral format.
 Two-electron integral symmetry is turned on.
 One-electron integrals computed using PRISM.
 NBasis=   107 RedAO= T EigKep=  4.95D-04  NBF=   107
 NBsUse=   107 1.00D-06 EigRej= -1.00D+00 NBFU=   107
 Initial guess from the checkpoint file:  "/jobfs/40766276.gadi-pbs/Gau-2413161.chk"
 B after Tr=    -0.000000   -0.000000    0.000000
         Rot=    0.999672    0.014802   -0.017408   -0.011523 Ang=   2.93 deg.
 ExpMin= 4.05D-02 ExpMax= 2.19D+04 ExpMxC= 3.30D+03 IAcc=3 IRadAn=         5 AccDes= 0.00D+00
 Harris functional with IExCor= 1009 and IRadAn=       5 diagonalized for initial guess.
 HarFok:  IExCor= 1009 AccDes= 0.00D+00 IRadAn=         5 IDoV= 1 UseB2=F ITyADJ=14
 ICtDFT=  3500011 ScaDFX=  1.000000  1.000000  1.000000  1.000000
 FoFCou: FMM=F IPFlag=           0 FMFlag=      100000 FMFlg1=           0
         NFxFlg=           0 DoJE=T BraDBF=F KetDBF=T FulRan=T
         wScrn=  0.000000 ICntrl=       500 IOpCl=  0 I1Cent=   200000004 NGrid=           0
         NMat0=    1 NMatS0=      1 NMatT0=    0 NMatD0=    1 NMtDS0=    0 NMtDT0=    0
 Petite list used in FoFCou.
 Keep R1 ints in memory in canonical form, NReq=31601774.
 Requested convergence on RMS density matrix=1.00D-08 within 128 cycles.
 Requested convergence on MAX density matrix=1.00D-06.
 Requested convergence on             energy=1.00D-06.
 No special actions if energy rises.
 SCF Done:  E(RM062X) =  -643.745998733     A.U. after   12 cycles
            NFock= 12  Conv=0.27D-08     -V/T= 2.0054
 Calling FoFJK, ICntrl=      2127 FMM=F ISym2X=0 I1Cent= 0 IOpClX= 0 NMat=1 NMatS=1 NMatT=0.
 ***** Axes restored to original set *****
 -------------------------------------------------------------------
 Center     Atomic                   Forces (Hartrees/Bohr)
 Number     Number              X              Y              Z
 -------------------------------------------------------------------
      1       16          -0.000564239    0.001729346   -0.000475365
      2        8          -0.001010301   -0.000580652   -0.000528137
      3        8           0.001800931   -0.000233129    0.000687963
      4        7           0.000009093   -0.001526611   -0.001447690
      5        1           0.000166898    0.000011601    0.002023121
      6        6          -0.000048422    0.000424979   -0.001005294
      7        1          -0.000091829   -0.000008730    0.000398494
      8        1          -0.000176770    0.000000394    0.000374319
      9        1          -0.000085361    0.000182801   -0.000027411
 -------------------------------------------------------------------
 Cartesian Forces:  Max     0.002023121 RMS     0.000840280

 GradGradGradGradGradGradGradGradGradGradGradGradGradGradGradGradGradGrad
 Berny optimization.
 Using GEDIIS/GDIIS optimizer.
 FormGI is forming the generalized inverse of G from B-inverse, IUseBI=4.
 Internal  Forces:  Max     0.001687554 RMS     0.000686609
 Search for a local minimum.
 Step number   3 out of a maximum of   43
 All quantities printed in internal units (Hartrees-Bohrs-Radians)
 Mixed Optimization -- En-DIIS/RFO-DIIS
 Update second derivatives using D2CorX and points    1    2    3
 DE= -6.64D-04 DEPred=-5.50D-04 R= 1.21D+00
 TightC=F SS=  1.41D+00  RLast= 1.03D-01 DXNew= 8.4853D-01 3.0824D-01
 Trust test= 1.21D+00 RLast= 1.03D-01 DXMaxT set to 5.05D-01
 ITU=  1  1  0
 Use linear search instead of GDIIS.
     Eigenvalues ---    0.00468   0.01778   0.06019   0.06050   0.09181
     Eigenvalues ---    0.10478   0.15849   0.16000   0.16000   0.16316
     Eigenvalues ---    0.20737   0.23965   0.25196   0.31755   0.34540
     Eigenvalues ---    0.34546   0.34727   0.43990   0.58137   0.72401
     Eigenvalues ---    0.77567
 RFO step:  Lambda=-2.52997262D-04 EMin= 4.68385668D-03
 Quartic linear search produced a step of  0.27803.
 Iteration  1 RMS(Cart)=  0.02246115 RMS(Int)=  0.00073724
 Iteration  2 RMS(Cart)=  0.00062312 RMS(Int)=  0.00003080
 Iteration  3 RMS(Cart)=  0.00000039 RMS(Int)=  0.00003080
 Variable       Old X    -DE/DX   Delta X   Delta X   Delta X     New X
                                 (Linear)    (Quad)   (Total)
    R1        2.81940  -0.00127  -0.00141  -0.00344  -0.00485   2.81455
    R2        2.79742  -0.00164  -0.00245  -0.00454  -0.00699   2.79043
    R3        2.96635   0.00154   0.00033   0.00412   0.00445   2.97081
    R4        3.44108   0.00017   0.00596   0.00410   0.01006   3.45113
    R5        1.93239   0.00042  -0.00025   0.00130   0.00105   1.93344
    R6        2.06413  -0.00017   0.00019  -0.00061  -0.00043   2.06371
    R7        2.06665  -0.00019   0.00014  -0.00059  -0.00045   2.06620
    R8        2.06541   0.00017   0.00022   0.00072   0.00093   2.06635
    A1        2.02787  -0.00046  -0.00152  -0.00083  -0.00246   2.02541
    A2        2.00821  -0.00069  -0.00379  -0.00265  -0.00651   2.00169
    A3        1.78151   0.00046   0.00542  -0.00250   0.00292   1.78444
    A4        1.92849   0.00024  -0.00402   0.00835   0.00428   1.93277
    A5        1.80142  -0.00030   0.00343  -0.00579  -0.00237   1.79905
    A6        1.89258   0.00097   0.00314   0.00209   0.00523   1.89781
    A7        1.84820   0.00047  -0.00398   0.00211  -0.00187   1.84632
    A8        1.89147  -0.00049   0.00041  -0.00484  -0.00444   1.88703
    A9        1.90188  -0.00046   0.00059  -0.00328  -0.00270   1.89918
   A10        1.89338   0.00012  -0.00021   0.00097   0.00076   1.89414
   A11        1.92601   0.00038  -0.00003   0.00254   0.00249   1.92851
   A12        1.93060   0.00018  -0.00020   0.00169   0.00149   1.93209
   A13        1.91974   0.00024  -0.00053   0.00270   0.00217   1.92191
    D1       -0.63337   0.00058   0.00785   0.06083   0.06876  -0.56461
    D2       -2.97244   0.00169   0.01825   0.05617   0.07436  -2.89808
    D3        1.34817   0.00140   0.01452   0.05760   0.07209   1.42026
    D4       -3.13076   0.00006  -0.00300  -0.00680  -0.00979  -3.14055
    D5        1.05608   0.00015  -0.00354  -0.00509  -0.00863   1.04745
    D6       -1.03383   0.00006  -0.00312  -0.00701  -0.01012  -1.04395
    D7       -1.02035  -0.00038  -0.00128  -0.01097  -0.01224  -1.03259
    D8       -3.11670  -0.00029  -0.00182  -0.00927  -0.01108  -3.12778
    D9        1.07658  -0.00038  -0.00140  -0.01118  -0.01258   1.06400
   D10        1.02548   0.00016  -0.00284  -0.00340  -0.00625   1.01923
   D11       -1.07086   0.00026  -0.00338  -0.00170  -0.00509  -1.07596
   D12        3.12241   0.00016  -0.00296  -0.00362  -0.00659   3.11583
         Item               Value     Threshold  Converged?
 Maximum Force            0.001688     0.000450     NO 
 RMS     Force            0.000687     0.000300     NO 
 Maximum Displacement     0.102831     0.001800     NO 
 RMS     Displacement     0.022474     0.001200     NO 
 Predicted change in Energy=-1.604606D-04
 GradGradGradGradGradGradGradGradGradGradGradGradGradGradGradGradGradGrad

                          Input orientation:                          
 ---------------------------------------------------------------------
 Center     Atomic      Atomic             Coordinates (Angstroms)
 Number     Number       Type             X           Y           Z
 ---------------------------------------------------------------------
      1         16           0       -1.754249    0.254990    1.288490
      2          8           0       -0.605889    0.823472    2.047698
      3          8           0       -2.998545    1.049943    1.303297
      4          7           0       -2.056560   -1.257918    1.590419
      5          1           0       -1.150870   -1.687048    1.796271
      6          6           0       -1.187819    0.406206   -0.441111
      7          1           0       -1.971645    0.011296   -1.090936
      8          1           0       -0.265248   -0.168121   -0.561532
      9          1           0       -1.003892    1.462579   -0.655376
 ---------------------------------------------------------------------
                    Distance matrix (angstroms):
                    1          2          3          4          5
     1  S    0.000000
     2  O    1.489395   0.000000
     3  O    1.476632   2.515994   0.000000
     4  N    1.572083   2.577932   2.509183   0.000000
     5  H    2.096048   2.581265   3.338869   1.023132   0.000000
     6  C    1.826261   2.589773   2.595397   2.766068   3.064140
     7  H    2.401732   3.517946   2.804579   2.967791   3.448769
     8  H    2.412205   2.812006   3.525930   3.004555   2.941207
     9  H    2.408303   2.805971   2.825829   3.681414   3.994036
                    6          7          8          9
     6  C    0.000000
     7  H    1.092067   0.000000
     8  H    1.093385   1.795619   0.000000
     9  H    1.093464   1.797911   1.792648   0.000000
 Stoichiometry    CH4NO2S(1-)
 Framework group  C1[X(CH4NO2S)]
 Deg. of freedom    21
 Full point group                 C1      NOp   1
 Largest Abelian subgroup         C1      NOp   1
 Largest concise Abelian subgroup C1      NOp   1
                         Standard orientation:                         
 ---------------------------------------------------------------------
 Center     Atomic      Atomic             Coordinates (Angstroms)
 Number     Number       Type             X           Y           Z
 ---------------------------------------------------------------------
      1         16           0        0.156575   -0.061204    0.028174
      2          8           0        0.311543    0.215294    1.483451
      3          8           0        0.216001   -1.481350   -0.371945
      4          7           0        1.062471    0.819207   -0.907601
      5          1           0        1.157095    1.721531   -0.434678
      6          6           0       -1.591599    0.378036   -0.265403
      7          1           0       -1.811950    0.207375   -1.321306
      8          1           0       -1.738567    1.430705   -0.008931
      9          1           0       -2.219821   -0.254563    0.367699
 ---------------------------------------------------------------------
 Rotational constants (GHZ):           4.8654905           4.4883172           4.3933828
 Basis read from rwf:  (6D, 7F)
 There are   107 symmetry adapted cartesian basis functions of A   symmetry.
 There are   107 symmetry adapted basis functions of A   symmetry.
   107 basis functions,   200 primitive gaussians,   107 cartesian basis functions
    25 alpha electrons       25 beta electrons
       nuclear repulsion energy       265.3953554896 Hartrees.
 NAtoms=    9 NActive=    9 NUniq=    9 SFac= 1.00D+00 NAtFMM=   60 NAOKFM=F Big=F
 Integral buffers will be    131072 words long.
 Raffenetti 2 integral format.
 Two-electron integral symmetry is turned on.
 One-electron integrals computed using PRISM.
 NBasis=   107 RedAO= T EigKep=  4.98D-04  NBF=   107
 NBsUse=   107 1.00D-06 EigRej= -1.00D+00 NBFU=   107
 Initial guess from the checkpoint file:  "/jobfs/40766276.gadi-pbs/Gau-2413161.chk"
 B after Tr=    -0.000000    0.000000    0.000000
         Rot=    0.999872    0.009019   -0.003666    0.012692 Ang=   1.83 deg.
 ExpMin= 4.05D-02 ExpMax= 2.19D+04 ExpMxC= 3.30D+03 IAcc=3 IRadAn=         5 AccDes= 0.00D+00
 Harris functional with IExCor= 1009 and IRadAn=       5 diagonalized for initial guess.
 HarFok:  IExCor= 1009 AccDes= 0.00D+00 IRadAn=         5 IDoV= 1 UseB2=F ITyADJ=14
 ICtDFT=  3500011 ScaDFX=  1.000000  1.000000  1.000000  1.000000
 FoFCou: FMM=F IPFlag=           0 FMFlag=      100000 FMFlg1=           0
         NFxFlg=           0 DoJE=T BraDBF=F KetDBF=T FulRan=T
         wScrn=  0.000000 ICntrl=       500 IOpCl=  0 I1Cent=   200000004 NGrid=           0
         NMat0=    1 NMatS0=      1 NMatT0=    0 NMatD0=    1 NMtDS0=    0 NMtDT0=    0
 Petite list used in FoFCou.
 Keep R1 ints in memory in canonical form, NReq=31601774.
 Requested convergence on RMS density matrix=1.00D-08 within 128 cycles.
 Requested convergence on MAX density matrix=1.00D-06.
 Requested convergence on             energy=1.00D-06.
 No special actions if energy rises.
 SCF Done:  E(RM062X) =  -643.746212874     A.U. after   12 cycles
            NFock= 12  Conv=0.16D-08     -V/T= 2.0053
 Calling FoFJK, ICntrl=      2127 FMM=F ISym2X=0 I1Cent= 0 IOpClX= 0 NMat=1 NMatS=1 NMatT=0.
 ***** Axes restored to original set *****
 -------------------------------------------------------------------
 Center     Atomic                   Forces (Hartrees/Bohr)
 Number     Number              X              Y              Z
 -------------------------------------------------------------------
      1       16           0.001220456   -0.001526351   -0.001209500
      2        8           0.001534402    0.000435028    0.000491074
      3        8          -0.001950840    0.001351951   -0.000165932
      4        7           0.000773826   -0.000212536   -0.001802909
      5        1          -0.000478055    0.000253469    0.001119062
      6        6          -0.000675084   -0.000018999    0.001155713
      7        1          -0.000000898   -0.000017839    0.000037128
      8        1          -0.000195255   -0.000086966    0.000187683
      9        1          -0.000228552   -0.000177757    0.000187681
 -------------------------------------------------------------------
 Cartesian Forces:  Max     0.001950840 RMS     0.000885291

 GradGradGradGradGradGradGradGradGradGradGradGradGradGradGradGradGradGrad
 Berny optimization.
 Using GEDIIS/GDIIS optimizer.
 FormGI is forming the generalized inverse of G from B-inverse, IUseBI=4.
 Internal  Forces:  Max     0.002372043 RMS     0.000684027
 Search for a local minimum.
 Step number   4 out of a maximum of   43
 All quantities printed in internal units (Hartrees-Bohrs-Radians)
 Mixed Optimization -- En-DIIS/RFO-DIIS
 Swapping is turned off.
 Update second derivatives using D2CorX and points    1    2    3    4
 DE= -2.14D-04 DEPred=-1.60D-04 R= 1.33D+00
 TightC=F SS=  1.41D+00  RLast= 1.29D-01 DXNew= 8.4853D-01 3.8669D-01
 Trust test= 1.33D+00 RLast= 1.29D-01 DXMaxT set to 5.05D-01
 ITU=  1  1  1  0
     Eigenvalues ---    0.00458   0.00881   0.06038   0.06076   0.09194
     Eigenvalues ---    0.10896   0.15891   0.16000   0.16074   0.16585
     Eigenvalues ---    0.20765   0.24648   0.25503   0.34190   0.34544
     Eigenvalues ---    0.34654   0.35705   0.44033   0.58778   0.77162
     Eigenvalues ---    0.90155
 En-DIIS/RFO-DIIS/Sim-DIIS IScMMF=       -3 using points:     4    3
 RFO step:  Lambda=-1.72790814D-04.
 DidBck=F Rises=F RFO-DIIS coefs:    2.03943   -1.03943
 Iteration  1 RMS(Cart)=  0.02046583 RMS(Int)=  0.00083666
 Iteration  2 RMS(Cart)=  0.00072328 RMS(Int)=  0.00000560
 Iteration  3 RMS(Cart)=  0.00000076 RMS(Int)=  0.00000558
 Variable       Old X    -DE/DX   Delta X   Delta X   Delta X     New X
                                 (Linear)    (Quad)   (Total)
    R1        2.81455   0.00160  -0.00504   0.00438  -0.00066   2.81389
    R2        2.79043   0.00237  -0.00726   0.00588  -0.00139   2.78904
    R3        2.97081  -0.00023   0.00463  -0.00305   0.00157   2.97238
    R4        3.45113  -0.00185   0.01045  -0.00934   0.00111   3.45225
    R5        1.93344  -0.00030   0.00110  -0.00201  -0.00091   1.93253
    R6        2.06371  -0.00002  -0.00044   0.00044   0.00000   2.06371
    R7        2.06620  -0.00014  -0.00047  -0.00006  -0.00053   2.06566
    R8        2.06635  -0.00025   0.00097  -0.00144  -0.00046   2.06588
    A1        2.02541   0.00021  -0.00256   0.00629   0.00374   2.02915
    A2        2.00169   0.00021  -0.00677   0.00321  -0.00356   1.99814
    A3        1.78444   0.00016   0.00304   0.00179   0.00484   1.78927
    A4        1.93277   0.00043   0.00445  -0.00275   0.00169   1.93446
    A5        1.79905  -0.00048  -0.00246  -0.00156  -0.00403   1.79502
    A6        1.89781  -0.00077   0.00543  -0.00857  -0.00314   1.89467
    A7        1.84632   0.00029  -0.00195  -0.00110  -0.00304   1.84328
    A8        1.88703   0.00002  -0.00461   0.00322  -0.00140   1.88563
    A9        1.89918  -0.00026  -0.00280   0.00044  -0.00237   1.89681
   A10        1.89414  -0.00022   0.00079  -0.00278  -0.00199   1.89215
   A11        1.92851   0.00008   0.00259  -0.00133   0.00125   1.92976
   A12        1.93209   0.00008   0.00155  -0.00062   0.00093   1.93301
   A13        1.92191   0.00029   0.00226   0.00109   0.00335   1.92526
    D1       -0.56461   0.00112   0.07147   0.00578   0.07726  -0.48735
    D2       -2.89808   0.00017   0.07729  -0.00377   0.07353  -2.82454
    D3        1.42026   0.00094   0.07493   0.00426   0.07918   1.49943
    D4       -3.14055  -0.00006  -0.01017  -0.00082  -0.01098   3.13166
    D5        1.04745  -0.00002  -0.00897  -0.00135  -0.01032   1.03713
    D6       -1.04395  -0.00008  -0.01052  -0.00130  -0.01182  -1.05577
    D7       -1.03259   0.00005  -0.01272   0.00620  -0.00653  -1.03912
    D8       -3.12778   0.00009  -0.01152   0.00566  -0.00587  -3.13365
    D9        1.06400   0.00003  -0.01307   0.00572  -0.00736   1.05664
   D10        1.01923  -0.00004  -0.00650  -0.00149  -0.00799   1.01125
   D11       -1.07596   0.00000  -0.00529  -0.00203  -0.00732  -1.08328
   D12        3.11583  -0.00006  -0.00685  -0.00197  -0.00882   3.10701
         Item               Value     Threshold  Converged?
 Maximum Force            0.002372     0.000450     NO 
 RMS     Force            0.000684     0.000300     NO 
 Maximum Displacement     0.091857     0.001800     NO 
 RMS     Displacement     0.020489     0.001200     NO 
 Predicted change in Energy=-8.793885D-05
 GradGradGradGradGradGradGradGradGradGradGradGradGradGradGradGradGradGrad

                          Input orientation:                          
 ---------------------------------------------------------------------
 Center     Atomic      Atomic             Coordinates (Angstroms)
 Number     Number       Type             X           Y           Z
 ---------------------------------------------------------------------
      1         16           0       -1.750152    0.249994    1.283012
      2          8           0       -0.599815    0.805041    2.048460
      3          8           0       -2.992126    1.047145    1.301065
      4          7           0       -2.054199   -1.266116    1.571164
      5          1           0       -1.159557   -1.679041    1.844880
      6          6           0       -1.188875    0.411608   -0.447950
      7          1           0       -1.973273    0.015256   -1.096207
      8          1           0       -0.264453   -0.158650   -0.570929
      9          1           0       -1.012268    1.470162   -0.656272
 ---------------------------------------------------------------------
                    Distance matrix (angstroms):
                    1          2          3          4          5
     1  S    0.000000
     2  O    1.489048   0.000000
     3  O    1.475898   2.518008   0.000000
     4  N    1.572916   2.575410   2.510744   0.000000
     5  H    2.094200   2.554491   3.329585   1.022650   0.000000
     6  C    1.826850   2.594965   2.591269   2.764121   3.103021
     7  H    2.401160   3.521233   2.801744   2.960292   3.490382
     8  H    2.410682   2.811114   3.521150   3.003037   2.991476
     9  H    2.407096   2.815684   2.816017   3.678901   4.024293
                    6          7          8          9
     6  C    0.000000
     7  H    1.092068   0.000000
     8  H    1.093102   1.796170   0.000000
     9  H    1.093218   1.798285   1.794307   0.000000
 Stoichiometry    CH4NO2S(1-)
 Framework group  C1[X(CH4NO2S)]
 Deg. of freedom    21
 Full point group                 C1      NOp   1
 Largest Abelian subgroup         C1      NOp   1
 Largest concise Abelian subgroup C1      NOp   1
                         Standard orientation:                         
 ---------------------------------------------------------------------
 Center     Atomic      Atomic             Coordinates (Angstroms)
 Number     Number       Type             X           Y           Z
 ---------------------------------------------------------------------
      1         16           0        0.154681   -0.062726    0.030235
      2          8           0        0.340529    0.293397    1.464076
      3          8           0        0.178695   -1.502488   -0.293471
      4          7           0        1.060826    0.749916   -0.966047
      5          1           0        1.238137    1.646766   -0.507754
      6          6           0       -1.589514    0.391570   -0.267727
      7          1           0       -1.822089    0.173461   -1.312213
      8          1           0       -1.713776    1.457766   -0.061192
      9          1           0       -2.219658   -0.200479    0.401245
 ---------------------------------------------------------------------
 Rotational constants (GHZ):           4.8682022           4.4920112           4.3882456
 Basis read from rwf:  (6D, 7F)
 There are   107 symmetry adapted cartesian basis functions of A   symmetry.
 There are   107 symmetry adapted basis functions of A   symmetry.
   107 basis functions,   200 primitive gaussians,   107 cartesian basis functions
    25 alpha electrons       25 beta electrons
       nuclear repulsion energy       265.4145836813 Hartrees.
 NAtoms=    9 NActive=    9 NUniq=    9 SFac= 1.00D+00 NAtFMM=   60 NAOKFM=F Big=F
 Integral buffers will be    131072 words long.
 Raffenetti 2 integral format.
 Two-electron integral symmetry is turned on.
 One-electron integrals computed using PRISM.
 NBasis=   107 RedAO= T EigKep=  4.96D-04  NBF=   107
 NBsUse=   107 1.00D-06 EigRej= -1.00D+00 NBFU=   107
 Initial guess from the checkpoint file:  "/jobfs/40766276.gadi-pbs/Gau-2413161.chk"
 B after Tr=     0.000000   -0.000000   -0.000000
         Rot=    0.999557    0.027156   -0.006571    0.010208 Ang=   3.41 deg.
 ExpMin= 4.05D-02 ExpMax= 2.19D+04 ExpMxC= 3.30D+03 IAcc=3 IRadAn=         5 AccDes= 0.00D+00
 Harris functional with IExCor= 1009 and IRadAn=       5 diagonalized for initial guess.
 HarFok:  IExCor= 1009 AccDes= 0.00D+00 IRadAn=         5 IDoV= 1 UseB2=F ITyADJ=14
 ICtDFT=  3500011 ScaDFX=  1.000000  1.000000  1.000000  1.000000
 FoFCou: FMM=F IPFlag=           0 FMFlag=      100000 FMFlg1=           0
         NFxFlg=           0 DoJE=T BraDBF=F KetDBF=T FulRan=T
         wScrn=  0.000000 ICntrl=       500 IOpCl=  0 I1Cent=   200000004 NGrid=           0
         NMat0=    1 NMatS0=      1 NMatT0=    0 NMatD0=    1 NMtDS0=    0 NMtDT0=    0
 Petite list used in FoFCou.
 Keep R1 ints in memory in canonical form, NReq=31601774.
 Requested convergence on RMS density matrix=1.00D-08 within 128 cycles.
 Requested convergence on MAX density matrix=1.00D-06.
 Requested convergence on             energy=1.00D-06.
 No special actions if energy rises.
 SCF Done:  E(RM062X) =  -643.746331690     A.U. after   12 cycles
            NFock= 12  Conv=0.17D-08     -V/T= 2.0053
 Calling FoFJK, ICntrl=      2127 FMM=F ISym2X=0 I1Cent= 0 IOpClX= 0 NMat=1 NMatS=1 NMatT=0.
 ***** Axes restored to original set *****
 -------------------------------------------------------------------
 Center     Atomic                   Forces (Hartrees/Bohr)
 Number     Number              X              Y              Z
 -------------------------------------------------------------------
      1       16           0.000927323   -0.003524718   -0.002063675
      2        8           0.001652693    0.000942470    0.000621514
      3        8          -0.002552755    0.002382644   -0.000143497
      4        7           0.001103228    0.000384239   -0.000944525
      5        1          -0.000398484   -0.000103808    0.000464076
      6        6          -0.000628855    0.000040214    0.002107808
      7        1           0.000065113    0.000021478    0.000070889
      8        1          -0.000102395   -0.000055529   -0.000012057
      9        1          -0.000065867   -0.000086989   -0.000100533
 -------------------------------------------------------------------
 Cartesian Forces:  Max     0.003524718 RMS     0.001236626

 GradGradGradGradGradGradGradGradGradGradGradGradGradGradGradGradGradGrad
 Berny optimization.
 Using GEDIIS/GDIIS optimizer.
 FormGI is forming the generalized inverse of G from B-inverse, IUseBI=4.
 Internal  Forces:  Max     0.003434593 RMS     0.000845288
 Search for a local minimum.
 Step number   5 out of a maximum of   43
 All quantities printed in internal units (Hartrees-Bohrs-Radians)
 Mixed Optimization -- En-DIIS/RFO-DIIS
 Swapping is turned off.
 Update second derivatives using D2CorX and points    1    2    3    4    5
 DE= -1.19D-04 DEPred=-8.79D-05 R= 1.35D+00
 TightC=F SS=  1.41D+00  RLast= 1.36D-01 DXNew= 8.4853D-01 4.0759D-01
 Trust test= 1.35D+00 RLast= 1.36D-01 DXMaxT set to 5.05D-01
 ITU=  1  1  1  1  0
     Eigenvalues ---    0.00436   0.00623   0.06059   0.06097   0.09230
     Eigenvalues ---    0.11434   0.15996   0.16011   0.16143   0.16748
     Eigenvalues ---    0.20704   0.24468   0.25590   0.34325   0.34541
     Eigenvalues ---    0.34651   0.35384   0.44076   0.59080   0.77140
     Eigenvalues ---    0.94562
 En-DIIS/RFO-DIIS/Sim-DIIS IScMMF=       -3 using points:     5    4    3
 RFO step:  Lambda=-8.38532748D-05.
 DidBck=F Rises=F RFO-DIIS coefs:    1.35984   -0.06098   -0.29886
 Iteration  1 RMS(Cart)=  0.01283340 RMS(Int)=  0.00034837
 Iteration  2 RMS(Cart)=  0.00030139 RMS(Int)=  0.00000244
 Iteration  3 RMS(Cart)=  0.00000013 RMS(Int)=  0.00000244
 Variable       Old X    -DE/DX   Delta X   Delta X   Delta X     New X
                                 (Linear)    (Quad)   (Total)
    R1        2.81389   0.00195  -0.00169   0.00276   0.00108   2.81497
    R2        2.78904   0.00343  -0.00259   0.00449   0.00190   2.79095
    R3        2.97238  -0.00049   0.00190  -0.00158   0.00032   2.97270
    R4        3.45225  -0.00219   0.00341  -0.00713  -0.00372   3.44853
    R5        1.93253  -0.00018  -0.00001  -0.00071  -0.00072   1.93181
    R6        2.06371  -0.00010  -0.00013  -0.00011  -0.00024   2.06347
    R7        2.06566  -0.00005  -0.00033   0.00002  -0.00031   2.06536
    R8        2.06588  -0.00008   0.00011  -0.00027  -0.00016   2.06573
    A1        2.02915  -0.00010   0.00061  -0.00124  -0.00063   2.02852
    A2        1.99814   0.00036  -0.00323   0.00136  -0.00186   1.99627
    A3        1.78927  -0.00030   0.00261  -0.00101   0.00161   1.79088
    A4        1.93446   0.00077   0.00189   0.00259   0.00448   1.93894
    A5        1.79502  -0.00047  -0.00216  -0.00052  -0.00267   1.79235
    A6        1.89467  -0.00055   0.00043  -0.00196  -0.00153   1.89314
    A7        1.84328   0.00062  -0.00166   0.00236   0.00071   1.84399
    A8        1.88563  -0.00007  -0.00183   0.00035  -0.00148   1.88415
    A9        1.89681  -0.00003  -0.00166   0.00080  -0.00086   1.89595
   A10        1.89215   0.00017  -0.00049   0.00117   0.00068   1.89283
   A11        1.92976  -0.00002   0.00120  -0.00120  -0.00002   1.92975
   A12        1.93301  -0.00006   0.00078  -0.00090  -0.00012   1.93289
   A13        1.92526   0.00001   0.00185  -0.00012   0.00173   1.92699
    D1       -0.48735   0.00081   0.04835   0.00174   0.05009  -0.43726
    D2       -2.82454  -0.00017   0.04868  -0.00035   0.04833  -2.77621
    D3        1.49943   0.00029   0.05004  -0.00000   0.05004   1.54947
    D4        3.13166   0.00012  -0.00688   0.00135  -0.00552   3.12614
    D5        1.03713   0.00020  -0.00629   0.00214  -0.00416   1.03297
    D6       -1.05577   0.00011  -0.00728   0.00115  -0.00613  -1.06190
    D7       -1.03912  -0.00030  -0.00601  -0.00062  -0.00663  -1.04575
    D8       -3.13365  -0.00022  -0.00542   0.00016  -0.00526  -3.13891
    D9        1.05664  -0.00031  -0.00641  -0.00083  -0.00724   1.04941
   D10        1.01125   0.00011  -0.00474   0.00123  -0.00351   1.00774
   D11       -1.08328   0.00019  -0.00416   0.00201  -0.00215  -1.08543
   D12        3.10701   0.00010  -0.00514   0.00102  -0.00412   3.10289
         Item               Value     Threshold  Converged?
 Maximum Force            0.003435     0.000450     NO 
 RMS     Force            0.000845     0.000300     NO 
 Maximum Displacement     0.057490     0.001800     NO 
 RMS     Displacement     0.012823     0.001200     NO 
 Predicted change in Energy=-4.072562D-05
 GradGradGradGradGradGradGradGradGradGradGradGradGradGradGradGradGradGrad

                          Input orientation:                          
 ---------------------------------------------------------------------
 Center     Atomic      Atomic             Coordinates (Angstroms)
 Number     Number       Type             X           Y           Z
 ---------------------------------------------------------------------
      1         16           0       -1.747883    0.245883    1.278510
      2          8           0       -0.596191    0.795127    2.047209
      3          8           0       -2.988120    1.047527    1.299140
      4          7           0       -2.050368   -1.272295    1.558218
      5          1           0       -1.166253   -1.675818    1.875302
      6          6           0       -1.189739    0.415108   -0.450660
      7          1           0       -1.974195    0.017694   -1.097985
      8          1           0       -0.264275   -0.152632   -0.575971
      9          1           0       -1.017694    1.474805   -0.656540
 ---------------------------------------------------------------------
                    Distance matrix (angstroms):
                    1          2          3          4          5
     1  S    0.000000
     2  O    1.489618   0.000000
     3  O    1.476905   2.518857   0.000000
     4  N    1.573085   2.574486   2.515567   0.000000
     5  H    2.094610   2.541671   3.326826   1.022268   0.000000
     6  C    1.824881   2.595393   2.587649   2.761087   3.127719
     7  H    2.398128   3.520730   2.799073   2.953860   3.515849
     8  H    2.408113   2.808823   3.517920   2.999757   3.023641
     9  H    2.405794   2.819554   2.808884   3.676701   4.044592
                    6          7          8          9
     6  C    0.000000
     7  H    1.091942   0.000000
     8  H    1.092939   1.795922   0.000000
     9  H    1.093135   1.798038   1.795184   0.000000
 Stoichiometry    CH4NO2S(1-)
 Framework group  C1[X(CH4NO2S)]
 Deg. of freedom    21
 Full point group                 C1      NOp   1
 Largest Abelian subgroup         C1      NOp   1
 Largest concise Abelian subgroup C1      NOp   1
                         Standard orientation:                         
 ---------------------------------------------------------------------
 Center     Atomic      Atomic             Coordinates (Angstroms)
 Number     Number       Type             X           Y           Z
 ---------------------------------------------------------------------
      1         16           0        0.153290   -0.064340    0.029395
      2          8           0        0.354714    0.305741    1.458182
      3          8           0        0.150381   -1.509240   -0.276389
      4          7           0        1.063919    0.726261   -0.980705
      5          1           0        1.296277    1.605039   -0.512954
      6          6           0       -1.583908    0.411183   -0.264227
      7          1           0       -1.822285    0.188591   -1.306325
      8          1           0       -1.691513    1.480544   -0.065722
      9          1           0       -2.219857   -0.167673    0.410636
 ---------------------------------------------------------------------
 Rotational constants (GHZ):           4.8671936           4.4943665           4.3891307
 Basis read from rwf:  (6D, 7F)
 There are   107 symmetry adapted cartesian basis functions of A   symmetry.
 There are   107 symmetry adapted basis functions of A   symmetry.
   107 basis functions,   200 primitive gaussians,   107 cartesian basis functions
    25 alpha electrons       25 beta electrons
       nuclear repulsion energy       265.4093975551 Hartrees.
 NAtoms=    9 NActive=    9 NUniq=    9 SFac= 1.00D+00 NAtFMM=   60 NAOKFM=F Big=F
 Integral buffers will be    131072 words long.
 Raffenetti 2 integral format.
 Two-electron integral symmetry is turned on.
 One-electron integrals computed using PRISM.
 NBasis=   107 RedAO= T EigKep=  4.93D-04  NBF=   107
 NBsUse=   107 1.00D-06 EigRej= -1.00D+00 NBFU=   107
 Initial guess from the checkpoint file:  "/jobfs/40766276.gadi-pbs/Gau-2413161.chk"
 B after Tr=    -0.000000    0.000000    0.000000
         Rot=    0.999949    0.005442   -0.002626    0.008092 Ang=   1.16 deg.
 ExpMin= 4.05D-02 ExpMax= 2.19D+04 ExpMxC= 3.30D+03 IAcc=3 IRadAn=         5 AccDes= 0.00D+00
 Harris functional with IExCor= 1009 and IRadAn=       5 diagonalized for initial guess.
 HarFok:  IExCor= 1009 AccDes= 0.00D+00 IRadAn=         5 IDoV= 1 UseB2=F ITyADJ=14
 ICtDFT=  3500011 ScaDFX=  1.000000  1.000000  1.000000  1.000000
 FoFCou: FMM=F IPFlag=           0 FMFlag=      100000 FMFlg1=           0
         NFxFlg=           0 DoJE=T BraDBF=F KetDBF=T FulRan=T
         wScrn=  0.000000 ICntrl=       500 IOpCl=  0 I1Cent=   200000004 NGrid=           0
         NMat0=    1 NMatS0=      1 NMatT0=    0 NMatD0=    1 NMtDS0=    0 NMtDT0=    0
 Petite list used in FoFCou.
 Keep R1 ints in memory in canonical form, NReq=31601774.
 Requested convergence on RMS density matrix=1.00D-08 within 128 cycles.
 Requested convergence on MAX density matrix=1.00D-06.
 Requested convergence on             energy=1.00D-06.
 No special actions if energy rises.
 SCF Done:  E(RM062X) =  -643.746378096     A.U. after   11 cycles
            NFock= 11  Conv=0.30D-08     -V/T= 2.0053
 Calling FoFJK, ICntrl=      2127 FMM=F ISym2X=0 I1Cent= 0 IOpClX= 0 NMat=1 NMatS=1 NMatT=0.
 ***** Axes restored to original set *****
 -------------------------------------------------------------------
 Center     Atomic                   Forces (Hartrees/Bohr)
 Number     Number              X              Y              Z
 -------------------------------------------------------------------
      1       16           0.000801965   -0.002806917   -0.001581242
      2        8           0.001314677    0.000782896    0.000624060
      3        8          -0.002001695    0.001653469   -0.000131007
      4        7           0.000690940    0.000658439   -0.000486947
      5        1          -0.000256804   -0.000090241    0.000037330
      6        6          -0.000544615   -0.000096960    0.001795332
      7        1           0.000049158    0.000011168   -0.000076648
      8        1          -0.000040497   -0.000035529   -0.000083442
      9        1          -0.000013128   -0.000076325   -0.000097437
 -------------------------------------------------------------------
 Cartesian Forces:  Max     0.002806917 RMS     0.000967958

 GradGradGradGradGradGradGradGradGradGradGradGradGradGradGradGradGradGrad
 Berny optimization.
 Using GEDIIS/GDIIS optimizer.
 FormGI is forming the generalized inverse of G from B-inverse, IUseBI=4.
 Internal  Forces:  Max     0.002579088 RMS     0.000646038
 Search for a local minimum.
 Step number   6 out of a maximum of   43
 All quantities printed in internal units (Hartrees-Bohrs-Radians)
 Mixed Optimization -- En-DIIS/RFO-DIIS
 Swapping is turned off.
 Update second derivatives using D2CorX and points    1    2    3    4    5
                                                      6
 DE= -4.64D-05 DEPred=-4.07D-05 R= 1.14D+00
 TightC=F SS=  1.41D+00  RLast= 8.75D-02 DXNew= 8.4853D-01 2.6246D-01
 Trust test= 1.14D+00 RLast= 8.75D-02 DXMaxT set to 5.05D-01
 ITU=  1  1  1  1  1  0
     Eigenvalues ---    0.00438   0.00610   0.06053   0.06107   0.09296
     Eigenvalues ---    0.11331   0.15905   0.15999   0.16252   0.16587
     Eigenvalues ---    0.20682   0.23453   0.25660   0.31452   0.34530
     Eigenvalues ---    0.34600   0.34702   0.44113   0.59422   0.75140
     Eigenvalues ---    0.77691
 En-DIIS/RFO-DIIS/Sim-DIIS IScMMF=       -3 using points:     6    5    4    3
 RFO step:  Lambda=-3.45093246D-05.
 DidBck=F Rises=F RFO-DIIS coefs:    2.30094   -1.57216   -0.10191    0.37314
 Iteration  1 RMS(Cart)=  0.00420232 RMS(Int)=  0.00004368
 Iteration  2 RMS(Cart)=  0.00003946 RMS(Int)=  0.00000435
 Iteration  3 RMS(Cart)=  0.00000000 RMS(Int)=  0.00000435
 Variable       Old X    -DE/DX   Delta X   Delta X   Delta X     New X
                                 (Linear)    (Quad)   (Total)
    R1        2.81497   0.00162   0.00339   0.00010   0.00349   2.81846
    R2        2.79095   0.00258   0.00546  -0.00030   0.00515   2.79610
    R3        2.97270  -0.00071  -0.00167  -0.00044  -0.00211   2.97059
    R4        3.44853  -0.00164  -0.00890  -0.00060  -0.00950   3.43903
    R5        1.93181  -0.00017  -0.00108   0.00019  -0.00089   1.93091
    R6        2.06347   0.00000  -0.00015   0.00027   0.00012   2.06359
    R7        2.06536  -0.00000  -0.00009   0.00005  -0.00003   2.06532
    R8        2.06573  -0.00006  -0.00043   0.00021  -0.00022   2.06551
    A1        2.02852  -0.00006  -0.00091  -0.00099  -0.00191   2.02661
    A2        1.99627   0.00035   0.00097   0.00036   0.00133   1.99760
    A3        1.79088  -0.00015  -0.00031   0.00123   0.00091   1.79179
    A4        1.93894   0.00045   0.00377  -0.00067   0.00309   1.94203
    A5        1.79235  -0.00022  -0.00150   0.00037  -0.00113   1.79121
    A6        1.89314  -0.00057  -0.00309  -0.00003  -0.00312   1.89002
    A7        1.84399   0.00038   0.00245   0.00044   0.00289   1.84688
    A8        1.88415   0.00010   0.00011   0.00090   0.00101   1.88516
    A9        1.89595   0.00006   0.00053   0.00001   0.00055   1.89650
   A10        1.89283   0.00014   0.00114   0.00069   0.00183   1.89465
   A11        1.92975  -0.00011  -0.00129  -0.00045  -0.00173   1.92802
   A12        1.93289  -0.00011  -0.00097  -0.00037  -0.00134   1.93155
   A13        1.92699  -0.00006   0.00053  -0.00071  -0.00018   1.92681
    D1       -0.43726   0.00040   0.01855  -0.00104   0.01751  -0.41975
    D2       -2.77621  -0.00030   0.01519   0.00073   0.01591  -2.76030
    D3        1.54947   0.00005   0.01672   0.00066   0.01738   1.56685
    D4        3.12614   0.00008  -0.00055   0.00055  -0.00000   3.12613
    D5        1.03297   0.00012   0.00061   0.00056   0.00118   1.03415
    D6       -1.06190   0.00008  -0.00099   0.00101   0.00001  -1.06189
    D7       -1.04575  -0.00013  -0.00228   0.00009  -0.00219  -1.04794
    D8       -3.13891  -0.00009  -0.00112   0.00010  -0.00101  -3.13992
    D9        1.04941  -0.00013  -0.00272   0.00055  -0.00218   1.04723
   D10        1.00774   0.00002  -0.00007  -0.00050  -0.00057   1.00717
   D11       -1.08543   0.00006   0.00109  -0.00049   0.00062  -1.08481
   D12        3.10289   0.00002  -0.00051  -0.00004  -0.00055   3.10234
         Item               Value     Threshold  Converged?
 Maximum Force            0.002579     0.000450     NO 
 RMS     Force            0.000646     0.000300     NO 
 Maximum Displacement     0.015240     0.001800     NO 
 RMS     Displacement     0.004203     0.001200     NO 
 Predicted change in Energy=-1.483648D-05
 GradGradGradGradGradGradGradGradGradGradGradGradGradGradGradGradGradGrad

                          Input orientation:                          
 ---------------------------------------------------------------------
 Center     Atomic      Atomic             Coordinates (Angstroms)
 Number     Number       Type             X           Y           Z
 ---------------------------------------------------------------------
      1         16           0       -1.746579    0.244873    1.276312
      2          8           0       -0.594240    0.795107    2.046909
      3          8           0       -2.987943    1.049786    1.297276
      4          7           0       -2.046867   -1.273655    1.550153
      5          1           0       -1.168120   -1.675937    1.881873
      6          6           0       -1.190978    0.415235   -0.448262
      7          1           0       -1.974827    0.017736   -1.096377
      8          1           0       -0.265701   -0.152401   -0.575269
      9          1           0       -1.019464    1.474655   -0.655394
 ---------------------------------------------------------------------
                    Distance matrix (angstroms):
                    1          2          3          4          5
     1  S    0.000000
     2  O    1.491463   0.000000
     3  O    1.479632   2.521235   0.000000
     4  N    1.571970   2.576173   2.519514   0.000000
     5  H    2.095430   2.542170   3.329126   1.021795   0.000000
     6  C    1.819855   2.593507   2.584307   2.752919   3.130983
     7  H    2.394440   3.520025   2.796624   2.945676   3.519841
     8  H    2.403992   2.807405   3.516004   2.991184   3.028708
     9  H    2.402612   2.818695   2.805056   3.670586   4.047968
                    6          7          8          9
     6  C    0.000000
     7  H    1.092007   0.000000
     8  H    1.092922   1.794885   0.000000
[...]
 Vibration     5          0.832              1.306              0.724
 Vibration     6          0.849              1.266              0.676
 Vibration     7          0.875              1.206              0.611
                       Q            Log10(Q)             Ln(Q)
 Total Bot       0.560264D-15        -15.251607        -35.118123
 Total V=0       0.135356D+14         13.131476         30.236342
 Vib (Bot)       0.176736D-27        -27.752676        -63.902898
 Vib (Bot)    1  0.788625D+00         -0.103129         -0.237464
 Vib (Bot)    2  0.664147D+00         -0.177736         -0.409251
 Vib (Bot)    3  0.635439D+00         -0.196926         -0.453438
 Vib (Bot)    4  0.476084D+00         -0.322317         -0.742161
 Vib (Bot)    5  0.353769D+00         -0.451281         -1.039112
 Vib (Bot)    6  0.335598D+00         -0.474181         -1.091842
 Vib (Bot)    7  0.310720D+00         -0.507631         -1.168864
 Vib (V=0)       0.426980D+01          0.630407          1.451567
 Vib (V=0)    1  0.143377D+01          0.156480          0.360308
 Vib (V=0)    2  0.133132D+01          0.124282          0.286170
 Vib (V=0)    3  0.130857D+01          0.116797          0.268934
 Vib (V=0)    4  0.119040D+01          0.075694          0.174292
 Vib (V=0)    5  0.111250D+01          0.046299          0.106607
 Vib (V=0)    6  0.110218D+01          0.042254          0.097294
 Vib (V=0)    7  0.108868D+01          0.036901          0.084968
 Electronic      0.100000D+01          0.000000          0.000000
 Translational   0.358195D+08          7.554120         17.394004
 Rotational      0.885012D+05          4.946949         11.390771
 ***** Axes restored to original set *****
 -------------------------------------------------------------------
 Center     Atomic                   Forces (Hartrees/Bohr)
 Number     Number              X              Y              Z
 -------------------------------------------------------------------
      1       16          -0.000064112   -0.000013172    0.000006590
      2        8           0.000002282   -0.000034437   -0.000019531
      3        8           0.000061500   -0.000065100    0.000000776
      4        7           0.000013096    0.000093421    0.000009055
      5        1          -0.000001279   -0.000009059    0.000001117
      6        6          -0.000016961    0.000028794    0.000052318
      7        1          -0.000008924    0.000003021   -0.000007863
      8        1           0.000003758   -0.000005983   -0.000018881
      9        1           0.000010639    0.000002515   -0.000023581
 -------------------------------------------------------------------
 Cartesian Forces:  Max     0.000093421 RMS     0.000032245
 FormGI is forming the generalized inverse of G from B-inverse, IUseBI=4.

 GradGradGradGradGradGradGradGradGradGradGradGradGradGradGradGradGradGrad
 Berny optimization.
 Internal  Forces:  Max     0.000084152 RMS     0.000026854
 Search for a local minimum.
 Step number   1 out of a maximum of    2
 All quantities printed in internal units (Hartrees-Bohrs-Radians)
 Second derivative matrix not updated -- analytic derivatives used.
 ITU=  0
     Eigenvalues ---    0.00291   0.00471   0.04302   0.04358   0.09375
     Eigenvalues ---    0.10793   0.11699   0.12558   0.13320   0.16182
     Eigenvalues ---    0.19304   0.22008   0.23368   0.29528   0.35221
     Eigenvalues ---    0.35341   0.35730   0.42441   0.44242   0.52430
     Eigenvalues ---    0.56782
 Angle between quadratic step and forces=  66.19 degrees.
 Linear search not attempted -- first point.
 Iteration  1 RMS(Cart)=  0.00026670 RMS(Int)=  0.00000004
 Iteration  2 RMS(Cart)=  0.00000004 RMS(Int)=  0.00000001
 Variable       Old X    -DE/DX   Delta X   Delta X   Delta X     New X
                                 (Linear)    (Quad)   (Total)
    R1        2.81839  -0.00002   0.00000  -0.00003  -0.00003   2.81836
    R2        2.79595  -0.00008   0.00000  -0.00015  -0.00015   2.79581
    R3        2.97046  -0.00008   0.00000  -0.00024  -0.00024   2.97022
    R4        3.43904  -0.00000   0.00000  -0.00002  -0.00002   3.43901
    R5        1.93093   0.00000   0.00000  -0.00001  -0.00001   1.93092
    R6        2.06357   0.00001   0.00000   0.00004   0.00004   2.06360
    R7        2.06537   0.00001   0.00000   0.00005   0.00005   2.06542
    R8        2.06558   0.00001   0.00000   0.00002   0.00002   2.06561
    A1        2.02698   0.00003   0.00000   0.00019   0.00019   2.02717
    A2        1.99734  -0.00002   0.00000  -0.00011  -0.00011   1.99722
    A3        1.79157  -0.00002   0.00000  -0.00011  -0.00011   1.79145
    A4        1.94186  -0.00003   0.00000  -0.00013  -0.00013   1.94173
    A5        1.79117  -0.00001   0.00000  -0.00004  -0.00004   1.79113
    A6        1.89041   0.00006   0.00000   0.00024   0.00024   1.89064
    A7        1.84689   0.00001   0.00000   0.00016   0.00016   1.84705
    A8        1.88499   0.00000   0.00000   0.00006   0.00006   1.88505
    A9        1.89656   0.00001   0.00000   0.00011   0.00011   1.89666
   A10        1.89508   0.00003   0.00000   0.00025   0.00025   1.89532
   A11        1.92792  -0.00001   0.00000  -0.00013  -0.00013   1.92778
   A12        1.93147  -0.00002   0.00000  -0.00011  -0.00011   1.93136
   A13        1.92670  -0.00002   0.00000  -0.00015  -0.00015   1.92655
    D1       -0.41861  -0.00000   0.00000  -0.00008  -0.00008  -0.41868
    D2       -2.75927   0.00001   0.00000  -0.00011  -0.00011  -2.75938
    D3        1.56781  -0.00000   0.00000  -0.00013  -0.00013   1.56769
    D4        3.12613  -0.00001   0.00000   0.00031   0.00031   3.12643
    D5        1.03434  -0.00001   0.00000   0.00037   0.00037   1.03471
    D6       -1.06185  -0.00001   0.00000   0.00035   0.00035  -1.06150
    D7       -1.04764   0.00001   0.00000   0.00045   0.00045  -1.04719
    D8       -3.13943   0.00001   0.00000   0.00052   0.00052  -3.13892
    D9        1.04756   0.00001   0.00000   0.00050   0.00050   1.04806
   D10        1.00742  -0.00000   0.00000   0.00038   0.00038   1.00780
   D11       -1.08438   0.00000   0.00000   0.00045   0.00045  -1.08393
   D12        3.10262   0.00000   0.00000   0.00043   0.00043   3.10305
         Item               Value     Threshold  Converged?
 Maximum Force            0.000084     0.000450     YES
 RMS     Force            0.000027     0.000300     YES
 Maximum Displacement     0.000717     0.001800     YES
 RMS     Displacement     0.000267     0.001200     YES
 Predicted change in Energy=-4.417146D-08
 Optimization completed.
    -- Stationary point found.
                           ----------------------------
                           !   Optimized Parameters   !
                           ! (Angstroms and Degrees)  !
 --------------------------                            --------------------------
 ! Name  Definition              Value          Derivative Info.                !
 --------------------------------------------------------------------------------
 ! R1    R(1,2)                  1.4914         -DE/DX =    0.0                 !
 ! R2    R(1,3)                  1.4796         -DE/DX =   -0.0001              !
 ! R3    R(1,4)                  1.5719         -DE/DX =   -0.0001              !
 ! R4    R(1,6)                  1.8199         -DE/DX =    0.0                 !
 ! R5    R(4,5)                  1.0218         -DE/DX =    0.0                 !
 ! R6    R(6,7)                  1.092          -DE/DX =    0.0                 !
 ! R7    R(6,8)                  1.0929         -DE/DX =    0.0                 !
 ! R8    R(6,9)                  1.0931         -DE/DX =    0.0                 !
 ! A1    A(2,1,3)              116.1376         -DE/DX =    0.0                 !
 ! A2    A(2,1,4)              114.439          -DE/DX =    0.0                 !
 ! A3    A(2,1,6)              102.6492         -DE/DX =    0.0                 !
 ! A4    A(3,1,4)              111.2606         -DE/DX =    0.0                 !
 ! A5    A(3,1,6)              102.6263         -DE/DX =    0.0                 !
 ! A6    A(4,1,6)              108.3122         -DE/DX =    0.0001              !
 ! A7    A(1,4,5)              105.8192         -DE/DX =    0.0                 !
 ! A8    A(1,6,7)              108.0017         -DE/DX =    0.0                 !
 ! A9    A(1,6,8)              108.6647         -DE/DX =    0.0                 !
 ! A10   A(1,6,9)              108.5798         -DE/DX =    0.0                 !
 ! A11   A(7,6,8)              110.4615         -DE/DX =    0.0                 !
 ! A12   A(7,6,9)              110.6649         -DE/DX =    0.0                 !
 ! A13   A(8,6,9)              110.3919         -DE/DX =    0.0                 !
 ! D1    D(2,1,4,5)            -23.9845         -DE/DX =    0.0                 !
 ! D2    D(3,1,4,5)           -158.0947         -DE/DX =    0.0                 !
 ! D3    D(6,1,4,5)             89.8291         -DE/DX =    0.0                 !
 ! D4    D(2,1,6,7)            179.114          -DE/DX =    0.0                 !
 ! D5    D(2,1,6,8)             59.2632         -DE/DX =    0.0                 !
 ! D6    D(2,1,6,9)            -60.8396         -DE/DX =    0.0                 !
 ! D7    D(3,1,6,7)            -60.0255         -DE/DX =    0.0                 !
 ! D8    D(3,1,6,8)           -179.8763         -DE/DX =    0.0                 !
 ! D9    D(3,1,6,9)             60.0209         -DE/DX =    0.0                 !
 ! D10   D(4,1,6,7)             57.7207         -DE/DX =    0.0                 !
 ! D11   D(4,1,6,8)            -62.1301         -DE/DX =    0.0                 !
 ! D12   D(4,1,6,9)            177.7671         -DE/DX =    0.0                 !
 --------------------------------------------------------------------------------
 GradGradGradGradGradGradGradGradGradGradGradGradGradGradGradGradGradGrad


 ----------------------------------------------------------------------

 Electric dipole moment (input orientation):
 (Debye = 10**-18 statcoulomb cm , SI units = C m)
                  (au)            (Debye)         (10**-30 SI)
   Tot        0.165642D+01      0.421021D+01      0.140437D+02
   x          0.100434D+01      0.255278D+01      0.851515D+01
   y         -0.420725D-01     -0.106938D+00     -0.356706D+00
   z         -0.131654D+01     -0.334630D+01     -0.111621D+02

 Dipole polarizability, Alpha (input orientation).
 (esu units = cm**3 , SI units = C**2 m**2 J**-1)
 Alpha(0;0):
               (au)            (10**-24 esu)      (10**-40 SI)
   iso        0.547834D+02      0.811806D+01      0.903256D+01
   aniso      0.837974D+01      0.124175D+01      0.138163D+01
   xx         0.517257D+02      0.766496D+01      0.852842D+01
   yx         0.157353D+01      0.233174D+00      0.259441D+00
   yy         0.559960D+02      0.829775D+01      0.923249D+01
   zx        -0.230751D+01     -0.341938D+00     -0.380457D+00
   zy        -0.291442D+01     -0.431873D+00     -0.480523D+00
   zz         0.566285D+02      0.839148D+01      0.933678D+01

 ----------------------------------------------------------------------

 Dipole orientation:
    16         -1.15832450         -0.37263183         -3.92979172
     8          1.46519581         -1.39327239         -3.79289714
     8         -2.98671861         -1.87145350         -5.42239719
     7         -1.32001949          2.51378244         -4.61249286
     1          0.37475171          3.27489405         -4.08624769
     6         -2.29653751         -0.78710327         -0.71114864
     1         -4.22356583         -0.05498901         -0.61692568
     1         -1.06136841          0.26441895          0.56729187
     1         -2.25873610         -2.80108859         -0.25391154

 Electric dipole moment (dipole orientation):
 (Debye = 10**-18 statcoulomb cm , SI units = C m)
                  (au)            (Debye)         (10**-30 SI)
   Tot        0.165642D+01      0.421021D+01      0.140437D+02
   x          0.000000D+00      0.000000D+00      0.000000D+00
   y          0.000000D+00      0.000000D+00      0.000000D+00
   z          0.165642D+01      0.421021D+01      0.140437D+02

 Dipole polarizability, Alpha (dipole orientation).
 (esu units = cm**3 , SI units = C**2 m**2 J**-1)
 Alpha(0;0):
               (au)            (10**-24 esu)      (10**-40 SI)
   iso        0.547834D+02      0.811806D+01      0.903256D+01
   aniso      0.837974D+01      0.124175D+01      0.138163D+01
   xx         0.512946D+02      0.760107D+01      0.845733D+01
   yx         0.519224D+00      0.769410D-01      0.856084D-01
   yy         0.561721D+02      0.832384D+01      0.926152D+01
   zx        -0.171248D+01     -0.253763D+00     -0.282350D+00
   zy        -0.330891D+01     -0.490330D+00     -0.545566D+00
   zz         0.568836D+02      0.842927D+01      0.937883D+01

 ----------------------------------------------------------------------
 Unable to Open any file for archive entry.
 1\1\GINC-GADI-CPU-CLX-0827\Freq\RM062X\Gen\C1H4N1O2S1(1-)\YJ5695\20-Ma
 y-2022\0\\#N Geom=AllCheck Guess=TCheck SCRF=Check GenChk RM062X/ChkBa
 s Freq\\A.17.a1.freq\\-1,1\S,-1.7466106132,0.2446777669,1.2761818435\O
 ,-0.5941173609,0.79465591,2.0466593639\O,-2.9880757257,1.0492947701,1.
 2971652643\N,-2.0468044505,-1.2737559402,1.5502368692\H,-1.1682787528,
 -1.6757518981,1.8829093563\C,-1.1909487466,0.4154980572,-0.4483330659\
 H,-1.9749037012,0.0182026902,-1.0964214395\H,-0.2657883525,-0.15231842
 48,-0.5755920846\H,-1.0191902964,1.4748960685,-0.6555851072\\Version=E
 S64L-G16RevC.01\State=1-A\HF=-643.7463991\RMSD=1.307e-09\RMSF=3.225e-0
 5\ZeroPoint=0.0617067\Thermal=0.0672049\ETot=-643.6791943\HTot=-643.67
 82501\GTot=-643.7132411\Dipole=1.0043402,-0.0420725,-1.3165375\DipoleD
 eriv=2.1603759,-0.0142635,0.0818453,0.030528,2.468462,-0.1549478,0.079
 1869,-0.1906857,2.0355537,-1.1541409,-0.3430971,-0.4374865,-0.2465449,
 -0.9633388,-0.199847,-0.3082039,-0.1486967,-1.0292237,-1.2658335,0.386
 9639,0.1527803,0.3859037,-0.9627423,-0.0757299,0.0375402,0.0502773,-0.
 7416165,-0.5511349,-0.0952945,0.1396062,-0.1511283,-1.5181573,0.250286
 7,0.102036,0.141691,-0.9182122,-0.0453666,0.087478,-0.0944143,0.027354
 6,0.1690937,0.0273649,-0.0639892,0.0409497,0.2388575,-0.0823732,-0.017
 811,0.1427784,-0.0433872,-0.11338,0.1230886,0.1372678,0.0609571,-0.510
 3246,-0.0156754,-0.0366908,-0.0878263,-0.0401707,0.03929,-0.0457555,-0
 .0610781,-0.0297299,-0.0640918,-0.0951268,0.0792686,0.0634701,0.089676
 1,0.0056462,-0.0257956,0.0381869,-0.0147484,0.0180664,0.0492755,-0.046
 5537,0.0392469,-0.0522313,-0.1248735,0.1013355,0.0390534,0.0899856,-0.
 0290089\Polar=51.7256976,1.5735337,55.9959875,-2.3075113,-2.914423,56.
 6285169\Quadrupole=-1.748822,-0.9513171,2.7001391,-2.3960399,-0.614422
 8,-1.1369103\PG=C01 [X(C1H4N1O2S1)]\NImag=0\\0.86917135,-0.05668779,0.
 74602283,0.11571504,0.00685701,0.52668070,-0.30663011,-0.10393867,-0.1
 5001202,0.32649146,-0.10951514,-0.14289974,-0.07322416,0.13079889,0.12
 856695,-0.15414285,-0.07066596,-0.19459001,0.18676142,0.08823256,0.190
 34328,-0.38141042,0.18604464,0.00913415,-0.02245607,0.01862980,-0.0046
 2731,0.41378443,0.18660134,-0.20306410,-0.00572151,-0.01023401,0.01514
 596,-0.00250297,-0.22342688,0.21346677,0.01261135,-0.00617470,-0.08948
 725,-0.02131007,0.00781859,0.01453582,-0.01385987,0.00548242,0.0621767
 7,-0.09489969,-0.00478996,-0.00417127,-0.00366245,-0.03306573,-0.00280
 603,0.00290903,0.03622025,-0.00675097,0.39845151,-0.05647667,-0.305601
 23,0.03983255,-0.01191084,-0.01789263,0.00194721,0.00210325,-0.0224335
 0,0.00765328,-0.09112572,0.44148111,0.00850746,0.06298266,-0.08846558,
 -0.01044708,-0.01839975,0.01827566,-0.00173526,0.00727905,0.01121880,0
 .12453257,-0.12327024,0.11084521,-0.00992608,-0.02053073,0.00374320,0.
 00113332,-0.00282868,0.00169594,0.00359678,0.00143393,-0.00106539,-0.3
 1297314,0.16249258,-0.12532361,0.31931408,0.04002604,-0.02641382,0.016
 72606,-0.00145154,0.00708950,-0.00101337,0.00038627,-0.00891917,0.0016
 9284,0.10233703,-0.08536437,0.04698142,-0.13906393,0.11410078,-0.00942
 075,0.00035544,-0.00292099,0.00003385,-0.00140397,-0.00284776,0.001059
 04,-0.00268817,0.00395738,-0.11467353,0.06612906,-0.05012346,0.1198585
 5,-0.06392688,0.05311607,-0.06906880,-0.00003718,0.02538100,0.00076196
 ,-0.00470100,-0.02892101,-0.01563785,0.00803179,0.02702813,0.00824816,
 -0.00224685,0.00318238,-0.00076957,-0.00195250,0.00152144,0.57421486,-
 0.00325019,-0.06039612,0.01350361,-0.00363425,0.00665009,-0.01633619,0
 .01655789,0.00219349,-0.01613346,-0.00934222,-0.01143574,0.02343866,-0
 .00137746,-0.00073793,0.00133896,-0.00620753,0.58573726,0.02563192,0.0
 0571620,-0.13980324,-0.00075668,-0.00074915,-0.01789658,0.00150549,0.0
 0203707,0.00055153,0.00172574,0.00110522,0.00122384,0.00052573,-0.0009
 2492,-0.00042317,0.06171561,0.02185918,0.39950262,0.00356666,0.0020092
 5,0.00576336,0.00261458,0.00064910,0.00273833,0.00021669,-0.00041927,-
 0.00036398,-0.00030732,0.00098785,-0.00006613,-0.00003883,0.00002024,-
 0.00006674,-0.19388013,-0.07327897,-0.12195541,0.20680178,0.00086921,-
 0.00022264,0.00213957,0.00034827,0.00186999,0.00088303,0.00096323,-0.0
 0058475,0.00007892,0.00027704,-0.00054023,-0.00033785,-0.00005922,0.00
 014584,0.00008074,-0.07384382,-0.08644955,-0.06156425,0.08102706,0.087
 67205,-0.02507784,-0.01149925,-0.01179689,-0.00041700,-0.00050681,-0.0
 1006040,0.00291517,0.00129327,0.00290844,0.00260945,0.00116782,0.00210
 223,0.00003326,-0.00044455,0.00055869,-0.12269616,-0.06184254,-0.14280
 493,0.13153345,0.06649487,0.15120834,-0.00966135,0.00726835,-0.0054103
 4,0.00205304,-0.00096483,0.00003228,-0.00052634,0.00018078,0.00428166,
 0.00159776,-0.00218190,-0.00069293,0.00001042,-0.00027866,0.00087161,-
 0.24835440,0.12309648,0.02529568,-0.01644743,0.01181655,0.00457418,0.2
 6503433,-0.00160401,-0.00081778,0.00222934,-0.00128815,-0.00035637,-0.
 00054945,-0.00070459,0.00230104,0.00016390,0.00000980,0.00017404,-0.00
 040283,-0.00002050,0.00003178,0.00016179,0.12287381,-0.12425110,-0.016
 64504,-0.01083927,0.00653223,0.00267380,-0.13497211,0.12949724,0.02319
 812,-0.01604609,0.00222703,-0.00297865,0.00193614,0.00073462,0.0069197
 8,-0.00207889,-0.00741448,-0.00337989,0.00101360,0.00114766,0.00017764
 ,0.00079123,-0.00103714,0.02623971,-0.01738097,-0.04705612,-0.01603109
 ,0.01176135,0.00318453,-0.02782913,0.01702763,0.04810903,-0.00114155,-
 0.00933790,-0.00014313,-0.00030573,0.00099758,-0.00073076,-0.00047625,
 0.00161206,-0.00057087,0.00063614,-0.00164170,0.00204261,-0.00034699,-
 0.00002295,0.00081654,-0.05551422,-0.04256375,0.00631193,-0.00252600,-
 0.02139830,0.00652550,0.00629398,0.02654501,-0.00631648,0.05338061,0.0
 0003721,-0.00660738,-0.00234248,0.00131030,0.00182627,0.00000514,-0.00
 055361,0.00189427,-0.00058179,-0.00052048,0.00161256,0.00172888,-0.000
 04599,0.00006739,-0.00004696,-0.04191672,-0.31131040,0.04916570,-0.000
 15599,-0.00842294,0.00266340,-0.00396467,-0.01311108,0.00297601,0.0458
 0995,0.33405131,0.00297754,0.02847470,-0.00184376,-0.00087376,-0.00370
 344,0.00150536,-0.00131119,-0.00310026,0.00155299,0.00291394,0.0044215
 1,-0.00622435,0.00035467,0.00011817,-0.00027961,0.00654890,0.05155275,
 -0.05329395,-0.00155178,-0.01953638,0.00469999,-0.00112301,-0.00465915
 ,0.00010487,-0.00793532,-0.05356790,0.05377845\\0.00006411,0.00001317,
 -0.00000659,-0.00000228,0.00003444,0.00001953,-0.00006150,0.00006510,-
 0.00000078,-0.00001310,-0.00009342,-0.00000905,0.00000128,0.00000906,-
 0.00000112,0.00001696,-0.00002879,-0.00005232,0.00000892,-0.00000302,0
 .00000786,-0.00000376,0.00000598,0.00001888,-0.00001064,-0.00000252,0.
 00002358\\\@
 The archive entry for this job was punched.


 Statistics are no substitute for judgment.
                            -- Henry Clay
 Job cpu time:       0 days  0 hours  7 minutes  5.1 seconds.
 Elapsed time:       0 days  0 hours  0 minutes 29.3 seconds.
 File lengths (MBytes):  RWF=     18 Int=      0 D2E=      0 Chk=      2 Scr=      1
 Normal termination of Gaussian 16 at Fri May 20 19:52:17 2022.
