 Entering Gaussian System, Link 0=g16
 AtFile(1): /home/561/yj5695/Basis/6-31pGd.gbs
 Initial command:
 /apps/gaussian/g16c01/g16/l1.exe "/jobfs/41454602.gadi-pbs/Gau-3100319.inp" -scrdir="/jobfs/41454602.gadi-pbs/"
 Entering Link 1 = /apps/gaussian/g16c01/g16/l1.exe PID=   3100320.
  
 Copyright (c) 1988-2019, Gaussian, Inc.  All Rights Reserved.
  
 This is part of the Gaussian(R) 16 program.  It is based on
 the Gaussian(R) 09 system (copyright 2009, Gaussian, Inc.),
 the Gaussian(R) 03 system (copyright 2003, Gaussian, Inc.),
 the Gaussian(R) 98 system (copyright 1998, Gaussian, Inc.),
 the Gaussian(R) 94 system (copyright 1995, Gaussian, Inc.),
 the Gaussian 92(TM) system (copyright 1992, Gaussian, Inc.),
 the Gaussian 90(TM) system (copyright 1990, Gaussian, Inc.),
 the Gaussian 88(TM) system (copyright 1988, Gaussian, Inc.),
 the Gaussian 86(TM) system (copyright 1986, Carnegie Mellon
 University), and the Gaussian 82(TM) system (copyright 1983,
 Carnegie Mellon University). Gaussian is a federally registered
 trademark of Gaussian, Inc.
  
 This software contains proprietary and confidential information,
 including trade secrets, belonging to Gaussian, Inc.
  
 This software is provided under written license and may be
 used, copied, transmitted, or stored only in accord with that
 written license.
  
 The following legend is applicable only to US Government
 contracts under FAR:
  
                    RESTRICTED RIGHTS LEGEND
  
 Use, reproduction and disclosure by the US Government is
 subject to restrictions as set forth in subparagraphs (a)
 and (c) of the Commercial Computer Software - Restricted
 Rights clause in FAR 52.227-19.
  
 Gaussian, Inc.
 340 Quinnipiac St., Bldg. 40, Wallingford CT 06492
  
  
 ---------------------------------------------------------------
 Warning -- This program may not be used in any manner that
 competes with the business of Gaussian, Inc. or will provide
 assistance to any competitor of Gaussian, Inc.  The licensee
 of this program is prohibited from giving any competitor of
 Gaussian, Inc. access to this program.  By using this program,
 the user acknowledges that Gaussian, Inc. is engaged in the
 business of creating and licensing software in the field of
 computational chemistry and represents and warrants to the
 licensee that it is not a competitor of Gaussian, Inc. and that
 it will not use this program in any manner prohibited above.
 ---------------------------------------------------------------
  

 Cite this work as:
 Gaussian 16, Revision C.01,
 M. J. Frisch, G. W. Trucks, H. B. Schlegel, G. E. Scuseria, 
 M. A. Robb, J. R. Cheeseman, G. Scalmani, V. Barone, 
 G. A. Petersson, H. Nakatsuji, X. Li, M. Caricato, A. V. Marenich, 
 J. Bloino, B. G. Janesko, R. Gomperts, B. Mennucci, H. P. Hratchian, 
 J. V. Ortiz, A. F. Izmaylov, J. L. Sonnenberg, D. Williams-Young, 
 F. Ding, F. Lipparini, F. Egidi, J. Goings, B. Peng, A. Petrone, 
 T. Henderson, D. Ranasinghe, V. G. Zakrzewski, J. Gao, N. Rega, 
 G. Zheng, W. Liang, M. Hada, M. Ehara, K. Toyota, R. Fukuda, 
 J. Hasegawa, M. Ishida, T. Nakajima, Y. Honda, O. Kitao, H. Nakai, 
 T. Vreven, K. Throssell, J. A. Montgomery, Jr., J. E. Peralta, 
 F. Ogliaro, M. J. Bearpark, J. J. Heyd, E. N. Brothers, K. N. Kudin, 
 V. N. Staroverov, T. A. Keith, R. Kobayashi, J. Normand, 
 K. Raghavachari, A. P. Rendell, J. C. Burant, S. S. Iyengar, 
 J. Tomasi, M. Cossi, J. M. Millam, M. Klene, C. Adamo, R. Cammi, 
 J. W. Ochterski, R. L. Martin, K. Morokuma, O. Farkas, 
 J. B. Foresman, and D. J. Fox, Gaussian, Inc., Wallingford CT, 2019.
 
 ******************************************
 Gaussian 16:  ES64L-G16RevC.01  3-Jul-2019
                27-May-2022 
 ******************************************
 %nproc=16
 Will use up to   16 processors via shared memory.
 %mem=30gb
 --------------------------------------------------
 #M062X/gen 6D INT(grid=ultrafine) OPT Freq=noraman
 --------------------------------------------------
 1/18=20,19=15,26=4,38=1/1,3;
 2/9=110,12=2,17=6,18=5,40=1/2;
 3/5=7,8=2,11=2,25=1,30=1,71=1,74=-55,75=-5/1,2,3;
 4//1;
 5/5=2,38=5/2;
 6/7=2,8=2,9=2,10=2,28=1/1;
 7//1,2,3,16;
 1/18=20,19=15,26=4/3(2);
 2/9=110/2;
 99//99;
 2/9=110/2;
 3/5=7,6=1,8=2,11=2,25=1,30=1,71=1,74=-55,75=-5,82=7/1,2,3;
 4/5=5,16=3,69=1/1;
 5/5=2,38=5/2;
 7//1,2,3,16;
 1/18=20,19=15,26=4/3(-5);
 2/9=110/2;
 6/7=2,8=2,9=2,10=2,19=2,28=1/1;
 99/9=1/99;
 ----------------
 A.18.a2b2f2.freq
 ----------------
 Symbolic Z-matrix:
 Charge = -1 Multiplicity = 1
 C                    -0.57405   1.05163  -1.44946 
 S                    -0.65689   1.69526   0.21845 
 O                    -2.09985   1.63165   0.55521 
 O                     0.19631   0.71713   0.94501 
 N                    -0.17937   3.17254   0.23365 
 H                     0.83795   3.18468   0.12241 
 O                    -1.33299   1.69762  -2.38556 
 C                    -1.09671   1.1094   -3.5766 
 C                    -0.19004   0.10926  -3.40608 
 C                     0.15718   0.06053  -2.01531 
 S                     0.4004   -0.93712  -4.67854 
 C                    -0.3602   -2.5045   -4.3948 
 O                     1.85058  -1.09169  -4.49036 
 O                    -0.09655  -0.39057  -5.95024 
 C                     0.29154  -3.44318  -3.59688 
 C                    -0.33741  -4.6543   -3.34467 
 C                    -1.59925  -4.91162  -3.88961 
 C                    -2.25917  -3.96601  -4.69599 
 C                    -1.62395  -2.75186  -4.93086 
 O                    -2.24313  -6.0845   -3.65259 
 C                    -3.61422  -4.2605   -5.2856 
 N                    -3.554    -5.07545  -6.507 
 C                    -2.92115  -4.31836  -7.5846 
 C                    -4.92287  -5.40041  -6.90248 
 H                    -1.63004   1.49419  -4.434 
 H                     0.84641  -0.61259  -1.524 
 H                     1.27292  -3.23649  -3.18135 
 H                     0.14231  -5.40752  -2.72583 
 H                    -2.1202   -2.00155  -5.54269 
 H                    -1.70749  -6.64764  -3.06788 
 H                    -4.1223   -3.30201  -5.49415 
 H                    -4.22028  -4.80024  -4.5521 
 H                    -1.87901  -4.09674  -7.34153 
 H                    -3.44609  -3.36525  -7.77618 
 H                    -2.93763  -4.91195  -8.50247 
 H                    -5.41487  -5.97251  -6.11117 
 H                    -4.90995  -6.00516  -7.81302 
 H                    -5.51906  -4.49163  -7.09839 
 

 GradGradGradGradGradGradGradGradGradGradGradGradGradGradGradGradGradGrad
 Berny optimization.
 Initialization pass.
                           ----------------------------
                           !    Initial Parameters    !
                           ! (Angstroms and Degrees)  !
 --------------------------                            --------------------------
 ! Name  Definition              Value          Derivative Info.                !
 --------------------------------------------------------------------------------
 ! R1    R(1,2)                  1.7897         estimate D2E/DX2                !
 ! R2    R(1,7)                  1.3673         estimate D2E/DX2                !
 ! R3    R(1,10)                 1.3554         estimate D2E/DX2                !
 ! R4    R(2,3)                  1.4831         estimate D2E/DX2                !
 ! R5    R(2,4)                  1.4875         estimate D2E/DX2                !
 ! R6    R(2,5)                  1.5526         estimate D2E/DX2                !
 ! R7    R(5,6)                  1.0235         estimate D2E/DX2                !
 ! R8    R(7,8)                  1.3492         estimate D2E/DX2                !
 ! R9    R(8,9)                  1.3607         estimate D2E/DX2                !
 ! R10   R(8,25)                 1.0806         estimate D2E/DX2                !
 ! R11   R(9,10)                 1.4343         estimate D2E/DX2                !
 ! R12   R(9,11)                 1.7501         estimate D2E/DX2                !
 ! R13   R(10,26)                1.0814         estimate D2E/DX2                !
 ! R14   R(11,12)                1.7651         estimate D2E/DX2                !
 ! R15   R(11,13)                1.4705         estimate D2E/DX2                !
 ! R16   R(11,14)                1.4707         estimate D2E/DX2                !
 ! R17   R(12,15)                1.3938         estimate D2E/DX2                !
 ! R18   R(12,19)                1.3949         estimate D2E/DX2                !
 ! R19   R(15,16)                1.3878         estimate D2E/DX2                !
 ! R20   R(15,27)                1.0856         estimate D2E/DX2                !
 ! R21   R(16,17)                1.3984         estimate D2E/DX2                !
 ! R22   R(16,28)                1.0865         estimate D2E/DX2                !
 ! R23   R(17,18)                1.4071         estimate D2E/DX2                !
 ! R24   R(17,20)                1.3588         estimate D2E/DX2                !
 ! R25   R(18,19)                1.3903         estimate D2E/DX2                !
 ! R26   R(18,21)                1.5068         estimate D2E/DX2                !
 ! R27   R(19,29)                1.0879         estimate D2E/DX2                !
 ! R28   R(20,30)                0.9726         estimate D2E/DX2                !
 ! R29   R(21,22)                1.4696         estimate D2E/DX2                !
 ! R30   R(21,31)                1.1047         estimate D2E/DX2                !
 ! R31   R(21,32)                1.0939         estimate D2E/DX2                !
 ! R32   R(22,23)                1.4611         estimate D2E/DX2                !
 ! R33   R(22,24)                1.4614         estimate D2E/DX2                !
 ! R34   R(23,33)                1.0928         estimate D2E/DX2                !
 ! R35   R(23,34)                1.1048         estimate D2E/DX2                !
 ! R36   R(23,35)                1.0932         estimate D2E/DX2                !
 ! R37   R(24,36)                1.0934         estimate D2E/DX2                !
 ! R38   R(24,37)                1.0932         estimate D2E/DX2                !
 ! R39   R(24,38)                1.1044         estimate D2E/DX2                !
 ! A1    A(2,1,7)              116.2589         estimate D2E/DX2                !
 ! A2    A(2,1,10)             132.6095         estimate D2E/DX2                !
 ! A3    A(7,1,10)             111.045          estimate D2E/DX2                !
 ! A4    A(1,2,3)              103.9591         estimate D2E/DX2                !
 ! A5    A(1,2,4)              101.0799         estimate D2E/DX2                !
 ! A6    A(1,2,5)              109.6979         estimate D2E/DX2                !
 ! A7    A(3,2,4)              114.7687         estimate D2E/DX2                !
 ! A8    A(3,2,5)              109.744          estimate D2E/DX2                !
 ! A9    A(4,2,5)              116.3896         estimate D2E/DX2                !
 ! A10   A(2,5,6)              108.4176         estimate D2E/DX2                !
 ! A11   A(1,7,8)              107.5283         estimate D2E/DX2                !
 ! A12   A(7,8,9)              109.0572         estimate D2E/DX2                !
 ! A13   A(7,8,25)             117.3068         estimate D2E/DX2                !
 ! A14   A(9,8,25)             133.6359         estimate D2E/DX2                !
 ! A15   A(8,9,10)             107.9272         estimate D2E/DX2                !
 ! A16   A(8,9,11)             124.9719         estimate D2E/DX2                !
 ! A17   A(10,9,11)            127.0888         estimate D2E/DX2                !
 ! A18   A(1,10,9)             104.4397         estimate D2E/DX2                !
 ! A19   A(1,10,26)            127.5386         estimate D2E/DX2                !
 ! A20   A(9,10,26)            128.0217         estimate D2E/DX2                !
 ! A21   A(9,11,12)            105.5849         estimate D2E/DX2                !
 ! A22   A(9,11,13)            107.6095         estimate D2E/DX2                !
 ! A23   A(9,11,14)            107.0091         estimate D2E/DX2                !
 ! A24   A(12,11,13)           108.1216         estimate D2E/DX2                !
 ! A25   A(12,11,14)           108.8683         estimate D2E/DX2                !
 ! A26   A(13,11,14)           118.8788         estimate D2E/DX2                !
 ! A27   A(11,12,15)           119.2468         estimate D2E/DX2                !
 ! A28   A(11,12,19)           119.0838         estimate D2E/DX2                !
 ! A29   A(15,12,19)           121.6174         estimate D2E/DX2                !
 ! A30   A(12,15,16)           118.6769         estimate D2E/DX2                !
 ! A31   A(12,15,27)           120.906          estimate D2E/DX2                !
 ! A32   A(16,15,27)           120.4168         estimate D2E/DX2                !
 ! A33   A(15,16,17)           119.9148         estimate D2E/DX2                !
 ! A34   A(15,16,28)           120.5588         estimate D2E/DX2                !
 ! A35   A(17,16,28)           119.5263         estimate D2E/DX2                !
 ! A36   A(16,17,18)           121.5252         estimate D2E/DX2                !
 ! A37   A(16,17,20)           121.2278         estimate D2E/DX2                !
 ! A38   A(18,17,20)           117.2453         estimate D2E/DX2                !
 ! A39   A(17,18,19)           117.9972         estimate D2E/DX2                !
 ! A40   A(17,18,21)           120.9741         estimate D2E/DX2                !
 ! A41   A(19,18,21)           121.0287         estimate D2E/DX2                !
 ! A42   A(12,19,18)           120.2592         estimate D2E/DX2                !
 ! A43   A(12,19,29)           120.4715         estimate D2E/DX2                !
 ! A44   A(18,19,29)           119.2678         estimate D2E/DX2                !
 ! A45   A(17,20,30)           110.1011         estimate D2E/DX2                !
 ! A46   A(18,21,22)           113.3746         estimate D2E/DX2                !
 ! A47   A(18,21,31)           108.5358         estimate D2E/DX2                !
 ! A48   A(18,21,32)           109.4076         estimate D2E/DX2                !
 ! A49   A(22,21,31)           110.0658         estimate D2E/DX2                !
 ! A50   A(22,21,32)           107.8415         estimate D2E/DX2                !
 ! A51   A(31,21,32)           107.4506         estimate D2E/DX2                !
 ! A52   A(21,22,23)           110.0829         estimate D2E/DX2                !
 ! A53   A(21,22,24)           108.0492         estimate D2E/DX2                !
 ! A54   A(23,22,24)           108.7427         estimate D2E/DX2                !
 ! A55   A(22,23,33)           110.7364         estimate D2E/DX2                !
 ! A56   A(22,23,34)           111.6595         estimate D2E/DX2                !
 ! A57   A(22,23,35)           109.3509         estimate D2E/DX2                !
 ! A58   A(33,23,34)           108.464          estimate D2E/DX2                !
 ! A59   A(33,23,35)           108.134          estimate D2E/DX2                !
 ! A60   A(34,23,35)           108.4008         estimate D2E/DX2                !
 ! A61   A(22,24,36)           109.9966         estimate D2E/DX2                !
 ! A62   A(22,24,37)           109.7151         estimate D2E/DX2                !
 ! A63   A(22,24,38)           111.7574         estimate D2E/DX2                !
 ! A64   A(36,24,37)           108.5829         estimate D2E/DX2                !
 ! A65   A(36,24,38)           108.4225         estimate D2E/DX2                !
 ! A66   A(37,24,38)           108.2913         estimate D2E/DX2                !
 ! D1    D(7,1,2,3)             57.2323         estimate D2E/DX2                !
 ! D2    D(7,1,2,4)            176.4797         estimate D2E/DX2                !
 ! D3    D(7,1,2,5)            -60.0726         estimate D2E/DX2                !
 ! D4    D(10,1,2,3)          -126.5149         estimate D2E/DX2                !
 ! D5    D(10,1,2,4)            -7.2674         estimate D2E/DX2                !
 ! D6    D(10,1,2,5)           116.1802         estimate D2E/DX2                !
 ! D7    D(2,1,7,8)            177.4674         estimate D2E/DX2                !
 ! D8    D(10,1,7,8)             0.4215         estimate D2E/DX2                !
 ! D9    D(2,1,10,9)          -176.5328         estimate D2E/DX2                !
 ! D10   D(2,1,10,26)            3.4426         estimate D2E/DX2                !
 ! D11   D(7,1,10,9)            -0.1333         estimate D2E/DX2                !
 ! D12   D(7,1,10,26)          179.8422         estimate D2E/DX2                !
 ! D13   D(1,2,5,6)            -73.7789         estimate D2E/DX2                !
 ! D14   D(3,2,5,6)            172.5976         estimate D2E/DX2                !
 ! D15   D(4,2,5,6)             40.1439         estimate D2E/DX2                !
 ! D16   D(1,7,8,9)             -0.5436         estimate D2E/DX2                !
 ! D17   D(1,7,8,25)           179.3496         estimate D2E/DX2                !
 ! D18   D(7,8,9,10)             0.4653         estimate D2E/DX2                !
 ! D19   D(7,8,9,11)           179.2719         estimate D2E/DX2                !
 ! D20   D(25,8,9,10)         -179.4036         estimate D2E/DX2                !
 ! D21   D(25,8,9,11)           -0.5969         estimate D2E/DX2                !
 ! D22   D(8,9,10,1)            -0.201          estimate D2E/DX2                !
 ! D23   D(8,9,10,26)          179.8238         estimate D2E/DX2                !
 ! D24   D(11,9,10,1)         -178.9751         estimate D2E/DX2                !
 ! D25   D(11,9,10,26)           1.0496         estimate D2E/DX2                !
 ! D26   D(8,9,11,12)         -107.0718         estimate D2E/DX2                !
 ! D27   D(8,9,11,13)          137.6311         estimate D2E/DX2                !
 ! D28   D(8,9,11,14)            8.8038         estimate D2E/DX2                !
 ! D29   D(10,9,11,12)          71.5048         estimate D2E/DX2                !
 ! D30   D(10,9,11,13)         -43.7923         estimate D2E/DX2                !
 ! D31   D(10,9,11,14)        -172.6195         estimate D2E/DX2                !
 ! D32   D(9,11,12,15)         -90.881          estimate D2E/DX2                !
 ! D33   D(9,11,12,19)          86.5399         estimate D2E/DX2                !
 ! D34   D(13,11,12,15)         24.0641         estimate D2E/DX2                !
 ! D35   D(13,11,12,19)       -158.515          estimate D2E/DX2                !
 ! D36   D(14,11,12,15)        154.5204         estimate D2E/DX2                !
 ! D37   D(14,11,12,19)        -28.0588         estimate D2E/DX2                !
 ! D38   D(11,12,15,16)        177.8561         estimate D2E/DX2                !
 ! D39   D(11,12,15,27)         -2.3274         estimate D2E/DX2                !
 ! D40   D(19,12,15,16)          0.503          estimate D2E/DX2                !
 ! D41   D(19,12,15,27)       -179.6805         estimate D2E/DX2                !
 ! D42   D(11,12,19,18)       -178.4714         estimate D2E/DX2                !
 ! D43   D(11,12,19,29)          1.9898         estimate D2E/DX2                !
 ! D44   D(15,12,19,18)         -1.1141         estimate D2E/DX2                !
 ! D45   D(15,12,19,29)        179.3471         estimate D2E/DX2                !
 ! D46   D(12,15,16,17)          0.0718         estimate D2E/DX2                !
 ! D47   D(12,15,16,28)       -179.928          estimate D2E/DX2                !
 ! D48   D(27,15,16,17)       -179.7456         estimate D2E/DX2                !
 ! D49   D(27,15,16,28)          0.2545         estimate D2E/DX2                !
 ! D50   D(15,16,17,18)         -0.0436         estimate D2E/DX2                !
 ! D51   D(15,16,17,20)       -179.5499         estimate D2E/DX2                !
 ! D52   D(28,16,17,18)        179.9563         estimate D2E/DX2                !
 ! D53   D(28,16,17,20)          0.45           estimate D2E/DX2                !
 ! D54   D(16,17,18,19)         -0.5441         estimate D2E/DX2                !
 ! D55   D(16,17,18,21)        179.5248         estimate D2E/DX2                !
 ! D56   D(20,17,18,19)        178.9811         estimate D2E/DX2                !
 ! D57   D(20,17,18,21)         -0.9501         estimate D2E/DX2                !
 ! D58   D(16,17,20,30)          1.0602         estimate D2E/DX2                !
 ! D59   D(18,17,20,30)       -178.4664         estimate D2E/DX2                !
 ! D60   D(17,18,19,12)          1.1037         estimate D2E/DX2                !
 ! D61   D(17,18,19,29)       -179.352          estimate D2E/DX2                !
 ! D62   D(21,18,19,12)       -178.9652         estimate D2E/DX2                !
 ! D63   D(21,18,19,29)          0.5791         estimate D2E/DX2                !
 ! D64   D(17,18,21,22)        -81.2466         estimate D2E/DX2                !
 ! D65   D(17,18,21,31)        156.1281         estimate D2E/DX2                !
 ! D66   D(17,18,21,32)         39.1616         estimate D2E/DX2                !
 ! D67   D(19,18,21,22)         98.8243         estimate D2E/DX2                !
 ! D68   D(19,18,21,31)        -23.8009         estimate D2E/DX2                !
 ! D69   D(19,18,21,32)       -140.7675         estimate D2E/DX2                !
 ! D70   D(18,21,22,23)        -66.8875         estimate D2E/DX2                !
 ! D71   D(18,21,22,24)        174.4945         estimate D2E/DX2                !
 ! D72   D(31,21,22,23)         54.8868         estimate D2E/DX2                !
 ! D73   D(31,21,22,24)        -63.7312         estimate D2E/DX2                !
 ! D74   D(32,21,22,23)        171.8207         estimate D2E/DX2                !
 ! D75   D(32,21,22,24)         53.2027         estimate D2E/DX2                !
 ! D76   D(21,22,23,33)         64.3779         estimate D2E/DX2                !
 ! D77   D(21,22,23,34)        -56.6012         estimate D2E/DX2                !
 ! D78   D(21,22,23,35)       -176.5648         estimate D2E/DX2                !
 ! D79   D(24,22,23,33)       -177.4306         estimate D2E/DX2                !
 ! D80   D(24,22,23,34)         61.5903         estimate D2E/DX2                !
 ! D81   D(24,22,23,35)        -58.3732         estimate D2E/DX2                !
 ! D82   D(21,22,24,36)        -60.8111         estimate D2E/DX2                !
 ! D83   D(21,22,24,37)        179.8062         estimate D2E/DX2                !
 ! D84   D(21,22,24,38)         59.6749         estimate D2E/DX2                !
 ! D85   D(23,22,24,36)        179.7203         estimate D2E/DX2                !
 ! D86   D(23,22,24,37)         60.3376         estimate D2E/DX2                !
 ! D87   D(23,22,24,38)        -59.7937         estimate D2E/DX2                !
 --------------------------------------------------------------------------------
 Trust Radius=3.00D-01 FncErr=1.00D-07 GrdErr=1.00D-06 EigMax=2.50D+02 EigMin=1.00D-04
 Number of steps in this run=    202 maximum allowed number of steps=    228.
 GradGradGradGradGradGradGradGradGradGradGradGradGradGradGradGradGradGrad

                          Input orientation:                          
 ---------------------------------------------------------------------
 Center     Atomic      Atomic             Coordinates (Angstroms)
 Number     Number       Type             X           Y           Z
 ---------------------------------------------------------------------
      1          6           0       -0.574046    1.051632   -1.449463
      2         16           0       -0.656894    1.695259    0.218450
      3          8           0       -2.099850    1.631655    0.555212
      4          8           0        0.196314    0.717130    0.945014
      5          7           0       -0.179371    3.172542    0.233646
      6          1           0        0.837949    3.184683    0.122413
      7          8           0       -1.332991    1.697622   -2.385557
      8          6           0       -1.096712    1.109396   -3.576603
      9          6           0       -0.190041    0.109255   -3.406075
     10          6           0        0.157175    0.060526   -2.015306
     11         16           0        0.400398   -0.937118   -4.678540
     12          6           0       -0.360195   -2.504502   -4.394797
     13          8           0        1.850577   -1.091695   -4.490360
     14          8           0       -0.096545   -0.390571   -5.950240
     15          6           0        0.291537   -3.443177   -3.596876
     16          6           0       -0.337406   -4.654304   -3.344671
     17          6           0       -1.599254   -4.911616   -3.889611
     18          6           0       -2.259168   -3.966005   -4.695992
     19          6           0       -1.623945   -2.751857   -4.930855
     20          8           0       -2.243131   -6.084499   -3.652591
     21          6           0       -3.614222   -4.260500   -5.285595
     22          7           0       -3.553995   -5.075452   -6.506999
     23          6           0       -2.921152   -4.318361   -7.584603
     24          6           0       -4.922870   -5.400407   -6.902480
     25          1           0       -1.630041    1.494191   -4.433998
     26          1           0        0.846406   -0.612592   -1.523996
     27          1           0        1.272924   -3.236488   -3.181350
     28          1           0        0.142306   -5.407524   -2.725827
     29          1           0       -2.120203   -2.001550   -5.542691
     30          1           0       -1.707492   -6.647635   -3.067884
     31          1           0       -4.122298   -3.302008   -5.494154
     32          1           0       -4.220282   -4.800243   -4.552095
     33          1           0       -1.879013   -4.096737   -7.341528
     34          1           0       -3.446090   -3.365251   -7.776178
     35          1           0       -2.937625   -4.911945   -8.502469
     36          1           0       -5.414869   -5.972509   -6.111168
     37          1           0       -4.909949   -6.005159   -7.813023
     38          1           0       -5.519063   -4.491630   -7.098393
 ---------------------------------------------------------------------
                    Distance matrix (angstroms):
                    1          2          3          4          5
     1  C    0.000000
     2  S    1.789707   0.000000
     3  O    2.585194   1.483097   0.000000
     4  O    2.537492   1.487480   2.502134   0.000000
     5  N    2.736217   1.552618   2.483139   2.583840   0.000000
     6  H    3.002404   2.112383   3.351101   2.679027   1.023455
     7  O    1.367324   2.690347   3.039827   3.793790   3.219698
     8  C    2.191174   3.865114   4.283799   4.719196   4.429005
     9  C    2.205417   3.983785   4.653694   4.410301   4.757248
    10  C    1.355417   2.885261   3.764329   3.032517   3.854309
    11  S    3.915560   5.659310   6.343658   5.865368   6.430786
    12  C    4.622425   6.245644   6.681076   6.261166   7.326937
    13  O    4.440687   6.018921   6.962780   5.962527   6.679868
    14  O    4.750259   6.535856   7.100953   6.989800   7.137443
    15  C    5.056078   6.469912   6.979433   6.160032   7.659138
    16  C    6.017102   7.287994   7.604510   6.894821   8.607488
    17  C    6.524239   7.836773   7.925997   7.634163   9.185365
    18  C    6.209370   7.666090   7.676869   7.731888   8.921084
    19  C    5.262026   6.872218   7.038366   7.062086   7.991081
    20  O    7.652711   8.833218   8.790060   8.564521  10.249622
    21  C    7.223388   8.631997   8.433614   8.838410   9.874733
    22  N    8.485277   9.973334   9.847570  10.156344  11.173799
    23  C    8.484437  10.108320  10.116017  10.384081  11.169423
    24  C    9.501394  10.920379  10.631863  11.189883  12.121078
    25  H    3.196629   4.757385   5.013166   5.733512   5.167998
    26  H    2.189265   3.259173   4.247373   2.878679   4.297530
    27  H    4.979829   6.293248   7.002593   5.815244   7.405878
    28  H    6.622912   7.730266   8.083472   7.140685   9.081822
    29  H    5.335451   6.999887   7.098240   7.405930   7.994006
    30  H    7.948754   9.028158   9.045850   8.600442  10.472399
    31  H    6.921257   8.343593   8.063879   8.733084   9.501271
    32  H    7.560807   8.811775   8.482342   8.953543  10.138914
    33  H    7.932533   9.601774   9.758163   9.805462  10.635529
    34  H    8.233154   9.864201   9.807828  10.295248  10.843038
    35  H    9.533922  11.176373  11.205452  11.435165  12.218290
    36  H    9.721298  11.022571  10.642052  11.226146  12.300369
    37  H   10.444772  11.911737  11.672400  12.164140  13.090357
    38  H    9.332275  10.744974  10.380910  11.157648  11.874790
                    6          7          8          9         10
     6  H    0.000000
     7  O    3.635140   0.000000
     8  C    4.661808   1.349232   0.000000
     9  C    4.792207   2.206966   1.360667   0.000000
    10  C    3.846252   2.244497   2.260534   1.434284   0.000000
    11  S    6.342700   3.899264   2.764747   1.750052   2.854341
    12  C    7.362578   4.758279   3.777851   2.799687   3.536808
    13  O    6.371067   4.727112   3.790286   2.604242   3.212649
    14  O    7.108645   4.312345   2.980669   2.594484   3.968825
    15  C    7.619725   5.525776   4.759577   3.590000   3.846472
    16  C    8.651696   6.500619   5.818125   4.766233   4.923559
    17  C    9.358758   6.783443   6.050050   5.237255   5.596450
    18  C    9.161960   6.186484   5.325790   4.748992   5.407194
    19  C    8.175510   5.134303   4.125682   3.544997   4.425191
    20  O   10.471936   7.936947   7.285065   6.529819   6.797315
    21  C   10.222482   7.008100   6.172058   5.861090   6.602234
    22  N   11.465954   8.233691   7.271713   6.914702   7.767004
    23  C   11.394060   8.108291   6.989506   6.672545   7.724495
    24  C   12.499597   9.147231   8.250968   8.061073   8.917013
    25  H    5.450653   2.079840   1.080570   2.246836   3.331607
    26  H    4.138845   3.290767   3.309706   2.266607   1.081440
    27  H    7.234327   5.636445   4.965693   3.658520   3.670811
    28  H    9.078679   7.264667   6.687992   5.568487   5.514039
    29  H    8.230497   4.926568   3.819820   3.570176   4.677719
    30  H   10.645738   8.381476   7.797652   6.933441   7.041614
    31  H    9.910955   6.514592   5.682574   5.608871   6.459327
    32  H   10.544940   7.433208   6.755154   6.454408   7.016017
    33  H   10.775499   7.644239   6.472285   6.002566   7.056737
    34  H   11.119459   7.691337   6.571033   6.463115   7.609672
    35  H   12.417687   9.147559   7.994352   7.663870   8.739939
    36  H   12.720434   9.453720   8.673170   8.461928   9.177215
    37  H   13.433640  10.078931   9.116190   8.892963   9.802132
    38  H   12.307616   8.834074   7.958120   7.949833   8.875786
                   11         12         13         14         15
    11  S    0.000000
    12  C    1.765135   0.000000
    13  O    1.470485   2.625390   0.000000
    14  O    1.470676   2.637729   2.532610   0.000000
    15  C    2.731699   1.393752   2.959458   3.873930   0.000000
    16  C    4.017589   2.392683   4.334980   5.002641   1.387805
    17  C    4.518589   2.754029   5.182087   5.190777   2.411865
    18  C    4.030850   2.415121   5.019358   4.362775   2.826216
    19  C    2.730367   1.394850   3.875885   2.991282   2.434439
    20  O    5.876762   4.112504   6.510637   6.504447   3.661178
    21  C    5.246957   3.803386   6.366927   5.271827   4.332983
    22  N    6.008851   4.612108   7.010461   5.849106   5.091292
    23  C    5.559739   4.474757   6.538740   5.106572   5.195121
    24  C    7.294110   5.957579   8.382298   7.021298   6.476713
    25  H    3.177066   4.195663   4.336437   2.864076   5.363845
    26  H    3.202403   3.643721   3.168156   4.531014   3.552031
    27  H    2.879232   2.162252   2.578241   4.200171   1.085589
    28  H    4.885102   3.386075   4.965697   5.968559   2.153986
    29  H    2.869356   2.160613   4.207414   2.618500   3.417743
    30  H    6.296619   4.554279   6.749205   7.074883   3.813725
    31  H    5.168434   3.999752   6.447350   4.989104   4.806405
    32  H    6.024151   4.493933   7.114244   6.197194   4.807346
    33  H    4.719154   3.677668   5.573983   4.341491   4.377310
    34  H    5.503332   4.658044   6.634783   4.837584   5.607360
    35  H    6.447021   5.414047   7.322446   5.918482   6.053892
    36  H    7.824635   6.365747   8.901465   7.711582   6.729209
    37  H    7.981842   6.681252   8.993717   7.626428   7.169037
    38  H    7.316438   6.154025   8.524846   6.894972   6.864615
                   16         17         18         19         20
    16  C    0.000000
    17  C    1.398367   0.000000
    18  C    2.448058   1.407094   0.000000
    19  C    2.791140   2.397781   1.390260   0.000000
    20  O    2.402511   1.358827   2.361558   3.622685   0.000000
    21  C    3.828811   2.536300   1.506828   2.522508   2.805987
    22  N    4.530356   3.270868   2.487408   3.407112   3.299119
    23  C    4.976507   3.968921   2.984368   3.343510   4.363447
    24  C    5.851595   4.512508   3.744517   4.667443   4.267407
    25  H    6.376639   6.428971   5.502562   4.275024   7.643495
    26  H    4.588213   5.482608   5.563410   4.720782   6.634600
    27  H    2.151752   3.399572   3.911778   3.418696   4.549271
    28  H    1.086477   2.152521   3.424412   3.877416   2.647167
    29  H    3.879015   3.387114   2.143664   1.087923   4.500895
    30  H    2.434567   1.923724   3.185313   4.319112   0.972581
    31  H    4.557893   3.395754   2.132888   2.619492   3.829475
    32  H    4.068894   2.705749   2.136031   3.328709   2.523400
    33  H    4.319988   3.557811   2.675905   2.772202   4.206189
    34  H    5.564515   4.572466   3.355181   3.433995   5.083836
    35  H    5.781903   4.803093   3.980500   4.375861   5.037710
    36  H    5.930582   4.540895   3.998404   5.112420   4.014607
    37  H    6.534457   5.248781   4.571725   5.448732   4.942409
    38  H    6.400505   5.083068   4.083471   4.785078   5.014231
                   21         22         23         24         25
    21  C    0.000000
    22  N    1.469558   0.000000
    23  C    2.401901   1.461132   0.000000
    24  C    2.371975   1.461445   2.375498   0.000000
    25  H    6.146435   7.152562   6.736397   8.029422   0.000000
    26  H    6.881429   8.006932   8.041031   9.226907   4.363420
    27  H    5.418546   6.143360   6.176517   7.544350   5.689961
    28  H    4.688238   5.298129   5.846260   6.565097   7.327532
    29  H    2.720487   3.526262   3.190382   4.610444   3.699955
    30  H    3.775218   4.208188   5.224868   5.157361   8.256004
    31  H    1.104693   2.119889   2.616430   2.650958   5.508067
    32  H    1.093916   2.083585   3.334074   2.525497   6.807583
    33  H    2.695297   2.111844   1.092820   3.340267   6.306679
    34  H    2.651932   2.132427   1.104843   2.661970   6.171092
    35  H    3.351185   2.094886   1.093203   2.596104   7.700702
    36  H    2.618182   2.103389   3.335542   1.093407   8.537531
    37  H    3.333262   2.099682   2.617781   1.093151   8.855273
    38  H    2.639712   2.133562   2.648691   1.104402   7.619288
                   26         27         28         29         30
    26  H    0.000000
    27  H    3.132661   0.000000
    28  H    4.993148   2.489818   0.000000
    29  H    5.184581   4.314430   4.965312   0.000000
    30  H    6.732587   4.531189   2.253138   5.280256   0.000000
    31  H    6.905297   5.870415   5.503061   2.387872   4.786575
    32  H    7.237205   5.873634   4.768251   3.636522   3.453962
    33  H    7.308273   5.289784   5.206590   2.771966   4.980013
    34  H    8.067988   6.587724   6.523305   2.933619   5.997066
    35  H    9.027869   6.989291   6.565148   4.230705   5.836143
    36  H    9.432626   7.797193   6.531610   5.191002   4.843761
    37  H   10.087976   8.206451   7.194582   5.382005   5.760629
    38  H    9.308063   7.940384   7.211747   4.491431   5.951592
                   31         32         33         34         35
    31  H    0.000000
    32  H    1.772508   0.000000
    33  H    3.012759   3.709096   0.000000
    34  H    2.380944   3.612933   1.783177   0.000000
    35  H    3.611829   4.154893   1.770031   1.782778   0.000000
    36  H    3.030351   2.287347   4.187431   3.666899   3.602756
    37  H    3.647544   3.544166   3.612610   3.018834   2.358074
    38  H    2.437158   2.875015   3.669471   2.454657   2.968487
                   36         37         38
    36  H    0.000000
    37  H    1.775477   0.000000
    38  H    1.782828   1.781148   0.000000
 Stoichiometry    C13H15N2O6S2(1-)
 Framework group  C1[X(C13H15N2O6S2)]
 Deg. of freedom   108
 Full point group                 C1      NOp   1
 Largest Abelian subgroup         C1      NOp   1
 Largest concise Abelian subgroup C1      NOp   1
                         Standard orientation:                         
 ---------------------------------------------------------------------
 Center     Atomic      Atomic             Coordinates (Angstroms)
 Number     Number       Type             X           Y           Z
 ---------------------------------------------------------------------
      1          6           0       -3.259742   -0.127741   -0.364771
      2         16           0       -4.738498   -1.127617   -0.236003
      3          8           0       -4.501599   -2.240817   -1.186919
      4          8           0       -4.697566   -1.514943    1.199580
      5          7           0       -5.970701   -0.300816   -0.692839
      6          1           0       -6.191188    0.381363    0.037556
      7          8           0       -2.952327    0.339742   -1.612381
      8          6           0       -1.850071    1.109365   -1.497750
      9          6           0       -1.465539    1.143161   -0.192986
     10          6           0       -2.380622    0.333407    0.558075
     11         16           0       -0.072163    2.006499    0.420067
     12          6           0        1.120609    0.765365    0.810688
     13          8           0       -0.472774    2.665943    1.671853
     14          8           0        0.443076    2.830712   -0.683604
     15          6           0        1.143937    0.223410    2.094543
     16          6           0        2.056672   -0.783444    2.375906
     17          6           0        2.929234   -1.232124    1.379538
     18          6           0        2.908237   -0.686308    0.082788
     19          6           0        1.980875    0.312964   -0.189753
     20          8           0        3.827164   -2.222468    1.623159
     21          6           0        3.861394   -1.171825   -0.978483
     22          7           0        5.198281   -0.569441   -0.881182
     23          6           0        5.127675    0.859317   -1.178795
     24          6           0        6.058330   -1.213514   -1.871790
     25          1           0       -1.460175    1.554655   -2.401813
     26          1           0       -2.375198    0.133082    1.620786
     27          1           0        0.465563    0.580778    2.863047
     28          1           0        2.100478   -1.228411    3.366117
     29          1           0        1.939463    0.742091   -1.188608
     30          1           0        3.736141   -2.538458    2.538462
     31          1           0        3.421343   -0.959807   -1.969316
     32          1           0        3.975725   -2.256591   -0.895633
     33          1           0        4.527633    1.381462   -0.429415
     34          1           0        4.685793    1.047238   -2.173835
     35          1           0        6.135393    1.282816   -1.163161
     36          1           0        6.129620   -2.284815   -1.664982
     37          1           0        7.061706   -0.782189   -1.825136
     38          1           0        5.671479   -1.081087   -2.897711
 ---------------------------------------------------------------------
 Rotational constants (GHZ):           0.3945978           0.1010766           0.0964983
 General basis read from cards:  (6D, 7F)
 There are   475 symmetry adapted cartesian basis functions of A   symmetry.
 There are   475 symmetry adapted basis functions of A   symmetry.
   475 basis functions,   844 primitive gaussians,   475 cartesian basis functions
    94 alpha electrons       94 beta electrons
       nuclear repulsion energy      2298.1638417033 Hartrees.
 NAtoms=   38 NActive=   38 NUniq=   38 SFac= 1.00D+00 NAtFMM=   60 NAOKFM=F Big=F
 Integral buffers will be    131072 words long.
 Raffenetti 2 integral format.
 Two-electron integral symmetry is turned on.
 One-electron integrals computed using PRISM.
 NBasis=   475 RedAO= T EigKep=  2.08D-06  NBF=   475
 NBsUse=   474 1.00D-06 EigRej=  8.18D-07 NBFU=   474
 ExpMin= 4.05D-02 ExpMax= 2.19D+04 ExpMxC= 3.30D+03 IAcc=3 IRadAn=         5 AccDes= 0.00D+00
 Harris functional with IExCor= 1009 and IRadAn=       5 diagonalized for initial guess.
 HarFok:  IExCor= 1009 AccDes= 0.00D+00 IRadAn=         5 IDoV= 1 UseB2=F ITyADJ=14
 ICtDFT=  3500011 ScaDFX=  1.000000  1.000000  1.000000  1.000000
 FoFCou: FMM=F IPFlag=           0 FMFlag=      100000 FMFlg1=           0
         NFxFlg=           0 DoJE=T BraDBF=F KetDBF=T FulRan=T
         wScrn=  0.000000 ICntrl=       500 IOpCl=  0 I1Cent=   200000004 NGrid=           0
         NMat0=    1 NMatS0=      1 NMatT0=    0 NMatD0=    1 NMtDS0=    0 NMtDT0=    0
 Petite list used in FoFCou.
 Requested convergence on RMS density matrix=1.00D-08 within 128 cycles.
 Requested convergence on MAX density matrix=1.00D-06.
 Requested convergence on             energy=1.00D-06.
 No special actions if energy rises.
 SCF Done:  E(RM062X) =  -1861.04924750     A.U. after   17 cycles
            NFock= 17  Conv=0.39D-08     -V/T= 2.0063

 **********************************************************************

            Population analysis using the SCF Density.

 **********************************************************************

 Orbital symmetries:
       Occupied  (A) (A) (A) (A) (A) (A) (A) (A) (A) (A) (A) (A)
                 (A) (A) (A) (A) (A) (A) (A) (A) (A) (A) (A) (A)
                 (A) (A) (A) (A) (A) (A) (A) (A) (A) (A) (A) (A)
                 (A) (A) (A) (A) (A) (A) (A) (A) (A) (A) (A) (A)
                 (A) (A) (A) (A) (A) (A) (A) (A) (A) (A) (A) (A)
                 (A) (A) (A) (A) (A) (A) (A) (A) (A) (A) (A) (A)
                 (A) (A) (A) (A) (A) (A) (A) (A) (A) (A) (A) (A)
                 (A) (A) (A) (A) (A) (A) (A) (A) (A) (A)
       Virtual   (A) (A) (A) (A) (A) (A) (A) (A) (A) (A) (A) (A)
                 (A) (A) (A) (A) (A) (A) (A) (A) (A) (A) (A) (A)
                 (A) (A) (A) (A) (A) (A) (A) (A) (A) (A) (A) (A)
                 (A) (A) (A) (A) (A) (A) (A) (A) (A) (A) (A) (A)
                 (A) (A) (A) (A) (A) (A) (A) (A) (A) (A) (A) (A)
                 (A) (A) (A) (A) (A) (A) (A) (A) (A) (A) (A) (A)
                 (A) (A) (A) (A) (A) (A) (A) (A) (A) (A) (A) (A)
                 (A) (A) (A) (A) (A) (A) (A) (A) (A) (A) (A) (A)
                 (A) (A) (A) (A) (A) (A) (A) (A) (A) (A) (A) (A)
                 (A) (A) (A) (A) (A) (A) (A) (A) (A) (A) (A) (A)
                 (A) (A) (A) (A) (A) (A) (A) (A) (A) (A) (A) (A)
                 (A) (A) (A) (A) (A) (A) (A) (A) (A) (A) (A) (A)
                 (A) (A) (A) (A) (A) (A) (A) (A) (A) (A) (A) (A)
                 (A) (A) (A) (A) (A) (A) (A) (A) (A) (A) (A) (A)
                 (A) (A) (A) (A) (A) (A) (A) (A) (A) (A) (A) (A)
                 (A) (A) (A) (A) (A) (A) (A) (A) (A) (A) (A) (A)
                 (A) (A) (A) (A) (A) (A) (A) (A) (A) (A) (A) (A)
                 (A) (A) (A) (A) (A) (A) (A) (A) (A) (A) (A) (A)
                 (A) (A) (A) (A) (A) (A) (A) (A) (A) (A) (A) (A)
                 (A) (A) (A) (A) (A) (A) (A) (A) (A) (A) (A) (A)
                 (A) (A) (A) (A) (A) (A) (A) (A) (A) (A) (A) (A)
                 (A) (A) (A) (A) (A) (A) (A) (A) (A) (A) (A) (A)
                 (A) (A) (A) (A) (A) (A) (A) (A) (A) (A) (A) (A)
                 (A) (A) (A) (A) (A) (A) (A) (A) (A) (A) (A) (A)
                 (A) (A) (A) (A) (A) (A) (A) (A) (A) (A) (A) (A)
                 (A) (A) (A) (A) (A) (A) (A) (A) (A) (A) (A) (A)
                 (A) (A) (A) (A) (A) (A) (A) (A) (A) (A) (A) (A)
                 (A) (A) (A) (A) (A) (A) (A) (A) (A) (A) (A) (A)
                 (A) (A) (A) (A) (A) (A) (A) (A) (A) (A) (A) (A)
                 (A) (A) (A) (A) (A) (A) (A) (A) (A) (A) (A) (A)
                 (A) (A) (A) (A) (A) (A) (A) (A) (A) (A) (A) (A)
                 (A) (A) (A) (A) (A) (A) (A) (A)
 The electronic state is 1-A.
 Alpha  occ. eigenvalues --  -90.06437 -89.98633 -19.63464 -19.62779 -19.55399
 Alpha  occ. eigenvalues --  -19.55199 -19.46262 -19.45732 -14.70671 -14.56948
 Alpha  occ. eigenvalues --  -10.57531 -10.53202 -10.52255 -10.51789 -10.51584
 Alpha  occ. eigenvalues --  -10.51429 -10.51373 -10.51047 -10.51002 -10.50825
 Alpha  occ. eigenvalues --  -10.50778 -10.48940 -10.46248  -8.37682  -8.29390
 Alpha  occ. eigenvalues --   -6.29858  -6.29810  -6.29766  -6.21609  -6.21588
 Alpha  occ. eigenvalues --   -6.21483  -1.15519  -1.14560  -1.14121  -1.05129
 Alpha  occ. eigenvalues --   -1.03247  -0.98320  -0.93217  -0.91890  -0.83873
 Alpha  occ. eigenvalues --   -0.82486  -0.81335  -0.80428  -0.76456  -0.74577
 Alpha  occ. eigenvalues --   -0.73735  -0.70703  -0.66477  -0.64549  -0.61564
 Alpha  occ. eigenvalues --   -0.59956  -0.58118  -0.57356  -0.55265  -0.52311
 Alpha  occ. eigenvalues --   -0.50843  -0.49781  -0.49346  -0.48354  -0.47925
 Alpha  occ. eigenvalues --   -0.46053  -0.45526  -0.45032  -0.44856  -0.44384
 Alpha  occ. eigenvalues --   -0.43373  -0.43230  -0.41438  -0.40796  -0.40291
 Alpha  occ. eigenvalues --   -0.39227  -0.38751  -0.38661  -0.37572  -0.37047
 Alpha  occ. eigenvalues --   -0.36696  -0.36334  -0.35703  -0.34752  -0.31988
 Alpha  occ. eigenvalues --   -0.31123  -0.29128  -0.28073  -0.26631  -0.26158
 Alpha  occ. eigenvalues --   -0.25893  -0.23347  -0.23233  -0.23048  -0.22338
 Alpha  occ. eigenvalues --   -0.20328  -0.19502  -0.17196  -0.14333
 Alpha virt. eigenvalues --    0.05731   0.06077   0.06425   0.07244   0.08531
 Alpha virt. eigenvalues --    0.08989   0.09178   0.10173   0.11127   0.11411
 Alpha virt. eigenvalues --    0.11646   0.12070   0.12586   0.12962   0.13462
 Alpha virt. eigenvalues --    0.13999   0.14348   0.14783   0.15344   0.15449
 Alpha virt. eigenvalues --    0.15933   0.16400   0.16884   0.17132   0.17399
 Alpha virt. eigenvalues --    0.18254   0.18289   0.18563   0.18978   0.19457
 Alpha virt. eigenvalues --    0.19866   0.20164   0.20481   0.20849   0.20997
 Alpha virt. eigenvalues --    0.21139   0.21417   0.21908   0.22467   0.22980
 Alpha virt. eigenvalues --    0.23215   0.23456   0.23758   0.24834   0.25400
 Alpha virt. eigenvalues --    0.25727   0.25939   0.26452   0.26831   0.27020
 Alpha virt. eigenvalues --    0.27566   0.27578   0.27783   0.28177   0.28820
 Alpha virt. eigenvalues --    0.28956   0.29021   0.29578   0.29771   0.30061
 Alpha virt. eigenvalues --    0.30306   0.30597   0.30921   0.31432   0.31678
 Alpha virt. eigenvalues --    0.31804   0.31906   0.32589   0.32842   0.33409
 Alpha virt. eigenvalues --    0.33881   0.33987   0.34604   0.34836   0.35178
 Alpha virt. eigenvalues --    0.35369   0.35577   0.36005   0.36281   0.36660
 Alpha virt. eigenvalues --    0.36967   0.37098   0.37494   0.37646   0.37752
 Alpha virt. eigenvalues --    0.38134   0.38813   0.39138   0.39397   0.39701
 Alpha virt. eigenvalues --    0.40009   0.40303   0.40654   0.41119   0.41481
 Alpha virt. eigenvalues --    0.42087   0.42561   0.42897   0.43179   0.43592
 Alpha virt. eigenvalues --    0.44252   0.44446   0.44932   0.45151   0.45679
 Alpha virt. eigenvalues --    0.46041   0.46516   0.46794   0.47149   0.47312
 Alpha virt. eigenvalues --    0.48050   0.48583   0.49029   0.49159   0.49404
 Alpha virt. eigenvalues --    0.50017   0.50792   0.51508   0.51858   0.52831
 Alpha virt. eigenvalues --    0.53034   0.53609   0.54286   0.54775   0.55576
 Alpha virt. eigenvalues --    0.55704   0.56525   0.57733   0.59136   0.59614
 Alpha virt. eigenvalues --    0.61617   0.62312   0.64739   0.67812   0.69177
 Alpha virt. eigenvalues --    0.72982   0.74090   0.75347   0.75822   0.76583
 Alpha virt. eigenvalues --    0.77484   0.77846   0.78571   0.79598   0.80581
 Alpha virt. eigenvalues --    0.81239   0.81721   0.83172   0.83501   0.84280
 Alpha virt. eigenvalues --    0.85045   0.85876   0.86700   0.87857   0.88287
 Alpha virt. eigenvalues --    0.88845   0.89197   0.90660   0.91000   0.92310
 Alpha virt. eigenvalues --    0.92824   0.94343   0.94887   0.95738   0.96878
 Alpha virt. eigenvalues --    0.97302   0.97818   0.98264   0.99215   0.99562
 Alpha virt. eigenvalues --    1.00882   1.02394   1.03556   1.04543   1.05160
 Alpha virt. eigenvalues --    1.05933   1.06720   1.07651   1.09316   1.09749
 Alpha virt. eigenvalues --    1.10179   1.11854   1.12700   1.13192   1.14610
 Alpha virt. eigenvalues --    1.15340   1.16114   1.17000   1.17417   1.17751
 Alpha virt. eigenvalues --    1.18067   1.18608   1.20162   1.21548   1.22109
 Alpha virt. eigenvalues --    1.22836   1.23396   1.24180   1.25352   1.25944
 Alpha virt. eigenvalues --    1.26127   1.27417   1.27971   1.29380   1.30378
 Alpha virt. eigenvalues --    1.31935   1.33005   1.33757   1.34748   1.34994
 Alpha virt. eigenvalues --    1.35462   1.35819   1.36631   1.37264   1.38075
 Alpha virt. eigenvalues --    1.39167   1.39722   1.41629   1.42865   1.43485
 Alpha virt. eigenvalues --    1.44378   1.45663   1.47425   1.48487   1.49096
 Alpha virt. eigenvalues --    1.49529   1.50065   1.50449   1.51347   1.51952
 Alpha virt. eigenvalues --    1.52534   1.52608   1.53027   1.53396   1.53773
 Alpha virt. eigenvalues --    1.55130   1.55981   1.56344   1.56517   1.57457
 Alpha virt. eigenvalues --    1.58290   1.59025   1.59565   1.60235   1.61149
 Alpha virt. eigenvalues --    1.61687   1.62848   1.64783   1.65767   1.66767
 Alpha virt. eigenvalues --    1.69512   1.70226   1.71045   1.71676   1.74235
 Alpha virt. eigenvalues --    1.74794   1.77165   1.78393   1.82491   1.84796
 Alpha virt. eigenvalues --    1.85153   1.86747   1.90759   1.91118   1.93463
 Alpha virt. eigenvalues --    1.93788   1.95520   1.96347   1.97244   1.97791
 Alpha virt. eigenvalues --    1.98467   1.98976   1.99128   2.00228   2.00321
 Alpha virt. eigenvalues --    2.01571   2.02533   2.04042   2.04978   2.05483
 Alpha virt. eigenvalues --    2.06668   2.07106   2.07748   2.08798   2.09454
 Alpha virt. eigenvalues --    2.10493   2.12092   2.14217   2.15051   2.15497
 Alpha virt. eigenvalues --    2.16501   2.17171   2.17678   2.18516   2.20563
 Alpha virt. eigenvalues --    2.21254   2.21324   2.23467   2.23712   2.24582
 Alpha virt. eigenvalues --    2.26506   2.28864   2.30122   2.31513   2.33133
 Alpha virt. eigenvalues --    2.33444   2.33587   2.34781   2.35516   2.36221
 Alpha virt. eigenvalues --    2.37646   2.38627   2.39537   2.40409   2.42061
 Alpha virt. eigenvalues --    2.43183   2.44002   2.44599   2.45899   2.46589
 Alpha virt. eigenvalues --    2.48504   2.48750   2.51277   2.51850   2.55917
 Alpha virt. eigenvalues --    2.59646   2.60060   2.60572   2.65563   2.66203
 Alpha virt. eigenvalues --    2.68762   2.69285   2.72710   2.74853   2.78221
 Alpha virt. eigenvalues --    2.79378   2.83146   2.84564   2.86477   2.88325
 Alpha virt. eigenvalues --    2.90630   2.91777   2.94269   2.95224   2.98709
 Alpha virt. eigenvalues --    2.99410   3.03917   3.05460   3.06596   3.07675
 Alpha virt. eigenvalues --    3.09909   3.10450   3.12289   3.14965   3.22357
 Alpha virt. eigenvalues --    3.30458   3.47727   4.13860   4.14910   4.22820
 Alpha virt. eigenvalues --    4.26817   4.33486   4.33648   4.36912   4.41342
 Alpha virt. eigenvalues --    4.42923   4.43544   4.46281   4.46995   4.48001
 Alpha virt. eigenvalues --    4.49462   4.50564   4.56292   4.56980   4.58443
 Alpha virt. eigenvalues --    4.61479   4.66038   4.69767   4.71739   4.90671
          Condensed to atoms (all electrons):
               1          2          3          4          5          6
     1  C   16.491340  -0.768206  -0.372856   0.003202   0.181443  -0.072374
     2  S   -0.768206  16.947635   0.579934  -0.126100  -0.047309   0.196219
     3  O   -0.372856   0.579934   8.895938  -0.168686  -0.231404   0.020952
     4  O    0.003202  -0.126100  -0.168686   8.959288  -0.211497  -0.017505
     5  N    0.181443  -0.047309  -0.231404  -0.211497   7.991003   0.155486
     6  H   -0.072374   0.196219   0.020952  -0.017505   0.155486   0.445837
     7  O   -0.289994  -0.142792   0.011510   0.010700  -0.023195  -0.001796
     8  C    1.293749  -0.325235  -0.048500  -0.014112  -0.022902  -0.004996
     9  C    0.303148  -1.927236  -0.058320   0.028462   0.076263  -0.030067
    10  C   -6.793785  -0.094331  -0.017683   0.182312  -0.088359  -0.024117
    11  S   -2.719923  -0.135829   0.000468   0.006597  -0.002830  -0.000813
    12  C    0.464037   0.093379   0.000175   0.001052   0.002371   0.000186
    13  O   -0.035176   0.004259   0.000061   0.000248  -0.000070   0.000003
    14  O   -0.077022  -0.007539  -0.000095  -0.000043  -0.000002  -0.000001
    15  C   -0.777184  -0.138870  -0.001476  -0.003391  -0.002743  -0.000072
    16  C   -0.082330  -0.038842  -0.000794  -0.001297  -0.000290   0.000002
    17  C   -0.040448   0.002581   0.000363   0.000499  -0.000087  -0.000001
    18  C    0.040192   0.014045   0.000957  -0.001093   0.000265  -0.000000
    19  C    0.527824   0.077134   0.002535   0.001232   0.001388  -0.000026
    20  O    0.000478   0.000018  -0.000000  -0.000000   0.000000   0.000000
    21  C   -0.052965  -0.004457   0.000127  -0.000138  -0.000008   0.000000
    22  N    0.000586  -0.000026  -0.000000  -0.000000  -0.000000   0.000000
    23  C   -0.000314   0.000054   0.000001   0.000001  -0.000000   0.000000
    24  C   -0.000195  -0.000012   0.000000  -0.000000   0.000000   0.000000
    25  H    0.075500   0.007278   0.000151   0.000018   0.000297  -0.000000
    26  H    0.072011   0.011652   0.000169   0.000146   0.000014  -0.000015
    27  H    0.003138   0.000123  -0.000000   0.000001  -0.000000   0.000000
    28  H   -0.000411  -0.000013   0.000000  -0.000000  -0.000000   0.000000
    29  H   -0.002074  -0.000046  -0.000000  -0.000000   0.000000   0.000000
    30  H   -0.000010  -0.000000   0.000000  -0.000000  -0.000000   0.000000
    31  H   -0.000061  -0.000003  -0.000000  -0.000000   0.000000  -0.000000
    32  H    0.000036   0.000003   0.000000   0.000000   0.000000   0.000000
    33  H    0.000004   0.000000   0.000000   0.000000   0.000000  -0.000000
    34  H   -0.000009  -0.000000   0.000000  -0.000000  -0.000000  -0.000000
    35  H    0.000001   0.000000   0.000000   0.000000   0.000000  -0.000000
    36  H    0.000000   0.000000  -0.000000  -0.000000  -0.000000   0.000000
    37  H    0.000000   0.000000  -0.000000  -0.000000  -0.000000   0.000000
    38  H   -0.000001  -0.000000  -0.000000  -0.000000   0.000000  -0.000000
               7          8          9         10         11         12
     1  C   -0.289994   1.293749   0.303148  -6.793785  -2.719923   0.464037
     2  S   -0.142792  -0.325235  -1.927236  -0.094331  -0.135829   0.093379
     3  O    0.011510  -0.048500  -0.058320  -0.017683   0.000468   0.000175
     4  O    0.010700  -0.014112   0.028462   0.182312   0.006597   0.001052
     5  N   -0.023195  -0.022902   0.076263  -0.088359  -0.002830   0.002371
     6  H   -0.001796  -0.004996  -0.030067  -0.024117  -0.000813   0.000186
     7  O    8.176466  -0.158268   0.142431   0.419594   0.084954   0.002128
     8  C   -0.158268  19.107470  -0.318616 -12.264872  -1.298272  -0.071988
     9  C    0.142431  -0.318616  24.694730  -9.595580  -6.489355  -3.182240
    10  C    0.419594 -12.264872  -9.595580  29.079094   3.407998   2.494642
    11  S    0.084954  -1.298272  -6.489355   3.407998  25.164717  -3.200899
    12  C    0.002128  -0.071988  -3.182240   2.494642  -3.200899  35.456735
    13  O    0.000868  -0.242951  -0.340013   0.314321   0.677318  -0.285413
    14  O   -0.001252  -0.147033  -0.210640   0.083206   0.571408  -0.034067
    15  C   -0.003075   2.869350   1.224599  -3.370531   2.228547 -11.479447
    16  C    0.000217   0.240568   0.414910  -0.278303  -0.935959  -1.581028
    17  C   -0.000319  -0.263861  -0.136531   0.196941   1.274105  -3.973614
    18  C   -0.004853  -0.955360   0.808245   0.296863  -0.390439  -9.933660
    19  C   -0.004182  -1.952193   1.522251   1.153243  -2.579161   3.131464
    20  O   -0.000001   0.000095   0.001683  -0.001578   0.001835   0.006177
    21  C   -0.000879   0.185800   0.015528  -0.124382  -0.409477  -1.881773
    22  N    0.000025   0.004590   0.009239  -0.002421  -0.023593   0.184499
    23  C    0.000010  -0.008180  -0.005370   0.004766   0.026202  -0.205298
    24  C    0.000006  -0.000290   0.000123  -0.000043  -0.005204   0.023755
    25  H   -0.055480   0.481652  -0.110979  -0.078811  -0.022584  -0.002125
    26  H    0.005921   0.004692  -0.002612   0.233480  -0.025288   0.022044
    27  H    0.000017   0.003436   0.016219   0.002427  -0.060359   0.024727
    28  H    0.000000  -0.000409  -0.003087   0.001412   0.005875   0.070928
    29  H   -0.000104  -0.020152   0.000015   0.002310   0.079773   0.006909
    30  H    0.000000   0.000002   0.000025   0.000001   0.000260   0.002275
    31  H   -0.000002   0.000807  -0.000553  -0.000549  -0.003319   0.017809
    32  H   -0.000000  -0.000044   0.000082  -0.000061   0.000910  -0.030370
    33  H    0.000000  -0.000310  -0.000131   0.000225   0.001448  -0.001621
    34  H   -0.000000   0.000206  -0.000251  -0.000046  -0.001936   0.000365
    35  H   -0.000000   0.000002  -0.000014  -0.000003   0.000386  -0.000426
    36  H    0.000000   0.000001   0.000005  -0.000001   0.000049   0.000076
    37  H   -0.000000  -0.000000   0.000000   0.000000   0.000052   0.000891
    38  H   -0.000000  -0.000006  -0.000024   0.000001  -0.000281  -0.004073
              13         14         15         16         17         18
     1  C   -0.035176  -0.077022  -0.777184  -0.082330  -0.040448   0.040192
     2  S    0.004259  -0.007539  -0.138870  -0.038842   0.002581   0.014045
     3  O    0.000061  -0.000095  -0.001476  -0.000794   0.000363   0.000957
     4  O    0.000248  -0.000043  -0.003391  -0.001297   0.000499  -0.001093
     5  N   -0.000070  -0.000002  -0.002743  -0.000290  -0.000087   0.000265
     6  H    0.000003  -0.000001  -0.000072   0.000002  -0.000001  -0.000000
     7  O    0.000868  -0.001252  -0.003075   0.000217  -0.000319  -0.004853
     8  C   -0.242951  -0.147033   2.869350   0.240568  -0.263861  -0.955360
     9  C   -0.340013  -0.210640   1.224599   0.414910  -0.136531   0.808245
    10  C    0.314321   0.083206  -3.370531  -0.278303   0.196941   0.296863
    11  S    0.677318   0.571408   2.228547  -0.935959   1.274105  -0.390439
    12  C   -0.285413  -0.034067 -11.479447  -1.581028  -3.973614  -9.933660
    13  O    8.617181  -0.212241  -0.701869  -0.058273   0.017642   0.124300
    14  O   -0.212241   8.663688   0.448563   0.176979  -0.046175  -0.180395
    15  C   -0.701869   0.448563  36.581633  -5.633853   2.568291  -7.723042
    16  C   -0.058273   0.176979  -5.633853  16.986974  -2.134268  -0.039593
    17  C    0.017642  -0.046175   2.568291  -2.134268  21.607208  -4.797678
    18  C    0.124300  -0.180395  -7.723042  -0.039593  -4.797678  27.047187
    19  C    0.528947  -0.595457 -11.451809  -0.451217  -4.580509   2.932002
    20  O   -0.000044   0.000056   0.034051   0.051988   0.045953  -0.027668
    21  C    0.000970   0.024211   1.501421  -0.713217  -3.244599  -1.011434
    22  N    0.000152   0.001568   0.044983   0.047944   0.050899  -0.647770
    23  C    0.000345  -0.002145  -0.051188   0.052860   0.162871   0.369340
    24  C    0.000056   0.000381   0.003627  -0.025260  -0.175083  -0.029189
    25  H   -0.000675   0.002824  -0.000411   0.000236  -0.000470   0.000514
    26  H    0.000028  -0.000201  -0.013314  -0.007651  -0.000911   0.003756
    27  H    0.004257   0.001090   0.256634   0.059978  -0.038867   0.025054
    28  H    0.000100   0.000032   0.072322   0.299738  -0.102968  -0.034440
    29  H    0.000531   0.003416   0.010255  -0.039404   0.082394  -0.059672
    30  H    0.000001   0.000001  -0.028929  -0.203148  -0.067598   0.237616
    31  H   -0.000004   0.000023  -0.000964  -0.009432  -0.125420  -0.091106
    32  H   -0.000002   0.000001   0.001176   0.014913   0.121825  -0.102726
    33  H    0.000024   0.000006  -0.005276   0.009179  -0.000503   0.031207
    34  H   -0.000003  -0.000046   0.001865  -0.000355  -0.009866  -0.060040
    35  H   -0.000000   0.000003  -0.000129  -0.001150   0.005399   0.023670
    36  H    0.000000   0.000000   0.000239  -0.000776   0.019972   0.004955
    37  H    0.000000   0.000000   0.000178  -0.001021   0.003956   0.015618
    38  H   -0.000000  -0.000000  -0.000420   0.001070  -0.019830  -0.030275
              19         20         21         22         23         24
     1  C    0.527824   0.000478  -0.052965   0.000586  -0.000314  -0.000195
     2  S    0.077134   0.000018  -0.004457  -0.000026   0.000054  -0.000012
     3  O    0.002535  -0.000000   0.000127  -0.000000   0.000001   0.000000
     4  O    0.001232  -0.000000  -0.000138  -0.000000   0.000001  -0.000000
     5  N    0.001388   0.000000  -0.000008  -0.000000  -0.000000   0.000000
     6  H   -0.000026   0.000000   0.000000   0.000000   0.000000   0.000000
     7  O   -0.004182  -0.000001  -0.000879   0.000025   0.000010   0.000006
     8  C   -1.952193   0.000095   0.185800   0.004590  -0.008180  -0.000290
     9  C    1.522251   0.001683   0.015528   0.009239  -0.005370   0.000123
    10  C    1.153243  -0.001578  -0.124382  -0.002421   0.004766  -0.000043
    11  S   -2.579161   0.001835  -0.409477  -0.023593   0.026202  -0.005204
    12  C    3.131464   0.006177  -1.881773   0.184499  -0.205298   0.023755
    13  O    0.528947  -0.000044   0.000970   0.000152   0.000345   0.000056
    14  O   -0.595457   0.000056   0.024211   0.001568  -0.002145   0.000381
    15  C  -11.451809   0.034051   1.501421   0.044983  -0.051188   0.003627
    16  C   -0.451217   0.051988  -0.713217   0.047944   0.052860  -0.025260
    17  C   -4.580509   0.045953  -3.244599   0.050899   0.162871  -0.175083
    18  C    2.932002  -0.027668  -1.011434  -0.647770   0.369340  -0.029189
    19  C   19.010563   0.072193  -1.801346   0.136428  -0.217891   0.062990
    20  O    0.072193   8.533092  -0.225584   0.016085  -0.001944  -0.004717
    21  C   -1.801346  -0.225584  13.038841   0.211471  -0.278511  -0.075973
    22  N    0.136428   0.016085   0.211471   7.191342   0.246775   0.255254
    23  C   -0.217891  -0.001944  -0.278511   0.246775   5.515458  -0.229627
    24  C    0.062990  -0.004717  -0.075973   0.255254  -0.229627   5.522998
    25  H    0.011329  -0.000000   0.000510  -0.000002   0.000014   0.000000
    26  H    0.007192   0.000000   0.000008   0.000000   0.000001  -0.000000
    27  H    0.004508  -0.000462   0.004565   0.000039  -0.000071   0.000005
    28  H   -0.009350  -0.010980   0.004951  -0.000022   0.000058  -0.000018
    29  H    0.306244  -0.000622  -0.076079   0.003659  -0.005797   0.000498
    30  H    0.006875   0.159521   0.051317  -0.001159  -0.000038   0.000894
    31  H    0.076411  -0.000219   0.491896  -0.092298  -0.014961   0.004116
    32  H   -0.075003   0.004672   0.442714  -0.053303   0.016958  -0.025684
    33  H    0.020246   0.000255  -0.054377  -0.034937   0.373039   0.009992
    34  H   -0.003867  -0.000045   0.054361  -0.078171   0.392895   0.007751
    35  H   -0.005038   0.000009  -0.001904  -0.052321   0.392546  -0.017614
    36  H   -0.005866  -0.000058  -0.028256  -0.045311   0.013136   0.388828
    37  H    0.000784   0.000111   0.001388  -0.047380  -0.015644   0.386347
    38  H    0.000269  -0.000099   0.034607  -0.067713  -0.002944   0.400808
              25         26         27         28         29         30
     1  C    0.075500   0.072011   0.003138  -0.000411  -0.002074  -0.000010
     2  S    0.007278   0.011652   0.000123  -0.000013  -0.000046  -0.000000
     3  O    0.000151   0.000169  -0.000000   0.000000  -0.000000   0.000000
     4  O    0.000018   0.000146   0.000001  -0.000000  -0.000000  -0.000000
     5  N    0.000297   0.000014  -0.000000  -0.000000   0.000000  -0.000000
     6  H   -0.000000  -0.000015   0.000000   0.000000   0.000000   0.000000
     7  O   -0.055480   0.005921   0.000017   0.000000  -0.000104   0.000000
     8  C    0.481652   0.004692   0.003436  -0.000409  -0.020152   0.000002
     9  C   -0.110979  -0.002612   0.016219  -0.003087   0.000015   0.000025
    10  C   -0.078811   0.233480   0.002427   0.001412   0.002310   0.000001
    11  S   -0.022584  -0.025288  -0.060359   0.005875   0.079773   0.000260
    12  C   -0.002125   0.022044   0.024727   0.070928   0.006909   0.002275
    13  O   -0.000675   0.000028   0.004257   0.000100   0.000531   0.000001
    14  O    0.002824  -0.000201   0.001090   0.000032   0.003416   0.000001
    15  C   -0.000411  -0.013314   0.256634   0.072322   0.010255  -0.028929
    16  C    0.000236  -0.007651   0.059978   0.299738  -0.039404  -0.203148
    17  C   -0.000470  -0.000911  -0.038867  -0.102968   0.082394  -0.067598
    18  C    0.000514   0.003756   0.025054  -0.034440  -0.059672   0.237616
    19  C    0.011329   0.007192   0.004508  -0.009350   0.306244   0.006875
    20  O   -0.000000   0.000000  -0.000462  -0.010980  -0.000622   0.159521
    21  C    0.000510   0.000008   0.004565   0.004951  -0.076079   0.051317
    22  N   -0.000002   0.000000   0.000039  -0.000022   0.003659  -0.001159
    23  C    0.000014   0.000001  -0.000071   0.000058  -0.005797  -0.000038
    24  C    0.000000  -0.000000   0.000005  -0.000018   0.000498   0.000894
    25  H    0.449478  -0.000064  -0.000000  -0.000000  -0.000093  -0.000000
    26  H   -0.000064   0.428238  -0.000232   0.000000   0.000000  -0.000000
    27  H   -0.000000  -0.000232   0.437447  -0.003330  -0.000131  -0.000010
    28  H   -0.000000   0.000000  -0.003330   0.506749   0.000014   0.007732
    29  H   -0.000093   0.000000  -0.000131   0.000014   0.450594   0.000005
    30  H   -0.000000  -0.000000  -0.000010   0.007732   0.000005   0.330193
    31  H    0.000000  -0.000000  -0.000000   0.000002   0.002340  -0.000002
    32  H   -0.000000   0.000000  -0.000000  -0.000003   0.000121  -0.000142
    33  H    0.000000   0.000000   0.000000  -0.000001  -0.000823  -0.000001
    34  H    0.000000  -0.000000  -0.000000   0.000000  -0.000172   0.000000
    35  H    0.000000  -0.000000  -0.000000   0.000000   0.000020  -0.000000
    36  H   -0.000000   0.000000  -0.000000   0.000000  -0.000001  -0.000001
    37  H   -0.000000   0.000000   0.000000   0.000000   0.000001   0.000000
    38  H    0.000000  -0.000000  -0.000000  -0.000000   0.000001  -0.000000
              31         32         33         34         35         36
     1  C   -0.000061   0.000036   0.000004  -0.000009   0.000001   0.000000
     2  S   -0.000003   0.000003   0.000000  -0.000000   0.000000   0.000000
     3  O   -0.000000   0.000000   0.000000   0.000000   0.000000  -0.000000
     4  O   -0.000000   0.000000   0.000000  -0.000000   0.000000  -0.000000
     5  N    0.000000   0.000000   0.000000  -0.000000   0.000000  -0.000000
     6  H   -0.000000   0.000000  -0.000000  -0.000000  -0.000000   0.000000
     7  O   -0.000002  -0.000000   0.000000  -0.000000  -0.000000   0.000000
     8  C    0.000807  -0.000044  -0.000310   0.000206   0.000002   0.000001
     9  C   -0.000553   0.000082  -0.000131  -0.000251  -0.000014   0.000005
    10  C   -0.000549  -0.000061   0.000225  -0.000046  -0.000003  -0.000001
    11  S   -0.003319   0.000910   0.001448  -0.001936   0.000386   0.000049
    12  C    0.017809  -0.030370  -0.001621   0.000365  -0.000426   0.000076
    13  O   -0.000004  -0.000002   0.000024  -0.000003  -0.000000   0.000000
    14  O    0.000023   0.000001   0.000006  -0.000046   0.000003   0.000000
    15  C   -0.000964   0.001176  -0.005276   0.001865  -0.000129   0.000239
    16  C   -0.009432   0.014913   0.009179  -0.000355  -0.001150  -0.000776
    17  C   -0.125420   0.121825  -0.000503  -0.009866   0.005399   0.019972
    18  C   -0.091106  -0.102726   0.031207  -0.060040   0.023670   0.004955
    19  C    0.076411  -0.075003   0.020246  -0.003867  -0.005038  -0.005866
    20  O   -0.000219   0.004672   0.000255  -0.000045   0.000009  -0.000058
    21  C    0.491896   0.442714  -0.054377   0.054361  -0.001904  -0.028256
    22  N   -0.092298  -0.053303  -0.034937  -0.078171  -0.052321  -0.045311
    23  C   -0.014961   0.016958   0.373039   0.392895   0.392546   0.013136
    24  C    0.004116  -0.025684   0.009992   0.007751  -0.017614   0.388828
    25  H    0.000000  -0.000000   0.000000   0.000000   0.000000  -0.000000
    26  H   -0.000000   0.000000   0.000000  -0.000000  -0.000000   0.000000
    27  H   -0.000000  -0.000000   0.000000  -0.000000  -0.000000  -0.000000
    28  H    0.000002  -0.000003  -0.000001   0.000000   0.000000   0.000000
    29  H    0.002340   0.000121  -0.000823  -0.000172   0.000020  -0.000001
    30  H   -0.000002  -0.000142  -0.000001   0.000000  -0.000000  -0.000001
    31  H    0.555523  -0.040448  -0.001538   0.012037  -0.000224  -0.001456
    32  H   -0.040448   0.496366   0.000009  -0.000298  -0.000124   0.004898
    33  H   -0.001538   0.000009   0.462493  -0.037761  -0.017727  -0.000136
    34  H    0.012037  -0.000298  -0.037761   0.546074  -0.037118  -0.000361
    35  H   -0.000224  -0.000124  -0.017727  -0.037118   0.507094   0.000206
    36  H   -0.001456   0.004898  -0.000136  -0.000361   0.000206   0.498119
    37  H   -0.000420   0.000265   0.000129  -0.001540   0.003922  -0.017527
    38  H    0.010819  -0.001961  -0.000305   0.010888  -0.001424  -0.039131
              37         38
     1  C    0.000000  -0.000001
     2  S    0.000000  -0.000000
     3  O   -0.000000  -0.000000
     4  O   -0.000000  -0.000000
     5  N   -0.000000   0.000000
     6  H    0.000000  -0.000000
     7  O   -0.000000  -0.000000
     8  C   -0.000000  -0.000006
     9  C    0.000000  -0.000024
    10  C    0.000000   0.000001
    11  S    0.000052  -0.000281
    12  C    0.000891  -0.004073
    13  O    0.000000  -0.000000
    14  O    0.000000  -0.000000
    15  C    0.000178  -0.000420
    16  C   -0.001021   0.001070
    17  C    0.003956  -0.019830
    18  C    0.015618  -0.030275
    19  C    0.000784   0.000269
    20  O    0.000111  -0.000099
    21  C    0.001388   0.034607
    22  N   -0.047380  -0.067713
    23  C   -0.015644  -0.002944
    24  C    0.386347   0.400808
    25  H   -0.000000   0.000000
    26  H    0.000000  -0.000000
    27  H    0.000000  -0.000000
    28  H    0.000000  -0.000000
    29  H    0.000001   0.000001
    30  H    0.000000  -0.000000
    31  H   -0.000420   0.010819
    32  H    0.000265  -0.001961
    33  H    0.000129  -0.000305
    34  H   -0.001540   0.010888
    35  H    0.003922  -0.001424
    36  H   -0.017527  -0.039131
    37  H    0.505218  -0.039562
    38  H   -0.039562   0.546950
 Mulliken charges:
               1
     1  C   -1.371352
     2  S    1.822532
     3  O   -0.613526
     4  O   -0.649898
     5  N   -0.777836
     6  H    0.333097
     7  O   -0.168654
     8  C   -0.073869
     9  C   -0.846340
    10  C    0.862618
    11  S    0.772619
    12  C   -0.138581
    13  O   -0.414880
    14  O   -0.463097
    15  C   -0.459742
    16  C   -0.120096
    17  C   -0.401294
    18  C    0.144650
    19  C    0.138862
    20  O   -0.654252
    21  C   -0.079326
    22  N   -0.259107
    23  C   -0.527405
    24  C   -0.479520
    25  H    0.241892
    26  H    0.260933
    27  H    0.259795
    28  H    0.195118
    29  H    0.256069
    30  H    0.504320
    31  H    0.211196
    32  H    0.225220
    33  H    0.247192
    34  H    0.205441
    35  H    0.201958
    36  H    0.208396
    37  H    0.204233
    38  H    0.202636
 Sum of Mulliken charges =  -1.00000
 Mulliken charges with hydrogens summed into heavy atoms:
               1
     1  C   -1.371352
     2  S    1.822532
     3  O   -0.613526
     4  O   -0.649898
     5  N   -0.444739
     7  O   -0.168654
     8  C    0.168022
     9  C   -0.846340
    10  C    1.123551
    11  S    0.772619
    12  C   -0.138581
    13  O   -0.414880
    14  O   -0.463097
    15  C   -0.199947
    16  C    0.075022
    17  C   -0.401294
    18  C    0.144650
    19  C    0.394930
    20  O   -0.149931
    21  C    0.357089
    22  N   -0.259107
    23  C    0.127187
    24  C    0.135745
 Electronic spatial extent (au):  <R**2>=          11427.2083
 Charge=             -1.0000 electrons
 Dipole moment (field-independent basis, Debye):
    X=             21.6404    Y=              1.4029    Z=              2.3366  Tot=             21.8114
 Quadrupole moment (field-independent basis, Debye-Ang):
   XX=           -270.4006   YY=           -184.5187   ZZ=           -151.2714
   XY=            -38.3104   XZ=            -11.4077   YZ=            -11.7919
 Traceless Quadrupole moment (field-independent basis, Debye-Ang):
   XX=            -68.3370   YY=             17.5449   ZZ=             50.7922
   XY=            -38.3104   XZ=            -11.4077   YZ=            -11.7919
 Octapole moment (field-independent basis, Debye-Ang**2):
  XXX=            592.9139  YYY=            -40.0489  ZZZ=             36.3527  XYY=             74.5642
  XXY=            178.0332  XXZ=             68.7618  XZZ=             77.9029  YZZ=            -19.1449
  YYZ=              8.0352  XYZ=              0.0191
 Hexadecapole moment (field-independent basis, Debye-Ang**3):
 XXXX=         -15409.3853 YYYY=          -2216.5138 ZZZZ=          -1443.4776 XXXY=           -828.0432
 XXXZ=           -634.5769 YYYX=           -191.0041 YYYZ=            -92.9558 ZZZX=            125.9822
 ZZZY=           -129.8845 XXYY=          -2559.7876 XXZZ=          -2399.7067 YYZZ=           -602.0920
 XXYZ=            -74.0506 YYXZ=             40.5549 ZZXY=           -155.1091
 N-N= 2.298163841703D+03 E-N=-8.990394681080D+03  KE= 1.849367125622D+03
 Calling FoFJK, ICntrl=      2127 FMM=F ISym2X=0 I1Cent= 0 IOpClX= 0 NMat=1 NMatS=1 NMatT=0.
 ***** Axes restored to original set *****
 -------------------------------------------------------------------
 Center     Atomic                   Forces (Hartrees/Bohr)
 Number     Number              X              Y              Z
 -------------------------------------------------------------------
      1        6          -0.004410915    0.004827879   -0.003193659
      2       16          -0.014880431   -0.000071599    0.034147935
      3        8           0.011122006   -0.001095561   -0.009294655
      4        8           0.001176755    0.001932131   -0.010412712
      5        7           0.003525705    0.002537100   -0.007515792
      6        1          -0.000778993   -0.001818862    0.001759760
      7        8           0.005167317   -0.007375190   -0.005439679
      8        6          -0.003352777    0.004017315    0.005791803
      9        6           0.000616688   -0.006371886   -0.001460986
     10        6           0.000022018   -0.001691373   -0.004272239
     11       16           0.015437907    0.020796870   -0.005999146
     12        6          -0.001364133   -0.002697882    0.001378795
     13        8          -0.008129737   -0.005863186    0.000951265
     14        8          -0.003496213   -0.006490593    0.003493822
     15        6          -0.001730932    0.000587597   -0.001442467
     16        6          -0.003964299    0.000045575   -0.002382199
     17        6           0.000798304   -0.000217065   -0.000412541
     18        6           0.001098748   -0.001814313    0.000928669
     19        6           0.001840912   -0.002957824    0.002311487
     20        8           0.000155446   -0.003734822    0.001848653
     21        6           0.001962608   -0.003317543    0.000118877
     22        7          -0.005274276    0.006264853   -0.001370602
     23        6           0.001479142   -0.003555541    0.001871894
     24        6           0.004427047   -0.001752001    0.001348763
     25        1           0.001571677   -0.000993139    0.000064074
     26        1          -0.000980246    0.002245591    0.001004310
     27        1           0.000108445    0.002076421   -0.001401049
     28        1           0.000745908   -0.000153043    0.000756649
     29        1           0.001983193    0.001243204    0.000128858
     30        1          -0.002484976    0.003653394   -0.002841565
     31        1          -0.000964036    0.001669104   -0.000120452
     32        1           0.000162296   -0.000932794    0.000262996
     33        1          -0.000301996   -0.000092645    0.000643878
     34        1          -0.000527027    0.001462504   -0.000588609
     35        1          -0.000074841   -0.000625106   -0.000253320
     36        1           0.000359005   -0.000439072    0.000384900
     37        1           0.000265964   -0.000555372   -0.000344277
     38        1          -0.001311264    0.001256873   -0.000451440
 -------------------------------------------------------------------
 Cartesian Forces:  Max     0.034147935 RMS     0.005321064

 GradGradGradGradGradGradGradGradGradGradGradGradGradGradGradGradGradGrad
 Berny optimization.
 FormGI is forming the generalized inverse of G from B-inverse, IUseBI=4.
 Internal  Forces:  Max     0.012884300 RMS     0.002741682
 Search for a local minimum.
 Step number   1 out of a maximum of  202
 All quantities printed in internal units (Hartrees-Bohrs-Radians)
 Mixed Optimization -- RFO/linear search
 Second derivative matrix not updated -- first step.
 ITU=  0
     Eigenvalues ---    0.00506   0.00676   0.00772   0.00831   0.00879
     Eigenvalues ---    0.00883   0.01031   0.01466   0.01515   0.01625
     Eigenvalues ---    0.01655   0.02057   0.02094   0.02106   0.02166
     Eigenvalues ---    0.02181   0.02184   0.02196   0.02215   0.02235
     Eigenvalues ---    0.02236   0.02423   0.02551   0.03246   0.03412
     Eigenvalues ---    0.04900   0.06501   0.07254   0.07290   0.07509
     Eigenvalues ---    0.07511   0.09772   0.10108   0.10352   0.10672
     Eigenvalues ---    0.12118   0.13338   0.13357   0.15855   0.16000
     Eigenvalues ---    0.16000   0.16000   0.16000   0.16000   0.16000
     Eigenvalues ---    0.16000   0.16000   0.16000   0.16000   0.16000
     Eigenvalues ---    0.16000   0.16000   0.16267   0.16816   0.19237
     Eigenvalues ---    0.21542   0.22024   0.22376   0.23375   0.23485
     Eigenvalues ---    0.24062   0.24600   0.24958   0.24975   0.24991
     Eigenvalues ---    0.24999   0.25000   0.25000   0.25000   0.26945
     Eigenvalues ---    0.29068   0.30482   0.31671   0.33152   0.33168
     Eigenvalues ---    0.33200   0.34364   0.34422   0.34445   0.34451
     Eigenvalues ---    0.34489   0.35054   0.35223   0.35327   0.35793
     Eigenvalues ---    0.35821   0.35926   0.36784   0.36823   0.38604
     Eigenvalues ---    0.41742   0.42616   0.43791   0.45523   0.46093
     Eigenvalues ---    0.46180   0.46802   0.47518   0.49929   0.52829
     Eigenvalues ---    0.52853   0.53185   0.54342   0.61592   0.80977
     Eigenvalues ---    0.82558   0.87269   0.87345
 RFO step:  Lambda=-7.32055954D-03 EMin= 5.06452845D-03
 Linear search not attempted -- first point.
 Iteration  1 RMS(Cart)=  0.06355538 RMS(Int)=  0.00140393
[...]
 00680311,-0.11429562,0.09384100,-0.03548688,0.00468794,-0.00289657,0.0
 0194636,-0.00000608,-0.00001065,-0.00001048,0.00000455,0.00000625,0.00
 000449,0.00001355,-0.00000859,0.00000383,-0.00001130,-0.00000124,0.000
 01189,0.00000752,-0.00019909,-0.00015567,0.00000735,-0.00000204,0.0000
 3710,-0.00029318,0.00041309,-0.00158015,0.00000586,-0.00004560,-0.0002
 1578,-0.01396622,0.02553857,-0.00799585,0.11577280,0.00000247,0.000003
 34,-0.00000897,-0.00000192,-0.00006049,-0.00002572,-0.00000595,0.00001
 846,0.00000940,-0.00000307,0.00002580,0.00000523,0.00000724,0.00003462
 ,0.00000484,-0.00000114,-0.00000362,-0.00000020,-0.00003314,0.00003151
 ,0.00003314,0.00004448,-0.00003412,0.00000818,0.00000102,0.00009190,-0
 .00001938,0.00000010,0.00001102,-0.00001243,-0.00004133,-0.00043924,0.
 00025441,0.00013691,0.00015948,-0.00004150,0.00005533,0.00011149,-0.00
 004541,-0.00006723,0.00013591,-0.00020371,0.00005086,0.00002140,0.0000
 2912,0.00003984,0.00005762,0.00001024,-0.00015537,-0.00037733,-0.00010
 291,-0.00030982,-0.00005063,0.00011332,0.00004586,-0.00017381,0.000209
 16,0.00012561,0.00023871,0.00015197,-0.00096417,0.00118800,-0.00316676
 ,-0.00065100,-0.01796712,0.01782032,0.09569363,-0.19702814,0.05237708,
 0.00332894,0.00141317,0.00067567,0.00000301,0.00000150,0.00000988,-0.0
 0000724,-0.00000847,-0.00000600,-0.00000276,0.00000105,-0.00000415,0.0
 0000902,0.00000061,-0.00000169,0.00004810,0.00000724,0.00013461,0.0000
 2000,0.00004107,-0.00001026,-0.00026101,0.00109616,0.00178582,-0.00023
 145,0.00027603,0.00000588,-0.00359333,0.00745887,-0.00335410,-0.103384
 85,0.22089693,-0.00000005,-0.00000017,0.00000791,0.00000428,0.00000952
 ,-0.00002247,-0.00000729,-0.00000447,0.00000720,0.00000323,-0.00000908
 ,0.00000842,-0.00000140,-0.00000237,0.00000691,-0.00000021,0.00000026,
 -0.00000121,0.00000957,-0.00000212,0.00000373,-0.00000534,0.00000212,-
 0.00000763,-0.00000150,-0.00002781,0.00001528,-0.00000531,0.00000121,0
 .00000612,-0.00003607,0.00018002,-0.00018751,-0.00014629,-0.00010123,0
 .00005027,-0.00000081,-0.00004627,0.00003612,0.00007814,-0.00004389,0.
 00013678,0.00000057,-0.00007760,0.00000624,0.00001629,-0.00004564,0.00
 006573,0.00023442,0.00042215,-0.00002567,0.00014448,-0.00051796,0.0000
 8191,-0.00005242,0.00036467,-0.00012712,-0.00015652,-0.00021126,-0.000
 12360,-0.00204053,0.00613395,0.00344478,-0.00534095,0.02892679,-0.0222
 0783,-0.03759759,0.05401757,-0.07190880,-0.00350821,-0.00123180,-0.000
 55784,-0.00000242,-0.00000580,-0.00000395,0.00000299,0.00000295,0.0000
 0130,0.00000715,-0.00001289,0.00000289,0.00000739,-0.00000093,0.000007
 31,-0.00003067,-0.00018207,-0.00010823,-0.00001894,-0.00005786,-0.0000
 3395,0.00067480,-0.00200674,0.00071564,0.00032349,-0.00045417,0.000256
 53,-0.00526769,0.00755298,-0.00242383,0.03834388,-0.07265840,0.0832134
 2,0.00000219,-0.00000541,0.00000001,-0.00000019,0.00002013,0.00003565,
 0.00000875,-0.00000449,-0.00001135,-0.00000343,-0.00000271,-0.00001157
 ,-0.00000293,-0.00001480,-0.00000924,0.00000075,0.00000160,0.00000146,
 0.00001345,-0.00001454,-0.00003062,-0.00002858,0.00002146,0.00000466,-
 0.00000116,-0.00003690,-0.00000714,0.00000263,-0.00001062,0.00000609,0
 .00012169,0.00017060,0.00002231,0.00023190,-0.00005102,0.00003699,-0.0
 0006883,-0.00002967,0.00000021,-0.00002719,-0.00007411,0.00000741,-0.0
 0002680,0.00014614,-0.00005812,-0.00016037,-0.00005677,-0.00000556,0.0
 0022373,-0.00040518,0.00021664,0.00005880,-0.00009447,-0.00063419,0.00
 000544,0.00000683,-0.00023651,0.00006134,0.00020346,-0.00000902,-0.002
 45481,-0.00201352,0.00228220,-0.00281554,0.00984589,0.01429398,-0.0498
 0980,0.00794857,0.00751336,0.00054076,0.00172205,0.00178370,-0.0000016
 2,0.00000066,-0.00000154,0.00000273,0.00000303,0.00000306,-0.00000347,
 0.00001011,-0.00000249,-0.00000020,0.00000479,-0.00001267,-0.00011554,
 0.00014066,0.00002166,0.00002081,-0.00000996,-0.00001760,0.00009756,-0
 .00030356,-0.00027074,0.00026596,0.00045959,0.00097991,0.00460081,-0.0
 2050436,-0.02202562,-0.00124634,0.01226782,0.01238617,0.05078248,-0.00
 000334,-0.00000794,-0.00000461,0.00001284,0.00005692,0.00010590,0.0000
 1565,-0.00001360,-0.00003542,-0.00001504,-0.00000413,-0.00003674,-0.00
 001191,-0.00004377,-0.00002938,0.00000181,0.00000469,0.00000528,0.0000
 1423,-0.00002799,-0.00005547,-0.00004429,0.00003244,0.00001348,-0.0000
 0269,-0.00005249,-0.00000903,0.00000962,-0.00002202,-0.00000323,0.0002
 2807,0.00019228,0.00009202,0.00010529,0.00003590,-0.00002786,-0.000132
 00,-0.00003494,-0.00001522,-0.00010295,-0.00008058,-0.00004028,-0.0000
 5434,0.00007217,-0.00003512,-0.00009315,-0.00001287,-0.00003169,0.0000
 4152,-0.00017781,0.00015128,-0.00009049,-0.00002533,-0.00024660,0.0000
 3750,-0.00026002,-0.00001044,0.00003458,0.00012948,-0.00007299,-0.0016
 8542,-0.00040983,0.00234056,-0.00138195,0.01110417,0.01356359,0.010835
 47,-0.17721309,-0.13890829,-0.00038982,0.00083254,0.00125882,0.0000054
 0,0.00001341,-0.00000010,0.00000437,0.00000493,0.00000487,-0.00000641,
 0.00001485,-0.00000972,-0.00000464,0.00000464,-0.00001637,-0.00000903,
 0.00020936,0.00007075,-0.00001115,-0.00001851,0.00000995,-0.00029763,0
 .00043824,0.00037081,-0.00017463,0.00071614,0.00055449,0.00124258,-0.0
 0528335,-0.00444645,0.00037187,-0.01720931,-0.01877169,-0.00882628,0.1
 8712085,-0.00000441,-0.00000509,0.00000340,0.00002351,0.00006349,0.000
 08470,0.00000500,-0.00001854,-0.00002936,-0.00001505,-0.00001064,-0.00
 002961,-0.00001410,-0.00004487,-0.00002355,0.00000139,0.00000454,0.000
 00444,0.00002183,-0.00002911,-0.00004539,-0.00004554,0.00003282,0.0000
 0029,-0.00000418,-0.00007849,0.00000921,0.00000496,-0.00002055,0.00000
 161,0.00015417,0.00033887,-0.00011403,-0.00015278,-0.00006016,-0.00003
 541,-0.00012681,-0.00007607,0.00002065,-0.00001349,-0.00010878,0.00009
 716,-0.00008425,-0.00012287,0.00002180,0.00006206,0.00008752,0.0000166
 3,-0.00011598,-0.00019712,0.00006680,0.00075263,0.00011090,0.00043440,
 0.00001490,0.00020873,-0.00001071,-0.00000233,0.00024789,-0.00003179,0
 .00377273,0.00369568,-0.00242292,0.00204453,-0.01698085,-0.02700760,0.
 01043486,-0.13114610,-0.18952927,-0.00170716,-0.00136752,0.00028357,0.
 00000298,0.00000715,-0.00000534,0.00000791,0.00000758,0.00000626,0.000
 00463,-0.00000153,-0.00000826,-0.00002284,0.00000607,-0.00003030,0.000
 01052,0.00000720,-0.00004496,-0.00001485,-0.00007413,-0.00002853,0.000
 09473,-0.00023366,0.00009901,0.00020356,-0.00111341,-0.00139875,0.0003
 1586,-0.00521457,-0.00543311,-0.00048068,0.00674532,0.00894945,-0.0158
 2560,0.14439632,0.21519516,-0.00000014,-0.00000087,-0.00000390,-0.0000
 0332,0.00000048,0.00002721,0.00000793,0.00000129,-0.00000889,-0.000002
 73,0.00000526,-0.00000995,0.00000010,-0.00000354,-0.00000799,0.0000003
 8,0.00000031,0.00000162,0.00000124,-0.00000660,-0.00001172,-0.00000685
 ,0.00000851,0.00000335,0.00000414,0.00000583,-0.00001268,0.00000522,-0
 .00000569,-0.00000153,0.00000679,-0.00003021,0.00012239,0.00005917,0.0
 0010271,-0.00003994,0.00000652,0.00000378,-0.00002535,-0.00002376,-0.0
 0000261,-0.00007543,-0.00000407,-0.00002843,0.00001471,0.00008673,0.00
 008334,-0.00000256,-0.00023541,-0.00053551,0.00021106,0.00007529,0.000
 47682,-0.00016451,0.00011668,-0.00002024,0.00006821,0.00027272,0.00042
 095,-0.00006946,0.00015908,0.00058100,0.00225780,-0.02084301,-0.015659
 91,0.02654142,-0.00489017,-0.00264648,-0.00361368,-0.09243081,-0.04833
 620,0.08288995,-0.00000056,0.00000195,0.00000108,-0.00000056,-0.000000
 12,0.00000136,0.00000234,0.00000677,-0.00000044,-0.00001070,0.00000705
 ,-0.00000685,-0.00001016,0.00004623,0.00001298,0.00000032,-0.00000872,
 -0.00001366,0.00009620,-0.00011228,-0.00035633,0.00051621,-0.00030703,
 -0.00082846,-0.00080292,-0.00107620,0.00152927,-0.00001709,-0.00054691
 ,0.00026362,0.00017192,0.00025859,-0.00028466,0.10994358,0.00000140,0.
 00000008,-0.00000408,-0.00002727,-0.00001664,0.00000482,0.00001785,0.0
 0000803,-0.00000128,0.00000742,0.00000496,-0.00000030,0.00000786,0.000
 01042,-0.00000145,0.00000046,-0.00000087,0.00000002,0.00000017,0.00000
 015,-0.00000412,0.00000184,0.00000183,0.00000645,0.00000306,0.00001011
 ,-0.00000927,0.00000345,0.00000133,-0.00000107,-0.00002160,-0.00005611
 ,0.00009511,0.00004772,0.00004784,0.00002427,0.00002757,0.00001237,-0.
 00002009,-0.00000984,0.00001728,-0.00005938,0.00002384,0.00003563,-0.0
 0000413,-0.00001982,-0.00002197,-0.00000403,0.00000235,0.00007582,0.00
 005316,0.00018766,0.00012483,-0.00029161,0.00010499,-0.00005710,0.0000
 5718,-0.00000629,-0.00010592,-0.00010082,-0.00064104,-0.00002785,0.001
 99371,-0.00659314,-0.00542727,0.00677289,-0.00200853,-0.00058242,-0.00
 206036,-0.05078494,-0.10580010,0.09541691,-0.00000151,-0.00000119,0.00
 000304,-0.00000271,-0.00000160,-0.00000012,-0.00000016,-0.00000117,-0.
 00000211,0.00000550,0.00000181,0.00001027,0.00000131,0.00001122,0.0000
 0714,0.00001078,0.00001946,0.00001314,0.00012359,-0.00013171,0.0000276
 4,-0.00024615,-0.00014734,-0.00090374,-0.00042077,0.00020728,0.0006900
 0,0.00031473,0.00039465,-0.00028262,0.00010126,0.00031901,0.00034919,0
 .05987934,0.11082151,0.00000308,0.00000280,0.00000321,0.00000966,-0.00
 002680,-0.00007454,-0.00002259,0.00000482,0.00002586,0.00000491,-0.000
 00053,0.00002555,0.00000223,0.00002175,0.00002151,-0.00000145,-0.00000
 230,-0.00000423,-0.00001230,0.00002007,0.00003535,0.00002786,-0.000022
 85,-0.00000811,-0.00000840,0.00002619,0.00000918,-0.00000677,0.0000148
 6,0.00000318,-0.00006100,-0.00012100,-0.00006653,0.00004183,-0.0000536
 9,0.00002861,0.00004041,0.00003317,0.00001739,0.00002526,0.00003958,0.
 00002741,0.00004229,0.00004520,0.00000297,-0.00003053,-0.00002231,-0.0
 0003485,0.00010814,0.00013291,-0.00002237,-0.00007495,-0.00005833,0.00
 060632,-0.00011557,-0.00002017,0.00000725,0.00003685,-0.00009081,0.000
 12694,-0.00176972,-0.00136208,0.00089032,-0.00369746,-0.00567622,0.007
 61054,-0.00093722,-0.00095029,0.00050535,0.09075805,0.09856999,-0.2194
 6900,-0.00000080,-0.00000507,-0.00000073,-0.00000220,-0.00000318,-0.00
 000446,-0.00000097,-0.00000141,-0.00000006,0.00000841,-0.00000662,0.00
 000697,-0.00000117,-0.00002698,-0.00000555,0.00004472,0.00005242,0.000
 00005,0.00015459,0.00017161,-0.00035324,-0.00022017,-0.00004455,0.0000
 4540,-0.00028882,-0.00002880,0.00038614,-0.00021437,-0.00012763,0.0000
 8673,-0.00023057,0.00027136,0.00031173,-0.09560053,-0.10554603,0.23283
 843,-0.00000201,-0.00000123,-0.00000111,-0.00001560,0.00002037,0.00003
 845,0.00001886,-0.00000363,-0.00001259,0.00000208,-0.00000462,-0.00001
 153,0.00000090,-0.00001379,-0.00001018,0.00000118,0.00000150,0.0000016
 6,0.00001729,-0.00001838,-0.00002582,-0.00002459,0.00002179,0.00000311
 ,0.00000087,-0.00003986,0.00000028,0.00000328,-0.00001069,0.00000262,0
 .00003852,0.00018248,-0.00005295,-0.00011324,0.00002985,0.00011076,-0.
 00005587,-0.00005243,0.00000984,0.00000270,-0.00005611,0.00005243,-0.0
 0007740,-0.00006449,-0.00003516,0.00000578,0.00005899,0.00007838,-0.00
 017885,-0.00037147,0.00016059,0.00055244,-0.00109906,-0.00120326,-0.00
 019214,0.00006893,-0.00013376,0.00015190,0.00028628,-0.00012039,-0.005
 33041,-0.00225015,-0.00004062,-0.00136925,-0.02350521,-0.02827382,0.00
 099329,-0.00102793,-0.00221826,-0.05180082,0.02210126,0.02641400,-0.00
 000191,0.00000086,-0.00000143,0.00000298,0.00000402,0.00000446,0.00000
 924,-0.00000197,-0.00001153,-0.00002042,0.00000741,-0.00001579,0.00003
 528,-0.00003768,-0.00006230,0.00000237,-0.00002875,-0.00000272,-0.0000
 2926,-0.00053124,-0.00024744,-0.00004076,0.00038857,-0.00011123,0.0002
 2893,0.00023748,-0.00018621,-0.00025720,0.00016436,0.00047719,-0.00028
 977,0.00015919,0.00069277,-0.00118185,0.00985463,0.00867576,0.06020252
 ,-0.00000412,-0.00000386,0.00000143,0.00001630,0.00004315,0.00006160,0
 .00000369,-0.00001186,-0.00002155,-0.00001056,-0.00000611,-0.00002184,
 -0.00000986,-0.00003146,-0.00001756,0.00000097,0.00000333,0.00000332,0
 .00001117,-0.00001768,-0.00002833,-0.00002686,0.00001836,0.00000185,-0
 .00000222,-0.00004479,0.00000546,0.00000333,-0.00001302,-0.00000205,0.
 00009160,0.00020097,-0.00006107,-0.00011401,-0.00001963,0.00001510,-0.
 00007869,-0.00004908,0.00000984,-0.00001582,-0.00006036,0.00005687,-0.
 00004383,-0.00006259,-0.00000239,0.00001185,0.00007906,-0.00000191,-0.
 00020817,-0.00022773,0.00002930,0.00035657,-0.00001604,-0.00047856,-0.
 00002837,0.00005562,-0.00003766,0.00004658,0.00011584,-0.00007244,-0.0
 0292563,0.00018066,0.00078775,-0.00236214,-0.00723338,-0.00860981,0.00
 105368,0.00002145,-0.00128881,0.01684732,-0.16446479,-0.13113550,0.000
 00442,0.00000698,-0.00000293,0.00000450,0.00000468,0.00000400,0.000003
 53,-0.00000013,-0.00000729,-0.00002579,0.00000201,-0.00001492,0.000038
 02,-0.00001085,-0.00002871,-0.00000537,-0.00001960,0.00000786,0.000247
 04,0.00040342,0.00031067,0.00032651,0.00017321,-0.00003238,0.00002574,
 0.00026259,0.00035245,0.00018088,-0.00033115,-0.00000863,-0.00067188,0
 .00011133,0.00052758,-0.00053518,0.01178825,0.01174453,-0.01565066,0.1
 7581566,-0.00000542,-0.00000636,-0.00000036,0.00001619,0.00006571,0.00
 010821,0.00001443,-0.00001772,-0.00003705,-0.00001542,-0.00000791,-0.0
 0003778,-0.00001314,-0.00004841,-0.00003071,0.00000183,0.00000491,0.00
 000603,0.00002199,-0.00003381,-0.00005530,-0.00004922,0.00003811,0.000
 00500,0.00000634,-0.00006577,-0.00000020,0.00000817,-0.00002421,-0.000
 00087,0.00013270,0.00030636,-0.00002399,-0.00015760,-0.00006352,-0.000
 02023,-0.00012085,-0.00007765,-0.00000055,-0.00003057,-0.00009660,0.00
 004053,-0.00006500,-0.00010686,0.00001205,0.00005644,0.00007311,0.0000
 1666,-0.00009786,-0.00019700,0.00006470,0.00037765,-0.00071778,0.00019
 913,-0.00020721,0.00006506,-0.00012814,0.00001954,0.00025521,-0.000039
 99,-0.00208808,-0.00016173,0.00057992,-0.00149581,-0.00593494,-0.01026
 778,0.00128797,0.00129975,0.00062449,0.01983958,-0.13139308,-0.2004083
 4,0.00000280,0.00000913,-0.00000300,0.00000655,0.00000689,0.00000698,0
 .00000148,0.00000208,-0.00000561,-0.00002032,0.00000598,-0.00002445,0.
 00002546,0.00002064,-0.00003498,-0.00003163,-0.00008435,-0.00002631,0.
 00001013,-0.00046180,-0.00003837,-0.00033355,-0.00000410,0.00063677,-0
 .00020516,0.00035880,0.00026797,-0.00007662,-0.00019228,-0.00005161,-0
 .00002262,-0.00016167,0.00058172,0.00200780,-0.01674975,-0.01685194,-0
 .01828313,0.14691805,0.21676356,-0.00000498,-0.00000574,-0.00000182,-0
 .00001908,0.00007377,0.00011971,0.00003973,-0.00001703,-0.00004086,-0.
 00000269,-0.00001550,-0.00003762,-0.00000599,-0.00005071,-0.00003232,0
 .00000285,0.00000538,0.00000575,0.00003995,-0.00005096,-0.00007440,-0.
 00006903,0.00005737,0.00000962,0.00001614,-0.00008813,-0.00000792,0.00
 001047,-0.00003060,0.00000506,0.00011728,0.00043520,-0.00000807,-0.000
 23200,-0.00000476,-0.00004300,-0.00009877,-0.00011404,-0.00000759,-0.0
 0000911,-0.00013876,0.00005315,-0.00005868,-0.00016968,0.00002023,0.00
 012486,0.00002729,0.00008048,0.00016520,0.00019118,0.00013450,0.000293
 99,-0.00075004,0.00016720,0.00016139,0.00018669,-0.00004693,0.00001446
 ,0.00000306,-0.00020290,0.00014782,0.00362502,0.00393009,-0.03815531,0
 .01695980,-0.01541954,0.00237515,0.00398221,-0.00475822,-0.11897855,0.
 09955527,-0.03490842,-0.00000253,0.00000687,-0.00000306,0.00000693,0.0
 0000924,0.00000953,0.00000352,0.00000288,-0.00000053,0.00000118,0.0000
 1335,0.00000294,0.00003061,0.00001106,-0.00000983,-0.00005390,-0.00007
 636,0.00000641,0.00064068,-0.00190691,-0.00038208,-0.00008341,-0.00028
 549,-0.00033155,0.00026858,-0.00073234,0.00027973,0.00076743,-0.001782
 90,0.00124253,-0.00015711,-0.00004139,0.00028919,0.00893157,-0.0099449
 8,0.00331350,-0.00128908,0.00344546,-0.00051786,0.14506042,0.00000426,
 0.00000735,0.00000245,0.00003054,-0.00006794,-0.00008247,-0.00003908,0
 .00001633,0.00002765,-0.00000695,0.00002188,0.00002274,0.00000122,0.00
 004238,0.00002193,-0.00000268,-0.00000446,-0.00000358,-0.00003931,0.00
 004551,0.00006464,0.00006103,-0.00005263,-0.00000903,-0.00001412,0.000
 08250,0.00000960,-0.00000985,0.00002459,-0.00000954,-0.00008163,-0.000
 36883,0.00000660,0.00000940,0.00011091,-0.00003901,0.00006792,0.000092
 76,0.00000397,-0.00000183,0.00012516,-0.00004534,0.00002813,-0.0000501
 7,0.00004755,0.00011108,0.00006425,0.00000751,-0.00015258,-0.00024987,
 -0.00013301,-0.00011871,0.00005831,-0.00003621,0.00009637,-0.00006254,
 0.00006016,0.00009144,0.00015023,0.00014068,-0.00195456,0.00385672,-0.
 00061635,-0.00329333,0.01095433,-0.00187120,-0.00153225,0.00328226,-0.
 00165658,0.09633944,-0.19171780,0.05040677,0.00000568,-0.00000364,0.00
 000267,-0.00000499,-0.00000777,-0.00000742,0.00000022,-0.00000297,0.00
 000321,0.00000548,-0.00000050,0.00000597,-0.00001501,-0.00002032,0.000
 01337,0.00000522,0.00000528,-0.00004001,0.00118898,0.00037316,0.002029
 34,0.00012817,-0.00038014,0.00012304,0.00014547,0.00012692,-0.00007634
 ,0.00212211,-0.00003311,-0.00085076,0.00005560,-0.00051577,0.00006720,
 0.00797252,-0.01153459,0.00304637,0.01118137,-0.01666245,0.00717752,-0
 .11238478,0.20229467,-0.00000140,-0.00000301,-0.00000329,-0.00002838,0
 .00002403,0.00004384,0.00002806,-0.00000398,-0.00001414,0.00000643,-0.
 00000780,-0.00001179,0.00000316,-0.00001508,-0.00001168,0.00000156,0.0
 0000167,0.00000194,0.00002113,-0.00002391,-0.00003604,-0.00002988,0.00
 002829,0.00000833,0.00000965,-0.00003390,-0.00001145,0.00000662,-0.000
 01234,0.00000447,0.00002895,0.00016380,0.00004868,-0.00007291,-0.00000
 582,-0.00000072,-0.00002333,-0.00004460,-0.00001376,-0.00000260,-0.000
 05241,-0.00001138,-0.00001165,-0.00004240,0.00000319,0.00001305,-0.000
 03993,0.00005342,0.00020448,0.00026409,-0.00003399,0.00018839,-0.00047
 815,-0.00001519,0.00007789,0.00004280,-0.00002877,-0.00007250,-0.00017
 330,-0.00001073,-0.00099592,0.00306981,0.00171477,-0.01306531,0.004608
 68,-0.00413318,0.00182371,-0.00156115,0.00028502,-0.03436850,0.0515893
 5,-0.07199410,-0.00000498,-0.00000041,0.00000111,0.00000180,0.00000342
 ,0.00000392,0.00000004,-0.00000060,0.00000093,0.00001175,0.00000463,0.
 00001109,-0.00001484,0.00000285,0.00001354,-0.00000686,-0.00001713,0.0
 0001156,0.00032716,-0.00073535,0.00014233,0.00014116,0.00037743,-0.000
 24616,-0.00008271,-0.00003041,-0.00002073,-0.00062905,-0.00040208,0.00
 068060,-0.00017269,-0.00024112,0.00004089,-0.01481531,0.02052142,-0.00
 672680,0.01433894,-0.01896331,0.00817386,0.04716492,-0.05781408,0.0720
 8040\\0.00000962,-0.00000027,0.00000827,0.00000914,0.00000400,0.000000
 16,-0.00000430,-0.00000152,-0.00000169,-0.00000256,-0.00000286,-0.0000
 0175,0.00000183,0.00000131,-0.00000273,-0.00000153,0.00000008,-0.00000
 069,-0.00000503,-0.00000590,-0.00000392,0.00000526,0.00000499,-0.00000
 048,-0.00000571,0.00000301,-0.00000609,-0.00000177,0.00000097,0.000005
 62,-0.00000741,-0.00000797,0.00000371,0.00000154,-0.00000038,0.0000021
 5,0.00000727,-0.00000105,0.00000255,0.00000002,0.00000199,-0.00000449,
 0.00000073,0.00000360,-0.00000105,-0.00000205,-0.00000175,0.00000294,0
 .00000391,-0.00000268,-0.00000267,0.00000075,-0.00000008,0.00000153,-0
 .00000049,0.00000544,-0.00000194,-0.00000274,0.00000263,0.00000293,0.0
 0000077,-0.00000434,-0.00000434,-0.00000276,0.00000254,0.00000099,-0.0
 0000189,-0.00000180,0.00000299,0.00000413,-0.00000024,0.00000003,0.000
 00214,-0.00000159,-0.00000313,-0.00000126,-0.00000073,0.00000182,-0.00
 000148,-0.00000186,0.00000143,-0.00000236,-0.00000106,0.00000080,0.000
 00039,-0.00000171,0.00000028,-0.00000112,-0.00000095,0.00000077,-0.000
 00041,0.00000195,-0.00000054,-0.00000143,0.00000266,0.00000040,0.00000
 075,-0.00000017,0.00000010,0.00000059,0.00000071,-0.00000092,0.0000005
 6,-0.00000003,-0.00000063,-0.00000119,0.00000166,-0.00000057,-0.000000
 93,0.00000012,-0.00000053,-0.00000097,0.00000127,-0.00000130\\\@
 The archive entry for this job was punched.


 We find comfort among those who agree with us -- growth among those who don't.
 -- Frank A. Clark
 Job cpu time:       0 days  6 hours 29 minutes 20.4 seconds.
 Elapsed time:       0 days  0 hours 25 minutes 49.1 seconds.
 File lengths (MBytes):  RWF=    956 Int=      0 D2E=      0 Chk=     20 Scr=      1
 Normal termination of Gaussian 16 at Fri May 27 10:51:48 2022.
