 Entering Gaussian System, Link 0=g16
 AtFile(1): /home/561/yj5695/Basis/6-31pGd.gbs
 Initial command:
 /apps/gaussian/g16c01/g16/l1.exe "/jobfs/41454891.gadi-pbs/Gau-438460.inp" -scrdir="/jobfs/41454891.gadi-pbs/"
 Entering Link 1 = /apps/gaussian/g16c01/g16/l1.exe PID=    438467.
  
 Copyright (c) 1988-2019, Gaussian, Inc.  All Rights Reserved.
  
 This is part of the Gaussian(R) 16 program.  It is based on
 the Gaussian(R) 09 system (copyright 2009, Gaussian, Inc.),
 the Gaussian(R) 03 system (copyright 2003, Gaussian, Inc.),
 the Gaussian(R) 98 system (copyright 1998, Gaussian, Inc.),
 the Gaussian(R) 94 system (copyright 1995, Gaussian, Inc.),
 the Gaussian 92(TM) system (copyright 1992, Gaussian, Inc.),
 the Gaussian 90(TM) system (copyright 1990, Gaussian, Inc.),
 the Gaussian 88(TM) system (copyright 1988, Gaussian, Inc.),
 the Gaussian 86(TM) system (copyright 1986, Carnegie Mellon
 University), and the Gaussian 82(TM) system (copyright 1983,
 Carnegie Mellon University). Gaussian is a federally registered
 trademark of Gaussian, Inc.
  
 This software contains proprietary and confidential information,
 including trade secrets, belonging to Gaussian, Inc.
  
 This software is provided under written license and may be
 used, copied, transmitted, or stored only in accord with that
 written license.
  
 The following legend is applicable only to US Government
 contracts under FAR:
  
                    RESTRICTED RIGHTS LEGEND
  
 Use, reproduction and disclosure by the US Government is
 subject to restrictions as set forth in subparagraphs (a)
 and (c) of the Commercial Computer Software - Restricted
 Rights clause in FAR 52.227-19.
  
 Gaussian, Inc.
 340 Quinnipiac St., Bldg. 40, Wallingford CT 06492
  
  
 ---------------------------------------------------------------
 Warning -- This program may not be used in any manner that
 competes with the business of Gaussian, Inc. or will provide
 assistance to any competitor of Gaussian, Inc.  The licensee
 of this program is prohibited from giving any competitor of
 Gaussian, Inc. access to this program.  By using this program,
 the user acknowledges that Gaussian, Inc. is engaged in the
 business of creating and licensing software in the field of
 computational chemistry and represents and warrants to the
 licensee that it is not a competitor of Gaussian, Inc. and that
 it will not use this program in any manner prohibited above.
 ---------------------------------------------------------------
  

 Cite this work as:
 Gaussian 16, Revision C.01,
 M. J. Frisch, G. W. Trucks, H. B. Schlegel, G. E. Scuseria, 
 M. A. Robb, J. R. Cheeseman, G. Scalmani, V. Barone, 
 G. A. Petersson, H. Nakatsuji, X. Li, M. Caricato, A. V. Marenich, 
 J. Bloino, B. G. Janesko, R. Gomperts, B. Mennucci, H. P. Hratchian, 
 J. V. Ortiz, A. F. Izmaylov, J. L. Sonnenberg, D. Williams-Young, 
 F. Ding, F. Lipparini, F. Egidi, J. Goings, B. Peng, A. Petrone, 
 T. Henderson, D. Ranasinghe, V. G. Zakrzewski, J. Gao, N. Rega, 
 G. Zheng, W. Liang, M. Hada, M. Ehara, K. Toyota, R. Fukuda, 
 J. Hasegawa, M. Ishida, T. Nakajima, Y. Honda, O. Kitao, H. Nakai, 
 T. Vreven, K. Throssell, J. A. Montgomery, Jr., J. E. Peralta, 
 F. Ogliaro, M. J. Bearpark, J. J. Heyd, E. N. Brothers, K. N. Kudin, 
 V. N. Staroverov, T. A. Keith, R. Kobayashi, J. Normand, 
 K. Raghavachari, A. P. Rendell, J. C. Burant, S. S. Iyengar, 
 J. Tomasi, M. Cossi, J. M. Millam, M. Klene, C. Adamo, R. Cammi, 
 J. W. Ochterski, R. L. Martin, K. Morokuma, O. Farkas, 
 J. B. Foresman, and D. J. Fox, Gaussian, Inc., Wallingford CT, 2019.
 
 ******************************************
 Gaussian 16:  ES64L-G16RevC.01  3-Jul-2019
                27-May-2022 
 ******************************************
 %nproc=16
 Will use up to   16 processors via shared memory.
 %mem=40gb
 --------------------------------------------------
 #M062X/gen 6D INT(grid=ultrafine) OPT Freq=noraman
 --------------------------------------------------
 1/18=20,19=15,26=4,38=1/1,3;
 2/9=110,12=2,17=6,18=5,40=1/2;
 3/5=7,8=2,11=2,25=1,30=1,71=1,74=-55,75=-5/1,2,3;
 4//1;
 5/5=2,38=5/2;
 6/7=2,8=2,9=2,10=2,28=1/1;
 7//1,2,3,16;
 1/18=20,19=15,26=4/3(2);
 2/9=110/2;
 99//99;
 2/9=110/2;
 3/5=7,6=1,8=2,11=2,25=1,30=1,71=1,74=-55,75=-5,82=7/1,2,3;
 4/5=5,16=3,69=1/1;
 5/5=2,38=5/2;
 7//1,2,3,16;
 1/18=20,19=15,26=4/3(-5);
 2/9=110/2;
 6/7=2,8=2,9=2,10=2,19=2,28=1/1;
 99/9=1/99;
 --------------
 A.19.a1b2.freq
 --------------
 Symbolic Z-matrix:
 Charge = -1 Multiplicity = 1
 C                    -1.43582   1.28011  -1.89808 
 S                    -1.71959   1.44259  -0.14523 
 O                    -0.80313   2.53176   0.2795 
 O                    -3.16459   1.8024   -0.11617 
 N                    -1.32506   0.12633   0.58354 
 H                    -2.02641  -0.58506   0.3611 
 C                    -2.27295   1.30905  -2.96818 
 C                    -1.44165   1.05026  -4.11582 
 C                    -0.17813   0.8851   -3.60898 
 O                    -0.12858   1.01612  -2.26556 
 C                    -1.43985   0.92362  -5.54751 
 C                    -0.19319   0.67289  -6.03856 
 S                     1.04673   0.58609  -4.77983 
 H                    -3.33722   1.4949   -2.93197 
 H                    -2.31013   1.01245  -6.1888 
 C                     0.19458   0.45841  -7.46917 
 N                     1.1758    1.42977  -7.95842 
 C                     0.6195    2.78539  -7.9243 
 C                     1.60404   3.77743  -8.51442 
 O                     1.93988   3.43538  -9.85598 
 C                     2.48822   2.12185  -9.91003 
 C                     1.51516   1.10362  -9.34673 
 H                    -0.73442   0.50043  -8.06545 
 H                     0.62289  -0.54172  -7.60243 
 H                     0.40524   3.06884  -6.88904 
 H                    -0.32851   2.82678  -8.49262 
 H                     2.52171   3.80871  -7.90907 
 H                     1.1646    4.77679  -8.54491 
 H                     3.43246   2.10058  -9.34665 
 H                     2.69643   1.90963  -10.96097 
 H                     1.96745   0.10729  -9.38305 
 H                     0.60483   1.08908  -9.97398 
 

 GradGradGradGradGradGradGradGradGradGradGradGradGradGradGradGradGradGrad
 Berny optimization.
 Initialization pass.
                           ----------------------------
                           !    Initial Parameters    !
                           ! (Angstroms and Degrees)  !
 --------------------------                            --------------------------
 ! Name  Definition              Value          Derivative Info.                !
 --------------------------------------------------------------------------------
 ! R1    R(1,2)                  1.7831         estimate D2E/DX2                !
 ! R2    R(1,7)                  1.359          estimate D2E/DX2                !
 ! R3    R(1,10)                 1.3833         estimate D2E/DX2                !
 ! R4    R(2,3)                  1.4855         estimate D2E/DX2                !
 ! R5    R(2,4)                  1.4894         estimate D2E/DX2                !
 ! R6    R(2,5)                  1.5554         estimate D2E/DX2                !
 ! R7    R(5,6)                  1.0234         estimate D2E/DX2                !
 ! R8    R(7,8)                  1.4405         estimate D2E/DX2                !
 ! R9    R(7,14)                 1.081          estimate D2E/DX2                !
 ! R10   R(8,9)                  1.3714         estimate D2E/DX2                !
 ! R11   R(8,11)                 1.4373         estimate D2E/DX2                !
 ! R12   R(9,10)                 1.3507         estimate D2E/DX2                !
 ! R13   R(9,13)                 1.7206         estimate D2E/DX2                !
 ! R14   R(11,12)                1.3631         estimate D2E/DX2                !
 ! R15   R(11,15)                1.0847         estimate D2E/DX2                !
 ! R16   R(12,13)                1.769          estimate D2E/DX2                !
 ! R17   R(12,16)                1.4977         estimate D2E/DX2                !
 ! R18   R(16,17)                1.4648         estimate D2E/DX2                !
 ! R19   R(16,23)                1.1047         estimate D2E/DX2                !
 ! R20   R(16,24)                1.0961         estimate D2E/DX2                !
 ! R21   R(17,18)                1.4657         estimate D2E/DX2                !
 ! R22   R(17,22)                1.4659         estimate D2E/DX2                !
 ! R23   R(18,19)                1.5171         estimate D2E/DX2                !
 ! R24   R(18,25)                1.0945         estimate D2E/DX2                !
 ! R25   R(18,26)                1.1061         estimate D2E/DX2                !
 ! R26   R(19,20)                1.4246         estimate D2E/DX2                !
 ! R27   R(19,27)                1.0998         estimate D2E/DX2                !
 ! R28   R(19,28)                1.0921         estimate D2E/DX2                !
 ! R29   R(20,21)                1.4244         estimate D2E/DX2                !
 ! R30   R(21,22)                1.5169         estimate D2E/DX2                !
 ! R31   R(21,29)                1.0997         estimate D2E/DX2                !
 ! R32   R(21,30)                1.0922         estimate D2E/DX2                !
 ! R33   R(22,31)                1.0948         estimate D2E/DX2                !
 ! R34   R(22,32)                1.1056         estimate D2E/DX2                !
 ! A1    A(2,1,7)              132.3856         estimate D2E/DX2                !
 ! A2    A(2,1,10)             115.3995         estimate D2E/DX2                !
 ! A3    A(7,1,10)             112.1483         estimate D2E/DX2                !
 ! A4    A(1,2,3)              104.46           estimate D2E/DX2                !
 ! A5    A(1,2,4)              101.2795         estimate D2E/DX2                !
 ! A6    A(1,2,5)              110.0671         estimate D2E/DX2                !
 ! A7    A(3,2,4)              114.5728         estimate D2E/DX2                !
 ! A8    A(3,2,5)              109.2707         estimate D2E/DX2                !
 ! A9    A(4,2,5)              116.1916         estimate D2E/DX2                !
 ! A10   A(2,5,6)              108.2137         estimate D2E/DX2                !
 ! A11   A(1,7,8)              105.5467         estimate D2E/DX2                !
 ! A12   A(1,7,14)             125.7161         estimate D2E/DX2                !
 ! A13   A(8,7,14)             128.7367         estimate D2E/DX2                !
 ! A14   A(7,8,9)              105.0045         estimate D2E/DX2                !
 ! A15   A(7,8,11)             144.1088         estimate D2E/DX2                !
 ! A16   A(9,8,11)             110.8784         estimate D2E/DX2                !
 ! A17   A(8,9,10)             112.9365         estimate D2E/DX2                !
 ! A18   A(8,9,13)             115.1706         estimate D2E/DX2                !
 ! A19   A(10,9,13)            131.8785         estimate D2E/DX2                !
 ! A20   A(1,10,9)             104.3633         estimate D2E/DX2                !
 ! A21   A(8,11,12)            112.0976         estimate D2E/DX2                !
 ! A22   A(8,11,15)            125.5001         estimate D2E/DX2                !
 ! A23   A(12,11,15)           122.4023         estimate D2E/DX2                !
 ! A24   A(11,12,13)           113.1865         estimate D2E/DX2                !
 ! A25   A(11,12,16)           127.3899         estimate D2E/DX2                !
 ! A26   A(13,12,16)           119.4185         estimate D2E/DX2                !
 ! A27   A(9,13,12)             88.6652         estimate D2E/DX2                !
 ! A28   A(12,16,17)           113.423          estimate D2E/DX2                !
 ! A29   A(12,16,23)           107.0029         estimate D2E/DX2                !
 ! A30   A(12,16,24)           110.3629         estimate D2E/DX2                !
 ! A31   A(17,16,23)           110.9661         estimate D2E/DX2                !
 ! A32   A(17,16,24)           107.6198         estimate D2E/DX2                !
 ! A33   A(23,16,24)           107.3191         estimate D2E/DX2                !
 ! A34   A(16,17,18)           110.5669         estimate D2E/DX2                !
 ! A35   A(16,17,22)           108.8959         estimate D2E/DX2                !
 ! A36   A(18,17,22)           108.4018         estimate D2E/DX2                !
 ! A37   A(17,18,19)           110.4519         estimate D2E/DX2                !
 ! A38   A(17,18,25)           109.6227         estimate D2E/DX2                !
 ! A39   A(17,18,26)           110.362          estimate D2E/DX2                !
 ! A40   A(19,18,25)           109.0019         estimate D2E/DX2                !
 ! A41   A(19,18,26)           109.3828         estimate D2E/DX2                !
 ! A42   A(25,18,26)           107.9695         estimate D2E/DX2                !
 ! A43   A(18,19,20)           111.2394         estimate D2E/DX2                !
 ! A44   A(18,19,27)           110.2417         estimate D2E/DX2                !
 ! A45   A(18,19,28)           110.3703         estimate D2E/DX2                !
 ! A46   A(20,19,27)           109.1754         estimate D2E/DX2                !
 ! A47   A(20,19,28)           106.7537         estimate D2E/DX2                !
 ! A48   A(27,19,28)           108.9709         estimate D2E/DX2                !
 ! A49   A(19,20,21)           110.358          estimate D2E/DX2                !
 ! A50   A(20,21,22)           110.9757         estimate D2E/DX2                !
 ! A51   A(20,21,29)           109.2037         estimate D2E/DX2                !
 ! A52   A(20,21,30)           106.8031         estimate D2E/DX2                !
 ! A53   A(22,21,29)           110.3382         estimate D2E/DX2                !
 ! A54   A(22,21,30)           110.4373         estimate D2E/DX2                !
 ! A55   A(29,21,30)           108.9955         estimate D2E/DX2                !
 ! A56   A(17,22,21)           110.539          estimate D2E/DX2                !
 ! A57   A(17,22,31)           109.2409         estimate D2E/DX2                !
 ! A58   A(17,22,32)           110.4638         estimate D2E/DX2                !
 ! A59   A(21,22,31)           109.4845         estimate D2E/DX2                !
 ! A60   A(21,22,32)           109.0463         estimate D2E/DX2                !
 ! A61   A(31,22,32)           108.0214         estimate D2E/DX2                !
 ! D1    D(7,1,2,3)           -126.085          estimate D2E/DX2                !
 ! D2    D(7,1,2,4)             -6.7876         estimate D2E/DX2                !
 ! D3    D(7,1,2,5)            116.7177         estimate D2E/DX2                !
 ! D4    D(10,1,2,3)            57.1695         estimate D2E/DX2                !
 ! D5    D(10,1,2,4)           176.467          estimate D2E/DX2                !
 ! D6    D(10,1,2,5)           -60.0278         estimate D2E/DX2                !
 ! D7    D(2,1,7,8)           -177.1165         estimate D2E/DX2                !
 ! D8    D(2,1,7,14)             3.1198         estimate D2E/DX2                !
 ! D9    D(10,1,7,8)            -0.2906         estimate D2E/DX2                !
 ! D10   D(10,1,7,14)          179.9457         estimate D2E/DX2                !
 ! D11   D(2,1,10,9)           177.6052         estimate D2E/DX2                !
 ! D12   D(7,1,10,9)             0.2001         estimate D2E/DX2                !
 ! D13   D(1,2,5,6)            -72.0357         estimate D2E/DX2                !
 ! D14   D(3,2,5,6)            173.8012         estimate D2E/DX2                !
 ! D15   D(4,2,5,6)             42.279          estimate D2E/DX2                !
 ! D16   D(1,7,8,9)              0.2597         estimate D2E/DX2                !
 ! D17   D(1,7,8,11)          -178.4866         estimate D2E/DX2                !
 ! D18   D(14,7,8,9)          -179.9862         estimate D2E/DX2                !
 ! D19   D(14,7,8,11)            1.2675         estimate D2E/DX2                !
 ! D20   D(7,8,9,10)            -0.1506         estimate D2E/DX2                !
 ! D21   D(7,8,9,13)          -178.9326         estimate D2E/DX2                !
 ! D22   D(11,8,9,10)          179.0628         estimate D2E/DX2                !
 ! D23   D(11,8,9,13)            0.2808         estimate D2E/DX2                !
 ! D24   D(7,8,11,12)          178.7182         estimate D2E/DX2                !
 ! D25   D(7,8,11,15)           -1.2419         estimate D2E/DX2                !
 ! D26   D(9,8,11,12)            0.0143         estimate D2E/DX2                !
 ! D27   D(9,8,11,15)         -179.9458         estimate D2E/DX2                !
 ! D28   D(8,9,10,1)            -0.0197         estimate D2E/DX2                !
 ! D29   D(13,9,10,1)          178.4997         estimate D2E/DX2                !
 ! D30   D(8,9,13,12)           -0.371          estimate D2E/DX2                !
 ! D31   D(10,9,13,12)        -178.8643         estimate D2E/DX2                !
 ! D32   D(8,11,12,13)          -0.291          estimate D2E/DX2                !
 ! D33   D(8,11,12,16)         178.8773         estimate D2E/DX2                !
 ! D34   D(15,11,12,13)        179.6705         estimate D2E/DX2                !
 ! D35   D(15,11,12,16)         -1.1612         estimate D2E/DX2                !
 ! D36   D(11,12,13,9)           0.3728         estimate D2E/DX2                !
 ! D37   D(16,12,13,9)        -178.8686         estimate D2E/DX2                !
 ! D38   D(11,12,16,17)        120.4596         estimate D2E/DX2                !
 ! D39   D(11,12,16,23)         -2.2407         estimate D2E/DX2                !
 ! D40   D(11,12,16,24)       -118.6989         estimate D2E/DX2                !
 ! D41   D(13,12,16,17)        -60.4181         estimate D2E/DX2                !
 ! D42   D(13,12,16,23)        176.8817         estimate D2E/DX2                !
 ! D43   D(13,12,16,24)         60.4235         estimate D2E/DX2                !
 ! D44   D(12,16,17,18)        -62.8075         estimate D2E/DX2                !
 ! D45   D(12,16,17,22)        178.1925         estimate D2E/DX2                !
 ! D46   D(23,16,17,18)         57.6751         estimate D2E/DX2                !
 ! D47   D(23,16,17,22)        -61.3248         estimate D2E/DX2                !
 ! D48   D(24,16,17,18)        174.8167         estimate D2E/DX2                !
 ! D49   D(24,16,17,22)         55.8168         estimate D2E/DX2                !
 ! D50   D(16,17,18,19)       -176.3596         estimate D2E/DX2                !
 ! D51   D(16,17,18,25)         63.5152         estimate D2E/DX2                !
 ! D52   D(16,17,18,26)        -55.2804         estimate D2E/DX2                !
 ! D53   D(22,17,18,19)        -57.0607         estimate D2E/DX2                !
 ! D54   D(22,17,18,25)       -177.1859         estimate D2E/DX2                !
 ! D55   D(22,17,18,26)         64.0185         estimate D2E/DX2                !
 ! D56   D(16,17,22,21)        177.6864         estimate D2E/DX2                !
 ! D57   D(16,17,22,31)        -61.7804         estimate D2E/DX2                !
 ! D58   D(16,17,22,32)         56.9048         estimate D2E/DX2                !
 ! D59   D(18,17,22,21)         57.3419         estimate D2E/DX2                !
 ! D60   D(18,17,22,31)        177.875          estimate D2E/DX2                !
 ! D61   D(18,17,22,32)        -63.4398         estimate D2E/DX2                !
 ! D62   D(17,18,19,20)         58.213          estimate D2E/DX2                !
 ! D63   D(17,18,19,27)        -63.0466         estimate D2E/DX2                !
 ! D64   D(17,18,19,28)        176.521          estimate D2E/DX2                !
 ! D65   D(25,18,19,20)        178.7103         estimate D2E/DX2                !
 ! D66   D(25,18,19,27)         57.4507         estimate D2E/DX2                !
 ! D67   D(25,18,19,28)        -62.9817         estimate D2E/DX2                !
 ! D68   D(26,18,19,20)        -63.4468         estimate D2E/DX2                !
 ! D69   D(26,18,19,27)        175.2936         estimate D2E/DX2                !
 ! D70   D(26,18,19,28)         54.8612         estimate D2E/DX2                !
 ! D71   D(18,19,20,21)        -57.8943         estimate D2E/DX2                !
 ! D72   D(27,19,20,21)         63.987          estimate D2E/DX2                !
 ! D73   D(28,19,20,21)       -178.3592         estimate D2E/DX2                !
 ! D74   D(19,20,21,22)         57.9702         estimate D2E/DX2                !
 ! D75   D(19,20,21,29)        -63.8796         estimate D2E/DX2                !
 ! D76   D(19,20,21,30)        178.3954         estimate D2E/DX2                !
 ! D77   D(20,21,22,17)        -58.5808         estimate D2E/DX2                !
 ! D78   D(20,21,22,31)       -178.9684         estimate D2E/DX2                !
 ! D79   D(20,21,22,32)         63.0414         estimate D2E/DX2                !
 ! D80   D(29,21,22,17)         62.604          estimate D2E/DX2                !
 ! D81   D(29,21,22,31)        -57.7837         estimate D2E/DX2                !
 ! D82   D(29,21,22,32)       -175.7738         estimate D2E/DX2                !
 ! D83   D(30,21,22,17)       -176.8268         estimate D2E/DX2                !
 ! D84   D(30,21,22,31)         62.7856         estimate D2E/DX2                !
 ! D85   D(30,21,22,32)        -55.2046         estimate D2E/DX2                !
 --------------------------------------------------------------------------------
 Trust Radius=3.00D-01 FncErr=1.00D-07 GrdErr=1.00D-06 EigMax=2.50D+02 EigMin=1.00D-04
 Number of steps in this run=    190 maximum allowed number of steps=    192.
 GradGradGradGradGradGradGradGradGradGradGradGradGradGradGradGradGradGrad

                          Input orientation:                          
 ---------------------------------------------------------------------
 Center     Atomic      Atomic             Coordinates (Angstroms)
 Number     Number       Type             X           Y           Z
 ---------------------------------------------------------------------
      1          6           0       -1.435818    1.280110   -1.898079
      2         16           0       -1.719587    1.442588   -0.145235
      3          8           0       -0.803127    2.531763    0.279496
      4          8           0       -3.164590    1.802395   -0.116170
      5          7           0       -1.325064    0.126330    0.583543
      6          1           0       -2.026410   -0.585055    0.361101
      7          6           0       -2.272952    1.309051   -2.968183
      8          6           0       -1.441647    1.050257   -4.115817
      9          6           0       -0.178129    0.885099   -3.608976
     10          8           0       -0.128584    1.016118   -2.265565
     11          6           0       -1.439846    0.923623   -5.547507
     12          6           0       -0.193191    0.672890   -6.038557
     13         16           0        1.046731    0.586085   -4.779830
     14          1           0       -3.337223    1.494903   -2.931966
     15          1           0       -2.310128    1.012446   -6.188797
     16          6           0        0.194577    0.458415   -7.469170
     17          7           0        1.175800    1.429769   -7.958416
     18          6           0        0.619503    2.785389   -7.924302
     19          6           0        1.604042    3.777434   -8.514418
     20          8           0        1.939876    3.435382   -9.855981
     21          6           0        2.488219    2.121855   -9.910026
     22          6           0        1.515158    1.103620   -9.346725
     23          1           0       -0.734420    0.500434   -8.065451
     24          1           0        0.622892   -0.541724   -7.602426
     25          1           0        0.405239    3.068838   -6.889037
     26          1           0       -0.328510    2.826781   -8.492620
     27          1           0        2.521712    3.808712   -7.909065
     28          1           0        1.164595    4.776790   -8.544915
     29          1           0        3.432458    2.100583   -9.346653
     30          1           0        2.696428    1.909627  -10.960969
     31          1           0        1.967455    0.107294   -9.383050
     32          1           0        0.604828    1.089077   -9.973977
 ---------------------------------------------------------------------
                    Distance matrix (angstroms):
                    1          2          3          4          5
     1  C    0.000000
     2  S    1.783084   0.000000
     3  O    2.590129   1.485462   0.000000
     4  O    2.537053   1.489410   2.503006   0.000000
     5  N    2.738964   1.555409   2.480115   2.585082   0.000000
     6  H    2.988568   2.112309   3.349274   2.687594   1.023443
     7  C    1.358953   2.879771   3.768664   3.028594   3.861616
     8  C    2.229625   3.999588   4.682024   4.419437   4.790743
     9  C    2.159857   3.832022   4.268763   4.686158   4.412302
    10  O    1.383329   2.684952   3.038013   3.802035   3.215696
    11  C    3.666800   5.434347   6.078280   5.765970   6.183739
    12  C    4.365363   6.136250   6.614017   6.721582   6.740332
    13  S    3.866421   5.464942   5.727514   6.400341   5.882394
    14  H    2.174948   3.222632   4.220214   2.837792   4.275580
    15  H    4.387062   6.087561   6.813089   6.183115   6.900734
    16  C    5.862629   7.633652   8.083069   8.194931   8.201571
    17  N    6.600805   8.332421   8.543637   8.970990   8.995462
    18  C    6.542596   8.233368   8.330096   8.732271   9.123341
    19  C    7.697617   9.302755   9.202124   9.857545  10.231476
    20  O    8.908912  10.567001  10.538904  11.116930  11.427743
    21  C    8.960909  10.654492  10.715752  11.312645  11.341880
    22  C    8.013846   9.759401  10.003908  10.372631  10.374593
    23  H    6.255903   8.036668   8.588897   8.413792   8.677206
    24  H    6.332215   8.064391   8.579309   8.711139   8.441026
    25  H    5.612370   7.255236   7.289476   7.760109   8.215336
    26  H    6.863402   8.574959   8.789898   8.902675   9.521674
    27  H    7.628094   9.157741   8.929596   9.853352  10.024072
    28  H    7.947914   9.486308   9.315702   9.931395  10.542956
    29  H    8.936137  10.566108  10.525628  11.349528  11.186621
    30  H    9.980367  11.691853  11.789062  12.327721  12.354283
    31  H    8.305574  10.035663  10.340163  10.727830  10.496381
    32  H    8.331917  10.106040  10.449755  10.577981  10.775555
                    6          7          8          9         10
     6  H    0.000000
     7  C    3.838300   0.000000
     8  C    4.801978   1.440523   0.000000
     9  C    4.619416   2.231286   1.371366   0.000000
    10  O    3.614536   2.275478   2.269083   1.350694   0.000000
    11  C    6.126321   2.737798   1.437281   2.313292   3.535408
    12  C    6.774861   3.762619   2.323355   2.438877   3.789123
    13  S    6.102863   3.850330   2.616944   1.720637   2.808527
    14  H    4.109592   1.080984   2.278689   3.287869   3.311902
    15  H    6.747863   3.234457   2.247872   3.349195   4.488975
    16  C    8.205775   5.202996   3.777894   3.901546   5.243374
    17  N    9.139367   6.067198   4.664828   4.587746   5.855005
    18  C    9.327842   5.925284   4.665145   4.782191   5.975890
    19  C   10.535004   7.203105   6.005115   5.967000   7.048051
    20  O   11.674078   8.349310   7.076228   7.072126   8.230783
    21  C   11.541459   8.456867   7.082728   6.952856   8.155250
    22  C   10.470731   7.421441   6.008988   5.986379   7.269964
    23  H    8.593852   5.385451   4.049948   4.507504   5.854199
    24  H    8.392761   5.769532   4.353524   4.315681   5.610141
    25  H    8.475161   5.063858   3.895691   3.983445   5.086760
    26  H    9.639080   6.050105   4.852990   5.257634   6.488042
    27  H   10.410872   7.324577   6.140523   5.858960   6.831672
    28  H   10.874236   7.412280   6.347949   6.427415   7.432712
    29  H   11.456544   8.594366   7.226461   6.887284   7.999931
    30  H   12.518702   9.430804   8.044768   7.960184   9.186354
    31  H   10.553615   7.783046   6.344675   6.208739   7.475155
    32  H   10.795367   7.577015   6.205449   6.416218   7.743567
                   11         12         13         14         15
    11  C    0.000000
    12  C    1.363138   0.000000
    13  S    2.624181   1.768993   0.000000
    14  H    3.281380   4.495726   4.843512   0.000000
    15  H    1.084680   2.149253   3.665443   3.448860   0.000000
    16  C    2.565257   1.497670   2.824007   5.842443   2.867028
    17  N    3.593086   2.476461   3.291181   6.755503   3.931590
    18  C    3.654619   2.946041   3.860979   6.499573   3.839015
    19  C    5.119771   4.358684   4.943930   7.796782   5.326762
    20  O    6.024484   5.172433   5.889271   8.919373   6.114032
    21  C    5.991413   4.927244   5.545754   9.111650   6.172720
    22  C    4.816483   3.748061   4.619935   8.052816   4.961213
    23  H    2.648915   2.104986   3.738334   5.840909   2.503366
    24  H    3.259574   2.141720   3.068981   6.453182   3.607825
    25  H    3.131452   2.611896   3.320291   5.669365   3.477398
    26  H    3.678419   3.268024   4.549375   6.461201   3.539240
    27  H    5.440095   4.550042   4.727896   8.028222   5.841669
    28  H    5.533034   4.996740   5.634870   7.908372   5.638730
    29  H    6.289523   5.111472   5.370407   9.345783   6.643297
    30  H    6.883788   5.840339   6.532973  10.051957   6.974537
    31  H    5.194948   4.021682   4.718751   8.466496   5.414819
    32  H    4.878698   4.037025   5.237121   8.080493   4.778120
                   16         17         18         19         20
    16  C    0.000000
    17  N    1.464817   0.000000
    18  C    2.408841   1.465720   0.000000
    19  C    3.754334   2.450318   1.517138   0.000000
    20  O    4.195864   2.864795   2.428428   1.424632   0.000000
    21  C    3.739734   2.451573   2.806328   2.338896   1.424414
    22  C    2.384416   1.465926   2.377778   2.801770   2.424219
    23  H    1.104696   2.126983   2.659708   4.050766   4.355660
    24  H    1.096124   2.078273   3.342647   4.522113   4.757134
    25  H    2.682395   2.103303   1.094544   2.140350   3.360390
    26  H    2.632533   2.121312   1.106086   2.153828   2.715644
    27  H    4.102872   2.733731   2.160051   1.099794   2.066008
    28  H    4.554836   3.398037   2.155914   1.092134   2.029613
    29  H    4.087241   2.733076   3.225641   2.616782   2.066133
    30  H    4.534086   3.399691   3.781789   3.266133   2.030098
    31  H    2.632360   2.098866   3.334234   3.789000   3.361636
    32  H    2.615358   2.122396   2.660612   3.218074   2.702114
                   21         22         23         24         25
    21  C    0.000000
    22  C    1.516891   0.000000
    23  H    4.051773   2.658214   0.000000
    24  H    3.987369   2.558491   1.772789   0.000000
    25  H    3.789718   3.336800   3.046222   3.686795   0.000000
    26  H    3.231088   2.664187   2.399818   3.611708   1.780016
    27  H    2.617337   3.224521   4.644519   4.756662   2.463195
    28  H    3.265607   3.775973   4.703548   5.428473   2.497129
    29  H    1.099740   2.161013   4.643795   4.232940   4.017643
    30  H    1.092187   2.156578   4.705377   4.646341   4.813933
    31  H    2.146475   1.094787   3.031626   2.323724   4.175089
    32  H    2.148926   1.105602   2.404695   2.878209   3.670987
                   26         27         28         29         30
    26  H    0.000000
    27  H    3.070584   0.000000
    28  H    2.456549   1.784165   0.000000
    29  H    3.924490   2.411187   3.598342   0.000000
    30  H    4.010508   3.598773   4.050241   1.784438   0.000000
    31  H    3.668778   4.022478   4.811574   2.474018   2.503924
    32  H    2.466810   3.915957   3.994344   3.067927   2.454027
                   31         32
    31  H    0.000000
    32  H    1.780405   0.000000
 Stoichiometry    C11H13N2O4S2(1-)
 Framework group  C1[X(C11H13N2O4S2)]
 Deg. of freedom    90
 Full point group                 C1      NOp   1
 Largest Abelian subgroup         C1      NOp   1
 Largest concise Abelian subgroup C1      NOp   1
                         Standard orientation:                         
 ---------------------------------------------------------------------
 Center     Atomic      Atomic             Coordinates (Angstroms)
 Number     Number       Type             X           Y           Z
 ---------------------------------------------------------------------
      1          6           0        3.002343    0.033129    0.221260
      2         16           0        4.719409    0.414756   -0.071030
      3          8           0        4.690424    1.668681   -0.866911
      4          8           0        5.223020    0.576393    1.321304
      5          7           0        5.380810   -0.712945   -0.913726
      6          1           0        5.487184   -1.537637   -0.317066
      7          6           0        2.298746   -0.210790    1.358012
      8          6           0        0.960880   -0.522778    0.924554
      9          6           0        1.002217   -0.438514   -0.443596
     10          8           0        2.223373   -0.103604   -0.913689
     11          6           0       -0.360995   -0.859593    1.377300
     12          6           0       -1.234862   -1.009902    0.341970
     13         16           0       -0.492417   -0.740204   -1.240867
     14          1           0        2.690794   -0.167077    2.364448
     15          1           0       -0.659199   -0.985529    2.412552
     16          6           0       -2.683789   -1.380479    0.421346
     17          7           0       -3.575664   -0.369207   -0.150996
     18          6           0       -3.473332    0.888708    0.594331
     19          6           0       -4.462212    1.905690    0.056212
     20          8           0       -5.798068    1.416374    0.131264
     21          6           0       -5.920055    0.195653   -0.592557
     22          6           0       -4.957762   -0.849423   -0.060799
     23          1           0       -2.915026   -1.553498    1.487622
     24          1           0       -2.866238   -2.322198   -0.109093
     25          1           0       -2.460122    1.291466    0.498323
     26          1           0       -3.671766    0.716668    1.668785
     27          1           0       -4.225329    2.150332   -0.989534
     28          1           0       -4.428226    2.820777    0.651374
     29          1           0       -5.726760    0.386159   -1.658283
     30          1           0       -6.952331   -0.140485   -0.473025
     31          1           0       -5.058779   -1.769748   -0.645056
     32          1           0       -5.219176   -1.079938    0.988430
 ---------------------------------------------------------------------
 Rotational constants (GHZ):           1.0873588           0.1108216           0.1096262
 General basis read from cards:  (6D, 7F)
 There are   395 symmetry adapted cartesian basis functions of A   symmetry.
 There are   395 symmetry adapted basis functions of A   symmetry.
   395 basis functions,   708 primitive gaussians,   395 cartesian basis functions
    79 alpha electrons       79 beta electrons
       nuclear repulsion energy      1701.2268018246 Hartrees.
 NAtoms=   32 NActive=   32 NUniq=   32 SFac= 1.00D+00 NAtFMM=   60 NAOKFM=F Big=F
 Integral buffers will be    131072 words long.
 Raffenetti 2 integral format.
 Two-electron integral symmetry is turned on.
 One-electron integrals computed using PRISM.
 NBasis=   395 RedAO= T EigKep=  1.84D-06  NBF=   395
 NBsUse=   394 1.00D-06 EigRej=  4.60D-07 NBFU=   394
 ExpMin= 4.05D-02 ExpMax= 2.19D+04 ExpMxC= 3.30D+03 IAcc=3 IRadAn=         5 AccDes= 0.00D+00
 Harris functional with IExCor= 1009 and IRadAn=       5 diagonalized for initial guess.
 HarFok:  IExCor= 1009 AccDes= 0.00D+00 IRadAn=         5 IDoV= 1 UseB2=F ITyADJ=14
 ICtDFT=  3500011 ScaDFX=  1.000000  1.000000  1.000000  1.000000
 FoFCou: FMM=F IPFlag=           0 FMFlag=      100000 FMFlg1=           0
         NFxFlg=           0 DoJE=T BraDBF=F KetDBF=T FulRan=T
         wScrn=  0.000000 ICntrl=       500 IOpCl=  0 I1Cent=   200000004 NGrid=           0
         NMat0=    1 NMatS0=      1 NMatT0=    0 NMatD0=    1 NMtDS0=    0 NMtDT0=    0
 Petite list used in FoFCou.
 Requested convergence on RMS density matrix=1.00D-08 within 128 cycles.
 Requested convergence on MAX density matrix=1.00D-06.
 Requested convergence on             energy=1.00D-06.
 No special actions if energy rises.
 SCF Done:  E(RM062X) =  -1633.31603460     A.U. after   16 cycles
            NFock= 16  Conv=0.79D-08     -V/T= 2.0059

 **********************************************************************

            Population analysis using the SCF Density.

 **********************************************************************

 Orbital symmetries:
       Occupied  (A) (A) (A) (A) (A) (A) (A) (A) (A) (A) (A) (A)
                 (A) (A) (A) (A) (A) (A) (A) (A) (A) (A) (A) (A)
                 (A) (A) (A) (A) (A) (A) (A) (A) (A) (A) (A) (A)
                 (A) (A) (A) (A) (A) (A) (A) (A) (A) (A) (A) (A)
                 (A) (A) (A) (A) (A) (A) (A) (A) (A) (A) (A) (A)
                 (A) (A) (A) (A) (A) (A) (A) (A) (A) (A) (A) (A)
                 (A) (A) (A) (A) (A) (A) (A)
       Virtual   (A) (A) (A) (A) (A) (A) (A) (A) (A) (A) (A) (A)
                 (A) (A) (A) (A) (A) (A) (A) (A) (A) (A) (A) (A)
                 (A) (A) (A) (A) (A) (A) (A) (A) (A) (A) (A) (A)
                 (A) (A) (A) (A) (A) (A) (A) (A) (A) (A) (A) (A)
                 (A) (A) (A) (A) (A) (A) (A) (A) (A) (A) (A) (A)
                 (A) (A) (A) (A) (A) (A) (A) (A) (A) (A) (A) (A)
                 (A) (A) (A) (A) (A) (A) (A) (A) (A) (A) (A) (A)
                 (A) (A) (A) (A) (A) (A) (A) (A) (A) (A) (A) (A)
                 (A) (A) (A) (A) (A) (A) (A) (A) (A) (A) (A) (A)
                 (A) (A) (A) (A) (A) (A) (A) (A) (A) (A) (A) (A)
                 (A) (A) (A) (A) (A) (A) (A) (A) (A) (A) (A) (A)
                 (A) (A) (A) (A) (A) (A) (A) (A) (A) (A) (A) (A)
                 (A) (A) (A) (A) (A) (A) (A) (A) (A) (A) (A) (A)
                 (A) (A) (A) (A) (A) (A) (A) (A) (A) (A) (A) (A)
                 (A) (A) (A) (A) (A) (A) (A) (A) (A) (A) (A) (A)
                 (A) (A) (A) (A) (A) (A) (A) (A) (A) (A) (A) (A)
                 (A) (A) (A) (A) (A) (A) (A) (A) (A) (A) (A) (A)
                 (A) (A) (A) (A) (A) (A) (A) (A) (A) (A) (A) (A)
                 (A) (A) (A) (A) (A) (A) (A) (A) (A) (A) (A) (A)
                 (A) (A) (A) (A) (A) (A) (A) (A) (A) (A) (A) (A)
                 (A) (A) (A) (A) (A) (A) (A) (A) (A) (A) (A) (A)
                 (A) (A) (A) (A) (A) (A) (A) (A) (A) (A) (A) (A)
                 (A) (A) (A) (A) (A) (A) (A) (A) (A) (A) (A) (A)
                 (A) (A) (A) (A) (A) (A) (A) (A) (A) (A) (A) (A)
                 (A) (A) (A) (A) (A) (A) (A) (A) (A) (A) (A) (A)
                 (A) (A) (A) (A) (A) (A) (A) (A) (A) (A) (A) (A)
                 (A) (A) (A)
 The electronic state is 1-A.
 Alpha  occ. eigenvalues --  -89.97760 -89.87266 -19.61409 -19.59243 -19.45435
 Alpha  occ. eigenvalues --  -19.44810 -14.70410 -14.56130 -10.54065 -10.53491
 Alpha  occ. eigenvalues --  -10.53050 -10.52139 -10.51861 -10.50876 -10.50416
 Alpha  occ. eigenvalues --  -10.49752 -10.48108 -10.46033 -10.44838  -8.28520
 Alpha  occ. eigenvalues --   -8.21628  -6.20736  -6.20717  -6.20616  -6.13645
 Alpha  occ. eigenvalues --   -6.13453  -6.13140  -1.13825  -1.10560  -1.04152
 Alpha  occ. eigenvalues --   -0.98242  -0.92248  -0.89563  -0.81700  -0.80498
 Alpha  occ. eigenvalues --   -0.80214  -0.78137  -0.73358  -0.71366  -0.68596
 Alpha  occ. eigenvalues --   -0.67200  -0.59816  -0.58666  -0.56218  -0.54847
 Alpha  occ. eigenvalues --   -0.52157  -0.50718  -0.49160  -0.48700  -0.48098
 Alpha  occ. eigenvalues --   -0.47718  -0.45998  -0.44388  -0.43633  -0.42467
 Alpha  occ. eigenvalues --   -0.42136  -0.39741  -0.39192  -0.37949  -0.37024
 Alpha  occ. eigenvalues --   -0.36832  -0.36575  -0.35241  -0.34590  -0.33733
 Alpha  occ. eigenvalues --   -0.32935  -0.31910  -0.31423  -0.27252  -0.25868
 Alpha  occ. eigenvalues --   -0.24878  -0.23386  -0.22318  -0.20816  -0.19615
 Alpha  occ. eigenvalues --   -0.19371  -0.17581  -0.16054  -0.13157
 Alpha virt. eigenvalues --    0.07562   0.08161   0.08660   0.09267   0.09919
 Alpha virt. eigenvalues --    0.10290   0.11364   0.11755   0.12024   0.12203
 Alpha virt. eigenvalues --    0.12589   0.13444   0.14257   0.14542   0.14729
 Alpha virt. eigenvalues --    0.15115   0.15460   0.16169   0.16501   0.16658
 Alpha virt. eigenvalues --    0.17596   0.17946   0.18630   0.19021   0.19353
 Alpha virt. eigenvalues --    0.19910   0.20109   0.20407   0.21028   0.21427
 Alpha virt. eigenvalues --    0.21546   0.22071   0.23271   0.23559   0.24086
 Alpha virt. eigenvalues --    0.24310   0.24684   0.24980   0.25832   0.26082
 Alpha virt. eigenvalues --    0.26521   0.27279   0.27408   0.27578   0.28335
 Alpha virt. eigenvalues --    0.28541   0.29018   0.29116   0.29540   0.29658
 Alpha virt. eigenvalues --    0.29949   0.30727   0.31191   0.31669   0.32199
 Alpha virt. eigenvalues --    0.32523   0.32688   0.32785   0.33327   0.33585
 Alpha virt. eigenvalues --    0.34329   0.34684   0.35333   0.35716   0.35813
 Alpha virt. eigenvalues --    0.36301   0.36349   0.36723   0.36854   0.37757
 Alpha virt. eigenvalues --    0.37914   0.38341   0.38957   0.39148   0.39407
 Alpha virt. eigenvalues --    0.40159   0.40475   0.41006   0.41265   0.41512
 Alpha virt. eigenvalues --    0.41740   0.42094   0.42590   0.42992   0.43553
 Alpha virt. eigenvalues --    0.43641   0.44289   0.44572   0.45105   0.45726
 Alpha virt. eigenvalues --    0.46202   0.46812   0.46928   0.47652   0.47843
 Alpha virt. eigenvalues --    0.48522   0.48977   0.49373   0.49745   0.50800
 Alpha virt. eigenvalues --    0.51335   0.51811   0.52556   0.54759   0.55741
 Alpha virt. eigenvalues --    0.56938   0.57769   0.59387   0.60942   0.62029
 Alpha virt. eigenvalues --    0.64783   0.66937   0.67731   0.69803   0.74548
 Alpha virt. eigenvalues --    0.76154   0.76287   0.77151   0.77369   0.78822
 Alpha virt. eigenvalues --    0.79704   0.80698   0.80752   0.81042   0.81809
 Alpha virt. eigenvalues --    0.82809   0.84322   0.85188   0.85629   0.87137
 Alpha virt. eigenvalues --    0.88206   0.89203   0.89705   0.89913   0.90702
 Alpha virt. eigenvalues --    0.91592   0.92712   0.93443   0.94609   0.95324
 Alpha virt. eigenvalues --    0.96310   0.99267   1.01118   1.01362   1.02784
 Alpha virt. eigenvalues --    1.04545   1.04995   1.05878   1.06741   1.07009
 Alpha virt. eigenvalues --    1.07815   1.08504   1.09453   1.10155   1.11655
 Alpha virt. eigenvalues --    1.12448   1.12843   1.13728   1.15771   1.15997
 Alpha virt. eigenvalues --    1.17192   1.18612   1.19231   1.20326   1.21469
 Alpha virt. eigenvalues --    1.21697   1.22490   1.24879   1.25203   1.25472
 Alpha virt. eigenvalues --    1.25934   1.26836   1.27862   1.30299   1.30450
 Alpha virt. eigenvalues --    1.32958   1.33475   1.35221   1.35994   1.37241
 Alpha virt. eigenvalues --    1.37342   1.38790   1.39046   1.41366   1.42765
 Alpha virt. eigenvalues --    1.43465   1.46100   1.46985   1.47494   1.48884
 Alpha virt. eigenvalues --    1.49817   1.50566   1.52257   1.53180   1.53715
 Alpha virt. eigenvalues --    1.54921   1.55440   1.56602   1.57325   1.58136
 Alpha virt. eigenvalues --    1.59733   1.59878   1.60340   1.60615   1.61788
 Alpha virt. eigenvalues --    1.63181   1.63803   1.66063   1.67206   1.71137
 Alpha virt. eigenvalues --    1.73602   1.75319   1.75918   1.77193   1.77467
 Alpha virt. eigenvalues --    1.79324   1.82160   1.87363   1.88154   1.88990
 Alpha virt. eigenvalues --    1.90141   1.92999   1.96561   1.96894   1.98259
 Alpha virt. eigenvalues --    1.99003   1.99903   2.01569   2.01860   2.03603
 Alpha virt. eigenvalues --    2.04546   2.05171   2.05957   2.07320   2.08225
 Alpha virt. eigenvalues --    2.10715   2.12154   2.12600   2.14815   2.16169
 Alpha virt. eigenvalues --    2.16494   2.18310   2.19609   2.19757   2.20523
 Alpha virt. eigenvalues --    2.21299   2.22905   2.23683   2.25377   2.27186
 Alpha virt. eigenvalues --    2.28960   2.29846   2.32553   2.33931   2.34523
 Alpha virt. eigenvalues --    2.36234   2.37734   2.40581   2.42140   2.44312
 Alpha virt. eigenvalues --    2.45981   2.46699   2.47200   2.50372   2.50546
 Alpha virt. eigenvalues --    2.52749   2.54817   2.55722   2.57418   2.58290
 Alpha virt. eigenvalues --    2.60574   2.61368   2.62775   2.64529   2.67301
 Alpha virt. eigenvalues --    2.68055   2.71000   2.75390   2.79429   2.80123
 Alpha virt. eigenvalues --    2.85428   2.87848   2.90478   2.93480   2.94232
 Alpha virt. eigenvalues --    2.96945   2.97649   3.04836   3.05422   3.06255
 Alpha virt. eigenvalues --    3.06970   3.08951   3.17524   3.20390   3.26514
 Alpha virt. eigenvalues --    3.37535   4.13140   4.15168   4.24082   4.29913
 Alpha virt. eigenvalues --    4.30795   4.37055   4.39773   4.40801   4.42595
 Alpha virt. eigenvalues --    4.46609   4.51093   4.52663   4.56327   4.61698
 Alpha virt. eigenvalues --    4.63344   4.68600   4.76216   4.79320   4.80336
          Condensed to atoms (all electrons):
               1          2          3          4          5          6
     1  C   14.994884  -0.979371  -0.357635   0.131976   0.216828  -0.091543
     2  S   -0.979371  17.173264   0.575434  -0.175778  -0.121063   0.209993
     3  O   -0.357635   0.575434   8.885634  -0.169692  -0.242310   0.021823
     4  O    0.131976  -0.175778  -0.169692   8.957410  -0.215780  -0.017687
     5  N    0.216828  -0.121063  -0.242310  -0.215780   8.007009   0.151791
     6  H   -0.091543   0.209993   0.021823  -0.017687   0.151791   0.454809
     7  C   -2.559774   0.461979   0.007755  -0.100832  -0.166569  -0.005901
     8  C    1.167089  -2.251994  -0.126614   0.235076   0.127920  -0.042153
     9  C   -1.307234  -0.172209   0.017862   0.001687   0.035192  -0.004667
    10  O   -0.291304  -0.158573   0.009250   0.001641  -0.018955  -0.001644
    11  C   -3.438130  -0.480023  -0.004637  -0.048826  -0.029142  -0.001531
    12  C   -0.855570  -0.031917  -0.003893   0.020612   0.018928  -0.000045
    13  S   -0.426674  -0.021990   0.001341   0.006019   0.009164  -0.000329
    14  H    0.024258   0.015004   0.000156  -0.001638   0.000344  -0.000009
    15  H   -0.009710  -0.000837  -0.000001  -0.000004  -0.000002  -0.000000
    16  C    0.930646   0.081849   0.000670   0.001896   0.001418   0.000069
    17  N    0.021292   0.000828  -0.000015   0.000001   0.000037   0.000000
    18  C    0.005962  -0.000601  -0.000035  -0.000019  -0.000011   0.000000
    19  C   -0.004479  -0.000623  -0.000016  -0.000003  -0.000001  -0.000000
    20  O    0.000060   0.000000  -0.000000   0.000000   0.000000   0.000000
    21  C    0.003129   0.000161   0.000001   0.000000  -0.000001   0.000000
    22  C    0.006877   0.000678   0.000004   0.000003   0.000002   0.000000
    23  H    0.000308   0.000002   0.000000  -0.000000  -0.000000  -0.000000
    24  H    0.000283   0.000008  -0.000000   0.000000   0.000000   0.000000
    25  H   -0.000250  -0.000030  -0.000000  -0.000000  -0.000000  -0.000000
    26  H    0.000174  -0.000000   0.000000   0.000000   0.000000  -0.000000
    27  H   -0.000034  -0.000001  -0.000000  -0.000000   0.000000  -0.000000
    28  H    0.000022   0.000000   0.000000   0.000000   0.000000   0.000000
    29  H    0.000006   0.000000  -0.000000  -0.000000   0.000000  -0.000000
    30  H    0.000001   0.000000   0.000000   0.000000   0.000000   0.000000
    31  H    0.000006   0.000000  -0.000000   0.000000   0.000000   0.000000
    32  H    0.000051   0.000000  -0.000000   0.000000   0.000000  -0.000000
               7          8          9         10         11         12
     1  C   -2.559774   1.167089  -1.307234  -0.291304  -3.438130  -0.855570
     2  S    0.461979  -2.251994  -0.172209  -0.158573  -0.480023  -0.031917
     3  O    0.007755  -0.126614   0.017862   0.009250  -0.004637  -0.003893
     4  O   -0.100832   0.235076   0.001687   0.001641  -0.048826   0.020612
     5  N   -0.166569   0.127920   0.035192  -0.018955  -0.029142   0.018928
     6  H   -0.005901  -0.042153  -0.004667  -0.001644  -0.001531  -0.000045
     7  C   23.808565 -16.219565  -0.525019  -0.390476   8.658113  -5.850029
     8  C  -16.219565  26.771335  -0.266419   0.556667  -9.733622   2.446578
     9  C   -0.525019  -0.266419  11.086276   0.083389   1.297312  -1.308148
    10  O   -0.390476   0.556667   0.083389   8.297221  -0.085824   0.212665
    11  C    8.658113  -9.733622   1.297312  -0.085824  23.636030  -3.413117
    12  C   -5.850029   2.446578  -1.308148   0.212665  -3.413117  19.656166
    13  S   -0.288553  -0.136135  -0.930713  -0.062157  -2.119311   0.917531
    14  H    0.291479  -0.002805   0.021198   0.006859  -0.052564   0.005431
    15  H   -0.076931   0.025230   0.026044  -0.000325   0.304651   0.021539
    16  C   -0.980835   2.840423  -1.161372   0.030184  -8.014712  -5.077023
    17  N   -0.030756   0.101037  -0.068146   0.001231  -0.287579  -0.365296
    18  C   -0.033174  -0.060460   0.089277  -0.001056   0.117969   0.315028
    19  C   -0.017042  -0.010139  -0.033518   0.000876  -0.099235   0.012328
    20  O   -0.000413  -0.001330  -0.000703   0.000001  -0.007859  -0.013106
    21  C    0.010816   0.055072   0.001478  -0.000055   0.048915  -0.094919
    22  C    0.015902   0.030251   0.004252  -0.000049  -0.058477  -0.227471
    23  H    0.002424   0.032812  -0.003127   0.000034  -0.047880  -0.166241
    24  H   -0.007920  -0.026640  -0.017935   0.000010  -0.107733  -0.075343
    25  H   -0.005185  -0.014188   0.008346  -0.000026   0.008937   0.045802
    26  H   -0.001693   0.005620  -0.000060   0.000001  -0.023301  -0.034165
    27  H    0.000108   0.000315  -0.000104  -0.000000   0.001908   0.003107
    28  H   -0.000236  -0.000196  -0.000727   0.000000  -0.005038  -0.004333
    29  H    0.000009   0.000380  -0.000069   0.000000   0.000086  -0.003959
    30  H   -0.000004  -0.000023  -0.000004   0.000000  -0.000471  -0.005195
    31  H   -0.000011   0.000011  -0.000800  -0.000000  -0.005039  -0.020349
    32  H   -0.000260   0.001019  -0.000214   0.000000  -0.006881  -0.047965
              13         14         15         16         17         18
     1  C   -0.426674   0.024258  -0.009710   0.930646   0.021292   0.005962
     2  S   -0.021990   0.015004  -0.000837   0.081849   0.000828  -0.000601
     3  O    0.001341   0.000156  -0.000001   0.000670  -0.000015  -0.000035
     4  O    0.006019  -0.001638  -0.000004   0.001896   0.000001  -0.000019
     5  N    0.009164   0.000344  -0.000002   0.001418   0.000037  -0.000011
     6  H   -0.000329  -0.000009  -0.000000   0.000069   0.000000   0.000000
     7  C   -0.288553   0.291479  -0.076931  -0.980835  -0.030756  -0.033174
     8  C   -0.136135  -0.002805   0.025230   2.840423   0.101037  -0.060460
     9  C   -0.930713   0.021198   0.026044  -1.161372  -0.068146   0.089277
    10  O   -0.062157   0.006859  -0.000325   0.030184   0.001231  -0.001056
    11  C   -2.119311  -0.052564   0.304651  -8.014712  -0.287579   0.117969
    12  C    0.917531   0.005431   0.021539  -5.077023  -0.365296   0.315028
    13  S   17.245961  -0.000696  -0.003223   1.286261   0.107422  -0.129088
    14  H   -0.000696   0.448146   0.000510   0.000974   0.000003   0.000048
    15  H   -0.003223   0.000510   0.497803  -0.003974   0.001714   0.003927
    16  C    1.286261   0.000974  -0.003974  15.430497   0.554126  -0.437978
    17  N    0.107422   0.000003   0.001714   0.554126   7.294640   0.188199
    18  C   -0.129088   0.000048   0.003927  -0.437978   0.188199   6.755220
    19  C    0.026646   0.000006   0.002199   0.121326  -0.012436  -0.830244
    20  O    0.004129  -0.000000   0.000002   0.017922  -0.028248  -0.068410
    21  C   -0.024666  -0.000000   0.000056  -0.190868   0.035532   0.203331
    22  C    0.014031   0.000000   0.001456  -0.054245   0.177608  -0.455045
    23  H    0.012756   0.000000   0.002028   0.507315  -0.054978  -0.024818
    24  H    0.032811   0.000000   0.000076   0.585590  -0.061592   0.019071
    25  H   -0.013588  -0.000000   0.000032  -0.040395  -0.048214   0.350998
    26  H    0.003651  -0.000000  -0.000068   0.043283  -0.061363   0.389772
    27  H    0.000661  -0.000000  -0.000000  -0.008039   0.013601  -0.160938
    28  H    0.001563   0.000000   0.000000   0.007329   0.005793  -0.077154
    29  H   -0.000103  -0.000000  -0.000000  -0.008384   0.010991   0.000483
    30  H    0.000376   0.000000  -0.000000   0.006321  -0.000328  -0.005843
    31  H    0.005043   0.000000  -0.000000  -0.009008  -0.061374   0.016232
    32  H    0.001018  -0.000000  -0.000001   0.032244  -0.055425  -0.020485
              19         20         21         22         23         24
     1  C   -0.004479   0.000060   0.003129   0.006877   0.000308   0.000283
     2  S   -0.000623   0.000000   0.000161   0.000678   0.000002   0.000008
     3  O   -0.000016  -0.000000   0.000001   0.000004   0.000000  -0.000000
     4  O   -0.000003   0.000000   0.000000   0.000003  -0.000000   0.000000
     5  N   -0.000001   0.000000  -0.000001   0.000002  -0.000000   0.000000
     6  H   -0.000000   0.000000   0.000000   0.000000  -0.000000   0.000000
     7  C   -0.017042  -0.000413   0.010816   0.015902   0.002424  -0.007920
     8  C   -0.010139  -0.001330   0.055072   0.030251   0.032812  -0.026640
     9  C   -0.033518  -0.000703   0.001478   0.004252  -0.003127  -0.017935
    10  O    0.000876   0.000001  -0.000055  -0.000049   0.000034   0.000010
    11  C   -0.099235  -0.007859   0.048915  -0.058477  -0.047880  -0.107733
    12  C    0.012328  -0.013106  -0.094919  -0.227471  -0.166241  -0.075343
    13  S    0.026646   0.004129  -0.024666   0.014031   0.012756   0.032811
    14  H    0.000006  -0.000000  -0.000000   0.000000   0.000000   0.000000
    15  H    0.002199   0.000002   0.000056   0.001456   0.002028   0.000076
    16  C    0.121326   0.017922  -0.190868  -0.054245   0.507315   0.585590
    17  N   -0.012436  -0.028248   0.035532   0.177608  -0.054978  -0.061592
    18  C   -0.830244  -0.068410   0.203331  -0.455045  -0.024818   0.019071
    19  C    6.399683   0.168436  -0.437023   0.273898   0.004936   0.002552
    20  O    0.168436   8.358055   0.191328  -0.063884  -0.000339   0.000260
    21  C   -0.437023   0.191328   6.389735  -0.638933  -0.005452  -0.004599
    22  C    0.273898  -0.063884  -0.638933   6.564481   0.005366  -0.035873
    23  H    0.004936  -0.000339  -0.005452   0.005366   0.546764  -0.040473
    24  H    0.002552   0.000260  -0.004599  -0.035873  -0.040473   0.514593
    25  H    0.003606   0.006851   0.003551   0.011371  -0.001220   0.000032
    26  H   -0.049064   0.000986  -0.015817   0.003745   0.010715  -0.000299
    27  H    0.504259  -0.050639  -0.012211   0.004346   0.000007   0.000008
    28  H    0.441467  -0.055970   0.011189  -0.002494   0.000012   0.000002
    29  H   -0.013332  -0.050763   0.517006  -0.155212   0.000006   0.000019
    30  H    0.014041  -0.055693   0.412432  -0.048216   0.000016  -0.000008
    31  H   -0.003748   0.007543   0.030435   0.354074  -0.001628   0.005899
    32  H    0.006375  -0.000207  -0.079887   0.439274   0.010215  -0.001575
              25         26         27         28         29         30
     1  C   -0.000250   0.000174  -0.000034   0.000022   0.000006   0.000001
     2  S   -0.000030  -0.000000  -0.000001   0.000000   0.000000   0.000000
     3  O   -0.000000   0.000000  -0.000000   0.000000  -0.000000   0.000000
     4  O   -0.000000   0.000000  -0.000000   0.000000  -0.000000   0.000000
     5  N   -0.000000   0.000000   0.000000   0.000000   0.000000   0.000000
     6  H   -0.000000  -0.000000  -0.000000   0.000000  -0.000000   0.000000
     7  C   -0.005185  -0.001693   0.000108  -0.000236   0.000009  -0.000004
     8  C   -0.014188   0.005620   0.000315  -0.000196   0.000380  -0.000023
     9  C    0.008346  -0.000060  -0.000104  -0.000727  -0.000069  -0.000004
    10  O   -0.000026   0.000001  -0.000000   0.000000   0.000000   0.000000
    11  C    0.008937  -0.023301   0.001908  -0.005038   0.000086  -0.000471
    12  C    0.045802  -0.034165   0.003107  -0.004333  -0.003959  -0.005195
    13  S   -0.013588   0.003651   0.000661   0.001563  -0.000103   0.000376
    14  H   -0.000000  -0.000000  -0.000000   0.000000  -0.000000   0.000000
    15  H    0.000032  -0.000068  -0.000000   0.000000  -0.000000  -0.000000
    16  C   -0.040395   0.043283  -0.008039   0.007329  -0.008384   0.006321
    17  N   -0.048214  -0.061363   0.013601   0.005793   0.010991  -0.000328
    18  C    0.350998   0.389772  -0.160938  -0.077154   0.000483  -0.005843
    19  C    0.003606  -0.049064   0.504259   0.441467  -0.013332   0.014041
    20  O    0.006851   0.000986  -0.050639  -0.055970  -0.050763  -0.055693
    21  C    0.003551  -0.015817  -0.012211   0.011189   0.517006   0.412432
    22  C    0.011371   0.003745   0.004346  -0.002494  -0.155212  -0.048216
    23  H   -0.001220   0.010715   0.000007   0.000012   0.000006   0.000016
    24  H    0.000032  -0.000299   0.000008   0.000002   0.000019  -0.000008
    25  H    0.466800  -0.036660  -0.001887  -0.001207   0.000027   0.000015
    26  H   -0.036660   0.541955   0.004030  -0.002586   0.000125   0.000034
    27  H   -0.001887   0.004030   0.517363  -0.031981   0.007256  -0.000238
    28  H   -0.001207  -0.002586  -0.031981   0.508951  -0.000202  -0.000078
    29  H    0.000027   0.000125   0.007256  -0.000202   0.522424  -0.033496
    30  H    0.000015   0.000034  -0.000238  -0.000078  -0.033496   0.520856
    31  H   -0.000058  -0.000429   0.000017   0.000016  -0.002037  -0.000764
    32  H   -0.000353   0.009302   0.000112   0.000032   0.003981  -0.002250
              31         32
     1  C    0.000006   0.000051
     2  S    0.000000   0.000000
     3  O   -0.000000  -0.000000
     4  O    0.000000   0.000000
     5  N    0.000000   0.000000
     6  H    0.000000  -0.000000
     7  C   -0.000011  -0.000260
     8  C    0.000011   0.001019
     9  C   -0.000800  -0.000214
    10  O   -0.000000   0.000000
    11  C   -0.005039  -0.006881
    12  C   -0.020349  -0.047965
    13  S    0.005043   0.001018
    14  H    0.000000  -0.000000
    15  H   -0.000000  -0.000001
    16  C   -0.009008   0.032244
    17  N   -0.061374  -0.055425
    18  C    0.016232  -0.020485
    19  C   -0.003748   0.006375
    20  O    0.007543  -0.000207
    21  C    0.030435  -0.079887
    22  C    0.354074   0.439274
    23  H   -0.001628   0.010215
    24  H    0.005899  -0.001575
    25  H   -0.000058  -0.000353
    26  H   -0.000429   0.009302
    27  H    0.000017   0.000112
    28  H    0.000016   0.000032
    29  H   -0.002037   0.003981
    30  H   -0.000764  -0.002250
    31  H    0.523943  -0.041090
    32  H   -0.041090   0.538049
 Mulliken charges:
               1
     1  C   -1.182146
     2  S    1.875809
     3  O   -0.615081
     4  O   -0.626062
     5  N   -0.774799
     6  H    0.327025
     7  C    0.004028
     8  C    0.495447
     9  C   -0.871125
    10  O   -0.189583
    11  C   -0.002987
    12  C   -0.077630
    13  S    0.480840
    14  H    0.243296
    15  H    0.207809
    16  C   -0.493510
    17  N   -0.378303
    18  C   -0.150156
    19  C   -0.471734
    20  O   -0.358011
    21  C   -0.409735
    22  C   -0.167722
    23  H    0.210439
    24  H    0.218776
    25  H    0.256896
    26  H    0.212110
    27  H    0.208971
    28  H    0.205824
    29  H    0.204757
    30  H    0.198520
    31  H    0.203117
    32  H    0.214920
 Sum of Mulliken charges =  -1.00000
 Mulliken charges with hydrogens summed into heavy atoms:
               1
     1  C   -1.182146
     2  S    1.875809
     3  O   -0.615081
     4  O   -0.626062
     5  N   -0.447774
     7  C    0.247324
     8  C    0.495447
     9  C   -0.871125
    10  O   -0.189583
    11  C    0.204822
    12  C   -0.077630
    13  S    0.480840
    16  C   -0.064294
    17  N   -0.378303
    18  C    0.318850
    19  C   -0.056938
    20  O   -0.358011
    21  C   -0.006458
    22  C    0.250315
 Electronic spatial extent (au):  <R**2>=           9539.4683
 Charge=             -1.0000 electrons
 Dipole moment (field-independent basis, Debye):
    X=            -21.5993    Y=             -4.4064    Z=              2.8447  Tot=             22.2270
 Quadrupole moment (field-independent basis, Debye-Ang):
   XX=           -263.1363   YY=           -136.0946   ZZ=           -137.9166
   XY=             -9.4772   XZ=             12.0128   YZ=             -1.3216
 Traceless Quadrupole moment (field-independent basis, Debye-Ang):
   XX=            -84.0871   YY=             42.9545   ZZ=             41.1326
   XY=             -9.4772   XZ=             12.0128   YZ=             -1.3216
 Octapole moment (field-independent basis, Debye-Ang**2):
  XXX=           -564.1582  YYY=              3.3536  ZZZ=              6.6561  XYY=            -30.8891
  XXY=           -148.1564  XXZ=             17.6093  XZZ=            -52.2933  YZZ=              0.9566
  YYZ=              3.1379  XYZ=             -3.4651
 Hexadecapole moment (field-independent basis, Debye-Ang**3):
 XXXX=         -15395.4259 YYYY=           -849.0521 ZZZZ=           -700.6815 XXXY=             10.1358
 XXXZ=            396.4772 YYYX=            -76.3283 YYYZ=             21.0250 ZZZX=             29.0319
 ZZZY=            -13.9334 XXYY=          -2198.0919 XXZZ=          -2288.1343 YYZZ=           -272.8578
 XXYZ=            -49.8558 YYXZ=             33.0002 ZZXY=            -14.6923
 N-N= 1.701226801825D+03 E-N=-7.263367231277D+03  KE= 1.623763009381D+03
 Calling FoFJK, ICntrl=      2127 FMM=F ISym2X=0 I1Cent= 0 IOpClX= 0 NMat=1 NMatS=1 NMatT=0.
 ***** Axes restored to original set *****
 -------------------------------------------------------------------
 Center     Atomic                   Forces (Hartrees/Bohr)
 Number     Number              X              Y              Z
 -------------------------------------------------------------------
      1        6           0.005787273   -0.001822628   -0.003460575
      2       16          -0.002135923    0.022486108    0.033473910
      3        8          -0.006238334   -0.010195961   -0.010492259
      4        8           0.004855145   -0.005972570   -0.008369639
      5        7           0.001585286   -0.006641125   -0.006119095
      6        1          -0.001367656    0.002040957    0.000689703
      7        6          -0.000180430   -0.000509481   -0.001908449
      8        6          -0.002347099    0.000125069   -0.003429260
      9        6          -0.000355167    0.000945486    0.011807644
     10        8          -0.005446896   -0.000159010   -0.014163539
     11        6           0.000917789    0.000426909    0.004550404
     12        6           0.004959243   -0.001064221   -0.000954149
     13       16          -0.000125508    0.000488005   -0.004204822
     14        1           0.001281388    0.000348656    0.002434053
     15        1          -0.000444262    0.000010672   -0.000301483
     16        6           0.001238232    0.000930482    0.005507604
     17        7          -0.004153297    0.000396411   -0.007080129
     18        6           0.002491295   -0.000696620    0.003228609
     19        6           0.002010451   -0.002356736   -0.005281128
     20        8           0.001188789   -0.003855504    0.001630633
     21        6          -0.002438489    0.007886507    0.000793580
     22        6           0.001000678    0.000829273    0.005028090
     23        1          -0.001406770   -0.000004175   -0.001949403
     24        1           0.001117310   -0.000557634   -0.000874074
     25        1          -0.000476356   -0.001952184    0.000693213
     26        1          -0.000964547    0.000439541   -0.000900647
     27        1          -0.000136369   -0.000525758    0.001166548
     28        1           0.000185874    0.000356186   -0.000878977
     29        1           0.000280626   -0.001113009    0.000967522
     30        1           0.000076850    0.000885606   -0.000906798
     31        1           0.000170873   -0.001317389    0.000889316
     32        1          -0.000929997    0.000148135   -0.001586406
 -------------------------------------------------------------------
 Cartesian Forces:  Max     0.033473910 RMS     0.005510472

 GradGradGradGradGradGradGradGradGradGradGradGradGradGradGradGradGradGrad
 Berny optimization.
 FormGI is forming the generalized inverse of G from B-inverse, IUseBI=4.
 Internal  Forces:  Max     0.014324680 RMS     0.002622254
 Search for a local minimum.
 Step number   1 out of a maximum of  190
 All quantities printed in internal units (Hartrees-Bohrs-Radians)
 Mixed Optimization -- RFO/linear search
 Second derivative matrix not updated -- first step.
 ITU=  0
     Eigenvalues ---    0.00594   0.00797   0.00834   0.00855   0.01096
     Eigenvalues ---    0.01393   0.01485   0.01531   0.01597   0.01762
     Eigenvalues ---    0.01975   0.02056   0.02083   0.02201   0.02302
     Eigenvalues ---    0.02824   0.03209   0.03344   0.04604   0.04956
     Eigenvalues ---    0.05131   0.05202   0.05647   0.05874   0.06377
     Eigenvalues ---    0.06406   0.06546   0.08556   0.09080   0.09102
     Eigenvalues ---    0.09409   0.10152   0.10597   0.10858   0.11608
     Eigenvalues ---    0.11665   0.12095   0.13367   0.13375   0.14460
     Eigenvalues ---    0.15978   0.16000   0.16000   0.16000   0.16947
     Eigenvalues ---    0.17684   0.21163   0.21600   0.22012   0.23568
     Eigenvalues ---    0.23909   0.24968   0.24981   0.24997   0.24998
     Eigenvalues ---    0.25000   0.27496   0.28343   0.29077   0.30656
     Eigenvalues ---    0.32623   0.32640   0.33018   0.33070   0.33168
     Eigenvalues ---    0.33705   0.33711   0.34114   0.34265   0.34293
     Eigenvalues ---    0.34481   0.34561   0.34567   0.34860   0.35435
     Eigenvalues ---    0.35876   0.36368   0.37781   0.38928   0.40400
     Eigenvalues ---    0.40696   0.42283   0.43793   0.47532   0.49969
     Eigenvalues ---    0.51364   0.53842   0.60907   0.80293   0.81700
 RFO step:  Lambda=-5.84053963D-03 EMin= 5.94066327D-03
 Linear search not attempted -- first point.
 Iteration  1 RMS(Cart)=  0.05165382 RMS(Int)=  0.00118304
 Iteration  2 RMS(Cart)=  0.00148159 RMS(Int)=  0.00040043
 Iteration  3 RMS(Cart)=  0.00000119 RMS(Int)=  0.00040043
 Iteration  4 RMS(Cart)=  0.00000000 RMS(Int)=  0.00040043
 Variable       Old X    -DE/DX   Delta X   Delta X   Delta X     New X
                                 (Linear)    (Quad)   (Total)
    R1        3.36954   0.00971   0.00000   0.03457   0.03457   3.40411
    R2        2.56805   0.00009   0.00000   0.00086   0.00087   2.56892
    R3        2.61411  -0.00208   0.00000  -0.00460  -0.00458   2.60953
    R4        2.80712  -0.01432   0.00000  -0.01741  -0.01741   2.78971
    R5        2.81458  -0.00632   0.00000  -0.00781  -0.00781   2.80677
    R6        2.93930   0.00141   0.00000   0.00229   0.00229   2.94158
    R7        1.93403  -0.00063   0.00000  -0.00142  -0.00142   1.93261
    R8        2.72219   0.00110   0.00000   0.00379   0.00378   2.72597
    R9        2.04276  -0.00112   0.00000  -0.00307  -0.00307   2.03969
   R10        2.59151  -0.00001   0.00000  -0.00041  -0.00043   2.59107
   R11        2.71607  -0.00171   0.00000  -0.00428  -0.00428   2.71178
   R12        2.55244  -0.00942   0.00000  -0.01788  -0.01788   2.53457
   R13        3.25153   0.00313   0.00000   0.00916   0.00916   3.26069
   R14        2.57596   0.00275   0.00000   0.00526   0.00527   2.58122
   R15        2.04975   0.00054   0.00000   0.00149   0.00149   2.05124
   R16        3.34291  -0.00310   0.00000  -0.01041  -0.01040   3.33251
   R17        2.83019  -0.00055   0.00000  -0.00165  -0.00165   2.82854
   R18        2.76810  -0.00097   0.00000  -0.00262  -0.00262   2.76549
   R19        2.08757   0.00224   0.00000   0.00663   0.00663   2.09420
   R20        2.07137   0.00105   0.00000   0.00303   0.00303   2.07440
   R21        2.76981  -0.00314   0.00000  -0.00865  -0.00852   2.76129
   R22        2.77020  -0.00345   0.00000  -0.01020  -0.01007   2.76013
   R23        2.86698   0.00103   0.00000   0.00314   0.00313   2.87010
   R24        2.06839   0.00024   0.00000   0.00070   0.00070   2.06909
   R25        2.09020   0.00131   0.00000   0.00388   0.00388   2.09408
   R26        2.69216  -0.00395   0.00000  -0.00861  -0.00874   2.68343
   R27        2.07831   0.00051   0.00000   0.00150   0.00150   2.07981
   R28        2.06383   0.00027   0.00000   0.00078   0.00078   2.06462
   R29        2.69175  -0.00647   0.00000  -0.01514  -0.01528   2.67647
   R30        2.86651   0.00155   0.00000   0.00514   0.00515   2.87166
   R31        2.07821   0.00076   0.00000   0.00221   0.00221   2.08042
   R32        2.06393   0.00072   0.00000   0.00204   0.00204   2.06597
   R33        2.06885   0.00124   0.00000   0.00356   0.00356   2.07240
   R34        2.08929   0.00166   0.00000   0.00495   0.00495   2.09423
    A1        2.31056  -0.00316   0.00000  -0.01267  -0.01268   2.29788
    A2        2.01410   0.00662   0.00000   0.02559   0.02558   2.03969
    A3        1.95736  -0.00345   0.00000  -0.01272  -0.01270   1.94465
    A4        1.82317  -0.00634   0.00000  -0.03283  -0.03251   1.79066
    A5        1.76766  -0.00808   0.00000  -0.05398  -0.05474   1.71292
    A6        1.92103  -0.00689   0.00000  -0.04368  -0.04407   1.87696
    A7        1.99967   0.00604   0.00000   0.04968   0.04724   2.04691
    A8        1.90713   0.00786   0.00000   0.04815   0.04644   1.95357
    A9        2.02793   0.00386   0.00000   0.01199   0.00877   2.03669
   A10        1.88869  -0.00316   0.00000  -0.01908  -0.01908   1.86961
   A11        1.84214   0.00045   0.00000   0.00532   0.00530   1.84744
   A12        2.19416  -0.00280   0.00000  -0.01818  -0.01818   2.17598
   A13        2.24688   0.00235   0.00000   0.01284   0.01284   2.25972
   A14        1.83267  -0.00166   0.00000  -0.00513  -0.00515   1.82752
   A15        2.51517   0.00278   0.00000   0.01061   0.01063   2.52580
   A16        1.93519  -0.00112   0.00000  -0.00552  -0.00552   1.92967
   A17        1.97111   0.00016   0.00000  -0.00133  -0.00134   1.96978
   A18        2.01011  -0.00004   0.00000   0.00037   0.00035   2.01046
   A19        2.30171  -0.00012   0.00000   0.00084   0.00084   2.30256
   A20        1.82148   0.00450   0.00000   0.01387   0.01389   1.83538
   A21        1.95647   0.00172   0.00000   0.00730   0.00730   1.96377
   A22        2.19039  -0.00088   0.00000  -0.00375  -0.00375   2.18664
   A23        2.13632  -0.00084   0.00000  -0.00355  -0.00355   2.13277
   A24        1.97548  -0.00088   0.00000  -0.00337  -0.00340   1.97208
   A25        2.22337   0.00080   0.00000   0.00318   0.00314   2.22651
   A26        2.08425   0.00009   0.00000   0.00040   0.00035   2.08460
   A27        1.54750   0.00032   0.00000   0.00115   0.00115   1.54865
   A28        1.97961  -0.00185   0.00000  -0.00858  -0.00858   1.97102
   A29        1.86755   0.00112   0.00000   0.01021   0.01020   1.87775
   A30        1.92620   0.00136   0.00000   0.00699   0.00691   1.93311
   A31        1.93672   0.00043   0.00000   0.00253   0.00256   1.93928
   A32        1.87832  -0.00071   0.00000  -0.01087  -0.01087   1.86745
   A33        1.87307  -0.00024   0.00000   0.00038   0.00033   1.87340
   A34        1.92976   0.00015   0.00000   0.01631   0.01544   1.94520
   A35        1.90059   0.00189   0.00000   0.02901   0.02836   1.92895
   A36        1.89197   0.00009   0.00000   0.01344   0.01307   1.90504
   A37        1.92775  -0.00125   0.00000  -0.00979  -0.00955   1.91820
   A38        1.91328  -0.00087   0.00000  -0.01095  -0.01103   1.90224
   A39        1.92618   0.00060   0.00000   0.00418   0.00418   1.93036
   A40        1.90244   0.00158   0.00000   0.01471   0.01460   1.91705
   A41        1.90909   0.00019   0.00000   0.00059   0.00050   1.90959
   A42        1.88442  -0.00022   0.00000   0.00170   0.00169   1.88611
   A43        1.94149   0.00207   0.00000   0.00686   0.00678   1.94828
   A44        1.92408  -0.00152   0.00000  -0.00990  -0.00991   1.91417
   A45        1.92633   0.00020   0.00000   0.00409   0.00414   1.93047
   A46        1.90547  -0.00003   0.00000   0.00439   0.00451   1.90998
   A47        1.86320  -0.00115   0.00000  -0.00676  -0.00681   1.85639
   A48        1.90190   0.00043   0.00000   0.00146   0.00146   1.90336
   A49        1.92611  -0.00163   0.00000  -0.00518  -0.00516   1.92095
   A50        1.93689   0.00153   0.00000   0.00421   0.00416   1.94105
   A51        1.90596   0.00041   0.00000   0.00494   0.00502   1.91098
   A52        1.86407  -0.00129   0.00000  -0.00665  -0.00670   1.85737
   A53        1.92576  -0.00173   0.00000  -0.01077  -0.01077   1.91499
   A54        1.92749   0.00068   0.00000   0.00627   0.00631   1.93380
   A55        1.90233   0.00041   0.00000   0.00223   0.00224   1.90457
   A56        1.92927  -0.00041   0.00000  -0.00732  -0.00711   1.92216
   A57        1.90661  -0.00068   0.00000  -0.00649  -0.00660   1.90001
   A58        1.92796   0.00080   0.00000   0.00819   0.00819   1.93615
   A59        1.91086   0.00068   0.00000   0.00449   0.00438   1.91524
   A60        1.90322  -0.00038   0.00000  -0.00052  -0.00055   1.90266
   A61        1.88533   0.00000   0.00000   0.00190   0.00193   1.88726
    D1       -2.20060   0.00054   0.00000   0.00495   0.00496  -2.19563
    D2       -0.11847   0.00151   0.00000   0.02524   0.02463  -0.09384
    D3        2.03711  -0.00190   0.00000  -0.01254  -0.01193   2.02517
    D4        0.99780   0.00053   0.00000   0.00015   0.00015   0.99795
    D5        3.07993   0.00149   0.00000   0.02044   0.01982   3.09975
    D6       -1.04768  -0.00191   0.00000  -0.01735  -0.01675  -1.06443
    D7       -3.09127  -0.00019   0.00000  -0.00303  -0.00298  -3.09425
    D8        0.05445  -0.00003   0.00000   0.00195   0.00194   0.05639
    D9       -0.00507   0.00007   0.00000   0.00262   0.00260  -0.00247
   D10        3.14064   0.00023   0.00000   0.00760   0.00752  -3.13502
   D11        3.09980  -0.00015   0.00000   0.00023   0.00025   3.10005
   D12        0.00349  -0.00009   0.00000  -0.00331  -0.00332   0.00018
   D13       -1.25726   0.00079   0.00000  -0.01131  -0.01175  -1.26901
   D14        3.03340   0.00777   0.00000   0.02505   0.02682   3.06022
   D15        0.73791  -0.01197   0.00000  -0.10355  -0.10487   0.63303
   D16        0.00453  -0.00001   0.00000  -0.00082  -0.00082   0.00372
   D17       -3.11518   0.00008   0.00000   0.00216   0.00219  -3.11299
   D18       -3.14135  -0.00020   0.00000  -0.00611  -0.00616   3.13567
   D19        0.02212  -0.00010   0.00000  -0.00312  -0.00316   0.01897
   D20       -0.00263  -0.00004   0.00000  -0.00123  -0.00125  -0.00388
   D21       -3.12296   0.00007   0.00000   0.00409   0.00407  -3.11889
   D22        3.12523  -0.00005   0.00000  -0.00287  -0.00287   3.12237
   D23        0.00490   0.00007   0.00000   0.00244   0.00245   0.00735
   D24        3.11922  -0.00003   0.00000   0.00135   0.00132   3.12054
   D25       -0.02167  -0.00006   0.00000  -0.00070  -0.00072  -0.02240
   D26        0.00025   0.00007   0.00000   0.00442   0.00441   0.00466
   D27       -3.14065   0.00004   0.00000   0.00237   0.00236  -3.13828
   D28       -0.00034   0.00008   0.00000   0.00272   0.00276   0.00242
   D29        3.11541  -0.00006   0.00000  -0.00375  -0.00372   3.11169
   D30       -0.00647  -0.00015   0.00000  -0.00633  -0.00635  -0.01282
   D31       -3.12177  -0.00001   0.00000   0.00028   0.00027  -3.12150
   D32       -0.00508  -0.00019   0.00000  -0.00921  -0.00922  -0.01430
   D33        3.12200   0.00017   0.00000   0.00835   0.00833   3.13033
   D34        3.13584  -0.00016   0.00000  -0.00723  -0.00725   3.12859
   D35       -0.02027   0.00020   0.00000   0.01032   0.01030  -0.00996
   D36        0.00651   0.00019   0.00000   0.00881   0.00878   0.01528
   D37       -3.12185  -0.00015   0.00000  -0.00723  -0.00723  -3.12907
   D38        2.10242   0.00058   0.00000   0.01959   0.01958   2.12200
   D39       -0.03911   0.00042   0.00000   0.01463   0.01465  -0.02446
   D40       -2.07169  -0.00063   0.00000   0.00471   0.00466  -2.06703
   D41       -1.05449   0.00095   0.00000   0.03809   0.03811  -1.01639
   D42        3.08717   0.00079   0.00000   0.03313   0.03318   3.12034
   D43        1.05459  -0.00026   0.00000   0.02321   0.02318   1.07777
   D44       -1.09620   0.00070   0.00000   0.02954   0.02984  -1.06635
   D45        3.11005  -0.00067   0.00000  -0.01464  -0.01488   3.09516
   D46        1.00662   0.00117   0.00000   0.03861   0.03888   1.04550
   D47       -1.07032  -0.00020   0.00000  -0.00557  -0.00584  -1.07616
   D48        3.05113   0.00069   0.00000   0.03401   0.03425   3.08538
   D49        0.97419  -0.00068   0.00000  -0.01017  -0.01048   0.96371
   D50       -3.07806  -0.00158   0.00000  -0.04674  -0.04671  -3.12477
   D51        1.10855  -0.00219   0.00000  -0.05183  -0.05184   1.05671
   D52       -0.96483  -0.00176   0.00000  -0.04968  -0.04962  -1.01444
   D53       -0.99590   0.00087   0.00000   0.00663   0.00662  -0.98927
   D54       -3.09248   0.00026   0.00000   0.00155   0.00149  -3.09098
   D55        1.11733   0.00069   0.00000   0.00369   0.00371   1.12105
   D56        3.10121   0.00079   0.00000   0.04001   0.04012   3.14133
   D57       -1.07827   0.00094   0.00000   0.03682   0.03694  -1.04133
   D58        0.99318   0.00100   0.00000   0.04008   0.04014   1.03331
   D59        1.00080  -0.00055   0.00000  -0.00464  -0.00469   0.99611
   D60        3.10451  -0.00040   0.00000  -0.00783  -0.00787   3.09663
   D61       -1.10723  -0.00033   0.00000  -0.00457  -0.00468  -1.11191
   D62        1.01601   0.00016   0.00000  -0.00443  -0.00428   1.01173
   D63       -1.10037  -0.00016   0.00000  -0.00785  -0.00773  -1.10810
   D64        3.08087   0.00016   0.00000  -0.00590  -0.00580   3.07508
   D65        3.11908  -0.00068   0.00000  -0.01466  -0.01462   3.10446
   D66        1.00270  -0.00100   0.00000  -0.01807  -0.01807   0.98463
   D67       -1.09924  -0.00068   0.00000  -0.01612  -0.01614  -1.11538
   D68       -1.10736   0.00008   0.00000  -0.00374  -0.00369  -1.11105
   D69        3.05945  -0.00023   0.00000  -0.00715  -0.00714   3.05231
   D70        0.95751   0.00008   0.00000  -0.00521  -0.00521   0.95230
   D71       -1.01045  -0.00012   0.00000  -0.00633  -0.00628  -1.01673
   D72        1.11678  -0.00070   0.00000  -0.01133  -0.01126   1.10553
   D73       -3.11296  -0.00084   0.00000  -0.01103  -0.01095  -3.12390
   D74        1.01177  -0.00037   0.00000   0.00537   0.00532   1.01709
   D75       -1.11491   0.00053   0.00000   0.01282   0.01276  -1.10215
   D76        3.11359   0.00054   0.00000   0.01127   0.01120   3.12479
   D77       -1.02243  -0.00050   0.00000   0.00184   0.00172  -1.02071
   D78       -3.12359   0.00017   0.00000   0.01162   0.01156  -3.11203
   D79        1.10028  -0.00001   0.00000   0.00703   0.00700   1.10728
   D80        1.09265  -0.00012   0.00000   0.00363   0.00354   1.09619
   D81       -1.00852   0.00054   0.00000   0.01340   0.01339  -0.99513
   D82       -3.06783   0.00037   0.00000   0.00881   0.00883  -3.05900
   D83       -3.08621  -0.00030   0.00000   0.00347   0.00338  -3.08283
   D84        1.09581   0.00037   0.00000   0.01324   0.01323   1.10904
[...]
 00000161,0.00000206,-0.00000062,0.00003237,-0.00001207,-0.00003077,0.0
 0013022,-0.00000753,0.00010952,-0.00015918,0.00009533,0.00010597,0.000
 01932,0.00002046,0.00007799,0.00016951,-0.00007682,-0.00013409,-0.0003
 4206,-0.00009445,-0.00015220,0.00006090,-0.00009161,0.00005047,0.00000
 082,-0.00000148,-0.00000703,0.00005973,0.00003819,-0.00000932,0.000242
 00,-0.00010302,0.00026737,0.00244281,0.00126791,0.00007024,-0.02276329
 ,0.00253436,-0.01525015,-0.21368625,0.01223465,-0.12044427,0.01318363,
 0.00123647,0.00849746,0.00229124,-0.00161039,0.00174367,-0.00026527,0.
 00017545,-0.00026197,0.00028968,0.00032135,0.00001721,0.00004750,-0.00
 009440,0.00008945,0.00029712,0.00036733,0.00006526,-0.00272805,-0.0038
 5734,0.00186005,0.22786521,0.00001791,-0.00000048,-0.00001252,0.000005
 81,0.00002908,0.00005534,-0.00001491,-0.00002619,-0.00001535,0.0000081
 6,-0.00000820,-0.00001421,-0.00000184,-0.00000203,-0.00001657,-0.00000
 168,-0.00000107,0.00000199,0.00000595,-0.00000425,-0.00001844,0.000032
 14,-0.00002137,0.00001706,-0.00002634,0.00006214,0.00009253,0.00000387
 ,-0.00000231,-0.00002754,0.00005597,-0.00001565,-0.00004633,-0.0000645
 1,-0.00002086,-0.00003580,0.00002747,-0.00002521,-0.00000302,0.0000014
 1,-0.00000024,-0.00000282,0.00001626,0.00001790,-0.00000534,-0.0003243
 3,-0.00015403,0.00026390,0.00019611,0.00212249,-0.00065108,-0.01892665
 ,0.00062397,-0.01161798,0.01435561,-0.05665991,0.01031868,-0.00424393,
 0.00082495,-0.00938084,-0.00292462,0.00194708,-0.00225271,-0.00013791,
 -0.00041198,-0.00019583,0.00030677,-0.00002407,0.00012996,0.00010562,-
 0.00001925,0.00003915,0.00067169,0.00062405,0.00004634,-0.00285900,-0.
 00201394,0.00115196,-0.01109200,0.05210013,-0.00000980,0.00000276,0.00
 000520,-0.00000861,-0.00001960,-0.00002211,0.00001018,0.00001492,0.000
 00663,0.00000073,0.00000489,0.00000483,0.00000228,0.00000371,0.0000059
 2,0.00000115,0.00000029,-0.00000077,0.00000332,0.00000562,0.00000968,-
 0.00000207,-0.00000148,-0.00000676,0.00000477,-0.00002025,-0.00002108,
 0.00000523,0.00000223,0.00001424,0.00000983,-0.00000415,0.00002815,-0.
 00003528,-0.00001182,0.00004846,-0.00009532,-0.00009416,0.00005104,-0.
 00000060,-0.00000077,0.00000090,-0.00000711,-0.00000656,0.00000236,0.0
 0018927,0.00001666,0.00002539,-0.00001971,-0.00062434,-0.00005031,0.00
 831549,0.00073507,0.00807074,-0.11931240,0.00675638,-0.13390055,-0.017
 06799,-0.00623256,-0.04237714,-0.00346584,0.00547414,0.00025759,0.0006
 6324,-0.00059362,-0.00035210,-0.00007231,0.00003490,-0.00006823,-0.000
 05997,0.00003129,-0.00003175,-0.00055875,-0.00075526,0.00056192,0.0017
 9232,0.00217876,0.00022039,0.12938741,-0.00654185,0.16517678,0.0000238
 8,-0.00000060,0.00000945,0.00000963,0.00001120,0.00000244,-0.00000527,
 -0.00000832,-0.00000114,-0.00000460,-0.00000220,-0.00000157,-0.0000007
 4,-0.00000463,0.00000031,-0.00000035,-0.00000018,0.00000025,0.00000871
 ,-0.00000016,-0.00001662,0.00002000,0.00000278,0.00005030,-0.00003523,
 0.00001631,0.00003760,-0.00001619,0.00000151,0.00002118,0.00003356,0.0
 0002453,-0.00000591,-0.00002113,0.00005256,-0.00015188,-0.00001484,-0.
 00000766,-0.00000993,-0.00000082,-0.00000147,0.00000110,0.00000143,-0.
 00001373,-0.00000323,0.00093873,-0.00132550,-0.00028854,-0.00392289,-0
 .00298511,0.00222710,0.01074244,-0.02313024,-0.00012147,-0.08374732,0.
 08509113,-0.00707951,-0.00472536,0.01221485,0.00327396,-0.00004713,-0.
 00073711,0.00246069,-0.00041484,0.00021417,0.00057244,-0.00001358,0.00
 004181,-0.00004470,-0.00031882,-0.00045908,0.00014214,0.00072263,0.000
 98911,0.00002541,0.00070959,0.00060117,-0.00069392,-0.00703013,0.02406
 886,-0.00128331,0.08659457,0.00005436,0.00000451,0.00006169,0.00002644
 ,-0.00007814,-0.00016394,0.00002413,0.00006695,0.00004852,-0.00004889,
 0.00002694,0.00003832,-0.00000182,0.00000256,0.00005674,0.00000448,0.0
 0000160,-0.00000893,0.00001603,0.00000814,-0.00001990,0.00004008,0.000
 02676,0.00010673,-0.00005951,-0.00001708,-0.00008599,-0.00006418,0.000
 02180,0.00015722,0.00006844,0.00000259,-0.00004446,-0.00009574,0.00001
 516,-0.00012512,-0.00001510,0.00003647,-0.00004078,-0.00000599,-0.0000
 0745,0.00000621,0.00001038,-0.00002579,-0.00001197,0.00092709,-0.00060
 985,-0.00084957,-0.00451347,-0.00163290,0.00220313,0.00939146,-0.01663
 171,0.00151002,0.08555146,-0.29264486,0.01398322,0.00471068,-0.0074614
 9,-0.00505653,-0.00047651,0.00227881,-0.00178017,0.00009899,0.00055227
 ,0.00059416,-0.00016013,-0.00007054,-0.00001819,-0.00026300,-0.0003222
 8,0.00011753,-0.00009024,0.00015540,0.00035647,-0.00014682,0.00051127,
 -0.00062093,-0.00006699,0.00066996,0.00094514,-0.09504790,0.31568976,-
 0.00002480,-0.00000326,-0.00003682,-0.00000742,0.00005021,0.00010338,-
 0.00001898,-0.00004493,-0.00002970,0.00002470,-0.00001613,-0.00002449,
 -0.00000111,-0.00000056,-0.00003440,-0.00000228,-0.00000170,0.00000507
 ,-0.00000480,-0.00000451,0.00000614,-0.00002172,-0.00002129,-0.0000521
 4,0.00002799,0.00002682,0.00007153,0.00003373,-0.00000987,-0.00009548,
 -0.00002171,0.00000815,0.00003297,-0.00000433,-0.00004282,0.00001438,0
 .00000040,-0.00004738,0.00004096,0.00000375,0.00000341,-0.00000329,-0.
 00000517,0.00001107,0.00000598,-0.00028150,0.00046241,0.00089426,0.002
 53373,0.00276773,-0.00042358,-0.00657910,0.00709083,0.00070587,-0.0107
 3997,0.02502007,-0.04971699,0.01672466,-0.03981341,-0.00703576,0.00104
 967,0.00049561,-0.00604521,0.00061827,-0.00021555,-0.00078277,0.000173
 51,0.00012505,-0.00003162,0.00017768,0.00022016,-0.00010584,-0.0004554
 6,-0.00021530,0.00001914,0.00019931,-0.00044900,0.00028922,-0.00504806
 ,0.01785721,0.00104740,0.00082430,-0.01133158,0.06088039,0.00001551,0.
 00000192,0.00001323,-0.00001904,0.00000330,-0.00003429,0.00001311,0.00
 000656,0.00001170,0.00001026,-0.00000279,0.00000918,0.00000879,-0.0000
 1034,0.00001162,0.00000002,0.00000150,-0.00000076,0.00002033,-0.000001
 71,-0.00001570,0.00005786,-0.00001705,0.00005753,-0.00005610,0.0000248
 1,0.00008191,0.00000364,0.00000725,0.00004143,0.00008697,-0.00001024,-
 0.00005567,-0.00008422,-0.00002505,0.00002020,-0.00004715,-0.00001216,
 0.00002252,0.00000035,0.00000025,-0.00000407,0.00001901,0.00000615,-0.
 00000770,0.00012785,-0.00026408,0.00034036,0.00213950,0.00123744,-0.00
 071285,-0.00036695,0.00040360,0.00024057,0.00034629,-0.00101659,-0.002
 84338,-0.01009977,0.01564462,-0.00489662,-0.21061893,0.00960133,-0.114
 81378,-0.02080698,-0.00109446,-0.01655222,0.00038918,0.00012996,-0.000
 04550,-0.00004388,0.00001489,-0.00003936,-0.00005875,-0.00003250,0.000
 07589,0.00023055,-0.00010379,-0.00008840,-0.00024134,0.00033332,0.0011
 5651,0.00029286,0.00003038,0.00038869,0.23183220,0.00000458,0.00000085
 ,0.00000501,-0.00000335,-0.00000847,-0.00000249,0.00000334,0.00000573,
 0.00000078,0.00000137,0.00000246,0.00000042,0.00000020,0.00000293,-0.0
 0000063,0.00000011,0.00000006,0.00000031,0.00000284,0.00000820,-0.0000
 0408,0.00000118,-0.00001836,0.00001362,0.00000758,-0.00000080,0.000029
 47,-0.00000459,0.00000543,0.00001602,0.00000147,0.00002404,0.00000368,
 0.00005302,0.00001970,-0.00000619,-0.00001730,0.00001252,0.00003266,-0
 .00000052,-0.00000172,-0.00000051,0.00000548,-0.00000418,-0.00000519,-
 0.00000868,-0.00014524,0.00015064,0.00171123,0.00058123,-0.00037676,-0
 .00007497,-0.00048396,-0.00082691,0.00015802,0.00176122,0.00675781,0.0
 3691956,-0.02205134,0.01729987,0.00975897,-0.04808741,0.00506769,-0.02
 002502,0.00200474,-0.01389447,0.00025421,0.00005714,-0.00000761,-0.000
 00782,0.00003040,-0.00003598,0.00010152,0.00027332,-0.00005648,-0.0000
 9196,-0.00019391,-0.00002124,-0.00114895,0.00042636,-0.00119259,-0.000
 39391,0.00003400,-0.00020537,-0.01993752,0.06587509,0.00000764,0.00000
 077,0.00001885,0.00000031,0.00000566,-0.00009195,0.00001119,0.00001309
 ,0.00002950,-0.00001062,-0.00000091,0.00002425,0.00000794,-0.00002134,
 0.00003451,0.00000047,0.00000248,-0.00000453,0.00001177,-0.00000105,0.
 00000004,0.00002825,0.00001237,0.00003131,-0.00003694,-0.00002392,-0.0
 0002098,-0.00000841,0.00000370,0.00004900,0.00003249,-0.00002768,-0.00
 001323,-0.00014439,-0.00004810,-0.00003898,-0.00001059,0.00001896,-0.0
 0001322,-0.00000071,0.00000169,-0.00000103,0.00000848,0.00000642,-0.00
 000083,0.00032246,0.00024421,0.00005807,0.00014837,0.00010748,0.001742
 20,0.00024602,0.00018492,-0.00013579,0.00265164,-0.00098625,0.00241505
 ,0.00093260,0.00389416,0.00339415,-0.11884976,0.00697753,-0.14389906,0
 .00856900,0.00019127,0.00447089,-0.00007281,0.00004023,-0.00022204,-0.
 00002459,-0.00003155,0.00002529,-0.00002889,0.00003862,-0.00002044,-0.
 00015882,-0.00011959,-0.00026259,-0.00104610,0.00052301,0.00082582,-0.
 00000354,0.00008023,0.00016639,0.13093533,-0.01261396,0.14679344,0.000
 03773,-0.00000309,0.00003458,0.00001849,-0.00000827,-0.00010580,0.0000
 0848,0.00001979,0.00003286,-0.00002614,0.00000445,0.00002615,0.0000031
 6,-0.00001791,0.00004005,0.00000125,0.00000200,-0.00000545,0.00002347,
 0.00000251,-0.00001731,0.00002486,0.00004075,0.00008826,-0.00007609,-0
 .00000633,-0.00000585,-0.00002945,0.00001891,0.00009070,0.00010171,-0.
 00001795,0.00004465,-0.00049409,-0.00027500,0.00003549,-0.00002075,0.0
 0000571,-0.00003387,-0.00000201,0.,0.00000082,0.00000706,-0.00001432,-
 0.00000693,0.00010750,0.00071454,0.00124158,-0.00267391,-0.00449084,0.
 00027133,0.00039466,-0.00027497,-0.00013485,-0.00015765,0.00172668,-0.
 00145357,-0.00425996,0.00713808,0.01350910,-0.06987531,0.00806130,0.05
 973917,-0.00482259,0.00479982,0.02341626,-0.00004319,0.00004991,-0.000
 04698,0.00002017,0.00000568,0.00001884,-0.00005330,-0.00001205,0.00002
 306,-0.00003139,0.00005675,-0.00003852,0.00013697,0.00012700,0.0005259
 0,0.00010226,0.00014959,0.00065834,0.00882899,-0.00423838,-0.02436401,
 0.07179215,0.00004069,-0.00000160,0.00003560,0.00000881,-0.00003131,-0
 .00008672,0.00001337,0.00002958,0.00002518,-0.00002039,0.00001004,0.00
 002041,0.00000204,-0.00000564,0.00003122,0.00000158,0.00000166,-0.0000
 0411,0.00001804,0.00001023,-0.00001980,0.00002519,0.00005173,0.0000983
 1,-0.00007628,-0.00001612,-0.00002016,-0.00003385,0.00002159,0.0000975
 9,0.00006611,-0.00000289,0.00004395,-0.00043278,-0.00027124,0.00002242
 ,0.00000987,0.00002308,-0.00003282,-0.00000293,-0.00000239,0.00000214,
 0.00000591,-0.00003465,-0.00000501,-0.00036916,0.00103342,0.00088055,-
 0.00437365,-0.00358013,0.00175135,0.00005201,-0.00119416,-0.00033907,0
 .00171151,-0.00576435,0.00258858,0.01400914,-0.01613123,-0.03913879,0.
 00590069,-0.05217560,-0.02896449,-0.00256566,0.00702990,0.02044462,-0.
 00017775,-0.00009149,0.00002035,0.00005847,0.00001218,-0.00001275,0.00
 005057,0.00023925,0.00003783,-0.00003702,0.00021900,0.00000105,-0.0002
 1192,0.00003598,-0.00008083,0.00079813,-0.00051229,-0.00170286,-0.0014
 4395,0.00151713,0.00115830,-0.01431769,0.06857241,-0.00004233,0.000005
 83,-0.00005024,-0.00004165,0.00000058,0.00022023,-0.00001135,-0.000033
 89,-0.00006980,0.00005640,-0.00000589,-0.00005721,-0.00000558,0.000041
 07,-0.00008396,-0.00000208,-0.00000415,0.00001242,-0.00001841,-0.00000
 248,0.00000675,-0.00003199,-0.00002003,-0.00006810,0.00004490,0.000033
 61,0.00009714,0.00005245,-0.00001976,-0.00014753,-0.00005574,0.0000323
 8,-0.00000095,0.00021602,0.00010959,0.00000956,0.00001535,-0.00002805,
 0.00001749,0.00000320,-0.00000239,-0.00000189,-0.00001449,0.00000390,0
 .00000771,0.00008388,-0.00088233,0.00010294,0.00202260,0.00238733,0.00
 016727,-0.00052073,0.00033873,0.00019705,-0.00027719,-0.00033061,0.002
 37149,0.00098787,-0.00400799,0.00073970,0.06537998,-0.03862862,-0.3010
 7865,-0.00107378,-0.00203291,-0.00735119,0.00022304,0.00010151,-0.0000
 3699,-0.00001153,0.00001595,-0.00001772,-0.00000542,-0.00001778,-0.000
 03014,0.00011235,-0.00003699,0.00002155,-0.00000604,0.00014816,0.00032
 861,0.00028157,0.00000089,-0.00018032,0.00487770,-0.00180308,-0.015867
 11,-0.07277624,0.04410592,0.32037256,-0.00003881,-0.00000874,-0.000021
 40,-0.00000433,0.00002542,0.00003154,-0.00000841,-0.00001859,-0.000011
 64,0.00001008,-0.00000846,-0.00000594,0.00000105,-0.00000584,-0.000011
 17,-0.00000208,0.00000039,0.00000236,-0.00001650,0.00002208,0.00002083
 ,-0.00003813,0.00001043,-0.00010465,0.00008428,-0.00003280,-0.00004037
 ,0.00002185,-0.00000420,-0.00005356,-0.00009582,-0.00004293,0.00002479
 ,0.00015862,-0.00031141,-0.00007152,0.00002542,0.00001735,-0.00002712,
 0.00000172,0.00000467,-0.00000023,-0.00000022,-0.00000051,0.00000736,0
 .00004835,0.00213144,-0.00028410,-0.00408587,0.00927022,0.00232385,-0.
 00047208,-0.00013468,0.00294656,-0.00078829,0.00005809,0.00130973,-0.0
 0256489,-0.00621583,0.00127980,0.01161802,-0.02020315,-0.00222702,-0.0
 8720366,0.09006398,-0.00124070,-0.00017740,0.00001346,-0.00012601,-0.0
 0006054,-0.00060740,0.00052017,0.00020200,0.00087398,0.00015227,0.0003
 2348,-0.00056062,-0.00007915,0.00008702,-0.00000821,-0.00016943,0.0000
 5203,0.00000789,-0.00017134,0.00057332,0.00078953,-0.00066209,0.000648
 32,0.00099192,0.00018008,0.09075453,-0.00002316,0.00000551,-0.00002394
 ,-0.00001429,-0.00003155,0.00010697,-0.00000250,-0.00000021,-0.0000344
 6,0.00001943,0.00000799,-0.00002822,-0.00000868,0.00003632,-0.00004206
 ,0.00000095,-0.00000348,0.00000514,-0.00001246,-0.00001671,0.00001594,
 -0.00008923,-0.00004259,-0.00006033,0.00008051,0.00004795,0.00000137,0
 .00001847,-0.00000293,-0.00005858,-0.00007609,0.00011325,0.00017357,-0
 .00011088,0.00054736,-0.00026034,0.00001657,-0.00008517,0.00003634,0.0
 0000050,-0.00000502,0.00000139,-0.00001549,-0.00000961,0.00000017,-0.0
 0144602,0.00070947,0.00158012,0.00335282,-0.00916035,-0.00376237,0.000
 05312,0.00202437,-0.00188208,-0.00003844,0.00081490,0.00119565,-0.0041
 5215,-0.00395508,0.00103711,0.01150189,-0.01680659,-0.00090880,0.09024
 330,-0.27510458,0.00056966,0.00016019,-0.00020082,-0.00003541,0.000419
 17,0.00061536,-0.00001973,0.00009320,-0.00057325,0.00022187,0.00008623
 ,0.00004190,0.00009687,-0.00002305,-0.00006407,-0.00017668,-0.00002457
 ,-0.00006640,-0.00004664,-0.00025942,0.00066252,-0.00056090,-0.0000790
 0,0.00037441,0.00048693,-0.09986801,0.30033215,0.00001489,0.00000424,0
 .00001619,0.00001035,-0.00001808,-0.00003303,0.00000293,0.00001360,0.0
 0001013,-0.00001482,0.00000646,0.00000771,-0.00000170,0.00000152,0.000
 01267,0.00000106,0.00000020,-0.00000274,0.00000262,-0.00000457,0.00000
 080,-0.00003713,-0.00001501,0.00005536,-0.00000831,0.00002905,-0.00003
 795,-0.00002214,0.00001389,0.00002994,0.00001680,0.00001244,0.00008358
 ,-0.00033449,0.00001363,0.00011057,0.00000066,-0.00005132,0.00003369,-
 0.00000209,-0.00000339,0.00000256,-0.00000588,0.00001506,-0.00001076,-
 0.00007973,-0.00266178,0.00073732,0.01379807,-0.03509320,-0.00562137,0
 .00226604,0.00054791,-0.00595714,0.00077101,0.00008255,-0.00124464,0.0
 0216411,0.00357803,0.00092677,-0.00673885,0.00681432,0.00008525,-0.003
 42896,0.00838262,-0.04781235,0.00004545,0.00044895,-0.00010826,0.00008
 095,0.00085519,-0.00007243,0.00064696,-0.00174843,-0.00003611,0.000359
 61,-0.00029177,0.00012986,-0.00011870,0.00005860,0.00017549,-0.0000976
 1,0.00000570,0.00015217,0.00008607,-0.00048898,0.00026452,-0.00039247,
 -0.00028750,-0.00020307,-0.00267302,0.00165202,0.05772616,-0.00004031,
 0.00000725,-0.00002722,-0.00006048,0.00000426,0.00014182,0.00000605,-0
 .00001893,-0.00004416,0.00005907,-0.00000593,-0.00003519,0.00000625,0.
 00002310,-0.00005511,-0.00000167,-0.00000171,0.00000875,-0.00000029,-0
 .00001826,0.00000828,0.00003376,0.00002083,-0.00003626,0.00004111,-0.0
 0000109,0.00020193,0.00002906,-0.00002707,-0.00011143,-0.00001384,-0.0
 0003754,-0.00009240,0.00012138,0.00011966,0.00010327,-0.00016681,-0.00
 002881,0.00003834,0.00000315,-0.00000326,-0.00000739,-0.00000321,0.000
 02430,-0.00000117,0.00368956,0.00037171,0.00187912,0.00888190,-0.00108
 154,0.00310160,0.00217585,-0.00119572,0.00162404,-0.00005334,0.0000471
 7,-0.00020844,0.00374739,0.00049001,0.00083135,-0.02248727,0.00369405,
 -0.01579670,-0.19306690,0.00978620,-0.10650251,0.00028244,0.00098577,-
 0.00189059,-0.00032894,0.00004028,-0.00015362,0.00003157,-0.00016623,-
 0.00005394,-0.00011677,-0.00147235,-0.00097355,-0.00018859,0.00028599,
 0.00010089,0.00006692,-0.00005560,-0.00005099,-0.00255351,-0.00382126,
 0.00150829,0.00030858,0.00029898,0.00035715,-0.00905308,0.00019710,-0.
 00631167,0.20865096,-0.00000027,-0.00000036,-0.00001183,0.00000082,0.0
 0000729,0.00002529,-0.00000534,-0.00000929,-0.00000827,0.00000323,-0.0
 0000365,-0.00000590,-0.00000225,0.00000256,-0.00000753,-0.00000041,-0.
 00000052,0.00000088,-0.00000145,-0.00000811,0.00000607,-0.00002278,-0.
 00000821,-0.00004536,0.00004141,0.00003541,-0.00000886,0.00000489,0.00
 001202,-0.00001391,-0.00000578,0.00001800,0.00002633,-0.00002432,-0.00
 006822,0.00000851,-0.00004389,-0.00006507,-0.00003171,0.00000113,0.000
 00102,-0.00000149,-0.00001062,0.00000588,0.00000632,0.00072928,0.00026
 296,0.00060146,-0.00530466,0.00067146,-0.00755535,-0.00287811,0.001830
 12,-0.00201179,-0.00007850,-0.00034158,-0.00027747,0.00112727,0.002449
 52,0.00013655,-0.01897225,0.00014621,-0.01275991,0.01128755,-0.0546439
 3,0.00763808,0.00010492,0.00011025,0.00002000,0.00042361,-0.00012282,-
 0.00012360,0.00020689,0.00005371,0.00011862,0.00030825,0.00050167,0.00
 064783,0.00019128,-0.00000896,0.00014977,0.00001424,-0.00002417,0.0000
 3344,-0.00321564,-0.00230968,0.00093015,0.00083232,0.00063348,0.000044
 57,0.02375052,-0.00020503,0.01812806,-0.00846136,0.05107805,-0.0000251
 2,0.00000222,-0.00008803,-0.00007021,0.00001427,0.00034481,-0.00001838
 ,-0.00006098,-0.00010611,0.00009789,-0.00001461,-0.00008762,-0.0000066
 1,0.00005553,-0.00012694,-0.00000361,-0.00000584,0.00001867,-0.0000038
 2,-0.00002077,-0.00000791,0.00000578,-0.00008839,-0.00013868,0.0000964
 1,0.00024065,0.00030649,0.00008674,0.00000303,-0.00019049,-0.00000310,
 0.00010221,0.00000121,0.00086487,0.00002852,0.00002347,-0.00003648,-0.
 00028540,0.00042463,0.00000757,-0.00000580,-0.00001217,0.00002620,0.00
 000721,-0.00000782,-0.00489873,-0.00364733,0.00156379,-0.01800873,-0.0
 0372998,-0.04273198,-0.00273912,0.00517074,0.00050093,0.00055182,-0.00
 042788,-0.00068622,-0.00037971,-0.00068366,0.00009266,0.00845670,0.000
 15777,0.00694054,-0.11135632,0.00709899,-0.13096456,0.00208858,0.00051
 357,0.00057230,0.00012366,0.00026140,-0.00013621,0.00063540,-0.0000282
 7,0.00025155,0.00153212,-0.00123229,0.00103452,0.00015035,0.00013437,-
 0.00003676,-0.00012735,-0.00011385,0.00016316,0.00173985,0.00216454,0.
 00024849,-0.00041529,-0.00067047,0.00057237,-0.00081888,0.00071944,0.0
 0057912,0.12244751,-0.00565896,0.16168278\\0.00005516,-0.00001010,0.00
 005516,-0.00001972,-0.00006074,-0.00004465,0.00004599,0.00004875,0.000
 01402,-0.00003525,-0.00000107,0.00000168,0.00000130,-0.00000545,-0.000
 02033,-0.00000388,0.00000592,0.00000546,-0.00003339,-0.00002398,0.0000
 1589,0.00003810,0.00004835,0.00002116,-0.00000558,0.00001507,-0.000081
 55,-0.00005245,-0.00000566,0.00001822,-0.00000795,-0.00003483,0.000008
 77,0.00001792,-0.00001039,0.00000006,-0.00000449,-0.00000964,0.0000075
 5,0.00000872,0.00001323,0.00000086,-0.00000409,0.00001508,0.00000202,-
 0.00000765,0.00001179,-0.00000480,-0.00000683,-0.00001723,0.00001737,0
 .00000803,0.00002803,-0.00000281,0.00000214,-0.00003045,0.00001582,0.0
 0000658,0.00001307,-0.00002385,-0.00000652,-0.00001498,0.00002093,0.00
 000408,0.00002035,-0.00002105,-0.00000598,0.00000516,-0.00000681,0.000
 00126,-0.00000271,0.00000024,0.00000333,-0.00000267,0.00000028,-0.0000
 0235,0.00000330,0.00000113,0.00000713,0.00000067,-0.00000061,0.0000036
 7,-0.00000304,0.00000034,-0.00000108,0.00000174,-0.00000180,-0.0000015
 4,0.00000258,-0.00000463,-0.00000003,-0.00000402,0.00000357,-0.0000046
 2,0.00000387,0.00000239\\\@
 The archive entry for this job was punched.


 MOM AND DAD WENT TO ALPHA CENTAURI AND ALL
 I GOT WAS THIS DUMB T-SHIRT.
 Job cpu time:       0 days  3 hours 19 minutes 39.8 seconds.
 Elapsed time:       0 days  0 hours 12 minutes 33.2 seconds.
 File lengths (MBytes):  RWF=    558 Int=      0 D2E=      0 Chk=     14 Scr=      1
 Normal termination of Gaussian 16 at Fri May 27 10:23:13 2022.
