 Entering Gaussian System, Link 0=g16
 AtFile(1): /home/561/yj5695/Basis/6-31pGd.gbs
 Initial command:
 /apps/gaussian/g16c01/g16/l1.exe "/jobfs/41560454.gadi-pbs/Gau-3468550.inp" -scrdir="/jobfs/41560454.gadi-pbs/"
 Entering Link 1 = /apps/gaussian/g16c01/g16/l1.exe PID=   3468551.
  
 Copyright (c) 1988-2019, Gaussian, Inc.  All Rights Reserved.
  
 This is part of the Gaussian(R) 16 program.  It is based on
 the Gaussian(R) 09 system (copyright 2009, Gaussian, Inc.),
 the Gaussian(R) 03 system (copyright 2003, Gaussian, Inc.),
 the Gaussian(R) 98 system (copyright 1998, Gaussian, Inc.),
 the Gaussian(R) 94 system (copyright 1995, Gaussian, Inc.),
 the Gaussian 92(TM) system (copyright 1992, Gaussian, Inc.),
 the Gaussian 90(TM) system (copyright 1990, Gaussian, Inc.),
 the Gaussian 88(TM) system (copyright 1988, Gaussian, Inc.),
 the Gaussian 86(TM) system (copyright 1986, Carnegie Mellon
 University), and the Gaussian 82(TM) system (copyright 1983,
 Carnegie Mellon University). Gaussian is a federally registered
 trademark of Gaussian, Inc.
  
 This software contains proprietary and confidential information,
 including trade secrets, belonging to Gaussian, Inc.
  
 This software is provided under written license and may be
 used, copied, transmitted, or stored only in accord with that
 written license.
  
 The following legend is applicable only to US Government
 contracts under FAR:
  
                    RESTRICTED RIGHTS LEGEND
  
 Use, reproduction and disclosure by the US Government is
 subject to restrictions as set forth in subparagraphs (a)
 and (c) of the Commercial Computer Software - Restricted
 Rights clause in FAR 52.227-19.
  
 Gaussian, Inc.
 340 Quinnipiac St., Bldg. 40, Wallingford CT 06492
  
  
 ---------------------------------------------------------------
 Warning -- This program may not be used in any manner that
 competes with the business of Gaussian, Inc. or will provide
 assistance to any competitor of Gaussian, Inc.  The licensee
 of this program is prohibited from giving any competitor of
 Gaussian, Inc. access to this program.  By using this program,
 the user acknowledges that Gaussian, Inc. is engaged in the
 business of creating and licensing software in the field of
 computational chemistry and represents and warrants to the
 licensee that it is not a competitor of Gaussian, Inc. and that
 it will not use this program in any manner prohibited above.
 ---------------------------------------------------------------
  

 Cite this work as:
 Gaussian 16, Revision C.01,
 M. J. Frisch, G. W. Trucks, H. B. Schlegel, G. E. Scuseria, 
 M. A. Robb, J. R. Cheeseman, G. Scalmani, V. Barone, 
 G. A. Petersson, H. Nakatsuji, X. Li, M. Caricato, A. V. Marenich, 
 J. Bloino, B. G. Janesko, R. Gomperts, B. Mennucci, H. P. Hratchian, 
 J. V. Ortiz, A. F. Izmaylov, J. L. Sonnenberg, D. Williams-Young, 
 F. Ding, F. Lipparini, F. Egidi, J. Goings, B. Peng, A. Petrone, 
 T. Henderson, D. Ranasinghe, V. G. Zakrzewski, J. Gao, N. Rega, 
 G. Zheng, W. Liang, M. Hada, M. Ehara, K. Toyota, R. Fukuda, 
 J. Hasegawa, M. Ishida, T. Nakajima, Y. Honda, O. Kitao, H. Nakai, 
 T. Vreven, K. Throssell, J. A. Montgomery, Jr., J. E. Peralta, 
 F. Ogliaro, M. J. Bearpark, J. J. Heyd, E. N. Brothers, K. N. Kudin, 
 V. N. Staroverov, T. A. Keith, R. Kobayashi, J. Normand, 
 K. Raghavachari, A. P. Rendell, J. C. Burant, S. S. Iyengar, 
 J. Tomasi, M. Cossi, J. M. Millam, M. Klene, C. Adamo, R. Cammi, 
 J. W. Ochterski, R. L. Martin, K. Morokuma, O. Farkas, 
 J. B. Foresman, and D. J. Fox, Gaussian, Inc., Wallingford CT, 2019.
 
 ******************************************
 Gaussian 16:  ES64L-G16RevC.01  3-Jul-2019
                28-May-2022 
 ******************************************
 %nproc=16
 Will use up to   16 processors via shared memory.
 %mem=30gb
 --------------------------------------------------
 #M062X/gen 6D INT(grid=ultrafine) OPT Freq=noraman
 --------------------------------------------------
 1/18=20,19=15,26=4,38=1/1,3;
 2/9=110,12=2,17=6,18=5,40=1/2;
 3/5=7,8=2,11=2,25=1,30=1,71=1,74=-55,75=-5/1,2,3;
 4//1;
 5/5=2,38=5/2;
 6/7=2,8=2,9=2,10=2,28=1/1;
 7//1,2,3,16;
 1/18=20,19=15,26=4/3(2);
 2/9=110/2;
 99//99;
 2/9=110/2;
 3/5=7,6=1,8=2,11=2,25=1,30=1,71=1,74=-55,75=-5,82=7/1,2,3;
 4/5=5,16=3,69=1/1;
 5/5=2,38=5/2;
 7//1,2,3,16;
 1/18=20,19=15,26=4/3(-5);
 2/9=110/2;
 6/7=2,8=2,9=2,10=2,19=2,28=1/1;
 99/9=1/99;
 ----------------
 A.20.a3b2e2.freq
 ----------------
 Symbolic Z-matrix:
 Charge = -1 Multiplicity = 1
 C                    -1.60749   0.60714  -1.38239 
 S                    -2.1319    0.48703   0.33301 
 O                    -2.86907   1.75254   0.58207 
 O                    -3.00981  -0.71918   0.31919 
 N                    -0.87224   0.41625   1.23523 
 H                    -0.4671   -0.52006   1.15974 
 S                    -2.73309   0.4674   -2.69283 
 C                    -1.49811   0.72259  -3.85322 
 C                    -0.29231   0.90746  -3.2387 
 C                    -0.3365    0.84098  -1.813 
 S                     1.20083   1.13752  -4.14535 
 C                     2.04222  -0.42097  -4.03394 
 O                     2.00727   2.14634  -3.44275 
 O                     0.83661   1.37371  -5.55055 
 C                     3.01894  -0.59583  -3.05871 
 C                     3.64554  -1.83725  -2.96479 
 C                     3.29758  -2.88326  -3.82326 
 C                     2.30214  -2.67685  -4.78768 
 C                     1.66591  -1.44673  -4.90155 
 H                    -1.71557   0.71704  -4.91489 
 H                     0.51767   0.95953  -1.15446 
 H                     3.28998   0.21753  -2.39273 
 H                     4.41714  -1.99265  -2.21506 
 H                     0.89106  -1.2877   -5.6463 
 C                     3.98366  -4.22374  -3.71798 
 N                     4.94416  -4.45834  -4.80168 
 H                     2.02016  -3.48964  -5.45181 
 H                     3.23127  -5.0181   -3.76672 
 H                     4.48519  -4.29861  -2.73728 
 C                     6.0659   -3.51857  -4.70833 
 C                     5.47424  -5.81972  -4.67487 
 C                     6.52031  -6.08782  -5.73992 
 C                     7.10585  -3.82457  -5.77018 
 O                     7.59421  -5.15672  -5.64483 
 H                     6.53558  -3.57755  -3.70865 
 H                     5.70425  -2.49578  -4.85235 
 H                     4.65386  -6.53678  -4.78078 
 H                     5.92963  -5.96572  -3.67801 
 H                     6.07212  -6.02197  -6.74206 
 H                     6.95219  -7.08233  -5.6083 
 H                     7.96676  -3.16146  -5.66088 
 H                     6.67627  -3.69009  -6.77363 
 

 GradGradGradGradGradGradGradGradGradGradGradGradGradGradGradGradGradGrad
 Berny optimization.
 Initialization pass.
                           ----------------------------
                           !    Initial Parameters    !
                           ! (Angstroms and Degrees)  !
 --------------------------                            --------------------------
 ! Name  Definition              Value          Derivative Info.                !
 --------------------------------------------------------------------------------
 ! R1    R(1,2)                  1.7978         estimate D2E/DX2                !
 ! R2    R(1,7)                  1.7331         estimate D2E/DX2                !
 ! R3    R(1,10)                 1.3622         estimate D2E/DX2                !
 ! R4    R(2,3)                  1.4856         estimate D2E/DX2                !
 ! R5    R(2,4)                  1.4919         estimate D2E/DX2                !
 ! R6    R(2,5)                  1.551          estimate D2E/DX2                !
 ! R7    R(5,6)                  1.023          estimate D2E/DX2                !
 ! R8    R(7,8)                  1.7137         estimate D2E/DX2                !
 ! R9    R(8,9)                  1.3659         estimate D2E/DX2                !
 ! R10   R(8,20)                 1.0837         estimate D2E/DX2                !
 ! R11   R(9,10)                 1.4279         estimate D2E/DX2                !
 ! R12   R(9,11)                 1.7619         estimate D2E/DX2                !
 ! R13   R(10,21)                1.085          estimate D2E/DX2                !
 ! R14   R(11,12)                1.7746         estimate D2E/DX2                !
 ! R15   R(11,13)                1.4703         estimate D2E/DX2                !
 ! R16   R(11,14)                1.4707         estimate D2E/DX2                !
 ! R17   R(12,15)                1.3913         estimate D2E/DX2                !
 ! R18   R(12,19)                1.3952         estimate D2E/DX2                !
 ! R19   R(15,16)                1.3938         estimate D2E/DX2                !
 ! R20   R(15,22)                1.0856         estimate D2E/DX2                !
 ! R21   R(16,17)                1.3972         estimate D2E/DX2                !
 ! R22   R(16,23)                1.087          estimate D2E/DX2                !
 ! R23   R(17,18)                1.4013         estimate D2E/DX2                !
 ! R24   R(17,25)                1.5095         estimate D2E/DX2                !
 ! R25   R(18,19)                1.3896         estimate D2E/DX2                !
 ! R26   R(18,27)                1.0868         estimate D2E/DX2                !
 ! R27   R(19,24)                1.0864         estimate D2E/DX2                !
 ! R28   R(25,26)                1.467          estimate D2E/DX2                !
 ! R29   R(25,28)                1.0952         estimate D2E/DX2                !
 ! R30   R(25,29)                1.104          estimate D2E/DX2                !
 ! R31   R(26,30)                1.4663         estimate D2E/DX2                !
 ! R32   R(26,31)                1.4664         estimate D2E/DX2                !
 ! R33   R(30,33)                1.5174         estimate D2E/DX2                !
 ! R34   R(30,35)                1.1061         estimate D2E/DX2                !
 ! R35   R(30,36)                1.0944         estimate D2E/DX2                !
 ! R36   R(31,32)                1.5167         estimate D2E/DX2                !
 ! R37   R(31,37)                1.0947         estimate D2E/DX2                !
 ! R38   R(31,38)                1.1056         estimate D2E/DX2                !
 ! R39   R(32,34)                1.4245         estimate D2E/DX2                !
 ! R40   R(32,39)                1.0998         estimate D2E/DX2                !
 ! R41   R(32,40)                1.0922         estimate D2E/DX2                !
 ! R42   R(33,34)                1.4244         estimate D2E/DX2                !
 ! R43   R(33,41)                1.0922         estimate D2E/DX2                !
 ! R44   R(33,42)                1.0998         estimate D2E/DX2                !
 ! A1    A(2,1,7)              121.7776         estimate D2E/DX2                !
 ! A2    A(2,1,10)             125.8225         estimate D2E/DX2                !
 ! A3    A(7,1,10)             112.3835         estimate D2E/DX2                !
 ! A4    A(1,2,3)              104.3472         estimate D2E/DX2                !
 ! A5    A(1,2,4)              102.5225         estimate D2E/DX2                !
 ! A6    A(1,2,5)              108.7338         estimate D2E/DX2                !
 ! A7    A(3,2,4)              113.4706         estimate D2E/DX2                !
 ! A8    A(3,2,5)              110.1419         estimate D2E/DX2                !
 ! A9    A(4,2,5)              116.5125         estimate D2E/DX2                !
 ! A10   A(2,5,6)              108.6919         estimate D2E/DX2                !
 ! A11   A(1,7,8)               91.8304         estimate D2E/DX2                !
 ! A12   A(7,8,9)              110.5905         estimate D2E/DX2                !
 ! A13   A(7,8,20)             121.1966         estimate D2E/DX2                !
 ! A14   A(9,8,20)             128.2113         estimate D2E/DX2                !
 ! A15   A(8,9,10)             114.5553         estimate D2E/DX2                !
 ! A16   A(8,9,11)             122.2939         estimate D2E/DX2                !
 ! A17   A(10,9,11)            123.0982         estimate D2E/DX2                !
 ! A18   A(1,10,9)             110.6396         estimate D2E/DX2                !
 ! A19   A(1,10,21)            124.1538         estimate D2E/DX2                !
 ! A20   A(9,10,21)            125.2065         estimate D2E/DX2                !
 ! A21   A(9,11,12)            104.7626         estimate D2E/DX2                !
 ! A22   A(9,11,13)            107.9693         estimate D2E/DX2                !
 ! A23   A(9,11,14)            107.6233         estimate D2E/DX2                !
 ! A24   A(12,11,13)           108.2114         estimate D2E/DX2                !
 ! A25   A(12,11,14)           108.5683         estimate D2E/DX2                !
 ! A26   A(13,11,14)           118.8309         estimate D2E/DX2                !
 ! A27   A(11,12,15)           119.1589         estimate D2E/DX2                !
 ! A28   A(11,12,19)           118.6041         estimate D2E/DX2                !
 ! A29   A(15,12,19)           122.1985         estimate D2E/DX2                !
 ! A30   A(12,15,16)           118.3459         estimate D2E/DX2                !
 ! A31   A(12,15,22)           120.739          estimate D2E/DX2                !
 ! A32   A(16,15,22)           120.9138         estimate D2E/DX2                !
 ! A33   A(15,16,17)           120.8941         estimate D2E/DX2                !
 ! A34   A(15,16,23)           119.5337         estimate D2E/DX2                !
 ! A35   A(17,16,23)           119.5721         estimate D2E/DX2                !
 ! A36   A(16,17,18)           119.3078         estimate D2E/DX2                !
 ! A37   A(16,17,25)           120.5817         estimate D2E/DX2                !
 ! A38   A(18,17,25)           120.1105         estimate D2E/DX2                !
 ! A39   A(17,18,19)           120.8003         estimate D2E/DX2                !
 ! A40   A(17,18,27)           119.6505         estimate D2E/DX2                !
 ! A41   A(19,18,27)           119.5485         estimate D2E/DX2                !
 ! A42   A(12,19,18)           118.4498         estimate D2E/DX2                !
 ! A43   A(12,19,24)           120.7325         estimate D2E/DX2                !
 ! A44   A(18,19,24)           120.8173         estimate D2E/DX2                !
 ! A45   A(17,25,26)           112.8344         estimate D2E/DX2                !
 ! A46   A(17,25,28)           109.1926         estimate D2E/DX2                !
 ! A47   A(17,25,29)           109.1857         estimate D2E/DX2                !
 ! A48   A(26,25,28)           107.5141         estimate D2E/DX2                !
 ! A49   A(26,25,29)           110.3606         estimate D2E/DX2                !
 ! A50   A(28,25,29)           107.6032         estimate D2E/DX2                !
 ! A51   A(25,26,30)           110.5707         estimate D2E/DX2                !
 ! A52   A(25,26,31)           108.739          estimate D2E/DX2                !
 ! A53   A(30,26,31)           108.2369         estimate D2E/DX2                !
 ! A54   A(26,30,33)           110.517          estimate D2E/DX2                !
 ! A55   A(26,30,35)           110.3775         estimate D2E/DX2                !
 ! A56   A(26,30,36)           109.7425         estimate D2E/DX2                !
 ! A57   A(33,30,35)           109.3099         estimate D2E/DX2                !
 ! A58   A(33,30,36)           108.8353         estimate D2E/DX2                !
 ! A59   A(35,30,36)           108.0049         estimate D2E/DX2                !
 ! A60   A(26,31,32)           110.6515         estimate D2E/DX2                !
 ! A61   A(26,31,37)           109.1984         estimate D2E/DX2                !
 ! A62   A(26,31,38)           110.453          estimate D2E/DX2                !
 ! A63   A(32,31,37)           109.4591         estimate D2E/DX2                !
 ! A64   A(32,31,38)           109.0083         estimate D2E/DX2                !
 ! A65   A(37,31,38)           108.0227         estimate D2E/DX2                !
 ! A66   A(31,32,34)           110.9481         estimate D2E/DX2                !
 ! A67   A(31,32,39)           110.3781         estimate D2E/DX2                !
 ! A68   A(31,32,40)           110.4291         estimate D2E/DX2                !
 ! A69   A(34,32,39)           109.203          estimate D2E/DX2                !
 ! A70   A(34,32,40)           106.7993         estimate D2E/DX2                !
 ! A71   A(39,32,40)           108.9948         estimate D2E/DX2                !
 ! A72   A(30,33,34)           111.2221         estimate D2E/DX2                !
 ! A73   A(30,33,41)           110.35           estimate D2E/DX2                !
 ! A74   A(30,33,42)           110.25           estimate D2E/DX2                !
 ! A75   A(34,33,41)           106.7844         estimate D2E/DX2                !
 ! A76   A(34,33,42)           109.1825         estimate D2E/DX2                !
 ! A77   A(41,33,42)           108.9633         estimate D2E/DX2                !
 ! A78   A(32,34,33)           110.3016         estimate D2E/DX2                !
 ! D1    D(7,1,2,3)            -71.7934         estimate D2E/DX2                !
 ! D2    D(7,1,2,4)             46.7567         estimate D2E/DX2                !
 ! D3    D(7,1,2,5)            170.6866         estimate D2E/DX2                !
 ! D4    D(10,1,2,3)           106.6233         estimate D2E/DX2                !
 ! D5    D(10,1,2,4)          -134.8266         estimate D2E/DX2                !
 ! D6    D(10,1,2,5)           -10.8967         estimate D2E/DX2                !
 ! D7    D(2,1,7,8)            178.6635         estimate D2E/DX2                !
 ! D8    D(10,1,7,8)             0.0518         estimate D2E/DX2                !
 ! D9    D(2,1,10,9)          -178.4523         estimate D2E/DX2                !
 ! D10   D(2,1,10,21)            1.5103         estimate D2E/DX2                !
 ! D11   D(7,1,10,9)             0.0921         estimate D2E/DX2                !
 ! D12   D(7,1,10,21)         -179.9453         estimate D2E/DX2                !
 ! D13   D(1,2,5,6)            -75.2949         estimate D2E/DX2                !
 ! D14   D(3,2,5,6)            170.9334         estimate D2E/DX2                !
 ! D15   D(4,2,5,6)             39.8583         estimate D2E/DX2                !
 ! D16   D(1,7,8,9)             -0.1869         estimate D2E/DX2                !
 ! D17   D(1,7,8,20)           179.3763         estimate D2E/DX2                !
 ! D18   D(7,8,9,10)             0.2793         estimate D2E/DX2                !
 ! D19   D(7,8,9,11)           177.7183         estimate D2E/DX2                !
 ! D20   D(20,8,9,10)         -179.245          estimate D2E/DX2                !
 ! D21   D(20,8,9,11)           -1.8061         estimate D2E/DX2                !
 ! D22   D(8,9,10,1)            -0.2425         estimate D2E/DX2                !
 ! D23   D(8,9,10,21)          179.7955         estimate D2E/DX2                !
 ! D24   D(11,9,10,1)         -177.6582         estimate D2E/DX2                !
 ! D25   D(11,9,10,21)           2.3797         estimate D2E/DX2                !
 ! D26   D(8,9,11,12)         -103.5695         estimate D2E/DX2                !
 ! D27   D(8,9,11,13)          141.2652         estimate D2E/DX2                !
 ! D28   D(8,9,11,14)           11.8492         estimate D2E/DX2                !
 ! D29   D(10,9,11,12)          73.6497         estimate D2E/DX2                !
 ! D30   D(10,9,11,13)         -41.5155         estimate D2E/DX2                !
 ! D31   D(10,9,11,14)        -170.9315         estimate D2E/DX2                !
 ! D32   D(9,11,12,15)         -96.3684         estimate D2E/DX2                !
 ! D33   D(9,11,12,19)          81.4261         estimate D2E/DX2                !
 ! D34   D(13,11,12,15)         18.6278         estimate D2E/DX2                !
 ! D35   D(13,11,12,19)       -163.5777         estimate D2E/DX2                !
 ! D36   D(14,11,12,15)        148.8724         estimate D2E/DX2                !
 ! D37   D(14,11,12,19)        -33.3331         estimate D2E/DX2                !
 ! D38   D(11,12,15,16)        178.4281         estimate D2E/DX2                !
 ! D39   D(11,12,15,22)         -1.9877         estimate D2E/DX2                !
 ! D40   D(19,12,15,16)          0.7164         estimate D2E/DX2                !
 ! D41   D(19,12,15,22)       -179.6994         estimate D2E/DX2                !
 ! D42   D(11,12,19,18)       -178.307          estimate D2E/DX2                !
 ! D43   D(11,12,19,24)          1.4872         estimate D2E/DX2                !
 ! D44   D(15,12,19,18)         -0.5831         estimate D2E/DX2                !
 ! D45   D(15,12,19,24)        179.2111         estimate D2E/DX2                !
 ! D46   D(12,15,16,17)         -0.3337         estimate D2E/DX2                !
 ! D47   D(12,15,16,23)        179.5076         estimate D2E/DX2                !
 ! D48   D(22,15,16,17)       -179.9171         estimate D2E/DX2                !
 ! D49   D(22,15,16,23)         -0.0758         estimate D2E/DX2                !
 ! D50   D(15,16,17,18)         -0.1597         estimate D2E/DX2                !
 ! D51   D(15,16,17,25)        179.8198         estimate D2E/DX2                !
 ! D52   D(23,16,17,18)        179.999          estimate D2E/DX2                !
 ! D53   D(23,16,17,25)         -0.0215         estimate D2E/DX2                !
 ! D54   D(16,17,18,19)          0.2981         estimate D2E/DX2                !
 ! D55   D(16,17,18,27)       -179.3944         estimate D2E/DX2                !
 ! D56   D(25,17,18,19)       -179.6815         estimate D2E/DX2                !
 ! D57   D(25,17,18,27)          0.6259         estimate D2E/DX2                !
 ! D58   D(16,17,25,26)       -105.5815         estimate D2E/DX2                !
 ! D59   D(16,17,25,28)        134.9254         estimate D2E/DX2                !
 ! D60   D(16,17,25,29)         17.5271         estimate D2E/DX2                !
 ! D61   D(18,17,25,26)         74.3979         estimate D2E/DX2                !
 ! D62   D(18,17,25,28)        -45.0952         estimate D2E/DX2                !
 ! D63   D(18,17,25,29)       -162.4935         estimate D2E/DX2                !
 ! D64   D(17,18,19,12)          0.063          estimate D2E/DX2                !
 ! D65   D(17,18,19,24)       -179.7311         estimate D2E/DX2                !
 ! D66   D(27,18,19,12)        179.7559         estimate D2E/DX2                !
 ! D67   D(27,18,19,24)         -0.0382         estimate D2E/DX2                !
 ! D68   D(17,25,26,30)         65.8267         estimate D2E/DX2                !
 ! D69   D(17,25,26,31)       -175.4695         estimate D2E/DX2                !
 ! D70   D(28,25,26,30)       -173.7148         estimate D2E/DX2                !
 ! D71   D(28,25,26,31)        -55.0109         estimate D2E/DX2                !
 ! D72   D(29,25,26,30)        -56.626          estimate D2E/DX2                !
 ! D73   D(29,25,26,31)         62.0778         estimate D2E/DX2                !
 ! D74   D(25,26,30,33)        176.0365         estimate D2E/DX2                !
 ! D75   D(25,26,30,35)         54.9957         estimate D2E/DX2                !
 ! D76   D(25,26,30,36)        -63.9273         estimate D2E/DX2                !
 ! D77   D(31,26,30,33)         57.028          estimate D2E/DX2                !
 ! D78   D(31,26,30,35)        -64.0129         estimate D2E/DX2                !
 ! D79   D(31,26,30,36)        177.0641         estimate D2E/DX2                !
 ! D80   D(25,26,31,32)       -177.472          estimate D2E/DX2                !
 ! D81   D(25,26,31,37)         61.983          estimate D2E/DX2                !
 ! D82   D(25,26,31,38)        -56.6711         estimate D2E/DX2                !
 ! D83   D(30,26,31,32)        -57.311          estimate D2E/DX2                !
 ! D84   D(30,26,31,37)       -177.8561         estimate D2E/DX2                !
 ! D85   D(30,26,31,38)         63.4898         estimate D2E/DX2                !
 ! D86   D(26,30,33,34)        -58.3301         estimate D2E/DX2                !
 ! D87   D(26,30,33,41)       -176.6522         estimate D2E/DX2                !
 ! D88   D(26,30,33,42)         62.9325         estimate D2E/DX2                !
 ! D89   D(35,30,33,34)         63.343          estimate D2E/DX2                !
 ! D90   D(35,30,33,41)        -54.9792         estimate D2E/DX2                !
 ! D91   D(35,30,33,42)       -175.3944         estimate D2E/DX2                !
 ! D92   D(36,30,33,34)       -178.9094         estimate D2E/DX2                !
 ! D93   D(36,30,33,41)         62.7685         estimate D2E/DX2                !
 ! D94   D(36,30,33,42)        -57.6467         estimate D2E/DX2                !
 ! D95   D(26,31,32,34)         58.6529         estimate D2E/DX2                !
 ! D96   D(26,31,32,39)        -62.5395         estimate D2E/DX2                !
 ! D97   D(26,31,32,40)        176.8716         estimate D2E/DX2                !
 ! D98   D(37,31,32,34)        179.0425         estimate D2E/DX2                !
 ! D99   D(37,31,32,39)         57.8502         estimate D2E/DX2                !
 ! D100  D(37,31,32,40)        -62.7388         estimate D2E/DX2                !
 ! D101  D(38,31,32,34)        -63.0026         estimate D2E/DX2                !
 ! D102  D(38,31,32,39)        175.8051         estimate D2E/DX2                !
 ! D103  D(38,31,32,40)         55.2161         estimate D2E/DX2                !
 ! D104  D(31,32,34,33)        -58.009          estimate D2E/DX2                !
 ! D105  D(39,32,34,33)         63.8724         estimate D2E/DX2                !
 ! D106  D(40,32,34,33)       -178.406          estimate D2E/DX2                !
 ! D107  D(30,33,34,32)         57.967          estimate D2E/DX2                !
 ! D108  D(41,33,34,32)        178.4164         estimate D2E/DX2                !
 ! D109  D(42,33,34,32)        -63.9181         estimate D2E/DX2                !
 --------------------------------------------------------------------------------
 Trust Radius=3.00D-01 FncErr=1.00D-07 GrdErr=1.00D-06 EigMax=2.50D+02 EigMin=1.00D-04
 Number of steps in this run=    241 maximum allowed number of steps=    252.
 GradGradGradGradGradGradGradGradGradGradGradGradGradGradGradGradGradGrad

                          Input orientation:                          
 ---------------------------------------------------------------------
 Center     Atomic      Atomic             Coordinates (Angstroms)
 Number     Number       Type             X           Y           Z
 ---------------------------------------------------------------------
      1          6           0       -1.607486    0.607141   -1.382386
      2         16           0       -2.131903    0.487028    0.333015
      3          8           0       -2.869073    1.752541    0.582072
      4          8           0       -3.009815   -0.719179    0.319190
      5          7           0       -0.872245    0.416255    1.235226
      6          1           0       -0.467095   -0.520055    1.159736
      7         16           0       -2.733093    0.467402   -2.692829
      8          6           0       -1.498115    0.722585   -3.853219
      9          6           0       -0.292312    0.907459   -3.238697
     10          6           0       -0.336496    0.840983   -1.812998
     11         16           0        1.200830    1.137522   -4.145354
     12          6           0        2.042216   -0.420972   -4.033940
     13          8           0        2.007272    2.146343   -3.442747
     14          8           0        0.836613    1.373708   -5.550546
     15          6           0        3.018938   -0.595827   -3.058706
     16          6           0        3.645536   -1.837250   -2.964786
     17          6           0        3.297583   -2.883259   -3.823264
     18          6           0        2.302143   -2.676848   -4.787678
     19          6           0        1.665909   -1.446730   -4.901549
     20          1           0       -1.715574    0.717044   -4.914885
     21          1           0        0.517668    0.959526   -1.154464
     22          1           0        3.289978    0.217531   -2.392727
     23          1           0        4.417144   -1.992654   -2.215059
     24          1           0        0.891056   -1.287698   -5.646302
     25          6           0        3.983660   -4.223743   -3.717983
     26          7           0        4.944159   -4.458336   -4.801679
     27          1           0        2.020160   -3.489642   -5.451810
     28          1           0        3.231270   -5.018101   -3.766724
     29          1           0        4.485189   -4.298608   -2.737280
     30          6           0        6.065902   -3.518574   -4.708330
     31          6           0        5.474236   -5.819719   -4.674874
     32          6           0        6.520310   -6.087820   -5.739925
     33          6           0        7.105847   -3.824569   -5.770181
     34          8           0        7.594206   -5.156720   -5.644831
     35          1           0        6.535583   -3.577553   -3.708651
     36          1           0        5.704255   -2.495780   -4.852349
     37          1           0        4.653858   -6.536779   -4.780782
     38          1           0        5.929629   -5.965717   -3.678009
     39          1           0        6.072124   -6.021972   -6.742065
     40          1           0        6.952193   -7.082328   -5.608300
     41          1           0        7.966759   -3.161460   -5.660883
     42          1           0        6.676265   -3.690088   -6.773635
 ---------------------------------------------------------------------
                    Distance matrix (angstroms):
                    1          2          3          4          5
     1  C    0.000000
     2  S    1.797788   0.000000
     3  O    2.600507   1.485588   0.000000
     4  O    2.573133   1.491930   2.489642   0.000000
     5  N    2.725603   1.551042   2.489899   2.587960   0.000000
     6  H    3.005569   2.114064   3.356767   2.685440   1.022996
     7  S    1.733141   3.085052   3.520660   3.249125   4.346837
     8  C    2.475945   4.240487   4.755223   4.666146   5.135935
     9  C    2.294725   4.039552   4.685311   4.763332   4.538016
    10  C    1.362176   2.820308   3.602949   3.758585   3.123954
    11  S    3.975165   5.620146   6.268247   6.411632   5.811068
    12  C    4.626887   6.108849   7.081842   6.675454   6.079403
    13  O    4.436295   5.843156   6.335060   6.894530   5.759189
    14  O    4.892320   6.649404   7.175278   7.323181   7.062833
    15  C    5.065667   6.261590   7.310183   6.911675   5.882471
    16  C    6.006103   7.046741   8.240566   7.505216   6.567246
    17  C    6.496189   7.623175   8.883989   7.850250   7.339112
    18  C    6.137247   7.476120   8.671515   7.624268   7.477927
    19  C    5.226664   6.750071   7.802019   7.046123   6.897315
    20  H    3.535861   5.269411   5.711336   5.579726   6.214946
    21  H    2.166196   3.075073   3.887730   4.175266   2.817378
    22  H    5.015749   6.074462   7.009964   6.922377   5.525000
    23  H    6.614261   7.451947   8.656754   7.950086   6.759063
    24  H    5.292835   6.931100   7.885065   7.150321   7.305348
    25  C    7.749411   8.717915  10.058150   8.802807   8.345278
    26  N    8.959614  10.044519  11.340474  10.172035   9.697237
    27  H    6.819359   8.155840   9.369782   8.141287   8.266709
    28  H    7.793714   8.710793  10.097910   8.609678   8.449293
    29  H    7.938690   8.724387  10.085617   8.850390   8.167792
    30  C    9.325466  10.424203  11.645033  10.746218   9.947191
    31  C   10.114139  11.077335  12.433238  11.087619  10.681501
    32  C   11.396127  12.448695  13.769510  12.504337  12.066714
    33  C   10.715175  11.881704  13.074950  12.208624  11.432859
    34  O   11.664547  12.735137  13.999729  12.950157  12.250470
    35  H    9.446309  10.391400  11.630467  10.747485   9.760550
    36  H    8.667775   9.858524  11.003777  10.287669   9.422784
    37  H   10.089059  11.024125  12.412393  10.889722  10.727294
    38  H   10.260626  11.077659  12.455399  11.109339  10.542055
    39  H   11.473783  12.638429  13.929502  12.667381  12.381930
    40  H   12.257829  13.233108  14.588792  13.223705  12.817348
    41  H   11.143342  12.297205  13.436411  12.736215  11.767937
    42  H   10.777397  12.063855  13.222788  12.367482  11.746655
                    6          7          8          9         10
     6  H    0.000000
     7  S    4.577343   0.000000
     8  C    5.266581   1.713708   0.000000
     9  C    4.627586   2.539494   1.365934   0.000000
    10  C    3.272098   2.580182   2.350719   1.427932   0.000000
    11  S    5.802889   4.246720   2.746237   1.761939   2.809127
    12  C    5.768946   5.038984   3.724826   2.801279   3.490472
    13  O    5.866432   5.084513   3.805694   2.620030   3.138997
    14  O    7.093227   4.661623   2.959025   2.614671   3.953384
    15  C    5.472972   5.860903   4.772131   3.640967   3.856832
    16  C    5.971634   6.787657   5.813709   4.807816   4.935193
    17  C    6.677411   6.990984   6.000144   5.253437   5.578322
    18  C    6.905951   6.295101   5.183755   4.688048   5.309075
    19  C    6.492119   5.281436   3.976930   3.484525   4.333868
    20  H    6.323775   2.456664   1.083722   2.207156   3.396899
    21  H    2.917952   3.629903   3.376803   2.236695   1.085042
    22  H    5.222990   6.035717   5.031297   3.744926   3.725063
    23  H    6.116664   7.576677   6.711660   5.624719   5.548716
    24  H    6.982549   4.993779   3.600628   3.466357   4.553283
    25  C    7.570909   8.256667   7.384734   6.696483   6.924173
    26  N    8.962711   9.362176   8.321323   7.658674   8.056073
    27  H    7.662729   6.772266   5.716346   5.438740   6.127732
    28  H    7.627603   8.174204   7.438416   6.914239   7.132662
    29  H    7.347742   8.649880   7.890350   7.083718   7.107626
    30  C    9.279298   9.867753   8.713954   7.885206   8.269184
    31  C    9.870589  10.526948   9.596382   8.976113   9.290851
    32  C   11.288452  11.742282  10.688144  10.079776  10.509275
    33  C   10.783924  11.166729   9.918645   9.139653   9.634062
    34  O   11.523253  12.124280  10.974807  10.235278  10.656051
    35  H    9.060187  10.163755   9.113308   8.182685   8.387040
    36  H    8.839356   9.199609   7.951746   7.081294   7.540711
    37  H    9.885083  10.391590   9.560623   9.069691   9.388437
    38  H    9.694178  10.835052   9.996773   9.281492   9.437890
    39  H   11.639198  11.663624  10.542438  10.039753  10.605012
    40  H   11.996481  12.621535  11.636351  11.042398  11.415260
    41  H   11.163681  11.681815  10.389288   9.520260   9.988485
    42  H   11.136206  11.066784   9.737608   9.066107   9.711712
                   11         12         13         14         15
    11  S    0.000000
    12  C    1.774612   0.000000
    13  O    1.470281   2.634737   0.000000
    14  O    1.470714   2.640918   2.531842   0.000000
    15  C    2.736937   1.391274   2.947957   3.853684   0.000000
    16  C    4.027356   2.391562   4.333748   4.988633   1.393763
    17  C    4.546075   2.771856   5.206399   5.211683   2.427866
    18  C    4.021802   2.392626   5.015870   4.374557   2.798890
    19  C    2.732488   1.395182   3.892917   3.010615   2.439425
    20  H    3.045388   4.023945   4.250843   2.710890   5.252108
    21  H    3.073079   3.538560   2.977195   4.427053   3.507365
    22  H    2.877956   2.158281   2.543264   4.162639   1.085606
    23  H    4.885563   3.379171   4.944289   5.939535   2.148917
    24  H    2.868884   2.162428   4.230157   2.663685   3.420851
    25  C    6.055572   4.281366   6.675317   6.677847   3.811444
    26  N    6.764385   5.031004   7.354848   7.172550   4.654397
    27  H    4.877374   3.380470   5.983379   5.006267   3.885701
    28  H    6.492900   4.755928   7.275465   7.054901   4.483624
    29  H    6.505475   4.762930   6.940832   7.307649   3.995471
    30  C    6.757596   5.122498   7.082758   7.210355   4.532957
    31  C    8.182029   6.429310   8.774744   8.603473   5.994125
    32  C    9.112908   7.421379   9.666746   9.381614   7.043474
    33  C    7.882363   6.343450   8.189274   8.147001   5.871942
    34  O    9.096217   7.473076   9.455037   9.397896   6.958654
    35  H    7.133179   5.500924   7.303375   7.770832   4.656169
    36  H    5.829371   4.287790   6.099505   6.257345   3.746719
    37  H    8.439317   6.691901   9.175585   8.817012   6.397923
    38  H    8.546108   6.781066   9.013643   9.127561   6.139330
    39  H    9.040507   7.412509   9.702056   9.139277   7.234095
    40  H   10.138260   8.423784  10.691596  10.435909   8.002850
    41  H    8.158179   6.727364   8.283018   8.450971   6.150994
    42  H    7.758484   6.298210   8.182801   7.825569   6.062276
                   16         17         18         19         20
    16  C    0.000000
    17  C    1.397207   0.000000
    18  C    2.415069   1.401285   0.000000
    19  C    2.796870   2.426659   1.389586   0.000000
    20  H    6.250504   6.267819   5.260868   4.014539   0.000000
    21  H    4.569768   5.442188   5.441306   4.598823   4.380289
    22  H    2.162359   3.414878   3.884460   3.420753   5.627286
    23  H    1.087024   2.152422   3.399959   3.883885   7.227846
    24  H    3.883258   3.414770   2.158272   1.086437   3.368750
    25  C    2.525268   1.509531   2.522821   3.805863   7.637094
    26  N    3.454083   2.479794   3.186557   4.452714   8.435011
    27  H    3.399637   2.156773   1.086840   2.145174   5.651567
    28  H    3.306438   2.136620   2.717920   4.061142   7.660380
    29  H    2.610567   2.143124   3.405866   4.556930   8.267296
    30  C    3.424174   2.974989   3.857548   4.867218   8.861969
    31  C    4.704105   3.753113   4.466827   5.803255   9.720095
    32  C    5.833787   4.932421   5.507671   6.768146  10.715253
    33  C    4.877851   4.379432   5.035687   6.000130   9.958677
    34  O    5.813219   5.191118   5.906810   7.032865  11.032041
    35  H    3.454615   3.313582   4.460671   5.447673   9.379774
    36  H    2.869648   2.645983   3.407540   4.172669   8.085790
    37  H    5.138105   4.013045   4.519920   5.903475   9.654304
    38  H    4.771793   4.055899   5.020625   6.332267  10.229286
    39  H    6.137431   5.105781   5.405760   6.613249  10.459501
    40  H    6.740399   5.845913   6.457912   7.759140  11.680805
    41  H    5.262646   5.025480   5.751975   6.574009  10.456906
    42  H    5.208230   4.557538   4.909544   5.800089   9.659230
                   21         22         23         24         25
    21  H    0.000000
    22  H    3.125628   0.000000
    23  H    5.004612   2.487365   0.000000
    24  H    5.036471   4.313501   4.970281   0.000000
    25  C    6.741736   4.686407   2.724784   4.680061   0.000000
    26  N    7.889818   5.513900   3.612193   5.214784   1.466966
    27  H    6.365513   4.971273   4.296867   2.482189   2.720365
    28  H    7.065378   5.413239   3.601013   4.788039   1.095204
    29  H    6.774548   4.684309   2.365327   5.517769   1.104045
    30  C    7.966571   5.198678   3.356075   5.712761   2.411179
    31  C    9.105988   6.813778   4.670607   6.518315   2.384240
    32  C   10.330694   7.835575   5.798135   7.398543   3.741340
    33  C    9.359301   6.504355   4.819122   6.713769   3.757514
    34  O   10.375416   7.614797   5.645208   7.739609   4.197527
    35  H    7.957654   5.164133   3.038175   6.392074   2.632482
    36  H    7.246666   4.386403   2.977430   5.025605   2.689440
    37  H    9.298002   7.292714   5.223796   6.516184   2.632269
    38  H    9.144211   6.844871   4.495895   7.151591   2.612062
    39  H   10.526850   8.098671   6.282368   7.103345   4.091501
    40  H   11.221015   8.777224   6.621581   8.385497   4.533982
    41  H    9.632201   6.631041   5.083265   7.319616   4.557235
    42  H    9.545801   6.777078   5.363350   6.364826   4.107544
                   26         27         28         29         30
    26  N    0.000000
    27  H    3.148143   0.000000
    28  H    2.078090   2.577303   0.000000
    29  H    2.120827   3.754925   1.774750   0.000000
    30  C    1.466347   4.113590   3.342206   2.644266   0.000000
    31  C    1.466433   4.238340   2.549162   2.654480   2.376227
    32  C    2.453523   5.204314   3.981910   4.044610   2.805655
    33  C    2.452051   5.106637   4.522246   4.036217   1.517447
    34  O    2.867298   5.821202   4.752022   4.342372   2.428223
    35  H    2.122056   4.841010   3.605141   2.380671   1.106091
    36  H    2.105217   3.862598   3.695448   3.034769   1.094366
    37  H    2.098722   4.083097   2.314833   3.035417   3.332968
    38  H    2.122730   4.955932   2.861291   2.398047   2.658692
    39  H    2.735390   4.949330   4.234485   4.639681   3.225386
    40  H    3.401201   6.103837   4.636561   4.698718   3.780978
    41  H    3.399446   5.959317   5.427690   4.686351   2.155956
    42  H    2.734777   4.844246   4.761631   4.632846   2.160427
                   31         32         33         34         35
    31  C    0.000000
    32  C    1.516734   0.000000
    33  C    2.800442   2.337963   0.000000
    34  O    2.423769   1.424515   1.424371   0.000000
    35  H    2.662209   3.229202   2.153166   2.713530   0.000000
    36  H    3.336611   3.788995   2.138354   3.358652   1.780276
    37  H    1.094720   2.145965   3.787776   3.361070   3.667066
    38  H    1.105639   2.148327   3.216394   2.700682   2.464031
    39  H    2.161401   1.099769   2.615668   2.066232   3.923210
    40  H    2.156344   1.092196   3.265395   2.030143   4.008201
    41  H    3.775080   3.265279   1.092168   2.029807   2.456137
    42  H    3.222576   2.615721   1.099793   2.065870   3.070274
                   36         37         38         39         40
    36  H    0.000000
    37  H    4.175898   0.000000
    38  H    3.670195   1.780396   0.000000
    39  H    4.017509   2.474497   3.067883   0.000000
    40  H    4.813027   2.502949   2.453258   1.784460   0.000000
    41  H    2.493147   4.810683   3.993188   3.597378   4.050347
    42  H    2.462218   4.020603   3.913931   2.409080   3.597420
                   41         42
    41  H    0.000000
    42  H    1.784107   0.000000
 Stoichiometry    C15H17N2O5S3(1-)
 Framework group  C1[X(C15H17N2O5S3)]
 Deg. of freedom   120
 Full point group                 C1      NOp   1
 Largest Abelian subgroup         C1      NOp   1
 Largest concise Abelian subgroup C1      NOp   1
                         Standard orientation:                         
 ---------------------------------------------------------------------
 Center     Atomic      Atomic             Coordinates (Angstroms)
 Number     Number       Type             X           Y           Z
 ---------------------------------------------------------------------
      1          6           0        3.982819   -0.371939    0.154114
      2         16           0        4.997583   -1.760959   -0.368301
      3          8           0        6.310004   -1.151881   -0.705269
      4          8           0        5.034684   -2.612950    0.855869
      5          7           0        4.362022   -2.394162   -1.633547
      6          1           0        3.540504   -2.934941   -1.352147
      7         16           0        4.246231    0.433129    1.666151
      8          6           0        2.981677    1.547340    1.355941
      9          6           0        2.405329    1.294548    0.143631
     10          6           0        2.968708    0.188455   -0.562169
     11         16           0        1.032267    2.220796   -0.457364
     12          6           0       -0.368090    1.155736   -0.225210
     13          8           0        1.219927    2.424949   -1.901259
     14          8           0        0.874715    3.397497    0.410710
     15          6           0       -0.813838    0.380078   -1.290718
     16          6           0       -1.894150   -0.475049   -1.080340
     17          6           0       -2.510694   -0.557635    0.170756
     18          6           0       -2.030141    0.229763    1.225589
     19          6           0       -0.956256    1.091533    1.038305
     20          1           0        2.723698    2.317632    2.073263
     21          1           0        2.642354   -0.164673   -1.534850
     22          1           0       -0.335403    0.445485   -2.263016
     23          1           0       -2.263414   -1.083945   -1.901626
     24          1           0       -0.580685    1.698935    1.857056
     25          6           0       -3.682876   -1.483238    0.389693
     26          7           0       -4.962022   -0.770635    0.478982
     27          1           0       -2.499248    0.162630    2.203675
     28          1           0       -3.541895   -2.026508    1.330147
     29          1           0       -3.714110   -2.228028   -0.424695
     30          6           0       -5.290482   -0.138977   -0.802930
     31          6           0       -6.018096   -1.736553    0.798564
     32          6           0       -7.372136   -1.054417    0.840355
     33          6           0       -6.658199    0.515126   -0.738538
     34          8           0       -7.668071   -0.433017   -0.406853
     35          1           0       -5.281820   -0.889399   -1.615474
     36          1           0       -4.544130    0.625356   -1.040398
     37          1           0       -5.808169   -2.190396    1.772407
     38          1           0       -6.044701   -2.543820    0.043548
     39          1           0       -7.394533   -0.296156    1.636615
     40          1           0       -8.162071   -1.786013    1.023827
     41          1           0       -6.925445    0.933206   -1.711482
     42          1           0       -6.659746    1.321333    0.009506
 ---------------------------------------------------------------------
 Rotational constants (GHZ):           0.3695643           0.0664966           0.0617094
 General basis read from cards:  (6D, 7F)
 There are   521 symmetry adapted cartesian basis functions of A   symmetry.
 There are   521 symmetry adapted basis functions of A   symmetry.
   521 basis functions,   940 primitive gaussians,   521 cartesian basis functions
   105 alpha electrons      105 beta electrons
       nuclear repulsion energy      2668.0993381979 Hartrees.
 NAtoms=   42 NActive=   42 NUniq=   42 SFac= 1.00D+00 NAtFMM=   60 NAOKFM=F Big=F
 Integral buffers will be    131072 words long.
 Raffenetti 2 integral format.
 Two-electron integral symmetry is turned on.
 One-electron integrals computed using PRISM.
 NBasis=   521 RedAO= T EigKep=  1.00D-06  NBF=   521
 NBsUse=   521 1.00D-06 EigRej= -1.00D+00 NBFU=   521
 ExpMin= 4.05D-02 ExpMax= 2.19D+04 ExpMxC= 3.30D+03 IAcc=3 IRadAn=         5 AccDes= 0.00D+00
 Harris functional with IExCor= 1009 and IRadAn=       5 diagonalized for initial guess.
 HarFok:  IExCor= 1009 AccDes= 0.00D+00 IRadAn=         5 IDoV= 1 UseB2=F ITyADJ=14
 ICtDFT=  3500011 ScaDFX=  1.000000  1.000000  1.000000  1.000000
 FoFCou: FMM=F IPFlag=           0 FMFlag=      100000 FMFlg1=           0
         NFxFlg=           0 DoJE=T BraDBF=F KetDBF=T FulRan=T
         wScrn=  0.000000 ICntrl=       500 IOpCl=  0 I1Cent=   200000004 NGrid=           0
         NMat0=    1 NMatS0=      1 NMatT0=    0 NMatD0=    1 NMtDS0=    0 NMtDT0=    0
 Petite list used in FoFCou.
 Requested convergence on RMS density matrix=1.00D-08 within 128 cycles.
 Requested convergence on MAX density matrix=1.00D-06.
 Requested convergence on             energy=1.00D-06.
 No special actions if energy rises.
 SCF Done:  E(RM062X) =  -2261.41083904     A.U. after   17 cycles
            NFock= 17  Conv=0.75D-08     -V/T= 2.0058

 **********************************************************************

            Population analysis using the SCF Density.

 **********************************************************************

 Orbital symmetries:
       Occupied  (A) (A) (A) (A) (A) (A) (A) (A) (A) (A) (A) (A)
                 (A) (A) (A) (A) (A) (A) (A) (A) (A) (A) (A) (A)
                 (A) (A) (A) (A) (A) (A) (A) (A) (A) (A) (A) (A)
                 (A) (A) (A) (A) (A) (A) (A) (A) (A) (A) (A) (A)
                 (A) (A) (A) (A) (A) (A) (A) (A) (A) (A) (A) (A)
                 (A) (A) (A) (A) (A) (A) (A) (A) (A) (A) (A) (A)
                 (A) (A) (A) (A) (A) (A) (A) (A) (A) (A) (A) (A)
                 (A) (A) (A) (A) (A) (A) (A) (A) (A) (A) (A) (A)
                 (A) (A) (A) (A) (A) (A) (A) (A) (A)
       Virtual   (A) (A) (A) (A) (A) (A) (A) (A) (A) (A) (A) (A)
                 (A) (A) (A) (A) (A) (A) (A) (A) (A) (A) (A) (A)
                 (A) (A) (A) (A) (A) (A) (A) (A) (A) (A) (A) (A)
                 (A) (A) (A) (A) (A) (A) (A) (A) (A) (A) (A) (A)
                 (A) (A) (A) (A) (A) (A) (A) (A) (A) (A) (A) (A)
                 (A) (A) (A) (A) (A) (A) (A) (A) (A) (A) (A) (A)
                 (A) (A) (A) (A) (A) (A) (A) (A) (A) (A) (A) (A)
                 (A) (A) (A) (A) (A) (A) (A) (A) (A) (A) (A) (A)
                 (A) (A) (A) (A) (A) (A) (A) (A) (A) (A) (A) (A)
                 (A) (A) (A) (A) (A) (A) (A) (A) (A) (A) (A) (A)
                 (A) (A) (A) (A) (A) (A) (A) (A) (A) (A) (A) (A)
                 (A) (A) (A) (A) (A) (A) (A) (A) (A) (A) (A) (A)
                 (A) (A) (A) (A) (A) (A) (A) (A) (A) (A) (A) (A)
                 (A) (A) (A) (A) (A) (A) (A) (A) (A) (A) (A) (A)
                 (A) (A) (A) (A) (A) (A) (A) (A) (A) (A) (A) (A)
                 (A) (A) (A) (A) (A) (A) (A) (A) (A) (A) (A) (A)
                 (A) (A) (A) (A) (A) (A) (A) (A) (A) (A) (A) (A)
                 (A) (A) (A) (A) (A) (A) (A) (A) (A) (A) (A) (A)
                 (A) (A) (A) (A) (A) (A) (A) (A) (A) (A) (A) (A)
                 (A) (A) (A) (A) (A) (A) (A) (A) (A) (A) (A) (A)
                 (A) (A) (A) (A) (A) (A) (A) (A) (A) (A) (A) (A)
                 (A) (A) (A) (A) (A) (A) (A) (A) (A) (A) (A) (A)
                 (A) (A) (A) (A) (A) (A) (A) (A) (A) (A) (A) (A)
                 (A) (A) (A) (A) (A) (A) (A) (A) (A) (A) (A) (A)
                 (A) (A) (A) (A) (A) (A) (A) (A) (A) (A) (A) (A)
                 (A) (A) (A) (A) (A) (A) (A) (A) (A) (A) (A) (A)
                 (A) (A) (A) (A) (A) (A) (A) (A) (A) (A) (A) (A)
                 (A) (A) (A) (A) (A) (A) (A) (A) (A) (A) (A) (A)
                 (A) (A) (A) (A) (A) (A) (A) (A) (A) (A) (A) (A)
                 (A) (A) (A) (A) (A) (A) (A) (A) (A) (A) (A) (A)
                 (A) (A) (A) (A) (A) (A) (A) (A) (A) (A) (A) (A)
                 (A) (A) (A) (A) (A) (A) (A) (A) (A) (A) (A) (A)
                 (A) (A) (A) (A) (A) (A) (A) (A) (A) (A) (A) (A)
                 (A) (A) (A) (A) (A) (A) (A) (A) (A) (A) (A) (A)
                 (A) (A) (A) (A) (A) (A) (A) (A)
 The electronic state is 1-A.
 Alpha  occ. eigenvalues --  -90.06286 -89.98945 -89.87042 -19.60637 -19.55494
 Alpha  occ. eigenvalues --  -19.55315 -19.46400 -19.45938 -14.72149 -14.57546
 Alpha  occ. eigenvalues --  -10.55374 -10.55070 -10.53456 -10.53247 -10.52701
 Alpha  occ. eigenvalues --  -10.52441 -10.51860 -10.51366 -10.51252 -10.50975
 Alpha  occ. eigenvalues --  -10.50916 -10.50661 -10.49636 -10.48783 -10.46906
 Alpha  occ. eigenvalues --   -8.37588  -8.29713  -8.21436  -6.29757  -6.29710
 Alpha  occ. eigenvalues --   -6.29662  -6.21924  -6.21899  -6.21815  -6.13426
 Alpha  occ. eigenvalues --   -6.13192  -6.13000  -1.14196  -1.11973  -1.05327
 Alpha  occ. eigenvalues --   -1.03314  -0.99879  -0.93130  -0.92268  -0.90544
 Alpha  occ. eigenvalues --   -0.83788  -0.83087  -0.81968  -0.80169  -0.78194
 Alpha  occ. eigenvalues --   -0.75902  -0.74048  -0.70588  -0.70119  -0.66298
 Alpha  occ. eigenvalues --   -0.65070  -0.61444  -0.60832  -0.59345  -0.56508
 Alpha  occ. eigenvalues --   -0.54149  -0.52837  -0.51903  -0.51073  -0.50445
 Alpha  occ. eigenvalues --   -0.49906  -0.49713  -0.48814  -0.47561  -0.46848
 Alpha  occ. eigenvalues --   -0.44994  -0.44603  -0.44525  -0.44112  -0.43656
 Alpha  occ. eigenvalues --   -0.41960  -0.40261  -0.39890  -0.39474  -0.38599
 Alpha  occ. eigenvalues --   -0.38116  -0.38109  -0.38000  -0.37528  -0.35958
 Alpha  occ. eigenvalues --   -0.35609  -0.35210  -0.33384  -0.33059  -0.31651
 Alpha  occ. eigenvalues --   -0.31050  -0.29002  -0.28727  -0.27580  -0.26470
 Alpha  occ. eigenvalues --   -0.26306  -0.26155  -0.24943  -0.23829  -0.22979
 Alpha  occ. eigenvalues --   -0.21805  -0.20409  -0.18609  -0.17685  -0.15421
 Alpha virt. eigenvalues --    0.04488   0.06313   0.06630   0.07115   0.07448
 Alpha virt. eigenvalues --    0.07650   0.08906   0.09291   0.09370   0.10007
 Alpha virt. eigenvalues --    0.10093   0.10781   0.11195   0.11563   0.12110
 Alpha virt. eigenvalues --    0.12669   0.13074   0.13301   0.13855   0.13948
 Alpha virt. eigenvalues --    0.14415   0.14919   0.15101   0.15315   0.15692
 Alpha virt. eigenvalues --    0.16158   0.16377   0.16921   0.17233   0.17531
 Alpha virt. eigenvalues --    0.17803   0.18074   0.18519   0.18659   0.19002
 Alpha virt. eigenvalues --    0.19440   0.19806   0.20075   0.20229   0.20704
 Alpha virt. eigenvalues --    0.20911   0.20971   0.21161   0.21906   0.22055
 Alpha virt. eigenvalues --    0.22359   0.22878   0.23691   0.24017   0.24278
 Alpha virt. eigenvalues --    0.24464   0.25163   0.25181   0.25400   0.25640
 Alpha virt. eigenvalues --    0.25882   0.26307   0.26594   0.26782   0.27108
 Alpha virt. eigenvalues --    0.27266   0.27341   0.27583   0.27970   0.28337
 Alpha virt. eigenvalues --    0.28526   0.28727   0.29077   0.29380   0.29896
 Alpha virt. eigenvalues --    0.30296   0.30437   0.30632   0.30830   0.31017
 Alpha virt. eigenvalues --    0.31380   0.31930   0.32191   0.32461   0.32841
 Alpha virt. eigenvalues --    0.32969   0.33270   0.33468   0.33734   0.33964
 Alpha virt. eigenvalues --    0.34535   0.34657   0.34814   0.35386   0.35536
 Alpha virt. eigenvalues --    0.35768   0.36207   0.36417   0.36596   0.37210
 Alpha virt. eigenvalues --    0.37279   0.37511   0.37773   0.38003   0.38313
 Alpha virt. eigenvalues --    0.38605   0.38812   0.39154   0.39371   0.39650
 Alpha virt. eigenvalues --    0.40143   0.40299   0.40786   0.40855   0.41624
 Alpha virt. eigenvalues --    0.41836   0.42399   0.42540   0.42758   0.43161
 Alpha virt. eigenvalues --    0.43430   0.43776   0.43865   0.44128   0.44684
 Alpha virt. eigenvalues --    0.44994   0.45839   0.46055   0.46818   0.46935
 Alpha virt. eigenvalues --    0.47132   0.47422   0.47711   0.48085   0.48720
 Alpha virt. eigenvalues --    0.48892   0.49622   0.50171   0.50674   0.51577
 Alpha virt. eigenvalues --    0.51909   0.52841   0.53338   0.54661   0.54980
 Alpha virt. eigenvalues --    0.56204   0.56894   0.57328   0.58747   0.59882
 Alpha virt. eigenvalues --    0.61487   0.63150   0.64914   0.65666   0.68289
 Alpha virt. eigenvalues --    0.69428   0.70987   0.71569   0.73117   0.74340
 Alpha virt. eigenvalues --    0.74975   0.75024   0.75774   0.76044   0.77483
 Alpha virt. eigenvalues --    0.78004   0.78593   0.79109   0.79515   0.79716
 Alpha virt. eigenvalues --    0.79829   0.81229   0.81898   0.82834   0.82952
 Alpha virt. eigenvalues --    0.83292   0.83674   0.84599   0.85169   0.85869
 Alpha virt. eigenvalues --    0.86691   0.87250   0.88246   0.88841   0.89514
 Alpha virt. eigenvalues --    0.90254   0.90438   0.91374   0.91997   0.93012
 Alpha virt. eigenvalues --    0.93840   0.94309   0.94720   0.96614   0.97221
 Alpha virt. eigenvalues --    0.97960   0.99773   1.00483   1.01761   1.02081
 Alpha virt. eigenvalues --    1.03271   1.04403   1.05065   1.05563   1.05948
 Alpha virt. eigenvalues --    1.07186   1.07983   1.08644   1.09143   1.09759
 Alpha virt. eigenvalues --    1.10293   1.11131   1.11804   1.12393   1.12941
 Alpha virt. eigenvalues --    1.13671   1.14134   1.14658   1.14986   1.15369
 Alpha virt. eigenvalues --    1.16453   1.17699   1.18459   1.18640   1.19406
 Alpha virt. eigenvalues --    1.20235   1.20642   1.21618   1.22503   1.23254
 Alpha virt. eigenvalues --    1.24003   1.24484   1.25073   1.25902   1.27250
 Alpha virt. eigenvalues --    1.27560   1.28475   1.29683   1.29931   1.30452
 Alpha virt. eigenvalues --    1.31964   1.32651   1.33136   1.33644   1.34532
 Alpha virt. eigenvalues --    1.35295   1.36204   1.36805   1.37504   1.38645
 Alpha virt. eigenvalues --    1.40010   1.41275   1.42098   1.42921   1.44761
 Alpha virt. eigenvalues --    1.46038   1.47724   1.48370   1.49722   1.49768
 Alpha virt. eigenvalues --    1.50586   1.51210   1.51431   1.52080   1.52560
 Alpha virt. eigenvalues --    1.52923   1.53288   1.55235   1.55773   1.56005
 Alpha virt. eigenvalues --    1.56525   1.57382   1.57911   1.58222   1.58662
 Alpha virt. eigenvalues --    1.59119   1.59610   1.60680   1.61466   1.61823
 Alpha virt. eigenvalues --    1.61976   1.62300   1.64257   1.65509   1.66869
 Alpha virt. eigenvalues --    1.68943   1.70300   1.72031   1.73321   1.73813
 Alpha virt. eigenvalues --    1.75634   1.78291   1.79174   1.83291   1.86906
 Alpha virt. eigenvalues --    1.87531   1.90629   1.91777   1.93332   1.94856
 Alpha virt. eigenvalues --    1.95282   1.95497   1.95842   1.96442   1.98118
 Alpha virt. eigenvalues --    1.98188   1.98562   1.98890   1.99124   2.00781
 Alpha virt. eigenvalues --    2.01685   2.03469   2.03755   2.03916   2.04575
 Alpha virt. eigenvalues --    2.05629   2.06162   2.06808   2.06984   2.09414
 Alpha virt. eigenvalues --    2.11166   2.11560   2.12222   2.12603   2.13159
 Alpha virt. eigenvalues --    2.14978   2.15278   2.16445   2.16791   2.18340
 Alpha virt. eigenvalues --    2.18925   2.20527   2.21311   2.21552   2.22885
 Alpha virt. eigenvalues --    2.23602   2.24468   2.24812   2.25287   2.26088
 Alpha virt. eigenvalues --    2.26837   2.28498   2.29668   2.30344   2.33335
 Alpha virt. eigenvalues --    2.33701   2.34351   2.36670   2.37463   2.38732
 Alpha virt. eigenvalues --    2.39648   2.40506   2.41631   2.42993   2.43614
 Alpha virt. eigenvalues --    2.43973   2.45260   2.45440   2.46131   2.50953
 Alpha virt. eigenvalues --    2.51017   2.52004   2.55596   2.56546   2.56926
 Alpha virt. eigenvalues --    2.58840   2.60989   2.61317   2.62295   2.66756
 Alpha virt. eigenvalues --    2.69725   2.72179   2.74465   2.76434   2.78506
 Alpha virt. eigenvalues --    2.79082   2.80985   2.85559   2.86154   2.87040
 Alpha virt. eigenvalues --    2.88105   2.89338   2.90003   2.91366   2.95386
 Alpha virt. eigenvalues --    2.99254   3.00152   3.03221   3.03757   3.04372
 Alpha virt. eigenvalues --    3.07109   3.08070   3.09145   3.10661   3.15782
 Alpha virt. eigenvalues --    3.44979   4.11232   4.14139   4.16975   4.22467
 Alpha virt. eigenvalues --    4.29003   4.29369   4.29792   4.35790   4.39251
 Alpha virt. eigenvalues --    4.39915   4.41282   4.46090   4.47626   4.48509
 Alpha virt. eigenvalues --    4.49658   4.50685   4.52421   4.54357   4.58753
 Alpha virt. eigenvalues --    4.59090   4.63355   4.65124   4.67209   4.75277
 Alpha virt. eigenvalues --    4.81461
          Condensed to atoms (all electrons):
               1          2          3          4          5          6
     1  C   21.712621  -0.564800  -0.029519  -0.004403   0.051774   0.010034
     2  S   -0.564800  15.569683   0.490686   0.068443  -0.195333   0.161377
     3  O   -0.029519   0.490686   8.762878  -0.180699  -0.228149   0.019233
     4  O   -0.004403   0.068443  -0.180699   8.925942  -0.211689  -0.013008
     5  N    0.051774  -0.195333  -0.228149  -0.211689   7.977082   0.162848
     6  H    0.010034   0.161377   0.019233  -0.013008   0.162848   0.441693
     7  S    0.043337  -0.018977   0.015732  -0.033400   0.099319   0.006390
     8  C    4.458363   0.217315  -0.040210   0.033014  -0.121542   0.000374
     9  C    0.826925  -1.314365  -0.134441   0.062291   0.155501  -0.061058
    10  C  -16.658275  -0.042276  -0.099608  -0.052879   0.139696  -0.066366
    11  S   -2.994616  -0.138571  -0.016947  -0.007174   0.028531  -0.001686
    12  C    0.535611  -0.039752   0.000087   0.003689   0.008444  -0.006366
    13  O   -0.136332   0.002758   0.000034   0.000025   0.000884   0.000006
    14  O    0.044643  -0.007273  -0.000045  -0.000043  -0.000079  -0.000002
    15  C    1.306822   0.182134   0.003782   0.000867  -0.005952   0.008214
    16  C    0.362441  -0.066106  -0.000537  -0.001051   0.000887  -0.001693
    17  C    0.175821   0.009959   0.000130   0.000241  -0.000689   0.000848
    18  C   -0.459383   0.016294   0.000013   0.000290  -0.000290   0.000182
    19  C   -0.848928  -0.084671  -0.001576  -0.000049  -0.003699  -0.001781
    20  H    0.036390   0.001926   0.000016   0.000026   0.000045   0.000000
    21  H    0.071462  -0.009828  -0.000199   0.000823  -0.002326  -0.000424
    22  H    0.005311   0.000257   0.000000   0.000000  -0.000022   0.000000
    23  H   -0.000144  -0.000041  -0.000000  -0.000000  -0.000000   0.000000
    24  H   -0.005085  -0.000187  -0.000000  -0.000000   0.000000  -0.000000
    25  C    0.033911  -0.000355   0.000001   0.000182  -0.000964   0.000013
    26  N   -0.000601  -0.000016  -0.000000   0.000000  -0.000000  -0.000000
    27  H    0.000077  -0.000001  -0.000000   0.000000  -0.000000  -0.000000
    28  H    0.000001   0.000000  -0.000000  -0.000000   0.000000  -0.000000
    29  H    0.000010  -0.000000  -0.000000   0.000000  -0.000000   0.000000
    30  C    0.000464  -0.000049  -0.000000  -0.000001   0.000002   0.000000
    31  C   -0.000268  -0.000006   0.000000   0.000001  -0.000003  -0.000000
    32  C    0.000028  -0.000001   0.000000   0.000000  -0.000000  -0.000000
    33  C    0.000125  -0.000001  -0.000000  -0.000000   0.000000   0.000000
    34  O   -0.000000  -0.000000  -0.000000  -0.000000  -0.000000  -0.000000
    35  H   -0.000000  -0.000000   0.000000   0.000000  -0.000000   0.000000
    36  H   -0.000002  -0.000000  -0.000000  -0.000000   0.000000  -0.000000
    37  H    0.000000   0.000000  -0.000000  -0.000000   0.000000  -0.000000
    38  H   -0.000000  -0.000000   0.000000  -0.000000  -0.000000  -0.000000
    39  H   -0.000000   0.000000   0.000000  -0.000000  -0.000000  -0.000000
    40  H    0.000000   0.000000  -0.000000   0.000000  -0.000000  -0.000000
    41  H    0.000000  -0.000000  -0.000000  -0.000000  -0.000000  -0.000000
    42  H   -0.000000   0.000000  -0.000000   0.000000  -0.000000   0.000000
               7          8          9         10         11         12
     1  C    0.043337   4.458363   0.826925 -16.658275  -2.994616   0.535611
     2  S   -0.018977   0.217315  -1.314365  -0.042276  -0.138571  -0.039752
     3  O    0.015732  -0.040210  -0.134441  -0.099608  -0.016947   0.000087
     4  O   -0.033400   0.033014   0.062291  -0.052879  -0.007174   0.003689
     5  N    0.099319  -0.121542   0.155501   0.139696   0.028531   0.008444
     6  H    0.006390   0.000374  -0.061058  -0.066366  -0.001686  -0.006366
     7  S   17.838792  -4.058456   1.606803   0.025733   0.116709  -0.009383
     8  C   -4.058456  35.827316  -2.970337 -26.162954  -1.939322  -0.002727
     9  C    1.606803  -2.970337  35.783799 -21.244960  -6.422704  -2.254005
    10  C    0.025733 -26.162954 -21.244960  64.917742   5.115214   1.523094
    11  S    0.116709  -1.939322  -6.422704   5.115214  26.292764  -2.511980
    12  C   -0.009383  -0.002727  -2.254005   1.523094  -2.511980  33.991729
    13  O    0.045922  -0.246416  -0.436495   0.394223   0.827892  -0.116694
    14  O   -0.001332  -0.325068  -0.024497   0.086754   0.524440  -0.051769
    15  C   -0.165907   1.910186  -0.190641  -2.784755  -1.091917 -11.243161
    16  C   -0.024776  -0.099940   0.549533   0.013061  -1.553151   1.645911
    17  C   -0.018031   0.426807  -0.113989  -0.603072  -0.378020  -3.806069
    18  C    0.098820  -0.180026   0.396391   0.765722  -1.047890  -0.180419
    19  C    0.109422  -1.137135   2.202250  -0.122498   1.545820  -4.862867
    20  H   -0.026368   0.369081   0.003501  -0.055641  -0.044838   0.001515
    21  H    0.001588   0.039489   0.068034   0.117732   0.003980   0.005891
    22  H   -0.000159   0.001022   0.005512  -0.002946  -0.015659  -0.000855
    23  H    0.000017  -0.000222  -0.002607   0.000793   0.011429   0.040534
    24  H    0.001662  -0.020105   0.013233   0.007491   0.033926   0.087653
    25  C   -0.011529   0.198497   0.325620  -0.438358  -0.750674  -6.323272
    26  N   -0.000007   0.001042   0.002503  -0.001724   0.000439  -0.035451
    27  H   -0.000019  -0.000366  -0.000355   0.000192   0.003326   0.016399
    28  H    0.000012  -0.000089  -0.000129   0.000151  -0.000259  -0.005505
    29  H   -0.000002   0.000061   0.000252  -0.000243  -0.000753  -0.015085
    30  C    0.000021  -0.002941  -0.007783   0.006018   0.001531  -0.035684
    31  C   -0.000002   0.000368   0.001594  -0.001392  -0.003531  -0.077141
    32  C   -0.000005   0.000142   0.000356  -0.000371  -0.001718  -0.033577
    33  C   -0.000003  -0.000456  -0.001887   0.001553   0.001421  -0.018306
    34  O    0.000000  -0.000000  -0.000003   0.000001  -0.000022  -0.000469
    35  H   -0.000000   0.000002   0.000003  -0.000015  -0.000011  -0.004754
    36  H   -0.000000  -0.000017  -0.000071   0.000067   0.001027   0.020949
    37  H    0.000000  -0.000000   0.000002   0.000001  -0.000013   0.000577
    38  H   -0.000000   0.000000   0.000000  -0.000002  -0.000033  -0.002194
    39  H   -0.000000   0.000000  -0.000000  -0.000000  -0.000001  -0.000193
    40  H    0.000000   0.000000   0.000000  -0.000000  -0.000001  -0.000033
    41  H    0.000000  -0.000000  -0.000000   0.000000  -0.000030  -0.000858
    42  H   -0.000000   0.000000  -0.000000  -0.000000   0.000045   0.000705
              13         14         15         16         17         18
     1  C   -0.136332   0.044643   1.306822   0.362441   0.175821  -0.459383
     2  S    0.002758  -0.007273   0.182134  -0.066106   0.009959   0.016294
     3  O    0.000034  -0.000045   0.003782  -0.000537   0.000130   0.000013
     4  O    0.000025  -0.000043   0.000867  -0.001051   0.000241   0.000290
     5  N    0.000884  -0.000079  -0.005952   0.000887  -0.000689  -0.000290
     6  H    0.000006  -0.000002   0.008214  -0.001693   0.000848   0.000182
     7  S    0.045922  -0.001332  -0.165907  -0.024776  -0.018031   0.098820
     8  C   -0.246416  -0.325068   1.910186  -0.099940   0.426807  -0.180026
     9  C   -0.436495  -0.024497  -0.190641   0.549533  -0.113989   0.396391
    10  C    0.394223   0.086754  -2.784755   0.013061  -0.603072   0.765722
    11  S    0.827892   0.524440  -1.091917  -1.553151  -0.378020  -1.047890
    12  C   -0.116694  -0.051769 -11.243161   1.645911  -3.806069  -0.180419
    13  O    8.607623  -0.225871  -0.707264   0.023592  -0.096077   0.255748
    14  O   -0.225871   8.657741   0.084391   0.252767  -0.071785  -0.056673
    15  C   -0.707264   0.084391  51.576638 -16.236154   4.674460   2.550466
    16  C    0.023592   0.252767 -16.236154  30.925945  -8.098882  -7.678502
    17  C   -0.096077  -0.071785   4.674460  -8.098882  33.947397  -1.046673
    18  C    0.255748  -0.056673   2.550466  -7.678502  -1.046673  28.631725
    19  C    0.192885  -0.453566 -24.927681   2.892492   1.673084 -13.857456
    20  H   -0.000010   0.005231  -0.002628  -0.000086   0.001691   0.004845
    21  H   -0.000048   0.000270  -0.005984  -0.015369   0.002488  -0.002139
    22  H    0.004159   0.000972   0.336877  -0.048050   0.034072  -0.021074
    23  H    0.000208   0.000031   0.077076  -0.031936   0.352783   0.119299
    24  H    0.000979   0.004111   0.045183  -0.023077  -0.019470  -0.043896
    25  C   -0.018218  -0.016897   1.167362   3.231011 -19.780130  -2.021834
    26  N    0.000025   0.000154  -0.046623   0.136653  -0.526041  -0.087078
    27  H    0.000026   0.000060  -0.021716   0.078182   0.178042   0.096705
    28  H   -0.000000  -0.000001   0.001855  -0.147097  -0.177687   0.187701
    29  H   -0.000001   0.000000   0.030238   0.121740  -0.276035  -0.138655
    30  C   -0.000181   0.000324   0.001148  -0.398526   0.686317   0.131831
    31  C   -0.000009  -0.000163   0.001134   0.204381  -0.570210  -0.087853
    32  C   -0.000009  -0.000024  -0.005409   0.098124  -0.813013  -0.057699
    33  C   -0.000051   0.000113  -0.064876  -0.254021   0.155282   0.202168
    34  O   -0.000000   0.000000  -0.001444  -0.016969   0.008240   0.014155
    35  H   -0.000000  -0.000000   0.023841  -0.041581   0.039525  -0.007598
    36  H    0.000004   0.000005  -0.026423  -0.014558   0.100709   0.040292
    37  H    0.000000   0.000000  -0.001153  -0.017601  -0.055776   0.038891
    38  H   -0.000000  -0.000000   0.002703   0.015380  -0.066622  -0.025439
    39  H   -0.000000   0.000000   0.000105   0.001098  -0.009284  -0.002700
    40  H   -0.000000  -0.000000  -0.000004  -0.000251  -0.007000   0.000433
    41  H   -0.000000  -0.000000   0.000172  -0.008137  -0.001724   0.002656
    42  H    0.000000   0.000000   0.000136   0.000454   0.007306   0.002055
              19         20         21         22         23         24
     1  C   -0.848928   0.036390   0.071462   0.005311  -0.000144  -0.005085
     2  S   -0.084671   0.001926  -0.009828   0.000257  -0.000041  -0.000187
     3  O   -0.001576   0.000016  -0.000199   0.000000  -0.000000  -0.000000
     4  O   -0.000049   0.000026   0.000823   0.000000  -0.000000  -0.000000
     5  N   -0.003699   0.000045  -0.002326  -0.000022  -0.000000   0.000000
     6  H   -0.001781   0.000000  -0.000424   0.000000   0.000000  -0.000000
     7  S    0.109422  -0.026368   0.001588  -0.000159   0.000017   0.001662
     8  C   -1.137135   0.369081   0.039489   0.001022  -0.000222  -0.020105
     9  C    2.202250   0.003501   0.068034   0.005512  -0.002607   0.013233
    10  C   -0.122498  -0.055641   0.117732  -0.002946   0.000793   0.007491
    11  S    1.545820  -0.044838   0.003980  -0.015659   0.011429   0.033926
    12  C   -4.862867   0.001515   0.005891  -0.000855   0.040534   0.087653
    13  O    0.192885  -0.000010  -0.000048   0.004159   0.000208   0.000979
    14  O   -0.453566   0.005231   0.000270   0.000972   0.000031   0.004111
    15  C  -24.927681  -0.002628  -0.005984   0.336877   0.077076   0.045183
    16  C    2.892492  -0.000086  -0.015369  -0.048050  -0.031936  -0.023077
    17  C    1.673084   0.001691   0.002488   0.034072   0.352783  -0.019470
    18  C  -13.857456   0.004845  -0.002139  -0.021074   0.119299  -0.043896
    19  C   44.830124   0.014451   0.019792   0.016689  -0.044184   0.232951
    20  H    0.014451   0.426385  -0.000057  -0.000000  -0.000000  -0.000168
    21  H    0.019792  -0.000057   0.433035  -0.000349   0.000001  -0.000000
    22  H    0.016689  -0.000000  -0.000349   0.436246  -0.003480  -0.000123
    23  H   -0.044184  -0.000000   0.000001  -0.003480   0.499236   0.000015
    24  H    0.232951  -0.000168  -0.000000  -0.000123   0.000015   0.452632
    25  C   -1.972102   0.000147   0.000008  -0.010892  -0.242526  -0.013640
    26  N    0.066844  -0.000000   0.000000  -0.000077   0.001030   0.000188
    27  H    0.019075  -0.000000   0.000000   0.000014  -0.000136  -0.003541
    28  H    0.000612  -0.000000  -0.000000   0.000002   0.000121  -0.000003
    29  H   -0.002987   0.000000  -0.000000  -0.000001   0.003252   0.000002
    30  C    0.055144  -0.000000  -0.000002   0.000010   0.007025  -0.000139
    31  C   -0.115026   0.000000   0.000001  -0.000201  -0.001668  -0.000052
    32  C   -0.005340   0.000000   0.000000  -0.000009  -0.000932  -0.000012
    33  C    0.015241  -0.000000  -0.000000  -0.000036   0.006929   0.000038
    34  O    0.000285  -0.000000   0.000000  -0.000000   0.000000  -0.000000
    35  H    0.008358   0.000000  -0.000000   0.000001  -0.000098   0.000000
    36  H   -0.006783  -0.000000   0.000000  -0.000009  -0.000526  -0.000000
    37  H   -0.000544  -0.000000  -0.000000   0.000000  -0.000001  -0.000000
    38  H    0.001422   0.000000  -0.000000   0.000000   0.000002  -0.000000
    39  H    0.000840   0.000000  -0.000000  -0.000000  -0.000000  -0.000000
    40  H   -0.000050  -0.000000  -0.000000  -0.000000  -0.000000  -0.000000
    41  H   -0.000060   0.000000  -0.000000   0.000000   0.000001   0.000000
    42  H    0.002243   0.000000   0.000000   0.000000  -0.000000  -0.000000
              25         26         27         28         29         30
     1  C    0.033911  -0.000601   0.000077   0.000001   0.000010   0.000464
     2  S   -0.000355  -0.000016  -0.000001   0.000000  -0.000000  -0.000049
     3  O    0.000001  -0.000000  -0.000000  -0.000000  -0.000000  -0.000000
     4  O    0.000182   0.000000   0.000000  -0.000000   0.000000  -0.000001
     5  N   -0.000964  -0.000000  -0.000000   0.000000  -0.000000   0.000002
     6  H    0.000013  -0.000000  -0.000000  -0.000000   0.000000   0.000000
     7  S   -0.011529  -0.000007  -0.000019   0.000012  -0.000002   0.000021
     8  C    0.198497   0.001042  -0.000366  -0.000089   0.000061  -0.002941
     9  C    0.325620   0.002503  -0.000355  -0.000129   0.000252  -0.007783
    10  C   -0.438358  -0.001724   0.000192   0.000151  -0.000243   0.006018
    11  S   -0.750674   0.000439   0.003326  -0.000259  -0.000753   0.001531
    12  C   -6.323272  -0.035451   0.016399  -0.005505  -0.015085  -0.035684
    13  O   -0.018218   0.000025   0.000026  -0.000000  -0.000001  -0.000181
    14  O   -0.016897   0.000154   0.000060  -0.000001   0.000000   0.000324
    15  C    1.167362  -0.046623  -0.021716   0.001855   0.030238   0.001148
    16  C    3.231011   0.136653   0.078182  -0.147097   0.121740  -0.398526
    17  C  -19.780130  -0.526041   0.178042  -0.177687  -0.276035   0.686317
    18  C   -2.021834  -0.087078   0.096705   0.187701  -0.138655   0.131831
    19  C   -1.972102   0.066844   0.019075   0.000612  -0.002987   0.055144
    20  H    0.000147  -0.000000  -0.000000  -0.000000   0.000000  -0.000000
    21  H    0.000008   0.000000   0.000000  -0.000000  -0.000000  -0.000002
    22  H   -0.010892  -0.000077   0.000014   0.000002  -0.000001   0.000010
    23  H   -0.242526   0.001030  -0.000136   0.000121   0.003252   0.007025
    24  H   -0.013640   0.000188  -0.003541  -0.000003   0.000002  -0.000139
    25  C   31.273825   0.546009  -0.072147   0.501865   0.624687  -0.550433
    26  N    0.546009   7.188230   0.002217  -0.060459  -0.057437   0.188611
    27  H   -0.072147   0.002217   0.490690   0.001201   0.000064   0.004954
    28  H    0.501865  -0.060459   0.001201   0.508143  -0.040749   0.022622
    29  H    0.624687  -0.057437   0.000064  -0.040749   0.545916  -0.025908
    30  C   -0.550433   0.188611   0.004954   0.022622  -0.025908   6.683306
    31  C    0.442327   0.218406  -0.003803  -0.022251   0.000251  -0.441061
    32  C    0.555635   0.006829   0.000539   0.004852  -0.004949   0.194817
    33  C   -0.051274   0.011939  -0.002370   0.001530   0.004959  -0.822040
    34  O   -0.008683  -0.031449   0.000003   0.000207  -0.000334  -0.053361
    35  H   -0.022282  -0.062832   0.000001  -0.000288   0.011266   0.378528
    36  H   -0.118044  -0.051189  -0.000035   0.000062  -0.001534   0.324069
    37  H   -0.005951  -0.061874  -0.000006   0.005776  -0.001633   0.019562
    38  H    0.056211  -0.049860   0.000001  -0.001977   0.010441  -0.019693
    39  H   -0.002009   0.013935   0.000000   0.000014   0.000007   0.003026
    40  H    0.003615  -0.000153  -0.000000  -0.000012   0.000016  -0.004481
    41  H    0.004821   0.004202  -0.000000   0.000002   0.000013  -0.087022
    42  H   -0.016414   0.013388   0.000001   0.000010   0.000007  -0.157335
              31         32         33         34         35         36
     1  C   -0.000268   0.000028   0.000125  -0.000000  -0.000000  -0.000002
     2  S   -0.000006  -0.000001  -0.000001  -0.000000  -0.000000  -0.000000
     3  O    0.000000   0.000000  -0.000000  -0.000000   0.000000  -0.000000
     4  O    0.000001   0.000000  -0.000000  -0.000000   0.000000  -0.000000
     5  N   -0.000003  -0.000000   0.000000  -0.000000  -0.000000   0.000000
     6  H   -0.000000  -0.000000   0.000000  -0.000000   0.000000  -0.000000
     7  S   -0.000002  -0.000005  -0.000003   0.000000  -0.000000  -0.000000
     8  C    0.000368   0.000142  -0.000456  -0.000000   0.000002  -0.000017
     9  C    0.001594   0.000356  -0.001887  -0.000003   0.000003  -0.000071
    10  C   -0.001392  -0.000371   0.001553   0.000001  -0.000015   0.000067
    11  S   -0.003531  -0.001718   0.001421  -0.000022  -0.000011   0.001027
    12  C   -0.077141  -0.033577  -0.018306  -0.000469  -0.004754   0.020949
    13  O   -0.000009  -0.000009  -0.000051  -0.000000  -0.000000   0.000004
    14  O   -0.000163  -0.000024   0.000113   0.000000  -0.000000   0.000005
    15  C    0.001134  -0.005409  -0.064876  -0.001444   0.023841  -0.026423
    16  C    0.204381   0.098124  -0.254021  -0.016969  -0.041581  -0.014558
    17  C   -0.570210  -0.813013   0.155282   0.008240   0.039525   0.100709
    18  C   -0.087853  -0.057699   0.202168   0.014155  -0.007598   0.040292
    19  C   -0.115026  -0.005340   0.015241   0.000285   0.008358  -0.006783
    20  H    0.000000   0.000000  -0.000000  -0.000000   0.000000  -0.000000
    21  H    0.000001   0.000000  -0.000000   0.000000  -0.000000   0.000000
    22  H   -0.000201  -0.000009  -0.000036  -0.000000   0.000001  -0.000009
    23  H   -0.001668  -0.000932   0.006929   0.000000  -0.000098  -0.000526
    24  H   -0.000052  -0.000012   0.000038  -0.000000   0.000000  -0.000000
    25  C    0.442327   0.555635  -0.051274  -0.008683  -0.022282  -0.118044
    26  N    0.218406   0.006829   0.011939  -0.031449  -0.062832  -0.051189
    27  H   -0.003803   0.000539  -0.002370   0.000003   0.000001  -0.000035
    28  H   -0.022251   0.004852   0.001530   0.000207  -0.000288   0.000062
    29  H    0.000251  -0.004949   0.004959  -0.000334   0.011266  -0.001534
    30  C   -0.441061   0.194817  -0.822040  -0.053361   0.378528   0.324069
    31  C    6.551710  -0.644668   0.219363  -0.065523  -0.000088   0.014776
    32  C   -0.644668   6.517981  -0.430307   0.190767  -0.023836  -0.000936
    33  C    0.219363  -0.430307   6.466009   0.171752  -0.026082   0.027590
    34  O   -0.065523   0.190767   0.171752   8.343884   0.000649   0.006881
    35  H   -0.000088  -0.023836  -0.026082   0.000649   0.539878  -0.039846
    36  H    0.014776  -0.000936   0.027590   0.006881  -0.039846   0.482837
    37  H    0.357485   0.034884  -0.003177   0.007352  -0.000437  -0.000059
    38  H    0.421377  -0.065644   0.003071  -0.000176   0.009498  -0.000389
    39  H   -0.161886   0.519975  -0.015459  -0.050853   0.000128   0.000026
    40  H   -0.058593   0.428549   0.012590  -0.055346   0.000031   0.000015
    41  H   -0.003995   0.013022   0.455112  -0.056050  -0.002688  -0.001264
    42  H    0.006096  -0.017765   0.505632  -0.050763   0.004018  -0.002052
              37         38         39         40         41         42
     1  C    0.000000  -0.000000  -0.000000   0.000000   0.000000  -0.000000
     2  S    0.000000  -0.000000   0.000000   0.000000  -0.000000   0.000000
     3  O   -0.000000   0.000000   0.000000  -0.000000  -0.000000  -0.000000
     4  O   -0.000000  -0.000000  -0.000000   0.000000  -0.000000   0.000000
     5  N    0.000000  -0.000000  -0.000000  -0.000000  -0.000000  -0.000000
     6  H   -0.000000  -0.000000  -0.000000  -0.000000  -0.000000   0.000000
     7  S    0.000000  -0.000000  -0.000000   0.000000   0.000000  -0.000000
[...]
 001792,0.00009228,0.00003135,-0.00004829,0.00005987,-0.00001449,0.0000
 2167,0.00003560,0.00003099,-0.00008060,0.00008655,-0.00009284,0.000039
 07,0.00009001,0.00021642,0.00002507,-0.00014681,-0.00006687,0.00002479
 ,0.00000457,0.00004132,0.00000359,-0.00000363,0.00000130,0.00000366,-0
 .00000470,-0.00000847,-0.00000668,0.00000981,-0.00000226,-0.00000281,-
 0.00001837,0.00000743,-0.00000925,-0.00001046,0.00000387,0.00228551,-0
 .00034954,0.00219959,-0.00575514,0.00858109,-0.00293573,0.00011601,-0.
 00002469,0.00003450,-0.00015213,0.00014973,-0.00006455,-0.00134695,0.0
 0096435,0.00083873,-0.00066163,-0.00091081,0.00035940,-0.11030031,0.00
 370757,-0.18307559,-0.02113721,-0.00135524,-0.02407268,-0.00011761,0.0
 0047788,-0.00021548,0.00039265,0.00054522,0.00389608,0.00080270,0.0009
 4449,-0.00034657,0.00021316,0.00012482,0.00018099,0.00422748,-0.000972
 21,0.00528307,0.12839670,-0.01030940,0.20112334,0.00000034,0.00000208,
 -0.00000598,-0.00001869,-0.00000642,0.00001185,0.00000633,-0.00000219,
 -0.00000417,0.00001154,0.00000932,-0.00000189,0.00000742,0.00000093,-0
 .00000426,-0.00000230,-0.00000084,0.00000147,0.00000919,0.00000292,-0.
 00000307,-0.00001082,-0.00000381,-0.00000522,0.00001765,-0.00000432,0.
 00000446,0.00000622,-0.00000073,0.00000212,-0.00006862,0.00003838,-0.0
 0000793,0.00000701,-0.00001561,0.00000008,0.00002145,-0.00001091,0.000
 00027,0.00002298,-0.00001036,0.00001260,0.00000335,-0.00000077,0.00000
 505,0.00002943,0.00000496,0.00000422,-0.00002862,-0.00001523,-0.000097
 27,0.00000129,0.00000533,-0.00003104,-0.00000627,0.00001651,-0.0000048
 6,-0.00000175,-0.00000110,-0.00000076,-0.00000133,0.00000097,0.0000018
 4,-0.00000270,0.00000045,0.00000145,-0.00000365,-0.00000406,0.00001023
 ,-0.00000077,-0.00000336,-0.00000015,-0.00001464,0.00002440,0.00028667
 ,0.00057693,-0.00112911,-0.00013093,-0.00000437,-0.00000855,-0.0000072
 7,0.00004094,-0.00001679,-0.00002862,-0.00014265,0.00004032,-0.0001116
 4,-0.00003995,-0.00063027,0.00052065,0.01029086,0.00175830,0.01240904,
 -0.15104423,0.00392768,-0.12348377,-0.00062502,0.00491887,-0.00079639,
 -0.03207553,-0.01618581,-0.01422552,-0.00012533,0.00013000,0.00001194,
 0.00014447,-0.00002425,-0.00017815,0.00074915,-0.00039727,-0.00100766,
 -0.00068458,0.00155090,0.00290654,0.17853295,-0.00000014,-0.00000083,0
 .00000530,0.00001410,0.00000061,-0.00001462,-0.00000568,0.00000476,0.0
 0000519,-0.00000819,-0.00000493,0.00000337,-0.00000455,-0.00000016,0.0
 0000539,0.00000180,0.00000082,-0.00000143,-0.00000548,-0.00000224,0.00
 000191,0.00000774,0.00000392,0.00000412,-0.00001201,0.00000392,-0.0000
 0313,-0.00000558,0.00000146,-0.00000055,0.00004012,-0.00004450,-0.0000
 0146,-0.00000428,0.00001524,-0.00000294,-0.00000673,0.00002031,0.00000
 541,-0.00001365,0.00001402,-0.00000528,0.00000046,0.00000864,0.0000073
 4,-0.00000569,0.00002031,-0.00000033,0.00002950,-0.00002020,0.00007353
 ,-0.00001805,-0.00002925,-0.00003092,0.00000360,0.00000662,0.00001661,
 0.00000149,-0.00000063,0.00000029,0.00000101,-0.00000139,-0.00000163,0
 .00000023,0.00000022,0.00000017,-0.00000035,0.00000194,0.00000013,0.00
 000196,-0.00000249,-0.00000085,0.00015621,-0.00001601,-0.00024275,-0.0
 0108731,0.00106489,-0.00001147,0.00003085,-0.00000364,0.00000200,-0.00
 002739,0.00001018,0.00000449,0.00011887,-0.00003976,0.00014456,0.00007
 805,-0.00071572,0.00003536,-0.00442447,0.00071094,-0.00843261,0.007482
 75,-0.05494099,0.00383431,-0.00408131,0.00395676,-0.00329855,-0.025100
 56,-0.00853985,-0.01334988,0.00008668,-0.00003494,0.00032045,0.0001609
 7,-0.00001298,-0.00011319,0.00017906,0.00016404,0.00034555,0.00053284,
 0.00044047,-0.00127912,0.00664337,0.05521535,0.00000077,-0.00000076,-0
 .00000145,-0.00002361,0.00000239,-0.00001908,0.00000617,-0.00000261,0.
 00000396,0.00001158,0.00000591,0.00000719,0.00001760,-0.00000485,0.000
 00983,-0.00000479,-0.00000030,-0.00000127,0.00000761,0.00000328,-0.000
 00241,-0.00000772,-0.00000246,0.00000023,0.00001556,-0.00000418,0.0000
 0303,0.00000327,-0.00000201,0.00000377,-0.00006160,0.00004452,-0.00003
 119,0.00000394,-0.00003076,0.00000491,0.00001911,-0.00000769,0.0000091
 0,0.00001972,-0.00000898,0.00003262,0.00000701,0.00000378,0.00000050,0
 .00002636,-0.00001730,0.00002536,0.00004601,0.00008439,0.00004259,0.00
 001781,-0.00017470,-0.00008298,0.00002681,0.00003396,0.00004691,-0.000
 00089,-0.00000330,-0.00000075,-0.00000096,0.00000163,0.00000044,0.0000
 0169,-0.00000373,0.00000153,-0.00000301,0.00001255,0.00001535,0.000010
 14,-0.00001851,-0.00000080,0.00045336,-0.00011425,0.00011530,-0.000434
 63,0.00095671,0.00278975,0.00003138,-0.00003299,-0.00001444,-0.0000624
 1,0.00000783,-0.00003669,-0.00003931,0.00023171,0.00041161,-0.00032198
 ,0.00002544,-0.00023034,-0.02004323,0.00174508,-0.02533033,-0.12249718
 ,0.00166373,-0.19600453,0.00157951,-0.00076394,0.00116664,0.00555010,0
 .00046112,0.01177268,0.00008555,0.00026035,-0.00006602,-0.00007817,-0.
 00008063,0.00007463,0.00014199,0.00043035,0.00053508,0.00321207,-0.002
 18703,-0.00432894,0.13319123,-0.00128767,0.21020361,-0.00000116,-0.000
 00106,0.00001473,0.00003859,0.00000081,-0.00005333,-0.00001677,0.00001
 545,0.00001839,-0.00002262,-0.00001343,0.00001345,-0.00001075,-0.00000
 134,0.00002206,0.00000526,0.00000269,-0.00000621,-0.00001701,-0.000009
 34,0.00000631,0.00002386,0.00001437,0.00001462,-0.00004154,0.00002019,
 -0.00000952,-0.00001482,0.00000223,-0.00000138,0.00012602,-0.00016934,
 0.00001239,-0.00003652,0.00006013,-0.00001276,-0.00001847,0.00006685,0
 .00001377,-0.00003939,0.00004610,-0.00003222,0.00002792,0.00002913,0.0
 0001586,-0.00007819,0.00011180,-0.00004283,-0.00000785,-0.00008690,0.0
 0029389,-0.00001783,0.00001999,-0.00002637,-0.00000125,0.00001731,-0.0
 0000182,0.00000302,-0.00000157,0.00000136,0.00000308,-0.00000446,-0.00
 000538,-0.00000584,0.00000759,-0.00000014,-0.00001050,-0.00001512,-0.0
 0000122,-0.00000510,0.00000188,-0.00000112,0.00063674,0.00090861,-0.00
 026659,-0.00157619,0.00131530,0.00411008,0.00002736,-0.00002355,0.0000
 1658,-0.00000655,-0.00003924,-0.00005022,-0.00006748,0.00010049,0.0002
 8002,-0.00056572,-0.00080902,0.00039596,-0.00449564,0.01146805,-0.0056
 5664,-0.10299590,0.11507802,-0.01320421,-0.00410097,-0.00224463,0.0009
 7655,0.00949744,-0.03441483,0.00473256,0.00014128,0.00011591,-0.000015
 21,0.00010079,0.00007956,-0.00015744,-0.00015226,-0.00016926,-0.000321
 58,0.00061751,-0.00039960,0.00013819,-0.00694265,0.01803442,-0.0006095
 5,0.10932500,0.00000103,0.00000225,-0.00001836,-0.00004062,-0.00000517
 ,0.00006569,0.00001831,-0.00001558,-0.00002215,0.00002481,0.00001647,-
 0.00001654,0.00000899,0.00000349,-0.00002755,-0.00000494,-0.00000294,0
 .00000728,0.00001946,0.00000931,-0.00000681,-0.00002650,-0.00001460,-0
 .00001670,0.00004278,-0.00001565,0.00000803,0.00001777,-0.00000157,0.0
 0000102,-0.00014554,0.00014418,0.00001521,0.00002459,-0.00004087,0.000
 00669,0.00003063,-0.00005671,-0.00001723,0.00004810,-0.00004111,0.0000
 1349,-0.00001036,-0.00000872,-0.00002187,0.00007171,-0.00005412,0.0000
 3964,-0.00002849,0.00002720,-0.00016026,0.00002131,-0.00002180,-0.0000
 1640,0.00000678,0.00000692,0.00000103,-0.00000358,0.00000122,-0.000001
 16,-0.00000342,0.00000402,0.00000614,0.00000161,-0.00000472,0.00000245
 ,-0.00000544,0.00000435,0.00001041,-0.00000231,-0.00000254,0.00000236,
 -0.00017430,-0.00029441,0.00040146,0.00088802,0.00128194,-0.00203077,-
 0.00002409,-0.00000449,-0.00000659,0.00002210,-0.00001793,0.00000037,-
 0.00002523,-0.00004331,-0.00008387,-0.00000121,0.00026129,0.00050392,0
 .00437599,-0.00644107,0.00168167,0.10345604,-0.26579547,0.02122675,-0.
 00509029,0.00061563,0.00056647,0.00259133,-0.02820882,0.00532335,-0.00
 000980,0.00000392,-0.00008940,0.00007871,0.00000444,-0.00008515,0.0003
 6325,0.00006247,-0.00048075,-0.00032797,0.00007621,-0.00020140,0.00079
 250,0.00225607,0.00017422,-0.10752444,0.29752746,0.00000085,0.00000075
 ,-0.00000518,-0.00001177,-0.00000100,0.00002348,0.00000551,-0.00000563
 ,-0.00000765,0.00000730,0.00000488,-0.00000614,0.00000202,0.00000126,-
 0.00001031,-0.00000159,-0.00000112,0.00000286,0.00000887,0.00000524,-0
 .00000410,-0.00001186,-0.00000660,-0.00000741,0.00002255,-0.00001450,0
 .00000578,0.00000550,-0.00000143,0.00000214,-0.00006353,0.00010260,-0.
 00002365,0.00002692,-0.00004840,0.00000585,0.00000813,-0.00003594,-0.0
 0000377,0.00001899,-0.00002322,0.00002941,-0.00004185,-0.00004070,-0.0
 0001559,0.00011476,-0.00014173,0.00008831,0.00009535,-0.00000595,-0.00
 057394,-0.00002200,-0.00005810,-0.00002201,-0.00000701,-0.00000252,0.0
 0002449,-0.00000074,-0.00000026,-0.00000094,-0.00000136,0.00000214,0.0
 0000266,0.00001004,-0.00001294,0.00000209,0.00001214,0.00001448,-0.000
 00819,0.00000999,-0.00000833,-0.00000032,0.00037694,-0.00162915,0.0006
 9335,0.00314678,-0.00067458,-0.00557414,0.00001703,0.00001190,-0.00001
 688,0.00000192,0.00002205,0.00006301,-0.00005083,-0.00002161,-0.000073
 23,0.00046582,0.00064292,-0.00027814,0.01112277,-0.02683116,0.00575037
 ,-0.01241491,0.02117989,-0.05581106,0.00187434,0.00063699,-0.00015941,
 -0.00224643,0.01062457,-0.00073615,-0.00013235,-0.00006001,0.00005791,
 -0.00007401,-0.00007744,0.00005731,-0.00017398,0.00080576,0.00088463,-
 0.00093488,0.00017260,0.00082018,-0.01023272,0.02214079,-0.00084176,0.
 00887123,-0.02690567,0.05517945,-0.00000112,0.00000360,0.00000681,0.00
 003083,-0.00002296,-0.00003370,-0.00001466,0.00002304,0.00001334,-0.00
 001434,0.00000201,0.00000997,-0.00001231,0.00000574,0.00001347,0.00000
 537,0.00000208,-0.00000462,-0.00001026,-0.00000991,0.00000490,0.000015
 95,0.00001503,0.00001106,-0.00003569,0.00003126,-0.00001169,-0.0000094
 9,0.00000412,-0.00000164,0.00008694,-0.00024150,0.00006090,-0.00002797
 ,0.00009887,-0.00001701,0.00001126,0.00009940,0.00001065,-0.00002374,0
 .00006538,-0.00006959,0.00001152,0.00002809,0.00001805,-0.00004189,0.0
 0005690,-0.00004144,0.00009981,-0.00016207,0.00000241,-0.00002187,0.00
 002584,-0.00003366,0.00000036,-0.00000575,-0.00000137,0.00000201,-0.00
 000386,0.00000192,0.00000229,-0.00000677,-0.00000431,-0.00000993,0.000
 00502,0.00000493,-0.00000559,-0.00001967,0.00000195,-0.00001263,-0.000
 00180,0.00000141,0.00019845,-0.00115184,0.00002149,-0.00109525,0.00185
 843,0.00376843,0.00006189,-0.00001411,0.00001896,-0.00017611,0.0000746
 2,0.00026797,-0.00004983,0.00005583,0.00024331,-0.00974466,-0.00789848
 ,-0.00131920,-0.00006221,0.00085753,-0.00025416,0.00020410,0.00252596,
 -0.00041618,-0.23412369,-0.12718804,0.04689129,0.01356283,0.01015902,-
 0.00382352,0.00074559,0.00011457,0.00018438,-0.00019230,0.00017347,-0.
 00005894,0.00000413,-0.00009833,-0.00005992,0.00006407,-0.00011562,0.0
 0007177,0.00031345,0.00023692,0.00012217,0.00042396,0.00040984,0.00001
 397,0.24430705,-0.00000010,0.00000122,-0.00000110,-0.00000195,-0.00000
 673,0.00000153,-0.00000003,0.00000283,-0.00000013,0.00000202,0.0000043
 4,0.00000013,0.00000036,0.00000160,-0.00000088,-0.00000024,-0.00000016
 ,0.00000031,0.00000176,0.00000037,-0.00000049,-0.00000238,-0.00000070,
 -0.00000056,0.00000324,-0.00000015,0.00000049,0.00000091,-0.00000039,0
 .00000028,-0.00000810,0.00000789,-0.00000131,0.00000301,-0.00001102,0.
 00000463,0.00000118,-0.00000143,-0.00000002,0.00000247,-0.00000076,0.0
 0000138,-0.00000145,0.00000022,-0.00000040,-0.00000188,-0.00001397,0.0
 0000211,-0.00004195,0.00005282,0.00004731,-0.00000167,-0.00001375,0.00
 000089,0.00000485,0.00000246,-0.00000123,-0.00000008,-0.00000078,0.000
 00005,-0.00000016,-0.00000015,0.00000017,0.00000050,-0.00000064,-0.000
 00062,0.00000160,0.00000282,-0.00000125,0.00000117,-0.00000207,0.00000
 036,0.00035812,0.00074611,-0.00029721,0.00176011,0.00000735,-0.0028655
 0,-0.00000950,-0.00000108,-0.00000088,0.00018099,-0.00005841,-0.000250
 16,0.00001614,-0.00002081,-0.00007104,0.00770523,0.00825349,-0.0002687
 1,0.00016664,-0.00082736,-0.00043744,0.00525324,-0.00428422,0.00010284
 ,-0.11610205,-0.12672223,0.02938141,-0.02715152,-0.03283416,0.00897207
 ,-0.00039239,0.00017211,0.00036883,-0.00030621,0.00022613,0.00088372,-
 0.00010186,0.00017746,0.00011400,-0.00005129,0.00015040,0.00004456,-0.
 00010965,0.00007775,-0.00019878,-0.00134056,-0.00128652,0.00064637,0.1
 3024222,0.15406800,0.00000065,-0.00000091,-0.00000376,-0.00001093,0.00
 000797,0.00001810,0.00000560,-0.00000907,-0.00000668,0.00000545,-0.000
 00057,-0.00000536,0.00000309,-0.00000151,-0.00000778,-0.00000211,-0.00
 000084,0.00000247,0.00000526,0.00000445,-0.00000317,-0.00000861,-0.000
 00613,-0.00000557,0.00001615,-0.00001272,0.00000356,0.00000515,-0.0000
 0185,0.00000182,-0.00004034,0.00010074,-0.00001027,0.00001956,-0.00005
 630,0.00000917,-0.00000482,-0.00003879,-0.00000929,0.00001288,-0.00002
 276,0.00001959,-0.00000730,-0.00000911,-0.00000976,0.00002655,-0.00006
 984,0.00005001,-0.00013719,0.00022929,-0.00003372,0.00000247,-0.000090
 49,-0.00000354,0.00000714,0.00001267,0.00001525,-0.00000072,0.00000030
 ,-0.00000074,-0.00000062,0.00000270,0.00000211,0.00000887,-0.00000707,
 -0.00000105,0.00000918,0.00001661,-0.00000626,0.00000970,-0.00000898,-
 0.00000079,0.00102543,0.00145081,0.00014297,0.00225119,-0.00346311,-0.
 00480095,0.00001628,0.00001497,-0.00003564,0.00034174,-0.00007876,-0.0
 0051916,-0.00007486,0.00000280,-0.00003866,0.02272949,0.01724213,-0.00
 356928,0.00002596,-0.00071093,0.00024626,-0.00075583,-0.00011779,0.000
 27436,0.04325785,0.03017033,-0.06519112,0.00202900,0.00398492,0.000018
 69,-0.00080845,0.00059170,0.00058176,-0.00034821,-0.00032063,0.0008669
 4,0.00002061,0.00006083,-0.00003897,-0.00007971,0.00009771,-0.00001276
 ,0.00041004,0.00027646,0.00012008,0.00022179,0.00003068,0.00029352,-0.
 05054081,-0.03515937,0.06472221,0.00000028,-0.00000251,0.00000386,-0.0
 0000944,0.00001308,-0.00001759,0.00000274,-0.00000549,0.00000410,0.000
 00276,-0.00000446,0.00000463,0.00001018,-0.00000566,0.00000818,-0.0000
 0233,0.00000001,-0.00000081,0.00000147,0.00000239,-0.00000070,-0.00000
 032,-0.00000172,0.00000042,0.00000847,-0.00001122,0.00000658,-0.000001
 36,-0.00000214,0.00000204,-0.00002699,0.00006503,-0.00007116,0.0000060
 8,-0.00003860,0.00000395,0.00000260,-0.00002153,0.00001252,0.00000435,
 -0.00001619,0.00005580,-0.00000095,-0.00001060,-0.00000608,0.00003011,
 -0.00002478,0.00001552,-0.00001179,0.00000918,-0.00005516,0.00005579,-
 0.00000582,-0.00001772,-0.00001652,0.00001749,-0.00000883,0.,0.0000002
 6,-0.00000142,-0.00000042,0.00000206,0.00000007,0.00000200,-0.00000093
 ,-0.00000086,0.00000493,-0.00000019,-0.00000088,0.00001405,-0.00000185
 ,-0.00000458,-0.00000388,0.00022563,0.00038898,0.00158798,0.00066101,-
 0.00029797,0.00000112,-0.00001403,-0.00005398,-0.00004831,-0.00003161,
 -0.00008375,-0.00024525,-0.00005949,-0.00010587,0.00869014,-0.00086230
 ,0.01274211,0.00004106,0.00037717,0.00030473,0.00037544,-0.00223149,0.
 00189038,-0.15617292,-0.00246568,-0.12289144,-0.00944315,0.01331616,-0
 .00983548,-0.00065296,0.00054491,0.00281288,0.00057351,-0.00028810,-0.
 00098486,0.00005814,-0.00003567,-0.00009692,-0.00021556,-0.00011551,-0
 .00008796,0.00105152,0.00096837,-0.00041946,0.00025115,0.00013285,0.00
 018209,-0.01446633,-0.00008077,-0.01964659,0.16854262,0.00000029,-0.00
 000082,0.00000113,-0.00001023,0.00000360,-0.00000531,0.00000313,-0.000
 00275,0.00000071,0.00000475,0.00000114,0.00000166,0.00000780,-0.000002
 16,0.00000226,-0.00000210,-0.00000042,0.00000034,0.00000277,0.00000200
 ,-0.00000056,-0.00000194,-0.00000104,-0.00000096,0.00000895,-0.0000068
 4,0.00000532,-0.00000042,-0.00000114,0.00000043,-0.00003124,0.00003744
 ,-0.00005057,0.00001455,-0.00003206,0.00000428,0.00000978,-0.00000892,
 0.00001146,0.00000511,-0.00000771,0.00004085,0.00000772,0.00001238,0.0
 0000876,0.00000328,0.00001016,-0.00001308,-0.00002599,0.00007115,-0.00
 002444,-0.00001416,-0.00004635,0.00002623,-0.00000571,-0.00001102,0.00
 002150,0.00000018,-0.00000018,-0.00000076,-0.00000087,0.00000110,0.000
 00040,-0.00000168,0.00000038,0.00000096,-0.00000714,0.00000322,0.00002
 930,0.00001538,-0.00000397,-0.00000181,0.00003134,0.00005792,0.0000787
 4,0.00044183,0.00025164,0.00109577,0.00002196,0.00003626,-0.00000701,0
 .00008185,0.00000056,-0.00000331,-0.00008518,-0.00002858,0.00013598,-0
 .00827002,0.00145807,-0.00907759,-0.00054518,-0.00076606,-0.00004901,0
 .00666406,0.00390254,0.00146668,-0.00524244,-0.04984967,0.00083163,0.0
 2774161,-0.02102783,0.02919475,0.00167663,0.00028022,-0.00245589,-0.00
 048841,0.00021460,0.00037997,-0.00019620,0.00018061,0.00016758,-0.0000
 4680,-0.00017517,-0.00023648,-0.00128678,0.00041129,-0.00120153,-0.000
 24917,0.00006928,-0.00040720,-0.01023408,0.00213212,-0.01411051,-0.009
 99723,0.06283500,0.00000081,-0.00000207,0.00000683,-0.00000984,0.00000
 775,-0.00003538,0.00000081,0.00000013,0.00000954,0.00000296,-0.0000016
 4,0.00001017,0.00001442,-0.00000597,0.00001551,-0.00000306,0.00000031,
 -0.00000219,0.00000186,0.00000147,-0.00000052,0.00000167,0.00000173,0.
 00000358,0.00000602,-0.00000637,0.00000564,-0.00000479,-0.00000215,0.0
 0000286,-0.00002836,0.00002539,-0.00008309,0.00002549,-0.00003697,0.00
 001412,0.00001414,0.00000586,0.00002614,0.00000369,0.00000102,0.000064
 20,0.00000959,0.00004850,0.00001913,0.00004058,0.00001360,-0.00001215,
 -0.00002079,0.00011078,-0.00005194,-0.00003829,-0.00018453,-0.00010419
 ,0.00000619,0.00001018,0.00006519,0.00000105,-0.00000285,-0.00000116,-
 0.00000052,0.00000074,-0.00000107,-0.00000252,-0.00000102,0.00000297,-
 0.00001304,0.00000834,0.00006136,0.00002795,-0.00001919,-0.00000418,0.
 00034654,-0.00015705,0.00002087,-0.00097891,0.00039702,0.00269400,0.00
 014149,0.00005274,-0.00005006,0.00014922,0.00001916,0.00004887,-0.0000
 2106,0.00003936,0.00047554,-0.02007732,-0.00219049,-0.02429497,-0.0001
 1766,0.00032827,-0.00030418,-0.00072692,-0.00096919,0.00020978,-0.1200
 7682,0.00193617,-0.19693966,-0.00388122,0.00839829,0.00177397,0.003124
 32,-0.00163702,-0.00413960,-0.00002028,-0.00014519,0.00068013,0.000058
 78,0.00007459,-0.00003645,-0.00001715,-0.00020859,0.00015481,0.0005775
 2,0.00084564,-0.00040373,0.00030597,0.00012028,0.00019316,0.00492624,-
 0.00101637,0.00692539,0.13625123,-0.00586064,0.21298073\\0.00001542,0.
 00000129,-0.00000500,-0.00001631,0.00000065,0.00000732,0.00000213,-0.0
 0000386,-0.00000223,0.00000487,0.00000825,0.00000038,0.00000213,-0.000
 00065,0.00000257,0.00000320,0.00000188,-0.00000086,-0.00000148,-0.0000
 0045,-0.00000400,-0.00000607,-0.00000297,0.00000436,0.00000187,0.00000
 287,-0.00000533,-0.00000473,0.00000101,0.00000049,0.00000336,-0.000012
 15,-0.00000258,0.00000283,-0.00000241,0.00000428,-0.00000032,0.0000061
 8,0.00000019,-0.00000189,0.00000227,-0.00000046,-0.00000224,0.00000543
 ,-0.00000229,-0.00000048,-0.00000311,-0.00000184,0.00000167,0.00000316
 ,0.00000559,-0.00000069,-0.00000102,-0.00000212,-0.00000525,0.00000292
 ,-0.00000227,0.00000116,0.00000097,-0.00000137,0.00000070,0.00000166,-
 0.00000102,-0.00000033,-0.00000005,-0.00000143,0.00000090,-0.00000023,
 -0.00000085,0.00000082,-0.00000276,0.00000006,-0.00000094,-0.00000209,
 -0.00000437,0.00000485,-0.00000165,0.00000294,-0.00000014,-0.00000074,
 0.00000087,0.00000002,0.00000128,0.00000210,0.00000086,0.00000057,0.00
 000084,-0.00000518,-0.00000279,0.00000214,-0.00000483,0.00000296,0.000
 00059,0.00000191,-0.00000212,-0.00000056,0.00000306,0.00000130,-0.0000
 0266,-0.00000247,-0.00000014,0.00000033,0.00000066,0.,-0.00000039,0.00
 000065,-0.00000017,-0.00000065,0.00000103,-0.00000016,0.00000185,0.000
 00098,-0.00000073,0.00000118,-0.00000029,-0.00000124,0.00000137,-0.000
 00056,-0.00000073,0.00000198,-0.00000023,-0.00000097,-0.00000018,-0.00
 000065,-0.00000146,0.00000102\\\@
 The archive entry for this job was punched.


 IT IS DOUBTED WHETHER A MAN EVER BRINGS HIS FACULTIES TO BEAR WITH THEIR FULL FORCE
 ON A SUBJECT UNTIL HE WRITES UPON IT.

                          -- CICERO
 Job cpu time:       0 days  8 hours 55 minutes 10.6 seconds.
 Elapsed time:       0 days  0 hours 38 minutes 41.9 seconds.
 File lengths (MBytes):  RWF=   1265 Int=      0 D2E=      0 Chk=     24 Scr=      1
 Normal termination of Gaussian 16 at Sat May 28 16:05:31 2022.
