 Entering Gaussian System, Link 0=g16
 AtFile(1): /home/561/yj5695/Basis/6-31pGd.gbs
 Initial command:
 /apps/gaussian/g16c01/g16/l1.exe "/jobfs/41455122.gadi-pbs/Gau-897480.inp" -scrdir="/jobfs/41455122.gadi-pbs/"
 Entering Link 1 = /apps/gaussian/g16c01/g16/l1.exe PID=    897481.
  
 Copyright (c) 1988-2019, Gaussian, Inc.  All Rights Reserved.
  
 This is part of the Gaussian(R) 16 program.  It is based on
 the Gaussian(R) 09 system (copyright 2009, Gaussian, Inc.),
 the Gaussian(R) 03 system (copyright 2003, Gaussian, Inc.),
 the Gaussian(R) 98 system (copyright 1998, Gaussian, Inc.),
 the Gaussian(R) 94 system (copyright 1995, Gaussian, Inc.),
 the Gaussian 92(TM) system (copyright 1992, Gaussian, Inc.),
 the Gaussian 90(TM) system (copyright 1990, Gaussian, Inc.),
 the Gaussian 88(TM) system (copyright 1988, Gaussian, Inc.),
 the Gaussian 86(TM) system (copyright 1986, Carnegie Mellon
 University), and the Gaussian 82(TM) system (copyright 1983,
 Carnegie Mellon University). Gaussian is a federally registered
 trademark of Gaussian, Inc.
  
 This software contains proprietary and confidential information,
 including trade secrets, belonging to Gaussian, Inc.
  
 This software is provided under written license and may be
 used, copied, transmitted, or stored only in accord with that
 written license.
  
 The following legend is applicable only to US Government
 contracts under FAR:
  
                    RESTRICTED RIGHTS LEGEND
  
 Use, reproduction and disclosure by the US Government is
 subject to restrictions as set forth in subparagraphs (a)
 and (c) of the Commercial Computer Software - Restricted
 Rights clause in FAR 52.227-19.
  
 Gaussian, Inc.
 340 Quinnipiac St., Bldg. 40, Wallingford CT 06492
  
  
 ---------------------------------------------------------------
 Warning -- This program may not be used in any manner that
 competes with the business of Gaussian, Inc. or will provide
 assistance to any competitor of Gaussian, Inc.  The licensee
 of this program is prohibited from giving any competitor of
 Gaussian, Inc. access to this program.  By using this program,
 the user acknowledges that Gaussian, Inc. is engaged in the
 business of creating and licensing software in the field of
 computational chemistry and represents and warrants to the
 licensee that it is not a competitor of Gaussian, Inc. and that
 it will not use this program in any manner prohibited above.
 ---------------------------------------------------------------
  

 Cite this work as:
 Gaussian 16, Revision C.01,
 M. J. Frisch, G. W. Trucks, H. B. Schlegel, G. E. Scuseria, 
 M. A. Robb, J. R. Cheeseman, G. Scalmani, V. Barone, 
 G. A. Petersson, H. Nakatsuji, X. Li, M. Caricato, A. V. Marenich, 
 J. Bloino, B. G. Janesko, R. Gomperts, B. Mennucci, H. P. Hratchian, 
 J. V. Ortiz, A. F. Izmaylov, J. L. Sonnenberg, D. Williams-Young, 
 F. Ding, F. Lipparini, F. Egidi, J. Goings, B. Peng, A. Petrone, 
 T. Henderson, D. Ranasinghe, V. G. Zakrzewski, J. Gao, N. Rega, 
 G. Zheng, W. Liang, M. Hada, M. Ehara, K. Toyota, R. Fukuda, 
 J. Hasegawa, M. Ishida, T. Nakajima, Y. Honda, O. Kitao, H. Nakai, 
 T. Vreven, K. Throssell, J. A. Montgomery, Jr., J. E. Peralta, 
 F. Ogliaro, M. J. Bearpark, J. J. Heyd, E. N. Brothers, K. N. Kudin, 
 V. N. Staroverov, T. A. Keith, R. Kobayashi, J. Normand, 
 K. Raghavachari, A. P. Rendell, J. C. Burant, S. S. Iyengar, 
 J. Tomasi, M. Cossi, J. M. Millam, M. Klene, C. Adamo, R. Cammi, 
 J. W. Ochterski, R. L. Martin, K. Morokuma, O. Farkas, 
 J. B. Foresman, and D. J. Fox, Gaussian, Inc., Wallingford CT, 2019.
 
 ******************************************
 Gaussian 16:  ES64L-G16RevC.01  3-Jul-2019
                27-May-2022 
 ******************************************
 %nproc=16
 Will use up to   16 processors via shared memory.
 %mem=40gb
 --------------------------------------------------
 #M062X/gen 6D INT(grid=ultrafine) OPT Freq=noraman
 --------------------------------------------------
 1/18=20,19=15,26=4,38=1/1,3;
 2/9=110,12=2,17=6,18=5,40=1/2;
 3/5=7,8=2,11=2,25=1,30=1,71=1,74=-55,75=-5/1,2,3;
 4//1;
 5/5=2,38=5/2;
 6/7=2,8=2,9=2,10=2,28=1/1;
 7//1,2,3,16;
 1/18=20,19=15,26=4/3(2);
 2/9=110/2;
 99//99;
 2/9=110/2;
 3/5=7,6=1,8=2,11=2,25=1,30=1,71=1,74=-55,75=-5,82=7/1,2,3;
 4/5=5,16=3,69=1/1;
 5/5=2,38=5/2;
 7//1,2,3,16;
 1/18=20,19=15,26=4/3(-5);
 2/9=110/2;
 6/7=2,8=2,9=2,10=2,19=2,28=1/1;
 99/9=1/99;
 --------------
 A.21.a3b3.freq
 --------------
 Symbolic Z-matrix:
 Charge = -1 Multiplicity = 1
 C                    -1.57218   0.95057  -0.61821 
 S                    -1.75645   0.53276   1.12835 
 O                    -3.22342   0.59653   1.33086 
 O                    -1.16703  -0.83056   1.18996 
 N                    -1.05526   1.61618   1.99084 
 H                    -0.04432   1.46206   1.94536 
 S                    -2.74685   1.93155  -1.40249 
 C                    -1.79616   1.98575  -2.83812 
 C                    -0.63179   1.26812  -2.67604 
 C                    -0.48652   0.66411  -1.40492 
 C                    -2.25084   2.69866  -4.04607 
 S                     0.53434   1.11963  -3.99996 
 O                     0.21619  -0.08306  -4.78604 
 O                     1.89031   1.22654  -3.44314 
 H                     0.36317   0.06835  -1.08882 
 C                    -1.35638   2.63834  -5.26474 
 C                     0.1371    2.57553  -4.95384 
 O                    -3.32603   3.27757  -4.0615 
 H                    -1.55471   3.52267  -5.87504 
 H                    -1.66398   1.76006  -5.84735 
 H                     0.47812   3.42982  -4.36176 
 H                     0.73528   2.50343  -5.86742 
 

 GradGradGradGradGradGradGradGradGradGradGradGradGradGradGradGradGradGrad
 Berny optimization.
 Initialization pass.
                           ----------------------------
                           !    Initial Parameters    !
                           ! (Angstroms and Degrees)  !
 --------------------------                            --------------------------
 ! Name  Definition              Value          Derivative Info.                !
 --------------------------------------------------------------------------------
 ! R1    R(1,2)                  1.8053         estimate D2E/DX2                !
 ! R2    R(1,7)                  1.7197         estimate D2E/DX2                !
 ! R3    R(1,10)                 1.371          estimate D2E/DX2                !
 ! R4    R(2,3)                  1.4823         estimate D2E/DX2                !
 ! R5    R(2,4)                  1.4866         estimate D2E/DX2                !
 ! R6    R(2,5)                  1.5522         estimate D2E/DX2                !
 ! R7    R(5,6)                  1.0236         estimate D2E/DX2                !
 ! R8    R(7,8)                  1.7227         estimate D2E/DX2                !
 ! R9    R(8,9)                  1.3773         estimate D2E/DX2                !
 ! R10   R(8,11)                 1.4745         estimate D2E/DX2                !
 ! R11   R(9,10)                 1.4148         estimate D2E/DX2                !
 ! R12   R(9,12)                 1.7705         estimate D2E/DX2                !
 ! R13   R(10,15)                1.0848         estimate D2E/DX2                !
 ! R14   R(11,16)                1.5129         estimate D2E/DX2                !
 ! R15   R(11,18)                1.2212         estimate D2E/DX2                !
 ! R16   R(12,13)                1.4716         estimate D2E/DX2                !
 ! R17   R(12,14)                1.4697         estimate D2E/DX2                !
 ! R18   R(12,17)                1.7853         estimate D2E/DX2                !
 ! R19   R(16,17)                1.5268         estimate D2E/DX2                !
 ! R20   R(16,19)                1.0926         estimate D2E/DX2                !
 ! R21   R(16,20)                1.0979         estimate D2E/DX2                !
 ! R22   R(17,21)                1.0939         estimate D2E/DX2                !
 ! R23   R(17,22)                1.0944         estimate D2E/DX2                !
 ! A1    A(2,1,7)              120.2339         estimate D2E/DX2                !
 ! A2    A(2,1,10)             125.989          estimate D2E/DX2                !
 ! A3    A(7,1,10)             113.4789         estimate D2E/DX2                !
 ! A4    A(1,2,3)              102.8995         estimate D2E/DX2                !
 ! A5    A(1,2,4)              102.2325         estimate D2E/DX2                !
 ! A6    A(1,2,5)              109.2648         estimate D2E/DX2                !
 ! A7    A(3,2,4)              115.2269         estimate D2E/DX2                !
 ! A8    A(3,2,5)              109.9463         estimate D2E/DX2                !
 ! A9    A(4,2,5)              115.9747         estimate D2E/DX2                !
 ! A10   A(2,5,6)              108.4431         estimate D2E/DX2                !
 ! A11   A(1,7,8)               91.2061         estimate D2E/DX2                !
 ! A12   A(7,8,9)              110.6137         estimate D2E/DX2                !
 ! A13   A(7,8,11)             121.8534         estimate D2E/DX2                !
 ! A14   A(9,8,11)             127.518          estimate D2E/DX2                !
 ! A15   A(8,9,10)             114.5176         estimate D2E/DX2                !
 ! A16   A(8,9,12)             120.8311         estimate D2E/DX2                !
 ! A17   A(10,9,12)            124.6379         estimate D2E/DX2                !
 ! A18   A(1,10,9)             110.1836         estimate D2E/DX2                !
 ! A19   A(1,10,15)            124.5964         estimate D2E/DX2                !
 ! A20   A(9,10,15)            125.217          estimate D2E/DX2                !
 ! A21   A(8,11,16)            117.2787         estimate D2E/DX2                !
 ! A22   A(8,11,18)            120.7328         estimate D2E/DX2                !
 ! A23   A(16,11,18)           121.9544         estimate D2E/DX2                !
 ! A24   A(9,12,13)            109.0004         estimate D2E/DX2                !
 ! A25   A(9,12,14)            108.558          estimate D2E/DX2                !
 ! A26   A(9,12,17)            100.6368         estimate D2E/DX2                !
 ! A27   A(13,12,14)           117.4697         estimate D2E/DX2                !
 ! A28   A(13,12,17)           109.4487         estimate D2E/DX2                !
 ! A29   A(14,12,17)           110.3889         estimate D2E/DX2                !
 ! A30   A(11,16,17)           114.5787         estimate D2E/DX2                !
 ! A31   A(11,16,19)           108.0802         estimate D2E/DX2                !
 ! A32   A(11,16,20)           107.0797         estimate D2E/DX2                !
 ! A33   A(17,16,19)           108.9405         estimate D2E/DX2                !
 ! A34   A(17,16,20)           110.4384         estimate D2E/DX2                !
 ! A35   A(19,16,20)           107.4691         estimate D2E/DX2                !
 ! A36   A(12,17,16)           111.0999         estimate D2E/DX2                !
 ! A37   A(12,17,21)           106.1587         estimate D2E/DX2                !
 ! A38   A(12,17,22)           105.7047         estimate D2E/DX2                !
 ! A39   A(16,17,21)           112.5211         estimate D2E/DX2                !
 ! A40   A(16,17,22)           111.5552         estimate D2E/DX2                !
 ! A41   A(21,17,22)           109.4443         estimate D2E/DX2                !
 ! D1    D(7,1,2,3)             26.9555         estimate D2E/DX2                !
 ! D2    D(7,1,2,4)            146.7604         estimate D2E/DX2                !
 ! D3    D(7,1,2,5)            -89.8379         estimate D2E/DX2                !
 ! D4    D(10,1,2,3)          -159.7405         estimate D2E/DX2                !
 ! D5    D(10,1,2,4)           -39.9356         estimate D2E/DX2                !
 ! D6    D(10,1,2,5)            83.4661         estimate D2E/DX2                !
 ! D7    D(2,1,7,8)            174.1324         estimate D2E/DX2                !
 ! D8    D(10,1,7,8)             0.0364         estimate D2E/DX2                !
 ! D9    D(2,1,10,9)          -173.6605         estimate D2E/DX2                !
 ! D10   D(2,1,10,15)            5.7388         estimate D2E/DX2                !
 ! D11   D(7,1,10,9)             0.0338         estimate D2E/DX2                !
 ! D12   D(7,1,10,15)          179.433          estimate D2E/DX2                !
 ! D13   D(1,2,5,6)            -76.2194         estimate D2E/DX2                !
 ! D14   D(3,2,5,6)            171.5451         estimate D2E/DX2                !
 ! D15   D(4,2,5,6)             38.6114         estimate D2E/DX2                !
 ! D16   D(1,7,8,9)             -0.0979         estimate D2E/DX2                !
 ! D17   D(1,7,8,11)           178.5996         estimate D2E/DX2                !
 ! D18   D(7,8,9,10)             0.1387         estimate D2E/DX2                !
 ! D19   D(7,8,9,12)           178.868          estimate D2E/DX2                !
 ! D20   D(11,8,9,10)         -178.4664         estimate D2E/DX2                !
 ! D21   D(11,8,9,12)            0.2629         estimate D2E/DX2                !
 ! D22   D(7,8,11,16)         -177.8719         estimate D2E/DX2                !
 ! D23   D(7,8,11,18)            0.0462         estimate D2E/DX2                !
 ! D24   D(9,8,11,16)            0.591          estimate D2E/DX2                !
 ! D25   D(9,8,11,18)          178.5091         estimate D2E/DX2                !
 ! D26   D(8,9,10,1)            -0.1119         estimate D2E/DX2                !
 ! D27   D(8,9,10,15)         -179.5066         estimate D2E/DX2                !
 ! D28   D(12,9,10,1)         -178.7857         estimate D2E/DX2                !
 ! D29   D(12,9,10,15)           1.8196         estimate D2E/DX2                !
 ! D30   D(8,9,12,13)          -90.9409         estimate D2E/DX2                !
 ! D31   D(8,9,12,14)          139.9929         estimate D2E/DX2                !
 ! D32   D(8,9,12,17)           24.0817         estimate D2E/DX2                !
 ! D33   D(10,9,12,13)          87.6539         estimate D2E/DX2                !
 ! D34   D(10,9,12,14)         -41.4124         estimate D2E/DX2                !
 ! D35   D(10,9,12,17)        -157.3235         estimate D2E/DX2                !
 ! D36   D(8,11,16,17)         -32.8542         estimate D2E/DX2                !
 ! D37   D(8,11,16,19)        -154.5082         estimate D2E/DX2                !
 ! D38   D(8,11,16,20)          89.9823         estimate D2E/DX2                !
 ! D39   D(18,11,16,17)        149.2549         estimate D2E/DX2                !
 ! D40   D(18,11,16,19)         27.6008         estimate D2E/DX2                !
 ! D41   D(18,11,16,20)        -87.9087         estimate D2E/DX2                !
 ! D42   D(9,12,17,16)         -52.206          estimate D2E/DX2                !
 ! D43   D(9,12,17,21)          70.4258         estimate D2E/DX2                !
 ! D44   D(9,12,17,22)        -173.3752         estimate D2E/DX2                !
 ! D45   D(13,12,17,16)         62.479          estimate D2E/DX2                !
 ! D46   D(13,12,17,21)       -174.8892         estimate D2E/DX2                !
 ! D47   D(13,12,17,22)        -58.6901         estimate D2E/DX2                !
 ! D48   D(14,12,17,16)       -166.7428         estimate D2E/DX2                !
 ! D49   D(14,12,17,21)        -44.111          estimate D2E/DX2                !
 ! D50   D(14,12,17,22)         72.088          estimate D2E/DX2                !
 ! D51   D(11,16,17,12)         60.6336         estimate D2E/DX2                !
 ! D52   D(11,16,17,21)        -58.2429         estimate D2E/DX2                !
 ! D53   D(11,16,17,22)        178.3033         estimate D2E/DX2                !
 ! D54   D(19,16,17,12)       -178.1839         estimate D2E/DX2                !
 ! D55   D(19,16,17,21)         62.9397         estimate D2E/DX2                !
 ! D56   D(19,16,17,22)        -60.5142         estimate D2E/DX2                !
 ! D57   D(20,16,17,12)        -60.3713         estimate D2E/DX2                !
 ! D58   D(20,16,17,21)       -179.2478         estimate D2E/DX2                !
 ! D59   D(20,16,17,22)         57.2984         estimate D2E/DX2                !
 --------------------------------------------------------------------------------
 Trust Radius=3.00D-01 FncErr=1.00D-07 GrdErr=1.00D-06 EigMax=2.50D+02 EigMin=1.00D-04
 Number of steps in this run=    132 maximum allowed number of steps=    132.
 GradGradGradGradGradGradGradGradGradGradGradGradGradGradGradGradGradGrad

                          Input orientation:                          
 ---------------------------------------------------------------------
 Center     Atomic      Atomic             Coordinates (Angstroms)
 Number     Number       Type             X           Y           Z
 ---------------------------------------------------------------------
      1          6           0       -1.572181    0.950571   -0.618210
      2         16           0       -1.756449    0.532765    1.128348
      3          8           0       -3.223423    0.596532    1.330855
      4          8           0       -1.167026   -0.830560    1.189963
      5          7           0       -1.055257    1.616179    1.990836
      6          1           0       -0.044322    1.462055    1.945365
      7         16           0       -2.746853    1.931550   -1.402488
      8          6           0       -1.796163    1.985749   -2.838125
      9          6           0       -0.631789    1.268119   -2.676040
     10          6           0       -0.486516    0.664107   -1.404917
     11          6           0       -2.250840    2.698655   -4.046069
     12         16           0        0.534344    1.119634   -3.999959
     13          8           0        0.216189   -0.083058   -4.786038
     14          8           0        1.890314    1.226537   -3.443136
     15          1           0        0.363174    0.068353   -1.088817
     16          6           0       -1.356379    2.638337   -5.264735
     17          6           0        0.137101    2.575530   -4.953843
     18          8           0       -3.326029    3.277570   -4.061500
     19          1           0       -1.554709    3.522673   -5.875042
     20          1           0       -1.663978    1.760056   -5.847346
     21          1           0        0.478120    3.429823   -4.361760
     22          1           0        0.735280    2.503426   -5.867422
 ---------------------------------------------------------------------
                    Distance matrix (angstroms):
                    1          2          3          4          5
     1  C    0.000000
     2  S    1.805265   0.000000
     3  O    2.578915   1.482259   0.000000
     4  O    2.570227   1.486563   2.507033   0.000000
     5  N    2.741782   1.552205   2.485196   2.576902   0.000000
     6  H    3.027852   2.112457   3.351632   2.662176   1.023627
     7  S    1.719670   3.056572   3.079051   4.104376   3.804681
     8  C    2.459631   4.224411   4.620324   4.955088   4.899427
     9  C    2.284697   4.034721   4.819005   4.431355   4.698958
    10  C    1.370999   2.836796   3.870359   3.070916   3.572261
    11  C    3.907249   5.631172   5.854584   6.406719   6.248632
    12  S    3.987764   5.647273   6.543091   5.799415   6.217960
    13  O    4.651607   6.265022   7.050473   6.179372   7.101409
    14  O    4.477191   5.888859   7.024116   5.919846   6.193243
    15  H    2.178389   3.102306   4.358608   2.888320   3.727194
    16  C    4.948265   6.742775   7.152387   7.330227   7.333403
    17  C    4.935570   6.689654   7.396417   7.144827   7.111304
    18  O    4.510781   6.077175   6.022955   7.008273   6.674383
    19  H    5.852375   7.617593   7.954361   8.307540   8.109020
    20  H    5.292217   7.083439   7.437219   7.515449   7.863100
    21  H    4.936050   6.597540   7.357638   7.188811   6.782037
    22  H    5.940535   7.683295   8.433432   8.033736   8.108357
                    6          7          8          9         10
     6  H    0.000000
     7  S    4.328073   0.000000
     8  C    5.121032   1.722731   0.000000
     9  C    4.662629   2.556476   1.377328   0.000000
    10  C    3.472268   2.591436   2.348616   1.414811   0.000000
    11  C    6.503474   2.796963   1.474482   2.558269   3.771991
    12  S    5.983225   4.262901   2.744318   1.770502   2.825581
    13  O    6.911369   4.928151   3.481938   2.645153   3.533275
    14  O    5.730116   5.115135   3.812158   2.636507   3.181192
    15  H    3.363736   3.638977   3.376273   2.224560   1.084810
    16  C    7.422309   4.165324   2.551023   3.017262   4.421815
    17  C    6.990837   4.619959   2.926023   2.736586   4.078886
    18  O    7.081533   3.036044   2.346474   3.635426   4.685132
    19  H    8.227161   4.894550   3.412228   4.020996   5.412435
    20  H    7.964825   4.578077   3.020567   3.371142   4.724691
    21  H    6.627585   4.626291   3.095024   2.957451   4.162047
    22  H    7.920345   5.691039   3.981562   3.685075   4.978939
                   11         12         13         14         15
    11  C    0.000000
    12  S    3.201982   0.000000
    13  O    3.791005   1.471601   0.000000
    14  O    4.436194   1.469739   2.514183   0.000000
    15  H    4.743089   3.099877   3.703238   3.035846   0.000000
    16  C    1.512894   2.735133   3.179326   3.981510   5.196150
    17  C    2.557631   1.785309   2.665052   2.678764   4.612534
    18  O    1.221234   4.423004   4.936202   5.639091   5.722424
    19  H    2.123381   3.695223   4.162127   4.801519   6.206331
    20  H    2.114231   2.942040   2.838745   4.324103   5.441948
    21  H    2.842796   2.339024   3.548091   2.773560   4.693064
    22  H    3.503192   2.332954   2.851095   2.973502   5.376161
                   16         17         18         19         20
    16  C    0.000000
    17  C    1.526788   0.000000
    18  O    2.394978   3.644504   0.000000
    19  H    1.092638   2.146603   2.546878   0.000000
    20  H    1.097921   2.169615   2.873066   1.766217   0.000000
    21  H    2.192533   1.093926   3.819017   2.535948   3.095751
    22  H    2.180933   1.094369   4.511639   2.506585   2.511861
                   21         22
    21  H    0.000000
    22  H    1.786438   0.000000
 Stoichiometry    C7H6NO5S3(1-)
 Framework group  C1[X(C7H6NO5S3)]
 Deg. of freedom    60
 Full point group                 C1      NOp   1
 Largest Abelian subgroup         C1      NOp   1
 Largest concise Abelian subgroup C1      NOp   1
                         Standard orientation:                         
 ---------------------------------------------------------------------
 Center     Atomic      Atomic             Coordinates (Angstroms)
 Number     Number       Type             X           Y           Z
 ---------------------------------------------------------------------
      1          6           0       -1.482211   -0.006845   -0.095297
      2         16           0       -3.264935   -0.273123    0.004569
      3          8           0       -3.819077    0.989387   -0.539569
      4          8           0       -3.453245   -1.470541   -0.856012
      5          7           0       -3.676154   -0.433944    1.492647
      6          1           0       -3.405849   -1.370899    1.803876
      7         16           0       -0.840381    1.587584   -0.039482
      8          6           0        0.770206    0.977154   -0.005041
      9          6           0        0.767607   -0.399857   -0.034454
     10          6           0       -0.520088   -0.983526   -0.087941
     11          6           0        1.941386    1.872590    0.020048
     12         16           0        2.286118   -1.310230   -0.039171
     13          8           0        2.698771   -1.546493   -1.431833
     14          8           0        2.129962   -2.484917    0.830232
     15          1           0       -0.723657   -2.048847   -0.109485
     16          6           0        3.309048    1.226122   -0.000652
     17          6           0        3.385372   -0.121449    0.713005
     18          8           0        1.799746    3.085580    0.017906
     19          1           0        4.016948    1.915230    0.466109
     20          1           0        3.599188    1.119037   -1.054114
     21          1           0        3.089906   -0.056182    1.764249
     22          1           0        4.386551   -0.557681    0.642389
 ---------------------------------------------------------------------
 Rotational constants (GHZ):           0.7404847           0.2633777           0.2115040
 General basis read from cards:  (6D, 7F)
 There are   328 symmetry adapted cartesian basis functions of A   symmetry.
 There are   328 symmetry adapted basis functions of A   symmetry.
   328 basis functions,   608 primitive gaussians,   328 cartesian basis functions
    72 alpha electrons       72 beta electrons
       nuclear repulsion energy      1571.5789264447 Hartrees.
 NAtoms=   22 NActive=   22 NUniq=   22 SFac= 1.00D+00 NAtFMM=   60 NAOKFM=F Big=F
 Integral buffers will be    131072 words long.
 Raffenetti 2 integral format.
 Two-electron integral symmetry is turned on.
 One-electron integrals computed using PRISM.
 NBasis=   328 RedAO= T EigKep=  2.81D-06  NBF=   328
 NBsUse=   327 1.00D-06 EigRej=  9.79D-07 NBFU=   327
 ExpMin= 4.05D-02 ExpMax= 2.19D+04 ExpMxC= 3.30D+03 IAcc=3 IRadAn=         5 AccDes= 0.00D+00
 Harris functional with IExCor= 1009 and IRadAn=       5 diagonalized for initial guess.
 HarFok:  IExCor= 1009 AccDes= 0.00D+00 IRadAn=         5 IDoV= 1 UseB2=F ITyADJ=14
 ICtDFT=  3500011 ScaDFX=  1.000000  1.000000  1.000000  1.000000
 FoFCou: FMM=F IPFlag=           0 FMFlag=      100000 FMFlg1=           0
         NFxFlg=           0 DoJE=T BraDBF=F KetDBF=T FulRan=T
         wScrn=  0.000000 ICntrl=       500 IOpCl=  0 I1Cent=   200000004 NGrid=           0
         NMat0=    1 NMatS0=      1 NMatT0=    0 NMatD0=    1 NMtDS0=    0 NMtDT0=    0
 Petite list used in FoFCou.
 Requested convergence on RMS density matrix=1.00D-08 within 128 cycles.
 Requested convergence on MAX density matrix=1.00D-06.
 Requested convergence on             energy=1.00D-06.
 No special actions if energy rises.
 SCF Done:  E(RM062X) =  -1895.36377476     A.U. after   18 cycles
            NFock= 18  Conv=0.22D-08     -V/T= 2.0052

 **********************************************************************

            Population analysis using the SCF Density.

 **********************************************************************

 Orbital symmetries:
       Occupied  (A) (A) (A) (A) (A) (A) (A) (A) (A) (A) (A) (A)
                 (A) (A) (A) (A) (A) (A) (A) (A) (A) (A) (A) (A)
                 (A) (A) (A) (A) (A) (A) (A) (A) (A) (A) (A) (A)
                 (A) (A) (A) (A) (A) (A) (A) (A) (A) (A) (A) (A)
                 (A) (A) (A) (A) (A) (A) (A) (A) (A) (A) (A) (A)
                 (A) (A) (A) (A) (A) (A) (A) (A) (A) (A) (A) (A)
       Virtual   (A) (A) (A) (A) (A) (A) (A) (A) (A) (A) (A) (A)
                 (A) (A) (A) (A) (A) (A) (A) (A) (A) (A) (A) (A)
                 (A) (A) (A) (A) (A) (A) (A) (A) (A) (A) (A) (A)
                 (A) (A) (A) (A) (A) (A) (A) (A) (A) (A) (A) (A)
                 (A) (A) (A) (A) (A) (A) (A) (A) (A) (A) (A) (A)
                 (A) (A) (A) (A) (A) (A) (A) (A) (A) (A) (A) (A)
                 (A) (A) (A) (A) (A) (A) (A) (A) (A) (A) (A) (A)
                 (A) (A) (A) (A) (A) (A) (A) (A) (A) (A) (A) (A)
                 (A) (A) (A) (A) (A) (A) (A) (A) (A) (A) (A) (A)
                 (A) (A) (A) (A) (A) (A) (A) (A) (A) (A) (A) (A)
                 (A) (A) (A) (A) (A) (A) (A) (A) (A) (A) (A) (A)
                 (A) (A) (A) (A) (A) (A) (A) (A) (A) (A) (A) (A)
                 (A) (A) (A) (A) (A) (A) (A) (A) (A) (A) (A) (A)
                 (A) (A) (A) (A) (A) (A) (A) (A) (A) (A) (A) (A)
                 (A) (A) (A) (A) (A) (A) (A) (A) (A) (A) (A) (A)
                 (A) (A) (A) (A) (A) (A) (A) (A) (A) (A) (A) (A)
                 (A) (A) (A) (A) (A) (A) (A) (A) (A) (A) (A) (A)
                 (A) (A) (A) (A) (A) (A) (A) (A) (A) (A) (A) (A)
                 (A) (A) (A) (A) (A) (A) (A) (A) (A) (A) (A) (A)
                 (A) (A) (A) (A) (A) (A) (A) (A) (A) (A) (A) (A)
                 (A) (A) (A) (A) (A) (A) (A) (A) (A) (A) (A) (A)
                 (A) (A) (A)
 The electronic state is 1-A.
 Alpha  occ. eigenvalues --  -90.07082 -89.99996 -89.88168 -19.57304 -19.56324
 Alpha  occ. eigenvalues --  -19.56248 -19.47546 -19.47199 -14.58476 -10.58590
 Alpha  occ. eigenvalues --  -10.53452 -10.51700 -10.51530 -10.51475 -10.50522
 Alpha  occ. eigenvalues --  -10.48196  -8.38472  -8.30759  -8.22468  -6.30615
 Alpha  occ. eigenvalues --   -6.30575  -6.30561  -6.22976  -6.22952  -6.22845
 Alpha  occ. eigenvalues --   -6.14448  -6.14215  -6.14028  -1.15047  -1.10185
 Alpha  occ. eigenvalues --   -1.06626  -1.03933  -0.94689  -0.92421  -0.86930
 Alpha  occ. eigenvalues --   -0.82641  -0.77986  -0.76808  -0.73944  -0.64753
 Alpha  occ. eigenvalues --   -0.63639  -0.57908  -0.54621  -0.52941  -0.50605
 Alpha  occ. eigenvalues --   -0.49325  -0.47898  -0.46146  -0.44966  -0.44892
 Alpha  occ. eigenvalues --   -0.43523  -0.42022  -0.40801  -0.40401  -0.38961
 Alpha  occ. eigenvalues --   -0.38019  -0.37146  -0.35716  -0.33802  -0.32279
 Alpha  occ. eigenvalues --   -0.31866  -0.29835  -0.28233  -0.27441  -0.26450
 Alpha  occ. eigenvalues --   -0.24669  -0.23653  -0.22509  -0.22417  -0.20992
 Alpha  occ. eigenvalues --   -0.18440  -0.15591
 Alpha virt. eigenvalues --    0.03418   0.07024   0.10164   0.10281   0.11233
 Alpha virt. eigenvalues --    0.12662   0.13067   0.13357   0.13750   0.14249
 Alpha virt. eigenvalues --    0.14515   0.14980   0.15451   0.16099   0.16286
 Alpha virt. eigenvalues --    0.17159   0.17752   0.17867   0.18182   0.19028
 Alpha virt. eigenvalues --    0.19337   0.19756   0.20314   0.20642   0.21332
 Alpha virt. eigenvalues --    0.21675   0.22107   0.22829   0.23238   0.23568
 Alpha virt. eigenvalues --    0.24328   0.24655   0.25013   0.25397   0.25971
 Alpha virt. eigenvalues --    0.27438   0.27604   0.27865   0.28824   0.29576
 Alpha virt. eigenvalues --    0.29588   0.30255   0.30591   0.30810   0.31641
 Alpha virt. eigenvalues --    0.32143   0.33001   0.33574   0.33967   0.34703
 Alpha virt. eigenvalues --    0.34840   0.35046   0.36201   0.36846   0.36983
 Alpha virt. eigenvalues --    0.37460   0.38095   0.38692   0.39014   0.39474
 Alpha virt. eigenvalues --    0.40456   0.40603   0.40704   0.41504   0.42077
 Alpha virt. eigenvalues --    0.42420   0.42993   0.43138   0.43529   0.44457
 Alpha virt. eigenvalues --    0.44980   0.45205   0.45612   0.46732   0.46907
 Alpha virt. eigenvalues --    0.47538   0.47963   0.48700   0.49595   0.51294
 Alpha virt. eigenvalues --    0.51368   0.51929   0.52990   0.53650   0.54824
 Alpha virt. eigenvalues --    0.56430   0.56814   0.58321   0.62878   0.65693
 Alpha virt. eigenvalues --    0.67180   0.68030   0.71436   0.72754   0.72978
 Alpha virt. eigenvalues --    0.73629   0.74201   0.75496   0.77530   0.79077
 Alpha virt. eigenvalues --    0.79541   0.80238   0.80804   0.82261   0.82671
 Alpha virt. eigenvalues --    0.83175   0.84095   0.84752   0.86827   0.87578
 Alpha virt. eigenvalues --    0.89260   0.89804   0.91731   0.92664   0.95011
 Alpha virt. eigenvalues --    0.97407   1.00322   1.00488   1.03197   1.05588
 Alpha virt. eigenvalues --    1.07430   1.07752   1.08959   1.09738   1.09947
 Alpha virt. eigenvalues --    1.10855   1.14364   1.16252   1.18090   1.19418
 Alpha virt. eigenvalues --    1.20593   1.21434   1.22638   1.22813   1.23618
 Alpha virt. eigenvalues --    1.25011   1.26482   1.26910   1.27599   1.29784
 Alpha virt. eigenvalues --    1.30435   1.31487   1.33523   1.34135   1.35586
 Alpha virt. eigenvalues --    1.36538   1.39265   1.41083   1.42929   1.44006
 Alpha virt. eigenvalues --    1.44764   1.45209   1.45308   1.47079   1.47934
 Alpha virt. eigenvalues --    1.49044   1.49732   1.52086   1.52452   1.53511
 Alpha virt. eigenvalues --    1.54163   1.55062   1.55615   1.56308   1.57157
 Alpha virt. eigenvalues --    1.58726   1.59428   1.61376   1.62912   1.64932
 Alpha virt. eigenvalues --    1.66673   1.68627   1.69202   1.73432   1.76245
 Alpha virt. eigenvalues --    1.84479   1.85118   1.85746   1.87532   1.90035
 Alpha virt. eigenvalues --    1.91158   1.92557   1.95035   1.95245   1.96053
 Alpha virt. eigenvalues --    1.96375   1.97700   1.98094   1.99477   2.01177
 Alpha virt. eigenvalues --    2.03485   2.03771   2.04254   2.04508   2.06580
 Alpha virt. eigenvalues --    2.07792   2.09252   2.09736   2.10490   2.14164
 Alpha virt. eigenvalues --    2.15857   2.16817   2.17475   2.18575   2.20726
 Alpha virt. eigenvalues --    2.22207   2.23632   2.24812   2.30160   2.32928
 Alpha virt. eigenvalues --    2.35839   2.36723   2.38051   2.40520   2.40957
 Alpha virt. eigenvalues --    2.43246   2.43880   2.45687   2.47978   2.49964
 Alpha virt. eigenvalues --    2.50970   2.56565   2.57882   2.58921   2.67601
 Alpha virt. eigenvalues --    2.68930   2.72751   2.76533   2.78496   2.87040
 Alpha virt. eigenvalues --    2.90910   2.97351   3.01872   3.04475   3.08524
 Alpha virt. eigenvalues --    3.09242   3.13465   3.20559   3.30779   4.09710
 Alpha virt. eigenvalues --    4.11133   4.12775   4.23336   4.27139   4.33418
 Alpha virt. eigenvalues --    4.38841   4.39570   4.40639   4.40690   4.43324
 Alpha virt. eigenvalues --    4.46248   4.54988   4.57329   4.64750   4.82959
          Condensed to atoms (all electrons):
               1          2          3          4          5          6
     1  C   14.854044  -0.986391  -0.446508   0.127163   0.043492  -0.047923
     2  S   -0.986391  15.999929   0.346684   0.042710  -0.072952   0.154445
     3  O   -0.446508   0.346684   8.887181  -0.146845  -0.190765   0.020491
     4  O    0.127163   0.042710  -0.146845   8.873813  -0.211292  -0.018823
     5  N    0.043492  -0.072952  -0.190765  -0.211292   7.914952   0.163482
     6  H   -0.047923   0.154445   0.020491  -0.018823   0.163482   0.437496
     7  S   -0.186330  -0.187788   0.031376   0.071465   0.059910   0.006021
     8  C    2.411224   0.451112   0.097498  -0.076832   0.154775   0.006660
     9  C   -3.924127  -1.074008  -0.046502   0.008175  -0.065651  -0.024185
    10  C   -3.440404  -0.090709   0.074370  -0.087233  -0.091236  -0.034463
    11  C    0.275790  -0.114478   0.007922  -0.009209   0.023599  -0.000207
    12  S   -1.520353  -0.147449  -0.007930   0.017527  -0.010136  -0.001719
    13  O   -0.056540  -0.000865  -0.000051   0.000216   0.000122  -0.000001
    14  O   -0.058497  -0.006123  -0.000123   0.000273  -0.000786  -0.000016
    15  H    0.033147   0.002816   0.000631   0.001340   0.001216  -0.000135
    16  C    0.094924   0.027450   0.002586   0.000683   0.000324   0.000057
    17  C    0.260313   0.001833  -0.000161  -0.001041   0.001649   0.000009
    18  O    0.020432   0.000078   0.000095   0.000021  -0.000089  -0.000000
    19  H    0.000578  -0.000009  -0.000000   0.000000  -0.000000   0.000000
    20  H    0.007147   0.000201   0.000000   0.000000   0.000001  -0.000000
    21  H    0.001609   0.000357  -0.000000   0.000001   0.000003   0.000000
    22  H    0.003398   0.000034   0.000000  -0.000000   0.000000  -0.000000
               7          8          9         10         11         12
     1  C   -0.186330   2.411224  -3.924127  -3.440404   0.275790  -1.520353
     2  S   -0.187788   0.451112  -1.074008  -0.090709  -0.114478  -0.147449
     3  O    0.031376   0.097498  -0.046502   0.074370   0.007922  -0.007930
     4  O    0.071465  -0.076832   0.008175  -0.087233  -0.009209   0.017527
     5  N    0.059910   0.154775  -0.065651  -0.091236   0.023599  -0.010136
     6  H    0.006021   0.006660  -0.024185  -0.034463  -0.000207  -0.001719
     7  S   17.804124   0.032024  -0.892526  -1.996156   0.894717   0.015383
     8  C    0.032024  26.186983  -8.295886 -10.848774  -0.422335  -2.627242
     9  C   -0.892526  -8.295886  21.482029   4.607843  -2.957045  -0.958615
    10  C   -1.996156 -10.848774   4.607843  18.679572  -4.162897   2.473982
    11  C    0.894717  -0.422335  -2.957045  -4.162897  14.074570  -1.501355
    12  S    0.015383  -2.627242  -0.958615   2.473982  -1.501355  18.748249
    13  O   -0.024303   0.072488   0.016378  -0.102576  -0.035770   0.431626
    14  O    0.005772  -0.300414  -0.437944   0.363270  -0.099547   0.835577
    15  H    0.011661   0.070622  -0.067797   0.252719   0.006278  -0.008246
    16  C    0.040500  -0.606391  -0.625472   0.108987  -1.002588   0.207064
    17  C    0.004245   0.150630   0.011185  -0.564954   0.387006  -1.242304
    18  O   -0.006370  -0.183858   0.001342  -0.007217   0.517029  -0.001868
    19  H   -0.001480   0.032277  -0.012444   0.001429  -0.099511   0.018232
    20  H   -0.006349   0.020360   0.008834  -0.001782  -0.025548  -0.025154
    21  H   -0.004938   0.015455  -0.012717   0.021026  -0.025935   0.024681
    22  H    0.001390   0.023329   0.055869  -0.012082   0.024139  -0.118047
              13         14         15         16         17         18
     1  C   -0.056540  -0.058497   0.033147   0.094924   0.260313   0.020432
     2  S   -0.000865  -0.006123   0.002816   0.027450   0.001833   0.000078
     3  O   -0.000051  -0.000123   0.000631   0.002586  -0.000161   0.000095
     4  O    0.000216   0.000273   0.001340   0.000683  -0.001041   0.000021
     5  N    0.000122  -0.000786   0.001216   0.000324   0.001649  -0.000089
     6  H   -0.000001  -0.000016  -0.000135   0.000057   0.000009  -0.000000
     7  S   -0.024303   0.005772   0.011661   0.040500   0.004245  -0.006370
     8  C    0.072488  -0.300414   0.070622  -0.606391   0.150630  -0.183858
     9  C    0.016378  -0.437944  -0.067797  -0.625472   0.011185   0.001342
    10  C   -0.102576   0.363270   0.252719   0.108987  -0.564954  -0.007217
    11  C   -0.035770  -0.099547   0.006278  -1.002588   0.387006   0.517029
    12  S    0.431626   0.835577  -0.008246   0.207064  -1.242304  -0.001868
    13  O    8.574459  -0.216577  -0.000967   0.008231  -0.207975  -0.000527
    14  O   -0.216577   8.743978   0.000427   0.064994  -0.384241   0.000003
    15  H   -0.000967   0.000427   0.423874   0.001482  -0.001253   0.000032
    16  C    0.008231   0.064994   0.001482   8.316183  -0.694099  -0.096889
    17  C   -0.207975  -0.384241  -0.001253  -0.694099   8.347509  -0.001589
    18  O   -0.000527   0.000003   0.000032  -0.096889  -0.001589   8.201416
    19  H   -0.000829  -0.000217  -0.000000   0.396688  -0.017306  -0.001246
    20  H    0.006170  -0.000460  -0.000000   0.409287  -0.080466  -0.003980
    21  H    0.009968   0.000036  -0.000004  -0.042691   0.304362  -0.000384
    22  H   -0.004597  -0.008405   0.000001  -0.024340   0.375060   0.000016
              19         20         21         22
     1  C    0.000578   0.007147   0.001609   0.003398
     2  S   -0.000009   0.000201   0.000357   0.000034
     3  O   -0.000000   0.000000  -0.000000   0.000000
     4  O    0.000000   0.000000   0.000001  -0.000000
     5  N   -0.000000   0.000001   0.000003   0.000000
     6  H    0.000000  -0.000000   0.000000  -0.000000
     7  S   -0.001480  -0.006349  -0.004938   0.001390
     8  C    0.032277   0.020360   0.015455   0.023329
     9  C   -0.012444   0.008834  -0.012717   0.055869
    10  C    0.001429  -0.001782   0.021026  -0.012082
    11  C   -0.099511  -0.025548  -0.025935   0.024139
    12  S    0.018232  -0.025154   0.024681  -0.118047
    13  O   -0.000829   0.006170   0.009968  -0.004597
    14  O   -0.000217  -0.000460   0.000036  -0.008405
    15  H   -0.000000  -0.000000  -0.000004   0.000001
    16  C    0.396688   0.409287  -0.042691  -0.024340
    17  C   -0.017306  -0.080466   0.304362   0.375060
    18  O   -0.001246  -0.003980  -0.000384   0.000016
    19  H    0.454771  -0.019341  -0.002675  -0.003604
    20  H   -0.019341   0.418185   0.002909  -0.001892
    21  H   -0.002675   0.002909   0.435368  -0.019210
    22  H   -0.003604  -0.001892  -0.019210   0.430597
 Mulliken charges:
               1
     1  C   -1.466189
     2  S    1.653123
     3  O   -0.629947
     4  O   -0.592113
     5  N   -0.720618
     6  H    0.338811
     7  S    0.327652
     8  C   -0.363706
     9  C   -0.796734
    10  C    0.857286
    11  C    0.245374
    12  S    1.398097
    13  O   -0.468078
    14  O   -0.500977
    15  H    0.272158
    16  C   -0.586969
    17  C   -0.648411
    18  O   -0.436446
    19  H    0.254686
    20  H    0.291878
    21  H    0.292780
    22  H    0.278344
 Sum of Mulliken charges =  -1.00000
 Mulliken charges with hydrogens summed into heavy atoms:
               1
     1  C   -1.466189
     2  S    1.653123
     3  O   -0.629947
     4  O   -0.592113
     5  N   -0.381807
     7  S    0.327652
     8  C   -0.363706
     9  C   -0.796734
    10  C    1.129443
    11  C    0.245374
    12  S    1.398097
    13  O   -0.468078
    14  O   -0.500977
    16  C   -0.040405
    17  C   -0.077287
    18  O   -0.436446
 Electronic spatial extent (au):  <R**2>=           4948.1809
 Charge=             -1.0000 electrons
 Dipole moment (field-independent basis, Debye):
    X=             13.7451    Y=              1.3097    Z=              2.0788  Tot=             13.9630
 Quadrupole moment (field-independent basis, Debye-Ang):
   XX=           -174.7788   YY=           -144.5118   ZZ=           -126.9160
   XY=              7.8389   XZ=              5.3253   YZ=             -3.8229
 Traceless Quadrupole moment (field-independent basis, Debye-Ang):
   XX=            -26.0433   YY=              4.2238   ZZ=             21.8195
   XY=              7.8389   XZ=              5.3253   YZ=             -3.8229
 Octapole moment (field-independent basis, Debye-Ang**2):
  XXX=            295.8417  YYY=            -24.6340  ZZZ=             -4.3613  XYY=            -31.6164
  XXY=             20.0925  XXZ=             17.8593  XZZ=             21.7148  YZZ=              8.9087
  YYZ=              3.0477  XYZ=              7.4538
 Hexadecapole moment (field-independent basis, Debye-Ang**3):
 XXXX=          -5424.6116 YYYY=          -1728.4671 ZZZZ=           -422.7205 XXXY=             63.2683
 XXXZ=            113.9849 YYYX=            -42.3315 YYYZ=              7.1311 ZZZX=             54.7840
 ZZZY=            -17.5972 XXYY=          -1200.5956 XXZZ=           -964.2651 YYZZ=           -329.2386
 XXYZ=            -50.4222 YYXZ=            -35.6495 ZZXY=             32.2551
 N-N= 1.571578926445D+03 E-N=-7.634938203327D+03  KE= 1.885650755528D+03
 Calling FoFJK, ICntrl=      2127 FMM=F ISym2X=0 I1Cent= 0 IOpClX= 0 NMat=1 NMatS=1 NMatT=0.
 ***** Axes restored to original set *****
 -------------------------------------------------------------------
 Center     Atomic                   Forces (Hartrees/Bohr)
 Number     Number              X              Y              Z
 -------------------------------------------------------------------
      1        6          -0.002461537    0.002793762   -0.001114894
      2       16          -0.016137614   -0.019541465    0.025961029
      3        8           0.010393254    0.003578837   -0.008369959
      4        8           0.001915069    0.009880069   -0.006964689
      5        7           0.004486845    0.006359482   -0.005236376
      6        1          -0.001523807   -0.002023142    0.000527571
      7       16           0.000308606   -0.002105825    0.002456913
      8        6          -0.003262396    0.004988493   -0.007316353
      9        6           0.004816430   -0.000005703    0.000030987
     10        6           0.002918384    0.001407711   -0.007199433
     11        6          -0.008140194   -0.001647606    0.015125881
     12       16           0.009418654   -0.022239848    0.011687317
     13        8          -0.001221849    0.010410188   -0.002084039
     14        8          -0.006363450    0.005323306   -0.005465861
     15        1          -0.001467358   -0.000050129    0.000528502
     16        6           0.001558163    0.001653540   -0.004992428
     17        6          -0.000751950    0.001406833   -0.002087210
     18        8           0.005096841    0.000074092   -0.005648192
     19        1          -0.002028951    0.000476665   -0.000345049
     20        1           0.001898687   -0.000437715    0.000183128
     21        1          -0.000099497   -0.000049038   -0.000321255
     22        1           0.000647670   -0.000252506    0.000644410
 -------------------------------------------------------------------
 Cartesian Forces:  Max     0.025961029 RMS     0.007059384

 GradGradGradGradGradGradGradGradGradGradGradGradGradGradGradGradGradGrad
 Berny optimization.
 FormGI is forming the generalized inverse of G from B-inverse, IUseBI=4.
 Internal  Forces:  Max     0.011274821 RMS     0.003318304
 Search for a local minimum.
 Step number   1 out of a maximum of  132
 All quantities printed in internal units (Hartrees-Bohrs-Radians)
 Mixed Optimization -- RFO/linear search
 Second derivative matrix not updated -- first step.
 ITU=  0
     Eigenvalues ---    0.00301   0.00731   0.00800   0.00837   0.01230
     Eigenvalues ---    0.01382   0.01486   0.01699   0.02007   0.02201
     Eigenvalues ---    0.03251   0.03336   0.04152   0.05066   0.05749
     Eigenvalues ---    0.06704   0.08148   0.09061   0.09530   0.09720
     Eigenvalues ---    0.10649   0.11267   0.12064   0.12132   0.13545
     Eigenvalues ---    0.15999   0.16000   0.16717   0.19656   0.21495
     Eigenvalues ---    0.21583   0.23670   0.24859   0.24947   0.24972
     Eigenvalues ---    0.24984   0.25000   0.25706   0.26790   0.28140
     Eigenvalues ---    0.28819   0.30629   0.32404   0.32756   0.33913
     Eigenvalues ---    0.34313   0.34363   0.34504   0.34510   0.35419
     Eigenvalues ---    0.41912   0.43764   0.44873   0.49522   0.61694
     Eigenvalues ---    0.81304   0.82865   0.86906   0.87639   0.94839
 RFO step:  Lambda=-6.72292114D-03 EMin= 3.00651467D-03
 Linear search not attempted -- first point.
 Iteration  1 RMS(Cart)=  0.03003889 RMS(Int)=  0.00103625
 Iteration  2 RMS(Cart)=  0.00087746 RMS(Int)=  0.00053751
 Iteration  3 RMS(Cart)=  0.00000091 RMS(Int)=  0.00053751
 Variable       Old X    -DE/DX   Delta X   Delta X   Delta X     New X
                                 (Linear)    (Quad)   (Total)
    R1        3.41146   0.00622   0.00000   0.02357   0.02357   3.43503
    R2        3.24970  -0.00137   0.00000  -0.00445  -0.00444   3.24526
    R3        2.59081   0.00448   0.00000   0.00843   0.00843   2.59925
    R4        2.80106  -0.01127   0.00000  -0.01350  -0.01350   2.78757
    R5        2.80920  -0.00859   0.00000  -0.01048  -0.01048   2.79872
    R6        2.93324   0.00175   0.00000   0.00280   0.00280   2.93605
    R7        1.93437  -0.00123   0.00000  -0.00276  -0.00276   1.93162
    R8        3.25549   0.00256   0.00000   0.00778   0.00778   3.26327
    R9        2.60277   0.00578   0.00000   0.01224   0.01223   2.61500
   R10        2.78637  -0.00412   0.00000  -0.01170  -0.01165   2.77471
   R11        2.67360  -0.00235   0.00000  -0.00523  -0.00524   2.66836
   R12        3.34576  -0.00044   0.00000  -0.00045  -0.00050   3.34526
   R13        2.04999  -0.00097   0.00000  -0.00268  -0.00268   2.04731
   R14        2.85895   0.00501   0.00000   0.01482   0.01487   2.87383
   R15        2.30780  -0.00438   0.00000  -0.00459  -0.00459   2.30321
   R16        2.78092  -0.00713   0.00000  -0.00814  -0.00814   2.77278
   R17        2.77740  -0.00755   0.00000  -0.00855  -0.00855   2.76885
   R18        3.37375   0.00332   0.00000   0.01216   0.01219   3.38593
   R19        2.88521   0.00067   0.00000   0.00136   0.00129   2.88650
   R20        2.06479   0.00095   0.00000   0.00269   0.00269   2.06748
   R21        2.07477  -0.00028   0.00000  -0.00081  -0.00081   2.07396
   R22        2.06722  -0.00024   0.00000  -0.00069  -0.00069   2.06653
   R23        2.06806  -0.00017   0.00000  -0.00048  -0.00048   2.06758
    A1        2.09848  -0.00053   0.00000  -0.00128  -0.00127   2.09721
    A2        2.19892   0.00176   0.00000   0.00767   0.00768   2.20660
    A3        1.98058  -0.00121   0.00000  -0.00554  -0.00559   1.97499
    A4        1.79593  -0.00772   0.00000  -0.04343  -0.04340   1.75253
    A5        1.78429  -0.00593   0.00000  -0.04029  -0.04068   1.74362
    A6        1.90703  -0.00758   0.00000  -0.04791  -0.04834   1.85869
    A7        2.01109   0.00684   0.00000   0.05609   0.05376   2.06485
    A8        1.91893   0.00632   0.00000   0.03436   0.03199   1.95092
    A9        2.02414   0.00408   0.00000   0.01745   0.01472   2.03887
   A10        1.89269  -0.00290   0.00000  -0.01737  -0.01737   1.87532
   A11        1.59185   0.00138   0.00000   0.00483   0.00478   1.59663
   A12        1.93057  -0.00116   0.00000  -0.00363  -0.00366   1.92691
   A13        2.12674   0.00109   0.00000   0.00359   0.00363   2.13037
   A14        2.22561   0.00006   0.00000  -0.00011  -0.00014   2.22547
   A15        1.99871  -0.00095   0.00000  -0.00380  -0.00379   1.99492
   A16        2.10890   0.00196   0.00000   0.00900   0.00888   2.11778
   A17        2.17534  -0.00101   0.00000  -0.00527  -0.00515   2.17019
   A18        1.92307   0.00194   0.00000   0.00814   0.00809   1.93115
   A19        2.17462  -0.00210   0.00000  -0.01085  -0.01082   2.16380
   A20        2.18545   0.00016   0.00000   0.00270   0.00272   2.18817
   A21        2.04690  -0.00110   0.00000  -0.00604  -0.00610   2.04080
   A22        2.10719   0.00767   0.00000   0.03118   0.03111   2.13830
   A23        2.12851  -0.00656   0.00000  -0.02444  -0.02452   2.10399
   A24        1.90242   0.00407   0.00000   0.03169   0.03059   1.93300
   A25        1.89469   0.00320   0.00000   0.02619   0.02527   1.91997
   A26        1.75644  -0.00233   0.00000  -0.01820  -0.01815   1.73830
   A27        2.05023   0.00455   0.00000   0.03690   0.03450   2.08473
   A28        1.91024  -0.00585   0.00000  -0.04645  -0.04634   1.86390
   A29        1.92665  -0.00444   0.00000  -0.03647  -0.03651   1.89014
   A30        1.99978   0.00016   0.00000  -0.00161  -0.00167   1.99810
   A31        1.88636  -0.00146   0.00000  -0.00705  -0.00709   1.87927
   A32        1.86889   0.00130   0.00000   0.00681   0.00679   1.87568
   A33        1.90137   0.00169   0.00000   0.01766   0.01779   1.91916
   A34        1.92751  -0.00180   0.00000  -0.01718  -0.01722   1.91029
   A35        1.87569   0.00009   0.00000   0.00142   0.00150   1.87719
   A36        1.93906   0.00094   0.00000   0.00019  -0.00002   1.93904
   A37        1.85282   0.00010   0.00000   0.00514   0.00523   1.85805
   A38        1.84489  -0.00107   0.00000  -0.00925  -0.00921   1.83568
   A39        1.96386  -0.00034   0.00000   0.00322   0.00322   1.96709
   A40        1.94701   0.00033   0.00000   0.00197   0.00204   1.94904
   A41        1.91016  -0.00001   0.00000  -0.00192  -0.00194   1.90822
    D1        0.47046  -0.00071   0.00000  -0.00437  -0.00405   0.46641
    D2        2.56145   0.00153   0.00000   0.02483   0.02437   2.58583
    D3       -1.56797  -0.00074   0.00000  -0.00092  -0.00078  -1.56875
    D4       -2.78800  -0.00055   0.00000   0.00486   0.00517  -2.78282
    D5       -0.69701   0.00170   0.00000   0.03405   0.03360  -0.66341
    D6        1.45676  -0.00058   0.00000   0.00831   0.00845   1.46520
    D7        3.03918  -0.00016   0.00000  -0.00848  -0.00847   3.03072
    D8        0.00064  -0.00049   0.00000  -0.01743  -0.01735  -0.01672
    D9       -3.03095   0.00028   0.00000   0.00788   0.00790  -3.02305
   D10        0.10016   0.00030   0.00000   0.00672   0.00671   0.10687
   D11        0.00059   0.00046   0.00000   0.01675   0.01675   0.01734
   D12        3.13170   0.00048   0.00000   0.01559   0.01557  -3.13592
   D13       -1.33028  -0.00091   0.00000  -0.02185  -0.02209  -1.35237
   D14        2.99403   0.00898   0.00000   0.03725   0.03889   3.03292
   D15        0.67390  -0.01123   0.00000  -0.09579  -0.09720   0.57670
   D16       -0.00171   0.00038   0.00000   0.01296   0.01295   0.01124
   D17        3.11715   0.00004   0.00000   0.00623   0.00622   3.12337
   D18        0.00242  -0.00020   0.00000  -0.00606  -0.00599  -0.00357
   D19        3.12184  -0.00044   0.00000  -0.00932  -0.00923   3.11261
   D20       -3.11483   0.00014   0.00000   0.00109   0.00114  -3.11368
   D21        0.00459  -0.00009   0.00000  -0.00216  -0.00209   0.00249
   D22       -3.10445  -0.00021   0.00000  -0.00798  -0.00804  -3.11249
   D23        0.00081  -0.00013   0.00000   0.01287   0.01322   0.01403
   D24        0.01031  -0.00063   0.00000  -0.01596  -0.01603  -0.00572
   D25        3.11557  -0.00055   0.00000   0.00489   0.00523   3.12081
   D26       -0.00195  -0.00016   0.00000  -0.00673  -0.00677  -0.00872
   D27       -3.13298  -0.00017   0.00000  -0.00547  -0.00547  -3.13845
   D28       -3.12040   0.00005   0.00000  -0.00354  -0.00363  -3.12403
   D29        0.03176   0.00004   0.00000  -0.00228  -0.00232   0.02943
   D30       -1.58722   0.00624   0.00000   0.06595   0.06680  -1.52042
   D31        2.44334  -0.00475   0.00000  -0.02242  -0.02319   2.42015
   D32        0.42031   0.00010   0.00000   0.01709   0.01709   0.43739
   D33        1.52985   0.00598   0.00000   0.06240   0.06327   1.59312
   D34       -0.72278  -0.00501   0.00000  -0.02597  -0.02672  -0.74950
   D35       -2.74581  -0.00016   0.00000   0.01354   0.01356  -2.73226
   D36       -0.57341   0.00060   0.00000   0.01141   0.01139  -0.56202
   D37       -2.69668  -0.00060   0.00000  -0.00502  -0.00511  -2.70179
   D38        1.57049  -0.00064   0.00000  -0.00663  -0.00675   1.56373
   D39        2.60499   0.00020   0.00000  -0.01096  -0.01066   2.59433
   D40        0.48173  -0.00100   0.00000  -0.02738  -0.02716   0.45456
   D41       -1.53430  -0.00104   0.00000  -0.02900  -0.02881  -1.56310
   D42       -0.91117  -0.00027   0.00000  -0.02106  -0.02105  -0.93222
   D43        1.22916  -0.00008   0.00000  -0.01370  -0.01372   1.21544
   D44       -3.02597  -0.00053   0.00000  -0.01781  -0.01781  -3.04378
   D45        1.09046   0.00103   0.00000  -0.01126  -0.01137   1.07910
   D46       -3.05239   0.00123   0.00000  -0.00389  -0.00404  -3.05643
   D47       -1.02434   0.00077   0.00000  -0.00800  -0.00813  -1.03247
   D48       -2.91021  -0.00108   0.00000  -0.02798  -0.02775  -2.93796
   D49       -0.76988  -0.00088   0.00000  -0.02061  -0.02042  -0.79030
   D50        1.25817  -0.00134   0.00000  -0.02472  -0.02451   1.23366
   D51        1.05826   0.00079   0.00000   0.01371   0.01373   1.07198
   D52       -1.01653   0.00025   0.00000   0.00488   0.00490  -1.01163
   D53        3.11198   0.00027   0.00000   0.00350   0.00349   3.11547
   D54       -3.10990   0.00027   0.00000   0.01662   0.01668  -3.09321
   D55        1.09850  -0.00027   0.00000   0.00779   0.00786   1.10636
   D56       -1.05617  -0.00025   0.00000   0.00642   0.00645  -1.04973
   D57       -1.05368   0.00034   0.00000   0.01895   0.01895  -1.03473
   D58       -3.12846  -0.00020   0.00000   0.01012   0.01012  -3.11834
   D59        1.00005  -0.00018   0.00000   0.00874   0.00871   1.00875
         Item               Value     Threshold  Converged?
 Maximum Force            0.011275     0.000450     NO 
 RMS     Force            0.003318     0.000300     NO 
 Maximum Displacement     0.120851     0.001800     NO 
 RMS     Displacement     0.029995     0.001200     NO 
 Predicted change in Energy=-3.612556D-03
 GradGradGradGradGradGradGradGradGradGradGradGradGradGradGradGradGradGrad

                          Input orientation:                          
 ---------------------------------------------------------------------
 Center     Atomic      Atomic             Coordinates (Angstroms)
 Number     Number       Type             X           Y           Z
 ---------------------------------------------------------------------
      1          6           0       -1.579207    0.940951   -0.605079
      2         16           0       -1.761123    0.532100    1.156716
      3          8           0       -3.227333    0.610155    1.298511
      4          8           0       -1.123953   -0.804722    1.175042
      5          7           0       -1.044542    1.661068    1.947847
      6          1           0       -0.039341    1.484402    1.891381
      7         16           0       -2.759261    1.908676   -1.392588
      8          6           0       -1.808380    1.975589   -2.832499
      9          6           0       -0.639407    1.252493   -2.672719
     10          6           0       -0.498113    0.649268   -1.403859
     11          6           0       -2.262365    2.687149   -4.033969
     12         16           0        0.531232    1.091716   -3.990860
     13          8           0        0.193435   -0.048782   -4.849990
     14          8           0        1.894310    1.221882   -3.469397
     15          1           0        0.344810    0.047530   -1.085851
     16          6           0       -1.349589    2.638530   -5.249370
     17          6           0        0.140467    2.573210   -4.919769
     18          8           0       -3.325321    3.281632   -4.080892
     19          1           0       -1.559079    3.523408   -5.857709
     20          1           0       -1.632505    1.757045   -5.838807
     21          1           0        0.475619    3.417811   -4.311334
     22          1           0        0.752256    2.513488   -5.824887
 ---------------------------------------------------------------------
                    Distance matrix (angstroms):
                    1          2          3          4          5
     1  C    0.000000
     2  S    1.817738   0.000000
     3  O    2.539566   1.475116   0.000000
     4  O    2.534454   1.481018   2.537977   0.000000
     5  N    2.705895   1.553689   2.508113   2.585277   0.000000
     6  H    2.983093   2.100273   3.358436   2.632416   1.022168
     7  S    1.717320   3.064341   3.024444   4.077926   3.762988
     8  C    2.466657   4.242609   4.576361   4.925338   4.851194
     9  C    2.292470   4.054847   4.783370   4.390009   4.656253
    10  C    1.375461   2.857528   3.840960   3.025969   3.543481
    11  C    3.908094   5.642578   5.803482   6.373612   6.190158
    12  S    3.992517   5.662649   6.506624   5.746534   6.170531
    13  O    4.705433   6.343361   7.066818   6.213530   7.118058
    14  O    4.510939   5.936237   7.024129   5.898122   6.178695
    15  H    2.175129   3.114301   4.331505   2.827584   3.706363
    16  C    4.950145   6.756060   7.107388   7.292459   7.269691
    17  C    4.923221   6.686243   7.339119   7.082083   7.028542
    18  O    4.539711   6.118756   6.007027   7.012072   6.646343
    19  H    5.853171   7.628296   7.904530   8.269318   8.041129
    20  H    5.297241   7.103124   7.402712   7.484340   7.809410
    21  H    4.908511   6.574946   7.284583   7.105543   6.676405
    22  H    5.929165   7.680218   8.378699   7.970551   8.023122
                    6          7          8          9         10
     6  H    0.000000
     7  S    4.285140   0.000000
     8  C    5.068117   1.726846   0.000000
     9  C    4.609216   2.561854   1.383798   0.000000
    10  C    3.430238   2.588248   2.348817   1.412037   0.000000
    11  C    6.441910   2.798182   1.468315   2.558365   3.766035
    12  S    5.922881   4.271509   2.756232   1.770237   2.819199
    13  O    6.917436   4.950120   3.489356   2.669728   3.583480
    14  O    5.704899   5.142038   3.831922   2.656192   3.212168
    15  H    3.328076   3.632246   3.377043   2.222334   1.083391
    16  C    7.351128   4.170687   2.547792   3.010746   4.412497
    17  C    6.899971   4.614222   2.917508   2.720613   4.058444
    18  O    7.049521   3.071223   2.359098   3.648903   4.699889
    19  H    8.155707   4.897459   3.407314   4.018335   5.405841
    20  H    7.897361   4.589274   3.019368   3.356327   4.709860
    21  H    6.517433   4.610967   3.079547   2.935464   4.131150
    22  H    7.824733   5.686988   3.974994   3.669196   4.958249
                   11         12         13         14         15
    11  C    0.000000
    12  S    3.217366   0.000000
    13  O    3.765920   1.467292   0.000000
    14  O    4.443388   1.465213   2.532508   0.000000
    15  H    4.738813   3.092597   3.768412   3.075930   0.000000
    16  C    1.520764   2.741162   3.124432   3.962080   5.188368
    17  C    2.563440   1.791757   2.623455   2.646816   4.595623
    18  O    1.218806   4.435858   4.905590   5.644559   5.735813
    19  H    2.126022   3.710479   4.104552   4.788210   6.202995
    20  H    2.125854   2.922213   2.751877   4.282397   5.424279
    21  H    2.847341   2.348726   3.519524   2.746571   4.666867
    22  H    3.510767   2.331082   2.797844   2.919053   5.357745
                   16         17         18         19         20
    16  C    0.000000
    17  C    1.527472   0.000000
    18  O    2.383786   3.635556   0.000000
    19  H    1.094062   2.161264   2.516972   0.000000
    20  H    1.097494   2.157356   2.877543   1.767990   0.000000
    21  H    2.195125   1.093559   3.810353   2.557815   3.087961
    22  H    2.182798   1.094116   4.500911   2.522555   2.501896
                   21         22
    21  H    0.000000
    22  H    1.784705   0.000000
 Stoichiometry    C7H6NO5S3(1-)
 Framework group  C1[X(C7H6NO5S3)]
 Deg. of freedom    60
 Full point group                 C1      NOp   1
 Largest Abelian subgroup         C1      NOp   1
 Largest concise Abelian subgroup C1      NOp   1
                         Standard orientation:                         
 ---------------------------------------------------------------------
 Center     Atomic      Atomic             Coordinates (Angstroms)
 Number     Number       Type             X           Y           Z
 ---------------------------------------------------------------------
      1          6           0       -1.498547   -0.011580   -0.104126
      2         16           0       -3.292888   -0.282045    0.002475
      3          8           0       -3.788003    0.994759   -0.545797
      4          8           0       -3.416902   -1.499632   -0.831501
      5          7           0       -3.627838   -0.429542    1.512442
      6          1           0       -3.351822   -1.371704    1.796999
      7         16           0       -0.861917    1.582659   -0.056252
      8          6           0        0.756741    0.982908   -0.008914
      9          6           0        0.759947   -0.400403   -0.045499
     10          6           0       -0.524826   -0.983050   -0.106569
     11          6           0        1.919370    1.879114    0.023604
     12         16           0        2.273958   -1.317698   -0.054543
     13          8           0        2.768206   -1.491786   -1.425075
     14          8           0        2.157932   -2.485244    0.823081
     15          1           0       -0.730402   -2.046255   -0.139293
     16          6           0        3.292700    1.225900    0.024464
     17          6           0        3.351065   -0.124191    0.736516
     18          8           0        1.810747    3.093029    0.033539
     19          1           0        3.992757    1.925019    0.491501
     20          1           0        3.598613    1.100672   -1.022067
     21          1           0        3.033165   -0.064557    1.781147
     22          1           0        4.351565   -0.564228    0.686925
 ---------------------------------------------------------------------
 Rotational constants (GHZ):           0.7396634           0.2639874           0.2119086
 Basis read from rwf:  (6D, 7F)
 There are   328 symmetry adapted cartesian basis functions of A   symmetry.
 There are   328 symmetry adapted basis functions of A   symmetry.
   328 basis functions,   608 primitive gaussians,   328 cartesian basis functions
    72 alpha electrons       72 beta electrons
       nuclear repulsion energy      1572.4660506724 Hartrees.
 NAtoms=   22 NActive=   22 NUniq=   22 SFac= 1.00D+00 NAtFMM=   60 NAOKFM=F Big=F
 Integral buffers will be    131072 words long.
 Raffenetti 2 integral format.
 Two-electron integral symmetry is turned on.
 One-electron integrals computed using PRISM.
 NBasis=   328 RedAO= T EigKep=  2.95D-06  NBF=   328
 NBsUse=   327 1.00D-06 EigRej=  9.77D-07 NBFU=   327
 Initial guess from the checkpoint file:  "/jobfs/41455122.gadi-pbs/Gau-897481.chk"
 B after Tr=     0.000000   -0.000000    0.000000
         Rot=    0.999998   -0.001148    0.000631   -0.001689 Ang=  -0.24 deg.
 ExpMin= 4.05D-02 ExpMax= 2.19D+04 ExpMxC= 3.30D+03 IAcc=3 IRadAn=         5 AccDes= 0.00D+00
 Harris functional with IExCor= 1009 and IRadAn=       5 diagonalized for initial guess.
 HarFok:  IExCor= 1009 AccDes= 0.00D+00 IRadAn=         5 IDoV= 1 UseB2=F ITyADJ=14
 ICtDFT=  3500011 ScaDFX=  1.000000  1.000000  1.000000  1.000000
 FoFCou: FMM=F IPFlag=           0 FMFlag=      100000 FMFlg1=           0
         NFxFlg=           0 DoJE=T BraDBF=F KetDBF=T FulRan=T
         wScrn=  0.000000 ICntrl=       500 IOpCl=  0 I1Cent=   200000004 NGrid=           0
         NMat0=    1 NMatS0=      1 NMatT0=    0 NMatD0=    1 NMtDS0=    0 NMtDT0=    0
 Petite list used in FoFCou.
 Requested convergence on RMS density matrix=1.00D-08 within 128 cycles.
 Requested convergence on MAX density matrix=1.00D-06.
 Requested convergence on             energy=1.00D-06.
 No special actions if energy rises.
 SCF Done:  E(RM062X) =  -1895.36648371     A.U. after   15 cycles
            NFock= 15  Conv=0.54D-08     -V/T= 2.0051
 Calling FoFJK, ICntrl=      2127 FMM=F ISym2X=0 I1Cent= 0 IOpClX= 0 NMat=1 NMatS=1 NMatT=0.
 ***** Axes restored to original set *****
 -------------------------------------------------------------------
 Center     Atomic                   Forces (Hartrees/Bohr)
 Number     Number              X              Y              Z
 -------------------------------------------------------------------
      1        6          -0.000760158    0.001358228   -0.003685864
      2       16          -0.002866542   -0.003356331   -0.003507284
      3        8           0.005737061   -0.001299822    0.004089168
      4        8          -0.002104002    0.003399042    0.003658238
      5        7          -0.001310209    0.000927430    0.000699463
      6        1          -0.000427415   -0.001858071    0.001454359
      7       16           0.002621865   -0.000722725    0.000541813
      8        6          -0.002528863    0.001422250   -0.004195134
      9        6           0.002005532   -0.002867221    0.002545970
     10        6           0.000111567    0.002309676   -0.003365916
     11        6          -0.000233603    0.000348226    0.004301111
     12       16           0.002649258    0.001079684   -0.004094682
     13        8           0.000080830    0.000484679    0.003030455
     14        8          -0.003099834   -0.002076359    0.000682001
     15        1          -0.000223008   -0.000355419    0.000601304
     16        6           0.001882645    0.000166442   -0.002456320
     17        6          -0.001645295    0.001922821   -0.000331969
     18        8          -0.000055928   -0.000242503   -0.000604811
     19        1          -0.000749760   -0.000244501    0.000400360
     20        1           0.000525177   -0.000350023    0.000093465
     21        1          -0.000193243    0.000250080   -0.000168760
     22        1           0.000583924   -0.000295585    0.000313035
 -------------------------------------------------------------------
 Cartesian Forces:  Max     0.005737061 RMS     0.002106159

 GradGradGradGradGradGradGradGradGradGradGradGradGradGradGradGradGradGrad
 Berny optimization.
 Using GEDIIS/GDIIS optimizer.
 FormGI is forming the generalized inverse of G from B-inverse, IUseBI=4.
 Internal  Forces:  Max     0.006786317 RMS     0.001584738
 Search for a local minimum.
 Step number   2 out of a maximum of  132
 All quantities printed in internal units (Hartrees-Bohrs-Radians)
 Mixed Optimization -- RFO/linear search
 Update second derivatives using D2CorX and points    1    2
 DE= -2.71D-03 DEPred=-3.61D-03 R= 7.50D-01
 TightC=F SS=  1.41D+00  RLast= 2.30D-01 DXNew= 5.0454D-01 6.9108D-01
 Trust test= 7.50D-01 RLast= 2.30D-01 DXMaxT set to 5.05D-01
 ITU=  1  0
 Use linear search instead of GDIIS.
     Eigenvalues ---    0.00301   0.00729   0.00814   0.00849   0.01229
     Eigenvalues ---    0.01380   0.01489   0.01703   0.02011   0.02198
     Eigenvalues ---    0.03142   0.03337   0.04162   0.05047   0.05774
     Eigenvalues ---    0.06802   0.08154   0.09315   0.09701   0.09999
     Eigenvalues ---    0.11074   0.11467   0.11740   0.12939   0.13339
     Eigenvalues ---    0.15833   0.15999   0.19565   0.20899   0.21176
     Eigenvalues ---    0.21695   0.23621   0.23988   0.24883   0.24940
     Eigenvalues ---    0.24999   0.25122   0.26717   0.27722   0.28169
     Eigenvalues ---    0.28876   0.30439   0.32359   0.32772   0.33914
     Eigenvalues ---    0.34313   0.34360   0.34375   0.34529   0.35429
     Eigenvalues ---    0.41906   0.43754   0.44737   0.49128   0.61706
     Eigenvalues ---    0.79429   0.82081   0.86476   0.87397   0.94809
 RFO step:  Lambda=-1.04878993D-03 EMin= 3.00514483D-03
 Quartic linear search produced a step of -0.16313.
 Iteration  1 RMS(Cart)=  0.01943812 RMS(Int)=  0.00019844
 Iteration  2 RMS(Cart)=  0.00020089 RMS(Int)=  0.00006355
 Iteration  3 RMS(Cart)=  0.00000002 RMS(Int)=  0.00006355
 Variable       Old X    -DE/DX   Delta X   Delta X   Delta X     New X
                                 (Linear)    (Quad)   (Total)
    R1        3.43503   0.00679  -0.00385   0.02957   0.02572   3.46075
    R2        3.24526  -0.00104   0.00072  -0.00382  -0.00310   3.24217
    R3        2.59925   0.00117  -0.00138   0.00470   0.00332   2.60257
    R4        2.78757  -0.00538   0.00220  -0.00975  -0.00755   2.78002
    R5        2.79872  -0.00393   0.00171  -0.00740  -0.00569   2.79303
    R6        2.93605  -0.00038  -0.00046   0.00039  -0.00007   2.93598
    R7        1.93162  -0.00018   0.00045  -0.00123  -0.00078   1.93083
    R8        3.26327   0.00030  -0.00127   0.00326   0.00199   3.26526
    R9        2.61500   0.00124  -0.00199   0.00587   0.00390   2.61890
   R10        2.77471  -0.00172   0.00190  -0.00754  -0.00563   2.76908
   R11        2.66836  -0.00086   0.00085  -0.00345  -0.00259   2.66577
   R12        3.34526  -0.00034   0.00008  -0.00164  -0.00155   3.34371
   R13        2.04731   0.00020   0.00044  -0.00040   0.00004   2.04735
   R14        2.87383   0.00220  -0.00243   0.01116   0.00873   2.88255
   R15        2.30321  -0.00005   0.00075  -0.00152  -0.00077   2.30244
   R16        2.77278  -0.00217   0.00133  -0.00470  -0.00338   2.76941
   R17        2.76885  -0.00283   0.00140  -0.00544  -0.00405   2.76481
   R18        3.38593   0.00158  -0.00199   0.00888   0.00685   3.39278
   R19        2.88650  -0.00054  -0.00021  -0.00144  -0.00163   2.88488
   R20        2.06748  -0.00028  -0.00044   0.00021  -0.00023   2.06725
   R21        2.07396   0.00009   0.00013  -0.00003   0.00010   2.07406
   R22        2.06653   0.00004   0.00011  -0.00013  -0.00001   2.06651
   R23        2.06758   0.00008   0.00008   0.00005   0.00013   2.06771
    A1        2.09721   0.00037   0.00021   0.00053   0.00073   2.09794
    A2        2.20660   0.00141  -0.00125   0.00689   0.00563   2.21223
    A3        1.97499  -0.00180   0.00091  -0.00811  -0.00721   1.96779
    A4        1.75253   0.00475   0.00708   0.00942   0.01649   1.76902
    A5        1.74362   0.00458   0.00664   0.01105   0.01775   1.76136
    A6        1.85869   0.00224   0.00789  -0.00124   0.00675   1.86544
    A7        2.06485  -0.00153  -0.00877   0.00487  -0.00391   2.06094
    A8        1.95092  -0.00344  -0.00522  -0.00800  -0.01302   1.93790
    A9        2.03887  -0.00300  -0.00240  -0.00992  -0.01208   2.02679
   A10        1.87532  -0.00153   0.00283  -0.01359  -0.01076   1.86457
   A11        1.59663   0.00193  -0.00078   0.00796   0.00719   1.60382
   A12        1.92691  -0.00170   0.00060  -0.00678  -0.00621   1.92070
   A13        2.13037   0.00098  -0.00059   0.00530   0.00467   2.13504
   A14        2.22547   0.00072   0.00002   0.00179   0.00180   2.22727
   A15        1.99492   0.00037   0.00062   0.00031   0.00093   1.99585
   A16        2.11778  -0.00072  -0.00145  -0.00113  -0.00256   2.11522
   A17        2.17019   0.00035   0.00084   0.00081   0.00164   2.17183
   A18        1.93115   0.00120  -0.00132   0.00674   0.00542   1.93657
   A19        2.16380  -0.00129   0.00177  -0.00914  -0.00739   2.15641
   A20        2.18817   0.00010  -0.00044   0.00248   0.00203   2.19020
   A21        2.04080  -0.00010   0.00099  -0.00259  -0.00162   2.03918
   A22        2.13830   0.00062  -0.00508   0.01216   0.00706   2.14535
   A23        2.10399  -0.00052   0.00400  -0.00974  -0.00576   2.09822
   A24        1.93300  -0.00124  -0.00499  -0.00164  -0.00643   1.92657
   A25        1.91997  -0.00177  -0.00412  -0.00270  -0.00667   1.91330
   A26        1.73830   0.00049   0.00296  -0.00479  -0.00189   1.73641
   A27        2.08473  -0.00054  -0.00563   0.00810   0.00278   2.08751
   A28        1.86390   0.00158   0.00756  -0.00405   0.00347   1.86737
   A29        1.89014   0.00195   0.00596   0.00286   0.00883   1.89897
   A30        1.99810  -0.00017   0.00027  -0.00401  -0.00375   1.99435
   A31        1.87927  -0.00037   0.00116  -0.00512  -0.00393   1.87534
   A32        1.87568   0.00021  -0.00111   0.00375   0.00261   1.87829
   A33        1.91916   0.00057  -0.00290   0.01320   0.01027   1.92942
   A34        1.91029  -0.00029   0.00281  -0.01004  -0.00720   1.90310
   A35        1.87719   0.00006  -0.00024   0.00248   0.00224   1.87943
   A36        1.93904  -0.00059   0.00000  -0.00679  -0.00677   1.93227
   A37        1.85805   0.00035  -0.00085   0.00650   0.00563   1.86367
   A38        1.83568  -0.00016   0.00150  -0.00699  -0.00546   1.83022
   A39        1.96709   0.00009  -0.00053   0.00185   0.00134   1.96843
   A40        1.94904   0.00043  -0.00033   0.00517   0.00479   1.95384
   A41        1.90822  -0.00015   0.00032  -0.00028   0.00004   1.90826
    D1        0.46641  -0.00056   0.00066   0.02437   0.02493   0.49134
    D2        2.58583   0.00079  -0.00398   0.03610   0.03226   2.61809
    D3       -1.56875   0.00042   0.00013   0.02964   0.02976  -1.53898
    D4       -2.78282  -0.00080  -0.00084   0.01548   0.01452  -2.76831
    D5       -0.66341   0.00055  -0.00548   0.02722   0.02185  -0.64156
    D6        1.46520   0.00017  -0.00138   0.02075   0.01935   1.48456
    D7        3.03072   0.00016   0.00138  -0.00072   0.00068   3.03140
    D8       -0.01672   0.00020   0.00283   0.00624   0.00903  -0.00769
    D9       -3.02305  -0.00006  -0.00129   0.00270   0.00141  -3.02163
   D10        0.10687   0.00012  -0.00109   0.00979   0.00869   0.11556
   D11        0.01734  -0.00019  -0.00273  -0.00527  -0.00798   0.00936
   D12       -3.13592  -0.00001  -0.00254   0.00183  -0.00071  -3.13663
   D13       -1.35237  -0.00152   0.00360  -0.04418  -0.04053  -1.39290
   D14        3.03292  -0.00670  -0.00634  -0.05093  -0.05735   2.97556
   D15        0.57670   0.00405   0.01586  -0.03642  -0.02052   0.55617
   D16        0.01124  -0.00015  -0.00211  -0.00535  -0.00745   0.00379
   D17        3.12337  -0.00009  -0.00101   0.00502   0.00400   3.12737
   D18       -0.00357   0.00008   0.00098   0.00349   0.00442   0.00085
   D19        3.11261   0.00010   0.00151   0.00352   0.00497   3.11758
   D20       -3.11368   0.00002  -0.00019  -0.00765  -0.00784  -3.12153
   D21        0.00249   0.00004   0.00034  -0.00762  -0.00729  -0.00480
   D22       -3.11249  -0.00009   0.00131  -0.01055  -0.00925  -3.12174
   D23        0.01403  -0.00061  -0.00216  -0.02314  -0.02544  -0.01142
   D24       -0.00572  -0.00006   0.00261   0.00157   0.00420  -0.00151
   D25        3.12081  -0.00058  -0.00085  -0.01102  -0.01199   3.10881
   D26       -0.00872   0.00006   0.00110   0.00104   0.00217  -0.00655
   D27       -3.13845  -0.00011   0.00089  -0.00608  -0.00519   3.13954
   D28       -3.12403   0.00006   0.00059   0.00104   0.00167  -3.12235
   D29        0.02943  -0.00011   0.00038  -0.00607  -0.00569   0.02374
   D30       -1.52042  -0.00149  -0.01090   0.02091   0.00988  -1.51054
   D31        2.42015   0.00190   0.00378   0.01353   0.01742   2.43757
   D32        0.43739   0.00010  -0.00279   0.01352   0.01072   0.44811
   D33        1.59312  -0.00147  -0.01032   0.02093   0.01047   1.60359
   D34       -0.74950   0.00192   0.00436   0.01355   0.01800  -0.73149
   D35       -2.73226   0.00012  -0.00221   0.01354   0.01131  -2.72095
   D36       -0.56202  -0.00040  -0.00186  -0.00617  -0.00803  -0.57005
   D37       -2.70179  -0.00074   0.00083  -0.01666  -0.01580  -2.71759
   D38        1.56373  -0.00073   0.00110  -0.01887  -0.01775   1.54599
   D39        2.59433   0.00010   0.00174   0.00595   0.00759   2.60191
   D40        0.45456  -0.00025   0.00443  -0.00453  -0.00019   0.45438
   D41       -1.56310  -0.00024   0.00470  -0.00675  -0.00213  -1.56523
   D42       -0.93222  -0.00034   0.00343  -0.01666  -0.01322  -0.94544
   D43        1.21544  -0.00035   0.00224  -0.01424  -0.01200   1.20344
   D44       -3.04378  -0.00044   0.00291  -0.01488  -0.01199  -3.05577
   D45        1.07910  -0.00097   0.00185  -0.02177  -0.01991   1.05919
   D46       -3.05643  -0.00099   0.00066  -0.01935  -0.01869  -3.07512
   D47       -1.03247  -0.00107   0.00133  -0.01999  -0.01868  -1.05115
   D48       -2.93796   0.00074   0.00453  -0.01252  -0.00799  -2.94595
   D49       -0.79030   0.00072   0.00333  -0.01009  -0.00677  -0.79707
   D50        1.23366   0.00064   0.00400  -0.01073  -0.00676   1.22690
   D51        1.07198   0.00002  -0.00224   0.01382   0.01157   1.08355
   D52       -1.01163  -0.00008  -0.00080   0.00899   0.00819  -1.00344
   D53        3.11547  -0.00028  -0.00057   0.00400   0.00342   3.11889
   D54       -3.09321  -0.00015  -0.00272   0.01429   0.01154  -3.08167
   D55        1.10636  -0.00026  -0.00128   0.00945   0.00816   1.11452
   D56       -1.04973  -0.00045  -0.00105   0.00446   0.00339  -1.04633
   D57       -1.03473   0.00008  -0.00309   0.01912   0.01600  -1.01873
   D58       -3.11834  -0.00002  -0.00165   0.01429   0.01262  -3.10572
   D59        1.00875  -0.00022  -0.00142   0.00930   0.00786   1.01661
         Item               Value     Threshold  Converged?
 Maximum Force            0.006786     0.000450     NO 
 RMS     Force            0.001585     0.000300     NO 
 Maximum Displacement     0.092728     0.001800     NO 
 RMS     Displacement     0.019454     0.001200     NO 
 Predicted change in Energy=-6.427923D-04
 GradGradGradGradGradGradGradGradGradGradGradGradGradGradGradGradGradGrad

                          Input orientation:                          
 ---------------------------------------------------------------------
 Center     Atomic      Atomic             Coordinates (Angstroms)
 Number     Number       Type             X           Y           Z
 ---------------------------------------------------------------------
      1          6           0       -1.575498    0.938025   -0.610343
      2         16           0       -1.756271    0.529561    1.165698
      3          8           0       -3.217606    0.580224    1.327341
      4          8           0       -1.095892   -0.791687    1.217720
      5          7           0       -1.067101    1.670762    1.963533
      6          1           0       -0.062959    1.483290    1.940451
[...]
 0259975,-0.01148594,0.01211160,-0.07035388,0.00869410,-0.01257706,0.00
 441911,0.00573444,0.00112292,-0.00077346,-0.00917166,0.07652863,0.6719
 0505,-0.00068639,0.00273535,-0.00349773,0.00045919,0.00189705,-0.00546
 951,-0.00112354,-0.00077331,0.00163546,0.00026215,-0.00180469,0.001589
 76,0.00045533,0.00041053,0.00217408,-0.00008485,-0.00003677,-0.0004265
 6,-0.01012590,0.00472617,0.00889173,0.00693957,-0.00225782,-0.00395436
 ,0.04885863,0.00433349,-0.13155955,0.01577368,-0.00307970,-0.01705562,
 0.00043570,-0.00951302,0.02228670,0.18941184,0.16192213,0.64117946,-0.
 00092605,-0.00010416,0.00044818,-0.00061021,0.00010699,-0.00151658,0.0
 0001969,-0.00003965,0.00052019,0.00038625,-0.00034247,0.00035644,0.000
 28721,0.00028688,0.00049174,-0.00003166,-0.00005152,-0.00001303,-0.000
 38716,-0.00117603,0.00071698,0.00221048,-0.00012557,-0.00113869,0.0061
 7304,0.01032914,0.01017749,0.00020347,0.00179616,-0.00066282,0.0013830
 9,-0.00095279,0.00126483,-0.11020979,-0.08799403,-0.06631268,0.0934777
 1,0.00113387,0.00092450,-0.00203034,0.00028733,-0.00168420,0.00227347,
 0.00056622,0.00047309,-0.00081446,-0.00047990,0.00128035,-0.00035771,-
 0.00010147,0.00014443,-0.00075027,0.00001286,-0.00005854,0.00010439,0.
 00023841,0.00014655,-0.00119133,-0.00125146,0.00176503,-0.00029956,-0.
 00556084,0.00200965,-0.00782268,0.00313961,-0.00215686,-0.00082800,-0.
 00168209,-0.00038372,0.00163499,-0.10074879,-0.37098073,-0.21367978,0.
 10342060,0.38566989,0.00147169,0.00042279,-0.00059990,0.00027417,-0.00
 104147,0.00312916,0.00058945,0.00039439,-0.00116693,-0.00033982,0.0009
 8498,-0.00076230,-0.00026999,-0.00023641,-0.00107799,0.00003771,0.0000
 1276,0.00015919,0.00409525,0.00055647,-0.00281454,-0.00232785,-0.00015
 781,-0.00030019,-0.00470887,-0.02174200,-0.00514358,0.00141643,-0.0018
 0091,0.00119367,-0.00126307,0.00287046,-0.00733070,-0.07951629,-0.2184
 1378,-0.24692508,0.08329063,0.25026732,0.23985908,-0.00030228,0.000177
 60,0.00115084,-0.00122520,0.00128810,-0.00434328,-0.00023329,-0.000509
 65,0.00136681,0.00097703,-0.00136517,0.00105054,0.00078155,0.00065234,
 0.00155898,-0.00009868,-0.00012323,-0.00004190,-0.00251706,0.00161767,
 0.00299801,0.00115520,-0.00360451,0.00507748,-0.02176952,0.00188311,-0
 .01691556,-0.00074430,0.00170776,-0.00052937,0.00219713,-0.00227977,0.
 00134476,-0.50945056,-0.02234763,-0.17399944,-0.00000894,0.00720604,-0
 .00087228,0.54329124,-0.00046171,0.00018825,-0.00036557,0.00006388,-0.
 00076706,-0.00001344,0.00003302,0.00016852,0.00001368,-0.00021616,0.00
 046608,0.00008026,0.00010725,0.00030627,-0.00003589,-0.00001746,-0.000
 08231,0.00003399,-0.00077048,-0.00032766,-0.00040401,-0.00122673,0.001
 12957,0.00100293,0.00359495,0.00975649,-0.00173022,0.00090062,-0.00048
 049,-0.00051381,-0.00049777,-0.00050355,0.00263385,-0.01276189,-0.0834
 3705,-0.00282116,-0.02929067,0.00979003,-0.01671896,0.01641145,0.05790
 234,-0.00013788,-0.00012120,0.00167688,-0.00069717,-0.00017372,0.00054
 141,0.00043381,0.00009986,-0.00014752,0.00028958,0.00015139,-0.0002045
 2,0.00016278,0.00007234,-0.00025597,-0.00000386,-0.00003673,0.00017230
 ,0.00196785,-0.00188832,-0.00125316,0.00142677,0.00087841,-0.00004473,
 0.01614300,-0.00384143,0.01075816,-0.00144014,0.00098703,0.00094639,0.
 00023439,0.00186205,-0.00577898,-0.16277000,-0.00484369,-0.14876628,-0
 .02550107,-0.00410641,0.00683497,0.19023172,0.01278650,0.12697347,-0.0
 1212975,0.01129667,-0.00577514,-0.00208562,0.00126245,-0.00090737,0.00
 037723,-0.00023368,0.00031350,0.00134055,-0.00102744,-0.00104267,-0.00
 023172,-0.00061579,-0.00034986,0.00007940,0.00010063,-0.00000934,-0.00
 100382,0.00323822,0.00163954,0.00078209,0.00055944,0.00254907,0.004179
 68,-0.00255724,0.00044042,-0.23237590,0.14006345,-0.06678229,0.0005810
 1,0.00088012,-0.00010907,0.00055019,-0.00015920,-0.00037881,-0.0001269
 2,-0.00029044,-0.00025156,-0.00071317,0.00016258,-0.00033060,0.2408310
 2,0.00362994,0.00078945,0.00129141,-0.00088790,-0.00065722,-0.00017254
 ,-0.00035671,-0.00004319,0.00021779,0.00049635,-0.00105595,0.00005997,
 -0.00052117,-0.00072056,-0.00048053,0.00004085,0.00011755,-0.00041865,
 0.00197529,0.00415751,0.00128525,0.00111964,0.00207823,0.00204069,0.00
 545878,-0.00335157,0.00086758,0.14040035,-0.13389849,0.05593324,0.0009
 6522,0.00130313,0.00031312,0.00120940,-0.00083135,0.00036111,-0.000132
 86,-0.00051601,-0.00041816,-0.00073513,0.00006853,-0.00103021,-0.15213
 914,0.13335226,0.01305065,-0.00963507,0.00964606,0.00130054,-0.0026210
 0,0.00071016,-0.00081671,0.00040766,0.00007373,-0.00135844,0.00092534,
 0.00016042,-0.00040479,0.00014927,-0.00038603,-0.00010154,-0.00010879,
 -0.00029018,0.00414233,-0.00005206,0.00004471,0.00128739,0.00269307,-0
 .00493985,-0.02011432,0.01235457,-0.00274756,-0.06580140,0.05543566,-0
 .07876020,-0.00031708,0.00045228,0.00152128,-0.00271581,0.00076055,-0.
 00038065,0.00032895,-0.00043901,-0.00006359,0.00070448,-0.00060494,0.0
 0077726,0.07125372,-0.05976442,0.07523987,0.00091150,-0.00029645,-0.00
 044970,-0.00013179,-0.00022107,0.00001150,-0.00009929,0.00007644,-0.00
 001459,-0.00004978,0.00015104,0.00000895,-0.00000996,-0.00004849,-0.00
 009913,0.00000653,0.00000519,0.00000019,-0.00068552,0.00167825,-0.0023
 9436,0.01102740,0.00218896,-0.00150082,-0.00028234,-0.00066388,0.00147
 682,-0.00066458,0.00009927,0.00022717,-0.10438672,-0.00579574,0.042048
 36,-0.00883514,0.01498190,-0.00828308,-0.00058317,-0.00252275,-0.00092
 646,0.00151466,-0.00188446,0.00134196,-0.00005119,-0.00011281,-0.00005
 280,0.47963328,-0.00138379,0.00061325,0.00152394,-0.00037328,-0.000898
 78,-0.00097853,-0.00002119,0.00004813,0.00021800,0.00015488,-0.0001458
 9,0.00039206,0.00014339,0.00017814,-0.00015292,0.00001226,-0.00002442,
 0.00002462,0.00180924,0.00065680,0.00326263,-0.00657740,0.01382731,0.0
 1553555,-0.00177267,-0.00063688,-0.00126051,0.00072592,0.00017533,-0.0
 0152426,-0.00744137,-0.08682000,0.01373872,0.02762482,0.00025515,0.002
 61982,-0.00154336,-0.00122778,0.00059759,0.00502876,-0.00474581,0.0064
 4508,-0.00002164,-0.00011782,-0.00017502,-0.01562151,0.59463629,0.0003
 6677,0.00031391,-0.00098054,-0.00025401,-0.00044479,0.00090808,0.00006
 195,0.00010720,-0.00016084,-0.00011732,0.00033901,-0.00018118,-0.00007
 952,-0.00014169,-0.00041323,0.00002217,0.00000935,0.00004056,-0.001578
 91,0.00156051,0.00044574,0.01604054,0.00512510,-0.02095854,0.00139534,
 -0.00264812,0.00143741,-0.00029510,0.00047521,-0.00026771,0.03947931,0
 .00741978,-0.16426106,-0.01752948,0.00564054,-0.00800821,0.00017986,-0
 .00070138,0.00076857,-0.00314911,0.00319840,-0.00144583,-0.00008823,-0
 .00009510,0.00001553,0.02945285,-0.02741521,0.51686796,0.00017384,0.00
 004055,0.00172229,-0.00044866,0.00032146,-0.00097987,-0.00018977,-0.00
 010694,0.00033482,0.00015318,-0.00019870,0.00015199,0.00019136,0.00010
 039,0.00019744,-0.00000948,-0.00000949,0.00002164,-0.00022371,0.000067
 04,0.00029937,0.00168263,0.00061711,-0.00308298,0.00855451,-0.01513378
 ,0.01343743,-0.00376061,0.00146897,0.00035791,-0.02169325,0.00141241,-
 0.00053223,-0.07020508,0.01163260,-0.00103212,0.00665302,-0.00907077,-
 0.00243909,-0.00849838,0.02326892,-0.01974651,-0.00011368,-0.00015137,
 0.00009614,-0.19594363,0.00273388,-0.02932390,0.50928138,-0.00011810,-
 0.00025046,-0.00035354,0.00002526,-0.00014184,0.00020442,0.00004425,0.
 00004734,-0.00003529,-0.00001870,0.00007626,-0.00003987,-0.00006537,-0
 .00004379,-0.00007177,0.00000232,0.00000569,-0.00000986,0.00003579,-0.
 00012351,-0.00037431,-0.00093586,-0.00112774,0.00029836,0.00137088,0.0
 0516059,-0.00061210,0.00085562,0.00042384,-0.00054411,0.00303254,-0.00
 246418,-0.00022722,0.01756197,-0.13247959,0.04312742,0.00254925,-0.018
 39941,0.00679050,-0.00810650,0.00571740,-0.00465815,-0.00000109,0.0000
 2038,0.00003321,-0.00178709,-0.07835072,0.00115315,0.04070074,0.473701
 66,-0.00068579,0.00021055,-0.00216623,0.00016070,-0.00055584,0.0018180
 0,0.00045201,0.00015634,-0.00046052,-0.00017319,0.00040114,-0.00037074
 ,-0.00025821,-0.00024433,-0.00053759,0.00002833,0.00002888,0.00000602,
 0.00004680,-0.00039910,0.00004421,-0.00203704,-0.00013544,-0.00112412,
 -0.00124272,0.01978454,-0.01024660,0.00405913,-0.00056865,-0.00004698,
 0.02245835,0.00052089,0.01544539,-0.00278545,0.04531173,-0.09394525,-0
 .00288680,-0.02626104,0.00772876,-0.00353253,0.00492646,0.00550330,-0.
 00006299,0.00009164,0.00002397,-0.02391186,0.00242181,-0.08782173,-0.0
 4139224,0.09230874,0.56039493,-0.00883552,0.00596038,0.00078161,-0.002
 26518,-0.00198481,0.00355241,0.00240539,0.00018759,-0.00096648,-0.0001
 3620,0.00117378,-0.00103357,0.00032129,-0.00023363,-0.00224981,0.00018
 417,-0.00001019,0.00032265,-0.00235310,-0.00167330,0.00386277,-0.03515
 211,0.04341871,-0.03504842,0.01227966,-0.00623298,0.00515362,0.0050032
 5,0.00117054,-0.01135829,-0.58124854,0.27747101,-0.00092606,0.00394866
 ,-0.00283711,-0.00094148,-0.00064724,0.00177640,0.00118685,-0.00181436
 ,0.00039867,-0.00024693,0.00010081,-0.00026848,-0.00061214,-0.03806083
 ,0.02654747,0.01596467,-0.00134757,0.00107647,0.00654589,0.65270434,0.
 00664261,-0.00314922,-0.00086532,0.00118755,0.00100658,-0.00319128,-0.
 00146809,-0.00013415,0.00089863,0.00018291,-0.00080813,0.00098849,0.00
 000093,0.00045989,0.00167817,-0.00013059,-0.00002421,-0.00021723,0.000
 24144,0.00017630,-0.00433218,0.04549666,-0.01597035,0.02449447,-0.0049
 1043,0.00739661,-0.00041896,-0.00289384,-0.00283954,0.00765315,0.28327
 595,-0.22768646,0.01354198,-0.00334582,0.00085547,0.00388824,0.0004529
 7,-0.00040900,-0.00161851,0.00121169,0.00016536,-0.00063008,-0.0005235
 1,-0.00067173,0.00020891,0.02006474,0.01012609,-0.00336313,0.00026880,
 0.00135387,-0.00396604,-0.34524333,0.22855322,-0.00347173,0.00169087,0
 .00172419,-0.00056363,-0.00085869,0.00287845,0.00075371,0.00022478,-0.
 00069080,-0.00024659,0.00077800,-0.00076954,-0.00010752,-0.00028336,-0
 .00118179,0.00006990,0.00003805,0.00015797,0.00007653,-0.00238744,0.00
 401902,-0.04050624,0.02758633,0.00377973,0.00285076,0.00027201,-0.0020
 1289,-0.00150893,0.00240093,-0.00465240,-0.01760148,0.02208192,-0.0971
 9249,0.00324581,0.00359185,-0.00837360,-0.00042856,-0.00069134,0.00246
 642,-0.00049759,-0.00113171,0.00233297,-0.00008291,-0.00008389,-0.0005
 9160,0.03563757,-0.01409656,0.01130758,0.00222738,-0.00187807,-0.00614
 770,0.01800554,-0.03536332,0.08729571,-0.00000126,-0.00009150,0.000234
 09,0.00001972,-0.00002018,-0.00026558,-0.00003720,-0.00000421,0.000046
 86,0.00007463,-0.00012185,0.00009626,0.00001386,0.00002909,0.00006525,
 -0.00000612,-0.00000438,-0.00000281,0.00083697,-0.00014866,0.00010068,
 -0.00180658,0.00095592,0.00249604,0.00012336,0.00042148,-0.00029367,0.
 00009679,-0.00015058,0.00033383,0.00398775,-0.01685766,0.00967416,-0.0
 0562549,-0.00479092,0.00184343,0.00108798,0.00120157,0.00024949,-0.001
 86399,0.00214661,-0.00232017,-0.00002314,-0.00002099,0.00005760,-0.057
 52689,0.04371587,-0.02980299,-0.00774710,0.02755311,-0.01779732,0.0005
 7679,0.00058033,-0.00066102,0.06419568,0.00013459,-0.00011408,0.000000
 97,0.00003540,0.00004909,-0.00024146,-0.00008024,-0.00000995,0.0000639
 3,0.00002345,-0.00006439,0.00006963,0.00000839,0.00001712,0.00009395,-
 0.00000631,-0.00000164,-0.00001180,0.00016487,0.00013709,-0.00017642,0
 .00023171,0.00026690,0.00019437,-0.00032368,0.00039396,-0.00018671,-0.
 00013156,-0.00004873,0.00021202,0.00171126,0.00013377,-0.00264021,-0.0
 0145949,-0.00025857,-0.00124946,0.00086279,0.00029204,0.00061771,-0.00
 006734,0.00047396,-0.00021290,-0.00000624,0.00000551,0.00000495,0.0416
 5642,-0.23290259,0.12520552,-0.00001604,0.00160280,-0.00168036,-0.0009
 0936,0.00106327,-0.00117110,-0.04742177,0.24830040,0.00032369,-0.00011
 478,-0.00047326,0.00001770,0.00005241,0.00046440,0.00003531,0.00002799
 ,-0.00011889,-0.00006643,0.00012680,-0.00014003,-0.00005641,-0.0000975
 8,-0.00010890,0.00000586,0.00001243,0.00000775,-0.00055851,0.00030794,
 -0.00083399,0.00432948,-0.00172771,-0.00254355,-0.00021428,-0.00005523
 ,0.00063402,-0.00018926,0.00004480,0.00008548,-0.00495919,0.02582946,-
 0.02086800,-0.00043007,-0.00214320,-0.00012924,0.00056540,0.00016120,0
 .00069170,-0.00009368,0.00036497,-0.00009210,0.00000691,0.00001655,-0.
 00000118,-0.02767700,0.12387602,-0.12622598,-0.00250523,0.00482226,-0.
 00379813,-0.00285592,-0.00244413,0.00400392,0.03011069,-0.13393966,0.1
 3778979,0.00007713,-0.00010885,-0.00005771,0.00009912,0.00016693,-0.00
 015535,-0.00006442,-0.00002854,0.00004526,0.00001048,-0.00006894,0.000
 02755,0.00000722,0.00002346,0.00012269,-0.00000858,-0.00000480,-0.0000
 1171,-0.00004329,-0.00023755,-0.00016125,-0.00035528,-0.00172253,0.000
 20803,-0.00029812,0.00053004,-0.00011333,0.00000335,0.00001083,0.00028
 166,0.00540214,0.01867660,0.00906555,-0.00100949,-0.00398904,-0.002675
 46,0.00116130,0.00059607,0.00191326,0.00042574,0.00074188,0.00048254,0
 .00001656,0.00001624,0.00001393,-0.05867534,-0.04838228,-0.03100946,-0
 .01067303,-0.02692106,-0.02023560,-0.00310408,-0.00265496,0.00005158,0
 .00124405,0.00477234,0.00413705,0.07073336,0.00024339,-0.00012979,-0.0
 0005999,0.00006353,0.00010380,-0.00004289,-0.00003300,-0.00000723,-0.0
 0000089,0.00001589,-0.00004445,0.00000179,-0.00000566,0.00000306,0.000
 06696,-0.00000439,0.00000009,-0.00000499,0.00014042,-0.00009915,-0.000
 31913,0.00038946,-0.00105578,0.00060116,-0.00020235,0.00042635,-0.0003
 5066,-0.00014515,-0.00017306,0.00041191,0.00212036,0.00101939,-0.00124
 505,0.00062296,0.00032117,0.00228574,0.00033108,-0.00060719,-0.0003300
 9,-0.00026078,-0.00003604,-0.00059462,-0.00000164,0.00000272,0.0000266
 3,-0.05469106,-0.21982299,-0.11644687,0.00011643,0.00225582,0.00168272
 ,0.00026124,0.00076369,-0.00024782,-0.00660302,-0.01967407,-0.01477774
 ,0.05718067,0.23593861,-0.00018795,0.00013615,0.00007151,-0.00018628,-
 0.00030954,-0.00005913,0.00005041,0.00003884,0.00002079,0.00000172,0.0
 0008565,0.00004611,0.00003019,0.00002248,-0.00011199,0.00000912,-0.000
 00288,0.00001079,-0.00001584,0.00056732,0.00021216,0.00135533,0.002573
 34,-0.00054169,0.00021110,-0.00034862,0.00008087,0.00018148,0.00020516
 ,-0.00043477,-0.00695322,-0.02396168,-0.01502375,-0.00166948,-0.002522
 98,-0.00210669,0.00128107,0.00023808,0.00077908,0.00037475,0.00049489,
 0.00037962,-0.00002113,-0.00003479,-0.00003642,-0.03632542,-0.11997222
 ,-0.12802050,-0.00316184,-0.00418018,-0.00422908,0.00184248,0.00275001
 ,0.00053341,0.00528415,0.01504926,0.01131229,0.03877461,0.12855246,0.1
 3604452,-0.00012905,0.00003446,-0.00001200,-0.00003154,-0.00008526,0.0
 0020986,0.00005658,0.00001817,-0.00005886,-0.00002293,0.00006079,-0.00
 005122,-0.00001148,-0.00001396,-0.00009914,0.00000801,0.00000422,0.000
 01415,0.00007453,0.00005844,0.00012547,-0.00029672,0.00008603,0.000101
 69,-0.00002480,-0.00071335,0.00021797,0.00010759,-0.00000546,-0.000118
 69,0.00127595,-0.00124573,-0.00162092,0.00076169,0.00371406,0.00518638
 ,0.00092372,0.00278968,-0.00095074,-0.00070372,-0.00031962,-0.00034141
 ,0.00001504,0.00001019,-0.00000656,-0.00924993,-0.02466736,-0.01647685
 ,-0.07158188,-0.06271807,-0.04651280,-0.00029728,0.00059395,0.00030493
 ,0.00119411,0.00037071,0.00007683,-0.00609176,0.00081392,-0.00099521,0
 .07841348,0.00001246,-0.00010028,-0.00003419,-0.00005033,-0.00015610,0
 .00014343,0.00003736,0.00003380,-0.00002404,-0.00002145,0.00008623,-0.
 00002838,0.00000398,0.00002495,-0.00007919,0.00000219,-0.00000860,0.00
 001316,-0.00009611,-0.00001318,-0.00005152,-0.00013064,0.00009510,0.00
 024885,0.00101877,0.00118439,0.00089453,-0.00002913,0.00029448,0.00026
 888,-0.00076419,0.00046525,-0.00016193,-0.00827347,-0.01934743,-0.0185
 5745,0.00017000,-0.00722195,0.00224217,0.00067611,0.00344509,0.0016172
 3,0.00000116,-0.00001144,-0.00002728,0.00155026,0.00515582,0.00317991,
 -0.06263338,-0.20936487,-0.12398138,0.00012151,-0.00031287,0.00011906,
 -0.00051183,0.00028173,0.00002205,0.00168270,0.00060109,0.00013685,0.0
 6645051,0.22329515,0.00032762,-0.00003348,-0.00005023,0.00007727,0.000
 12619,-0.00005952,-0.00003714,-0.00002968,0.00000038,0.00000953,-0.000
 06064,0.00001556,-0.00002474,-0.00003639,0.00005311,-0.00000251,0.0000
 1139,-0.00001926,-0.00002260,0.00006148,-0.00012896,0.00010512,0.00038
 113,0.00015575,0.00004150,-0.00055749,-0.00073249,-0.00015913,-0.00029
 589,0.00023175,0.00088114,0.00057743,-0.00040337,0.00395976,0.01178922
 ,0.00863172,-0.00006642,0.00572572,0.00031177,0.00047651,-0.00082458,-
 0.00056375,-0.00000913,0.00000361,0.00001148,-0.00216868,-0.00460162,-
 0.00324707,-0.04535323,-0.12565852,-0.14286856,-0.00041233,0.00002703,
 0.00025345,-0.00000480,-0.00002618,-0.00005998,-0.00129267,0.00090666,
 0.00067450,0.05198504,0.13288403,0.15029243,0.00021076,-0.00021906,-0.
 00021022,0.00009204,0.00004507,-0.00006190,-0.00003208,-0.00000299,0.0
 0000402,0.00001813,-0.00005471,0.00003428,-0.00001594,0.00000164,0.000
 06186,-0.00000574,-0.00000280,-0.00000881,0.00025345,0.00003894,-0.000
 29390,0.00048552,-0.00003972,0.00077607,-0.00019304,0.00179195,-0.0010
 2795,0.00028983,-0.00028812,0.00036689,-0.00289891,0.00044334,-0.00730
 769,0.00358292,-0.00068849,-0.00398215,-0.00043582,-0.00066015,-0.0006
 5892,-0.00039911,-0.00038286,0.00082134,0.00000134,0.00000430,0.000065
 86,-0.01785726,-0.00069063,0.02674142,-0.13425408,0.00586363,0.1297633
 3,-0.00226234,0.00097004,0.00245252,0.00118605,0.00045010,-0.00000294,
 0.00114292,-0.00035231,0.00011999,0.00561041,0.00078353,-0.00831010,0.
 14548095,0.00001602,0.00003448,0.00069783,-0.00015273,0.00011237,-0.00
 040115,-0.00007338,-0.00005065,0.00013082,0.00002951,-0.00005348,0.000
 05921,0.00008593,0.00007044,0.00007592,-0.00000209,-0.00000765,0.00000
 911,-0.00033540,0.00005514,0.00038747,0.00028727,0.00056765,-0.0013108
 3,0.00277630,-0.00563363,0.00351430,-0.00146823,0.00049876,-0.00014808
 ,0.00063080,0.00011199,0.00200202,-0.01800340,0.00040271,0.02546612,0.
 00144723,0.00114982,-0.00327903,0.00153907,0.00080208,-0.00276243,0.00
 001230,-0.00001994,-0.00002451,0.00119286,0.00002138,-0.00247130,0.004
 57117,-0.04761953,-0.01005327,-0.00017058,0.00008530,-0.00059051,0.000
 14358,0.00005638,-0.00036485,-0.00027921,0.00021397,0.00048239,0.01476
 367,0.00157364,-0.02036942,-0.00701070,0.04762876,0.00009722,-0.000063
 92,-0.00045321,0.00004074,-0.00020439,0.00039752,0.00007902,0.00004844
 ,-0.00011142,-0.00004542,0.00010559,-0.00006913,-0.00006444,-0.0000412
 8,-0.00014702,0.00000853,0.00000664,0.00000312,0.00009221,0.00002193,-
 0.00029597,-0.00052152,-0.00003295,0.00086025,-0.00101706,0.00343601,-
 0.00179778,0.00084506,-0.00009808,0.00036035,-0.00208208,0.00028482,-0
 .00155277,0.01146690,-0.00241671,-0.01579057,-0.00109512,-0.00043186,0
 .00226243,-0.00236014,-0.00037164,0.00165613,-0.00000205,0.00001631,-0
 .00002722,-0.00640145,-0.00047898,0.01020098,0.13070285,-0.01009507,-0
 .23720134,-0.00056707,0.00028110,0.00085998,0.00055583,0.00002397,0.00
 040387,0.00058884,-0.00011532,0.00039838,0.00902211,0.00117521,-0.0124
 9870,-0.13934298,0.00895018,0.25254211\\-0.00000931,0.00001572,0.00000
 088,0.00002230,0.00001482,-0.00000253,-0.00000870,0.00000691,0.0000024
 7,0.00000667,-0.00001128,0.00000034,-0.00001374,-0.00001393,-0.0000038
 9,-0.00000640,-0.00000056,-0.00000374,-0.00000411,-0.00000426,-0.00000
 661,-0.00000118,-0.00001430,-0.00000011,0.00000218,0.00000401,0.000004
 66,0.00000319,-0.00000166,0.00000664,0.00000765,0.00001446,-0.00000456
 ,-0.00000313,0.00000132,0.00000838,-0.00000267,-0.00000077,-0.00000818
 ,0.00000212,-0.00000052,0.00000142,0.00000094,-0.00000152,-0.00000198,
 -0.00001818,-0.00000207,0.00000792,0.00001556,-0.00000240,-0.00000328,
 0.00000120,-0.00000307,-0.00000111,0.00000278,-0.00000234,0.00000058,0
 .00000262,-0.00000280,-0.00000332,0.00000095,0.00000123,0.00000367,-0.
 00000073,0.00000300,0.00000234\\\@
 The archive entry for this job was punched.


 E PUR SI MUOVE    -- GALILEO GALILEI
 Job cpu time:       0 days  1 hours 39 minutes 32.1 seconds.
 Elapsed time:       0 days  0 hours  6 minutes 20.9 seconds.
 File lengths (MBytes):  RWF=    290 Int=      0 D2E=      0 Chk=     10 Scr=      1
 Normal termination of Gaussian 16 at Fri May 27 10:18:29 2022.
