 Entering Gaussian System, Link 0=g16
 AtFile(1): /home/561/yj5695/Basis/6-31pGd.gbs
 Initial command:
 /apps/gaussian/g16c01/g16/l1.exe "/jobfs/43751859.gadi-pbs/Gau-2544653.inp" -scrdir="/jobfs/43751859.gadi-pbs/"
 Entering Link 1 = /apps/gaussian/g16c01/g16/l1.exe PID=   2544656.
  
 Copyright (c) 1988-2019, Gaussian, Inc.  All Rights Reserved.
  
 This is part of the Gaussian(R) 16 program.  It is based on
 the Gaussian(R) 09 system (copyright 2009, Gaussian, Inc.),
 the Gaussian(R) 03 system (copyright 2003, Gaussian, Inc.),
 the Gaussian(R) 98 system (copyright 1998, Gaussian, Inc.),
 the Gaussian(R) 94 system (copyright 1995, Gaussian, Inc.),
 the Gaussian 92(TM) system (copyright 1992, Gaussian, Inc.),
 the Gaussian 90(TM) system (copyright 1990, Gaussian, Inc.),
 the Gaussian 88(TM) system (copyright 1988, Gaussian, Inc.),
 the Gaussian 86(TM) system (copyright 1986, Carnegie Mellon
 University), and the Gaussian 82(TM) system (copyright 1983,
 Carnegie Mellon University). Gaussian is a federally registered
 trademark of Gaussian, Inc.
  
 This software contains proprietary and confidential information,
 including trade secrets, belonging to Gaussian, Inc.
  
 This software is provided under written license and may be
 used, copied, transmitted, or stored only in accord with that
 written license.
  
 The following legend is applicable only to US Government
 contracts under FAR:
  
                    RESTRICTED RIGHTS LEGEND
  
 Use, reproduction and disclosure by the US Government is
 subject to restrictions as set forth in subparagraphs (a)
 and (c) of the Commercial Computer Software - Restricted
 Rights clause in FAR 52.227-19.
  
 Gaussian, Inc.
 340 Quinnipiac St., Bldg. 40, Wallingford CT 06492
  
  
 ---------------------------------------------------------------
 Warning -- This program may not be used in any manner that
 competes with the business of Gaussian, Inc. or will provide
 assistance to any competitor of Gaussian, Inc.  The licensee
 of this program is prohibited from giving any competitor of
 Gaussian, Inc. access to this program.  By using this program,
 the user acknowledges that Gaussian, Inc. is engaged in the
 business of creating and licensing software in the field of
 computational chemistry and represents and warrants to the
 licensee that it is not a competitor of Gaussian, Inc. and that
 it will not use this program in any manner prohibited above.
 ---------------------------------------------------------------
  

 Cite this work as:
 Gaussian 16, Revision C.01,
 M. J. Frisch, G. W. Trucks, H. B. Schlegel, G. E. Scuseria, 
 M. A. Robb, J. R. Cheeseman, G. Scalmani, V. Barone, 
 G. A. Petersson, H. Nakatsuji, X. Li, M. Caricato, A. V. Marenich, 
 J. Bloino, B. G. Janesko, R. Gomperts, B. Mennucci, H. P. Hratchian, 
 J. V. Ortiz, A. F. Izmaylov, J. L. Sonnenberg, D. Williams-Young, 
 F. Ding, F. Lipparini, F. Egidi, J. Goings, B. Peng, A. Petrone, 
 T. Henderson, D. Ranasinghe, V. G. Zakrzewski, J. Gao, N. Rega, 
 G. Zheng, W. Liang, M. Hada, M. Ehara, K. Toyota, R. Fukuda, 
 J. Hasegawa, M. Ishida, T. Nakajima, Y. Honda, O. Kitao, H. Nakai, 
 T. Vreven, K. Throssell, J. A. Montgomery, Jr., J. E. Peralta, 
 F. Ogliaro, M. J. Bearpark, J. J. Heyd, E. N. Brothers, K. N. Kudin, 
 V. N. Staroverov, T. A. Keith, R. Kobayashi, J. Normand, 
 K. Raghavachari, A. P. Rendell, J. C. Burant, S. S. Iyengar, 
 J. Tomasi, M. Cossi, J. M. Millam, M. Klene, C. Adamo, R. Cammi, 
 J. W. Ochterski, R. L. Martin, K. Morokuma, O. Farkas, 
 J. B. Foresman, and D. J. Fox, Gaussian, Inc., Wallingford CT, 2019.
 
 ******************************************
 Gaussian 16:  ES64L-G16RevC.01  3-Jul-2019
                12-Jun-2022 
 ******************************************
 %nproc=16
 Will use up to   16 processors via shared memory.
 %mem=50gb
 --------------------------------------------------
 #M062X/gen 6D INT(grid=ultrafine) OPT Freq=noraman
 --------------------------------------------------
 1/18=20,19=15,26=4,38=1/1,3;
 2/9=110,12=2,17=6,18=5,40=1/2;
 3/5=7,8=2,11=2,25=1,30=1,71=1,74=-55,75=-5/1,2,3;
 4//1;
 5/5=2,38=5/2;
 6/7=2,8=2,9=2,10=2,28=1/1;
 7//1,2,3,16;
 1/18=20,19=15,26=4/3(2);
 2/9=110/2;
 99//99;
 2/9=110/2;
 3/5=7,6=1,8=2,11=2,25=1,30=1,71=1,74=-55,75=-5,82=7/1,2,3;
 4/5=5,16=3,69=1/1;
 5/5=2,38=5/2;
 7//1,2,3,16;
 1/18=20,19=15,26=4/3(-5);
 2/9=110/2;
 6/7=2,8=2,9=2,10=2,19=2,28=1/1;
 99/9=1/99;
 ---------
 A.22.freq
 ---------
 Symbolic Z-matrix:
 Charge = -1 Multiplicity = 1
 C                    -1.40995   1.0794   -0.35629 
 S                    -1.46057   0.53668   1.36131 
 O                    -2.54093   1.3902    1.93169 
 O                    -1.82136  -0.90154   1.27137 
 N                    -0.04897   0.69062   1.98458 
 H                     0.12524   1.68408   2.15675 
 S                    -2.85792   1.56777  -1.16421 
 C                    -1.95685   1.74277  -2.64365 
 C                    -0.60916   1.47345  -2.49841 
 C                    -0.30779   1.07672  -1.15177 
 S                    -2.67287   2.35894  -4.10666 
 N                     0.33178   1.62977  -3.48484 
 H                     0.68706   0.80839  -0.8123 
 C                    -1.1891    2.77811  -5.05691 
 C                    -0.15484   1.67033  -4.85608 
 O                    -3.41992   1.30184  -4.81828 
 O                    -3.44864   3.5731   -3.77919 
 C                    -1.53691   2.94687  -6.53606 
 C                    -2.57357   4.02131  -6.84085 
 O                    -2.2265    5.28511  -6.28346 
 H                     1.17651   1.08331  -3.34904 
 H                    -0.83957   3.71873  -4.61696 
 H                     0.68863   1.88237  -5.51531 
 H                    -0.58846   0.70433  -5.15577 
 H                    -1.87565   1.99037  -6.95039 
 H                    -0.59703   3.20456  -7.03939 
 H                    -3.55078   3.76659  -6.42254 
 H                    -2.68746   4.10192  -7.92774 
 H                    -1.40621   5.58917  -6.70481 
 

 GradGradGradGradGradGradGradGradGradGradGradGradGradGradGradGradGradGrad
 Berny optimization.
 Initialization pass.
                           ----------------------------
                           !    Initial Parameters    !
                           ! (Angstroms and Degrees)  !
 --------------------------                            --------------------------
 ! Name  Definition              Value          Derivative Info.                !
 --------------------------------------------------------------------------------
 ! R1    R(1,2)                  1.802          estimate D2E/DX2                !
 ! R2    R(1,7)                  1.7285         estimate D2E/DX2                !
 ! R3    R(1,10)                 1.3593         estimate D2E/DX2                !
 ! R4    R(2,3)                  1.4903         estimate D2E/DX2                !
 ! R5    R(2,4)                  1.4855         estimate D2E/DX2                !
 ! R6    R(2,5)                  1.5507         estimate D2E/DX2                !
 ! R7    R(5,6)                  1.0232         estimate D2E/DX2                !
 ! R8    R(7,8)                  1.7411         estimate D2E/DX2                !
 ! R9    R(8,9)                  1.382          estimate D2E/DX2                !
 ! R10   R(8,11)                 1.7415         estimate D2E/DX2                !
 ! R11   R(9,10)                 1.4358         estimate D2E/DX2                !
 ! R12   R(9,12)                 1.3722         estimate D2E/DX2                !
 ! R13   R(10,13)                1.0849         estimate D2E/DX2                !
 ! R14   R(11,14)                1.8112         estimate D2E/DX2                !
 ! R15   R(11,16)                1.4771         estimate D2E/DX2                !
 ! R16   R(11,17)                1.4776         estimate D2E/DX2                !
 ! R17   R(12,15)                1.4556         estimate D2E/DX2                !
 ! R18   R(12,21)                1.0152         estimate D2E/DX2                !
 ! R19   R(14,15)                1.5288         estimate D2E/DX2                !
 ! R20   R(14,18)                1.5288         estimate D2E/DX2                !
 ! R21   R(14,22)                1.0957         estimate D2E/DX2                !
 ! R22   R(15,23)                1.0913         estimate D2E/DX2                !
 ! R23   R(15,24)                1.1004         estimate D2E/DX2                !
 ! R24   R(18,19)                1.5238         estimate D2E/DX2                !
 ! R25   R(18,25)                1.096          estimate D2E/DX2                !
 ! R26   R(18,26)                1.0969         estimate D2E/DX2                !
 ! R27   R(19,20)                1.4242         estimate D2E/DX2                !
 ! R28   R(19,27)                1.0931         estimate D2E/DX2                !
 ! R29   R(19,28)                1.0958         estimate D2E/DX2                !
 ! R30   R(20,29)                0.971          estimate D2E/DX2                !
 ! A1    A(2,1,7)              120.4689         estimate D2E/DX2                !
 ! A2    A(2,1,10)             125.4504         estimate D2E/DX2                !
 ! A3    A(7,1,10)             113.9703         estimate D2E/DX2                !
 ! A4    A(1,2,3)              102.2792         estimate D2E/DX2                !
 ! A5    A(1,2,4)              103.9276         estimate D2E/DX2                !
 ! A6    A(1,2,5)              109.1249         estimate D2E/DX2                !
 ! A7    A(3,2,4)              113.6773         estimate D2E/DX2                !
 ! A8    A(3,2,5)              116.6931         estimate D2E/DX2                !
 ! A9    A(4,2,5)              109.9698         estimate D2E/DX2                !
 ! A10   A(2,5,6)              108.6022         estimate D2E/DX2                !
 ! A11   A(1,7,8)               89.5431         estimate D2E/DX2                !
 ! A12   A(7,8,9)              113.3165         estimate D2E/DX2                !
 ! A13   A(7,8,11)             122.4541         estimate D2E/DX2                !
 ! A14   A(9,8,11)             123.9312         estimate D2E/DX2                !
 ! A15   A(8,9,10)             110.922          estimate D2E/DX2                !
 ! A16   A(8,9,12)             124.8171         estimate D2E/DX2                !
 ! A17   A(10,9,12)            124.1781         estimate D2E/DX2                !
 ! A18   A(1,10,9)             112.218          estimate D2E/DX2                !
 ! A19   A(1,10,13)            124.1207         estimate D2E/DX2                !
 ! A20   A(9,10,13)            123.6612         estimate D2E/DX2                !
 ! A21   A(8,11,14)            100.7089         estimate D2E/DX2                !
 ! A22   A(8,11,16)            111.0665         estimate D2E/DX2                !
 ! A23   A(8,11,17)            108.6884         estimate D2E/DX2                !
 ! A24   A(14,11,16)           109.0983         estimate D2E/DX2                !
 ! A25   A(14,11,17)           110.8685         estimate D2E/DX2                !
 ! A26   A(16,11,17)           115.4233         estimate D2E/DX2                !
 ! A27   A(9,12,15)            116.8175         estimate D2E/DX2                !
 ! A28   A(9,12,21)            114.3994         estimate D2E/DX2                !
 ! A29   A(15,12,21)           114.7834         estimate D2E/DX2                !
 ! A30   A(11,14,15)           108.5183         estimate D2E/DX2                !
 ! A31   A(11,14,18)           110.2909         estimate D2E/DX2                !
 ! A32   A(11,14,22)           104.4398         estimate D2E/DX2                !
 ! A33   A(15,14,18)           111.161          estimate D2E/DX2                !
 ! A34   A(15,14,22)           110.7019         estimate D2E/DX2                !
 ! A35   A(18,14,22)           111.4875         estimate D2E/DX2                !
 ! A36   A(12,15,14)           111.7224         estimate D2E/DX2                !
 ! A37   A(12,15,23)           108.4263         estimate D2E/DX2                !
 ! A38   A(12,15,24)           111.3353         estimate D2E/DX2                !
 ! A39   A(14,15,23)           107.6215         estimate D2E/DX2                !
 ! A40   A(14,15,24)           109.4953         estimate D2E/DX2                !
 ! A41   A(23,15,24)           108.0957         estimate D2E/DX2                !
 ! A42   A(14,18,19)           115.2216         estimate D2E/DX2                !
 ! A43   A(14,18,25)           109.8597         estimate D2E/DX2                !
 ! A44   A(14,18,26)           105.9595         estimate D2E/DX2                !
 ! A45   A(19,18,25)           109.2365         estimate D2E/DX2                !
 ! A46   A(19,18,26)           108.9959         estimate D2E/DX2                !
 ! A47   A(25,18,26)           107.2407         estimate D2E/DX2                !
 ! A48   A(18,19,20)           112.4341         estimate D2E/DX2                !
 ! A49   A(18,19,27)           111.5515         estimate D2E/DX2                !
 ! A50   A(18,19,28)           108.7216         estimate D2E/DX2                !
 ! A51   A(20,19,27)           105.9548         estimate D2E/DX2                !
 ! A52   A(20,19,28)           110.3797         estimate D2E/DX2                !
 ! A53   A(27,19,28)           107.6862         estimate D2E/DX2                !
 ! A54   A(19,20,29)           108.2949         estimate D2E/DX2                !
 ! D1    D(7,1,2,3)            -34.022          estimate D2E/DX2                !
 ! D2    D(7,1,2,4)             84.4945         estimate D2E/DX2                !
 ! D3    D(7,1,2,5)           -158.2204         estimate D2E/DX2                !
 ! D4    D(10,1,2,3)           150.0345         estimate D2E/DX2                !
 ! D5    D(10,1,2,4)           -91.449          estimate D2E/DX2                !
 ! D6    D(10,1,2,5)            25.8361         estimate D2E/DX2                !
 ! D7    D(2,1,7,8)           -175.1398         estimate D2E/DX2                !
 ! D8    D(10,1,7,8)             1.2444         estimate D2E/DX2                !
 ! D9    D(2,1,10,9)           175.6299         estimate D2E/DX2                !
 ! D10   D(2,1,10,13)           -4.4809         estimate D2E/DX2                !
 ! D11   D(7,1,10,9)            -0.5441         estimate D2E/DX2                !
 ! D12   D(7,1,10,13)          179.345          estimate D2E/DX2                !
 ! D13   D(1,2,5,6)             74.3653         estimate D2E/DX2                !
 ! D14   D(3,2,5,6)            -40.868          estimate D2E/DX2                !
 ! D15   D(4,2,5,6)           -172.2401         estimate D2E/DX2                !
 ! D16   D(1,7,8,9)             -1.6641         estimate D2E/DX2                !
 ! D17   D(1,7,8,11)          -175.6182         estimate D2E/DX2                !
 ! D18   D(7,8,9,10)             1.6655         estimate D2E/DX2                !
 ! D19   D(7,8,9,12)          -175.1353         estimate D2E/DX2                !
 ! D20   D(11,8,9,10)          175.5164         estimate D2E/DX2                !
 ! D21   D(11,8,9,12)           -1.2844         estimate D2E/DX2                !
 ! D22   D(7,8,11,14)          163.1125         estimate D2E/DX2                !
 ! D23   D(7,8,11,16)          -81.44           estimate D2E/DX2                !
 ! D24   D(7,8,11,17)           46.5812         estimate D2E/DX2                !
 ! D25   D(9,8,11,14)          -10.1931         estimate D2E/DX2                !
 ! D26   D(9,8,11,16)          105.2545         estimate D2E/DX2                !
 ! D27   D(9,8,11,17)         -126.7244         estimate D2E/DX2                !
 ! D28   D(8,9,10,1)            -0.7197         estimate D2E/DX2                !
 ! D29   D(8,9,10,13)          179.3906         estimate D2E/DX2                !
 ! D30   D(12,9,10,1)          176.1056         estimate D2E/DX2                !
 ! D31   D(12,9,10,13)          -3.7842         estimate D2E/DX2                !
 ! D32   D(8,9,12,15)          -20.1039         estimate D2E/DX2                !
 ! D33   D(8,9,12,21)         -158.2698         estimate D2E/DX2                !
 ! D34   D(10,9,12,15)         163.5087         estimate D2E/DX2                !
 ! D35   D(10,9,12,21)          25.3428         estimate D2E/DX2                !
 ! D36   D(8,11,14,15)          40.9299         estimate D2E/DX2                !
 ! D37   D(8,11,14,18)         162.9171         estimate D2E/DX2                !
 ! D38   D(8,11,14,22)         -77.1835         estimate D2E/DX2                !
 ! D39   D(16,11,14,15)        -75.9814         estimate D2E/DX2                !
 ! D40   D(16,11,14,18)         46.0058         estimate D2E/DX2                !
 ! D41   D(16,11,14,22)        165.9051         estimate D2E/DX2                !
 ! D42   D(17,11,14,15)        155.8334         estimate D2E/DX2                !
 ! D43   D(17,11,14,18)        -82.1793         estimate D2E/DX2                !
 ! D44   D(17,11,14,22)         37.72           estimate D2E/DX2                !
 ! D45   D(9,12,15,14)          56.8058         estimate D2E/DX2                !
 ! D46   D(9,12,15,23)         175.2441         estimate D2E/DX2                !
 ! D47   D(9,12,15,24)         -65.9654         estimate D2E/DX2                !
 ! D48   D(21,12,15,14)       -165.186          estimate D2E/DX2                !
 ! D49   D(21,12,15,23)        -46.7477         estimate D2E/DX2                !
 ! D50   D(21,12,15,24)         72.0429         estimate D2E/DX2                !
 ! D51   D(11,14,15,12)        -66.9868         estimate D2E/DX2                !
 ! D52   D(11,14,15,23)        174.0962         estimate D2E/DX2                !
 ! D53   D(11,14,15,24)         56.8273         estimate D2E/DX2                !
 ! D54   D(18,14,15,12)        171.5587         estimate D2E/DX2                !
 ! D55   D(18,14,15,23)         52.6417         estimate D2E/DX2                !
 ! D56   D(18,14,15,24)        -64.6272         estimate D2E/DX2                !
 ! D57   D(22,14,15,12)         47.0744         estimate D2E/DX2                !
 ! D58   D(22,14,15,23)        -71.8426         estimate D2E/DX2                !
 ! D59   D(22,14,15,24)        170.8885         estimate D2E/DX2                !
 ! D60   D(11,14,18,19)         59.0036         estimate D2E/DX2                !
 ! D61   D(11,14,18,25)        -64.8691         estimate D2E/DX2                !
 ! D62   D(11,14,18,26)        179.5962         estimate D2E/DX2                !
 ! D63   D(15,14,18,19)        179.4162         estimate D2E/DX2                !
 ! D64   D(15,14,18,25)         55.5435         estimate D2E/DX2                !
 ! D65   D(15,14,18,26)        -59.9912         estimate D2E/DX2                !
 ! D66   D(22,14,18,19)        -56.5444         estimate D2E/DX2                !
 ! D67   D(22,14,18,25)        179.5828         estimate D2E/DX2                !
 ! D68   D(22,14,18,26)         64.0482         estimate D2E/DX2                !
 ! D69   D(14,18,19,20)         53.3829         estimate D2E/DX2                !
 ! D70   D(14,18,19,27)        -65.4855         estimate D2E/DX2                !
 ! D71   D(14,18,19,28)        175.9116         estimate D2E/DX2                !
 ! D72   D(25,18,19,20)        177.5833         estimate D2E/DX2                !
 ! D73   D(25,18,19,27)         58.7149         estimate D2E/DX2                !
 ! D74   D(25,18,19,28)        -59.888          estimate D2E/DX2                !
 ! D75   D(26,18,19,20)        -65.5371         estimate D2E/DX2                !
 ! D76   D(26,18,19,27)        175.5945         estimate D2E/DX2                !
 ! D77   D(26,18,19,28)         56.9916         estimate D2E/DX2                !
 ! D78   D(18,19,20,29)         63.8403         estimate D2E/DX2                !
 ! D79   D(27,19,20,29)       -174.0616         estimate D2E/DX2                !
 ! D80   D(28,19,20,29)        -57.7482         estimate D2E/DX2                !
 --------------------------------------------------------------------------------
 Trust Radius=3.00D-01 FncErr=1.00D-07 GrdErr=1.00D-06 EigMax=2.50D+02 EigMin=1.00D-04
 Number of steps in this run=    174 maximum allowed number of steps=    174.
 GradGradGradGradGradGradGradGradGradGradGradGradGradGradGradGradGradGrad

                          Input orientation:                          
 ---------------------------------------------------------------------
 Center     Atomic      Atomic             Coordinates (Angstroms)
 Number     Number       Type             X           Y           Z
 ---------------------------------------------------------------------
      1          6           0       -1.409954    1.079396   -0.356291
      2         16           0       -1.460566    0.536685    1.361311
      3          8           0       -2.540930    1.390200    1.931690
      4          8           0       -1.821361   -0.901538    1.271372
      5          7           0       -0.048973    0.690618    1.984576
      6          1           0        0.125242    1.684085    2.156747
      7         16           0       -2.857924    1.567769   -1.164215
      8          6           0       -1.956845    1.742769   -2.643646
      9          6           0       -0.609160    1.473453   -2.498405
     10          6           0       -0.307786    1.076715   -1.151770
     11         16           0       -2.672875    2.358939   -4.106661
     12          7           0        0.331784    1.629774   -3.484842
     13          1           0        0.687063    0.808386   -0.812305
     14          6           0       -1.189101    2.778112   -5.056915
     15          6           0       -0.154840    1.670327   -4.856084
     16          8           0       -3.419919    1.301841   -4.818275
     17          8           0       -3.448639    3.573096   -3.779189
     18          6           0       -1.536912    2.946868   -6.536062
     19          6           0       -2.573569    4.021311   -6.840852
     20          8           0       -2.226496    5.285107   -6.283456
     21          1           0        1.176513    1.083307   -3.349038
     22          1           0       -0.839570    3.718732   -4.616965
     23          1           0        0.688634    1.882373   -5.515315
     24          1           0       -0.588459    0.704330   -5.155770
     25          1           0       -1.875654    1.990367   -6.950390
     26          1           0       -0.597029    3.204564   -7.039391
     27          1           0       -3.550780    3.766586   -6.422539
     28          1           0       -2.687463    4.101923   -7.927737
     29          1           0       -1.406208    5.589167   -6.704815
 ---------------------------------------------------------------------
                    Distance matrix (angstroms):
                    1          2          3          4          5
     1  C    0.000000
     2  S    1.802013   0.000000
     3  O    2.571101   1.490305   0.000000
     4  O    2.596660   1.485512   2.491157   0.000000
     5  N    2.735521   1.550725   2.588833   2.486962   0.000000
     6  H    3.006299   2.112826   2.691745   3.355384   1.023216
     7  S    1.728545   3.064967   3.117153   3.619948   4.309812
     8  C    2.443593   4.211961   4.625923   4.726318   5.115412
     9  C    2.320605   4.061999   4.833675   4.617492   4.585167
    10  C    1.359253   2.817110   3.820070   3.475056   3.170603
    11  S    4.159023   5.889738   6.116988   6.346576   6.838956
    12  N    3.622761   5.281340   6.135853   5.802167   5.562510
    13  H    2.163071   3.067692   4.276441   3.682083   2.894505
    14  C    5.003027   6.803771   7.252195   7.347570   7.432369
    15  C    4.708785   6.453376   7.200401   6.851095   6.911271
    16  O    4.898852   6.527773   6.807530   6.670388   7.616801
    17  O    4.700108   6.292612   6.180867   6.941077   7.286110
    18  C    6.457023   8.257318   8.667992   8.709028   8.939009
    19  C    7.215151   8.980917   9.158674   9.518846   9.765003
    20  O    7.313414   9.031977   9.097131   9.773133   9.706249
    21  H    3.955549   5.425898   6.465266   5.854490   5.486662
    22  H    5.044281   6.800797   7.155527   7.548729   7.305810
    23  H    5.627110   7.329250   8.132047   7.753022   7.629725
    24  H    4.883700   6.577311   7.383404   6.738473   7.160710
    25  H    6.672997   8.448068   8.927158   8.715700   9.211934
    26  H    7.059817   8.856358   9.356868   9.350286   9.383618
    27  H    6.971621   8.682717   8.744150   9.163981   9.612690
    28  H    8.251939  10.025098  10.226593  10.507538  10.809837
    29  H    7.787285   9.518031   9.669960  10.291800  10.066945
                    6          7          8          9         10
     6  H    0.000000
     7  S    4.465601   0.000000
     8  C    5.232811   1.741058   0.000000
     9  C    4.717431   2.616467   1.381985   0.000000
    10  C    3.391562   2.597016   2.321362   1.435846   0.000000
    11  S    6.893124   3.052570   1.741487   2.762153   3.996139
    12  N    5.645630   3.945046   2.440943   1.372176   2.481561
    13  H    3.146070   3.642449   3.349199   2.228327   1.084878
    14  C    7.413589   4.404885   2.735915   2.929921   4.349899
    15  C    7.018435   4.576798   2.854357   2.409111   3.754692
    16  O    7.833595   3.706577   2.657821   3.648509   4.814491
    17  O    7.181666   3.347891   2.620116   3.756535   4.795854
    18  C    8.939927   5.701204   4.095986   4.397084   5.830851
    19  C    9.680031   6.190713   4.815458   5.404381   6.794856
    20  O    9.472859   6.357981   5.086166   5.609910   6.908416
    21  H    5.637355   4.613550   3.278781   2.016041   2.651636
    22  H    7.138194   4.541131   3.007777   3.095587   4.389832
    23  H    7.695275   5.622198   3.906985   3.309566   4.547797
    24  H    7.412300   4.672099   3.043288   2.766508   4.031062
    25  H    9.329380   5.884154   4.314619   4.657400   6.075933
    26  H    9.348930   6.504494   4.827890   4.859779   6.267016
    27  H    9.563164   5.741500   4.573456   5.413910   6.747846
    28  H   10.744955   7.224695   5.832754   6.380113   7.792847
    29  H    9.804197   6.998383   5.620593   5.938710   7.239134
                   11         12         13         14         15
    11  S    0.000000
    12  N    3.153777   0.000000
    13  H    4.954410   2.818396   0.000000
    14  C    1.811152   2.470462   5.041480   0.000000
    15  C    2.715938   1.455594   4.219466   1.528796   0.000000
    16  O    1.477135   3.995105   5.758351   2.685679   3.286024
    17  O    1.477575   4.260838   5.792241   2.714792   3.953397
    18  C    2.745553   3.812703   6.502350   1.528832   2.522301
    19  C    3.201428   5.042155   7.569544   2.577737   3.913653
    20  O    3.674255   5.266734   7.646133   2.977518   4.404064
    21  H    4.125411   1.015203   2.598107   3.374217   2.094823
    22  H    2.338900   2.649060   5.027540   1.095671   2.173016
    23  H    3.675753   2.077009   4.824080   2.130344   1.091328
    24  H    2.860620   2.120211   4.528076   2.161276   1.100448
    25  H    2.976273   4.124661   6.755789   2.162671   2.729422
    26  H    3.691223   3.997184   6.794643   2.112493   2.704856
    27  H    2.848768   5.316985   7.627909   2.901644   4.287248
    28  H    4.199860   5.913263   8.536052   3.498454   4.664964
    29  H    4.334654   5.391255   7.871425   3.265692   4.510104
                   16         17         18         19         20
    16  O    0.000000
    17  O    2.497824   0.000000
    18  C    3.033583   3.412801   0.000000
    19  C    3.493228   3.215653   1.523805   0.000000
    20  O    4.408789   3.270468   2.450856   1.424195   0.000000
    21  H    4.830487   5.270305   4.581774   5.906585   6.151943
    22  H    3.541199   2.744142   2.182886   2.836192   2.674750
    23  H    4.207504   4.794758   2.669855   4.119960   4.546055
    24  H    2.913432   4.278484   2.798882   4.216933   4.993831
    25  H    2.721165   3.877606   1.096042   2.150306   3.379822
    26  H    4.064778   4.347001   1.096872   2.147837   2.748683
    27  H    2.943766   2.652390   2.177267   1.093074   2.019647
    28  H    4.248023   4.250823   2.143520   1.095805   2.077516
    29  H    5.098551   4.098213   2.650906   1.959442   0.971014
                   21         22         23         24         25
    21  H    0.000000
    22  H    3.552140   0.000000
    23  H    2.359933   2.552382   0.000000
    24  H    2.554022   3.072456   1.774267   0.000000
    25  H    4.807101   3.083114   2.940523   2.555665   0.000000
    26  H    4.611279   2.488242   2.392473   3.130379   1.765525
    27  H    6.244493   3.257767   4.727150   4.444936   2.497925
    28  H    6.708713   3.810873   4.705763   4.861404   2.464327
    29  H    6.183402   2.859847   4.420814   5.189401   3.637588
                   26         27         28         29
    26  H    0.000000
    27  H    3.069368   0.000000
    28  H    2.442196   1.767310   0.000000
    29  H    2.540284   2.828545   2.312801   0.000000
 Stoichiometry    C8H11N2O5S3(1-)
 Framework group  C1[X(C8H11N2O5S3)]
 Deg. of freedom    81
 Full point group                 C1      NOp   1
 Largest Abelian subgroup         C1      NOp   1
 Largest concise Abelian subgroup C1      NOp   1
                         Standard orientation:                         
 ---------------------------------------------------------------------
 Center     Atomic      Atomic             Coordinates (Angstroms)
 Number     Number       Type             X           Y           Z
 ---------------------------------------------------------------------
      1          6           0       -2.285434    0.142446   -0.096483
      2         16           0       -4.070926   -0.092529   -0.160162
      3          8           0       -4.190815   -1.446807   -0.770544
      4          8           0       -4.489375   -0.041004    1.264265
      5          7           0       -4.710536    1.083457   -0.942917
      6          1           0       -4.516912    0.955833   -1.939508
      7         16           0       -1.234173   -1.200371    0.185583
      8          6           0        0.122587   -0.110316    0.233205
      9          6           0       -0.226032    1.207278    0.004529
     10          6           0       -1.644247    1.338216   -0.177613
     11         16           0        1.764934   -0.668597    0.387466
     12          7           0        0.664365    2.245541   -0.105343
     13          1           0       -2.142177    2.284545   -0.360611
     14          6           0        2.672996    0.807660   -0.138236
     15          6           0        1.989259    2.037082    0.460299
     16          8           0        2.095490   -0.963031    1.796710
     17          8           0        1.977341   -1.782382   -0.559947
     18          6           0        4.133361    0.717706    0.305124
     19          6           0        4.901132   -0.485371   -0.228840
     20          8           0        4.823750   -0.593816   -1.646790
     21          1           0        0.264655    3.161482    0.073327
     22          1           0        2.584436    0.808438   -1.230322
     23          1           0        2.605875    2.905927    0.223891
     24          1           0        1.945819    1.936520    1.555281
     25          1           0        4.191423    0.726377    1.399593
     26          1           0        4.614455    1.635993   -0.053239
     27          1           0        4.502959   -1.423474    0.166421
     28          1           0        5.946110   -0.406092    0.091352
     29          1           0        5.256342    0.183518   -2.036000
 ---------------------------------------------------------------------
 Rotational constants (GHZ):           0.8916384           0.1597462           0.1494288
 General basis read from cards:  (6D, 7F)
 There are   376 symmetry adapted cartesian basis functions of A   symmetry.
 There are   376 symmetry adapted basis functions of A   symmetry.
   376 basis functions,   692 primitive gaussians,   376 cartesian basis functions
    81 alpha electrons       81 beta electrons
       nuclear repulsion energy      1891.5328081323 Hartrees.
 NAtoms=   29 NActive=   29 NUniq=   29 SFac= 1.00D+00 NAtFMM=   60 NAOKFM=F Big=F
 Integral buffers will be    131072 words long.
 Raffenetti 2 integral format.
 Two-electron integral symmetry is turned on.
 One-electron integrals computed using PRISM.
 NBasis=   376 RedAO= T EigKep=  3.62D-06  NBF=   376
 NBsUse=   375 1.00D-06 EigRej=  8.50D-07 NBFU=   375
 ExpMin= 4.05D-02 ExpMax= 2.19D+04 ExpMxC= 3.30D+03 IAcc=3 IRadAn=         5 AccDes= 0.00D+00
 Harris functional with IExCor= 1009 and IRadAn=       5 diagonalized for initial guess.
 HarFok:  IExCor= 1009 AccDes= 0.00D+00 IRadAn=         5 IDoV= 1 UseB2=F ITyADJ=14
 ICtDFT=  3500011 ScaDFX=  1.000000  1.000000  1.000000  1.000000
 FoFCou: FMM=F IPFlag=           0 FMFlag=      100000 FMFlg1=           0
         NFxFlg=           0 DoJE=T BraDBF=F KetDBF=T FulRan=T
         wScrn=  0.000000 ICntrl=       500 IOpCl=  0 I1Cent=   200000004 NGrid=           0
         NMat0=    1 NMatS0=      1 NMatT0=    0 NMatD0=    1 NMtDS0=    0 NMtDT0=    0
 Petite list used in FoFCou.
 Requested convergence on RMS density matrix=1.00D-08 within 128 cycles.
 Requested convergence on MAX density matrix=1.00D-06.
 Requested convergence on             energy=1.00D-06.
 No special actions if energy rises.
 SCF Done:  E(RM062X) =  -1991.16303034     A.U. after   16 cycles
            NFock= 16  Conv=0.66D-08     -V/T= 2.0053

 **********************************************************************

            Population analysis using the SCF Density.

 **********************************************************************

 Orbital symmetries:
       Occupied  (A) (A) (A) (A) (A) (A) (A) (A) (A) (A) (A) (A)
                 (A) (A) (A) (A) (A) (A) (A) (A) (A) (A) (A) (A)
                 (A) (A) (A) (A) (A) (A) (A) (A) (A) (A) (A) (A)
                 (A) (A) (A) (A) (A) (A) (A) (A) (A) (A) (A) (A)
                 (A) (A) (A) (A) (A) (A) (A) (A) (A) (A) (A) (A)
                 (A) (A) (A) (A) (A) (A) (A) (A) (A) (A) (A) (A)
                 (A) (A) (A) (A) (A) (A) (A) (A) (A)
       Virtual   (A) (A) (A) (A) (A) (A) (A) (A) (A) (A) (A) (A)
                 (A) (A) (A) (A) (A) (A) (A) (A) (A) (A) (A) (A)
                 (A) (A) (A) (A) (A) (A) (A) (A) (A) (A) (A) (A)
                 (A) (A) (A) (A) (A) (A) (A) (A) (A) (A) (A) (A)
                 (A) (A) (A) (A) (A) (A) (A) (A) (A) (A) (A) (A)
                 (A) (A) (A) (A) (A) (A) (A) (A) (A) (A) (A) (A)
                 (A) (A) (A) (A) (A) (A) (A) (A) (A) (A) (A) (A)
                 (A) (A) (A) (A) (A) (A) (A) (A) (A) (A) (A) (A)
                 (A) (A) (A) (A) (A) (A) (A) (A) (A) (A) (A) (A)
                 (A) (A) (A) (A) (A) (A) (A) (A) (A) (A) (A) (A)
                 (A) (A) (A) (A) (A) (A) (A) (A) (A) (A) (A) (A)
                 (A) (A) (A) (A) (A) (A) (A) (A) (A) (A) (A) (A)
                 (A) (A) (A) (A) (A) (A) (A) (A) (A) (A) (A) (A)
                 (A) (A) (A) (A) (A) (A) (A) (A) (A) (A) (A) (A)
                 (A) (A) (A) (A) (A) (A) (A) (A) (A) (A) (A) (A)
                 (A) (A) (A) (A) (A) (A) (A) (A) (A) (A) (A) (A)
                 (A) (A) (A) (A) (A) (A) (A) (A) (A) (A) (A) (A)
                 (A) (A) (A) (A) (A) (A) (A) (A) (A) (A) (A) (A)
                 (A) (A) (A) (A) (A) (A) (A) (A) (A) (A) (A) (A)
                 (A) (A) (A) (A) (A) (A) (A) (A) (A) (A) (A) (A)
                 (A) (A) (A) (A) (A) (A) (A) (A) (A) (A) (A) (A)
                 (A) (A) (A) (A) (A) (A) (A) (A) (A) (A) (A) (A)
                 (A) (A) (A) (A) (A) (A) (A) (A) (A) (A) (A) (A)
                 (A) (A) (A) (A) (A) (A) (A) (A) (A) (A) (A) (A)
                 (A) (A) (A) (A) (A) (A)
 The electronic state is 1-A.
 Alpha  occ. eigenvalues --  -90.05233 -89.98810 -89.86117 -19.58674 -19.54377
 Alpha  occ. eigenvalues --  -19.53960 -19.46248 -19.45878 -14.71545 -14.57487
 Alpha  occ. eigenvalues --  -10.53705 -10.53528 -10.52447 -10.52319 -10.50547
 Alpha  occ. eigenvalues --  -10.49566 -10.48849 -10.46087  -8.36577  -8.29585
 Alpha  occ. eigenvalues --   -8.20373  -6.28710  -6.28690  -6.28670  -6.21796
 Alpha  occ. eigenvalues --   -6.21770  -6.21685  -6.12398  -6.12154  -6.11865
 Alpha  occ. eigenvalues --   -1.12829  -1.08406  -1.05250  -1.01472  -0.99572
 Alpha  occ. eigenvalues --   -0.93077  -0.88670  -0.86123  -0.81849  -0.78249
 Alpha  occ. eigenvalues --   -0.75962  -0.73038  -0.67088  -0.66665  -0.61948
 Alpha  occ. eigenvalues --   -0.59582  -0.54763  -0.53155  -0.52836  -0.50894
 Alpha  occ. eigenvalues --   -0.49174  -0.48103  -0.46891  -0.45643  -0.44489
 Alpha  occ. eigenvalues --   -0.43384  -0.42702  -0.41559  -0.40600  -0.38712
 Alpha  occ. eigenvalues --   -0.38158  -0.37378  -0.37072  -0.36589  -0.35614
 Alpha  occ. eigenvalues --   -0.33727  -0.31642  -0.30755  -0.30357  -0.29097
 Alpha  occ. eigenvalues --   -0.28649  -0.27656  -0.26320  -0.25935  -0.23146
 Alpha  occ. eigenvalues --   -0.22403  -0.20256  -0.19251  -0.17651  -0.16930
 Alpha  occ. eigenvalues --   -0.15172
 Alpha virt. eigenvalues --    0.06054   0.07530   0.08630   0.09480   0.09931
 Alpha virt. eigenvalues --    0.11295   0.11724   0.12112   0.13522   0.13792
 Alpha virt. eigenvalues --    0.14711   0.14999   0.15965   0.16066   0.16508
 Alpha virt. eigenvalues --    0.16690   0.16967   0.17131   0.18050   0.18552
 Alpha virt. eigenvalues --    0.18951   0.19535   0.19667   0.20390   0.20858
 Alpha virt. eigenvalues --    0.21264   0.21776   0.22426   0.22829   0.23314
 Alpha virt. eigenvalues --    0.23474   0.24486   0.24819   0.24940   0.25464
 Alpha virt. eigenvalues --    0.25896   0.26168   0.26479   0.26572   0.27577
 Alpha virt. eigenvalues --    0.27648   0.28601   0.28705   0.28844   0.29284
 Alpha virt. eigenvalues --    0.29440   0.30023   0.30342   0.31045   0.31683
 Alpha virt. eigenvalues --    0.31905   0.32520   0.32776   0.32964   0.33318
 Alpha virt. eigenvalues --    0.33712   0.34159   0.34776   0.34934   0.35466
 Alpha virt. eigenvalues --    0.35673   0.36123   0.36577   0.37058   0.37303
 Alpha virt. eigenvalues --    0.38261   0.38617   0.39353   0.39577   0.40127
 Alpha virt. eigenvalues --    0.40776   0.41044   0.41260   0.41714   0.41912
 Alpha virt. eigenvalues --    0.43225   0.43624   0.43760   0.43955   0.44644
 Alpha virt. eigenvalues --    0.45260   0.45427   0.46006   0.46575   0.47203
 Alpha virt. eigenvalues --    0.47587   0.48008   0.48602   0.49075   0.49372
 Alpha virt. eigenvalues --    0.49927   0.50222   0.51512   0.51655   0.52987
 Alpha virt. eigenvalues --    0.53799   0.54512   0.55247   0.57388   0.57485
 Alpha virt. eigenvalues --    0.58923   0.60711   0.63902   0.64590   0.68421
 Alpha virt. eigenvalues --    0.69886   0.72221   0.73845   0.74317   0.74647
 Alpha virt. eigenvalues --    0.74889   0.76965   0.77523   0.78304   0.80361
 Alpha virt. eigenvalues --    0.81149   0.81979   0.82301   0.83998   0.84363
 Alpha virt. eigenvalues --    0.84961   0.85678   0.86136   0.86692   0.87938
 Alpha virt. eigenvalues --    0.88752   0.89552   0.90888   0.93622   0.94822
 Alpha virt. eigenvalues --    0.95551   0.97473   0.98988   1.00922   1.02877
 Alpha virt. eigenvalues --    1.03893   1.05118   1.07184   1.07732   1.08966
 Alpha virt. eigenvalues --    1.10235   1.11145   1.12331   1.13593   1.13835
 Alpha virt. eigenvalues --    1.14662   1.15945   1.17181   1.18436   1.19634
 Alpha virt. eigenvalues --    1.20175   1.20292   1.21875   1.22551   1.23465
 Alpha virt. eigenvalues --    1.23881   1.24209   1.25019   1.25542   1.25800
 Alpha virt. eigenvalues --    1.27178   1.28645   1.29530   1.30202   1.32560
 Alpha virt. eigenvalues --    1.33425   1.34509   1.35159   1.35901   1.37876
 Alpha virt. eigenvalues --    1.38541   1.40244   1.41634   1.42078   1.42750
 Alpha virt. eigenvalues --    1.45307   1.46646   1.47702   1.49178   1.50053
 Alpha virt. eigenvalues --    1.51780   1.52508   1.53102   1.53946   1.54615
 Alpha virt. eigenvalues --    1.55121   1.56108   1.56751   1.58175   1.60023
 Alpha virt. eigenvalues --    1.61729   1.63464   1.64670   1.65035   1.65943
 Alpha virt. eigenvalues --    1.66768   1.68413   1.69837   1.71148   1.75349
 Alpha virt. eigenvalues --    1.77381   1.80125   1.80456   1.81792   1.83009
 Alpha virt. eigenvalues --    1.86337   1.88434   1.92017   1.93823   1.94044
 Alpha virt. eigenvalues --    1.95188   1.97145   1.97394   1.97963   1.98725
 Alpha virt. eigenvalues --    1.99513   1.99880   2.01690   2.02268   2.03821
 Alpha virt. eigenvalues --    2.05340   2.05830   2.06637   2.06975   2.07215
 Alpha virt. eigenvalues --    2.09115   2.10024   2.12053   2.12557   2.14018
 Alpha virt. eigenvalues --    2.14448   2.16545   2.19781   2.21026   2.23240
 Alpha virt. eigenvalues --    2.23730   2.24646   2.26295   2.27318   2.30626
 Alpha virt. eigenvalues --    2.31408   2.33969   2.35551   2.36309   2.38781
 Alpha virt. eigenvalues --    2.40723   2.41950   2.43071   2.44494   2.47937
 Alpha virt. eigenvalues --    2.49090   2.50337   2.51083   2.51655   2.54520
 Alpha virt. eigenvalues --    2.57126   2.59642   2.60482   2.63592   2.64832
 Alpha virt. eigenvalues --    2.66569   2.75693   2.77319   2.78015   2.80480
 Alpha virt. eigenvalues --    2.83773   2.88713   2.93046   2.96652   3.02376
 Alpha virt. eigenvalues --    3.02743   3.03976   3.09705   3.10317   3.17759
 Alpha virt. eigenvalues --    3.20608   4.09022   4.15176   4.17310   4.22227
 Alpha virt. eigenvalues --    4.22747   4.30368   4.31563   4.34569   4.40293
 Alpha virt. eigenvalues --    4.43122   4.44996   4.48463   4.50555   4.56018
 Alpha virt. eigenvalues --    4.57264   4.63593   4.68764   4.75246
          Condensed to atoms (all electrons):
               1          2          3          4          5          6
     1  C   15.706707  -0.686761  -0.129047  -0.041429   0.031263   0.056659
     2  S   -0.686761  16.283701   0.094516   0.565601  -0.019478   0.127217
     3  O   -0.129047   0.094516   8.947157  -0.169967  -0.200095  -0.013651
     4  O   -0.041429   0.565601  -0.169967   8.759851  -0.237746   0.018613
     5  N    0.031263  -0.019478  -0.200095  -0.237746   8.073149   0.148977
     6  H    0.056659   0.127217  -0.013651   0.018613   0.148977   0.439247
     7  S    0.261569  -0.148999  -0.021488  -0.009237   0.054581   0.013455
     8  C   -3.346640  -1.101805   0.033591  -0.161912  -0.100989  -0.004911
     9  C   -1.751763  -0.585103  -0.033321  -0.065260   0.007015  -0.024285
    10  C   -0.156195   0.020398   0.097946  -0.077725   0.078211  -0.103094
    11  S   -1.353156  -0.221661   0.004041  -0.014332  -0.005248  -0.000393
    12  N    0.012305   0.011416   0.000407   0.000510  -0.000890   0.000047
    13  H    0.054108   0.003114   0.000775   0.000795   0.001621  -0.000161
    14  C   -0.598534  -0.065844  -0.000799  -0.002580  -0.000404   0.000142
    15  C   -0.149554  -0.007744  -0.000660   0.000291  -0.003765   0.000019
    16  O   -0.127528  -0.007731  -0.000113  -0.000148  -0.000097   0.000000
    17  O   -0.023606  -0.005348  -0.000090  -0.000029  -0.000057  -0.000000
    18  C   -0.067909  -0.002819   0.000072   0.000066  -0.000091   0.000007
    19  C   -0.008968  -0.000664  -0.000025  -0.000020   0.000011  -0.000000
    20  O   -0.002035  -0.000052  -0.000000  -0.000000   0.000000   0.000000
    21  H   -0.006654   0.000816  -0.000003  -0.000014   0.000032  -0.000000
    22  H   -0.010108  -0.000137  -0.000000  -0.000000  -0.000004   0.000000
    23  H    0.009039   0.000114   0.000000   0.000000   0.000002  -0.000000
    24  H   -0.021558  -0.000482   0.000000  -0.000002  -0.000006   0.000000
    25  H   -0.000535  -0.000003  -0.000000   0.000000   0.000000   0.000000
    26  H    0.000140  -0.000000   0.000000   0.000000  -0.000000  -0.000000
    27  H    0.000203   0.000001   0.000000  -0.000000   0.000000   0.000000
    28  H   -0.000033  -0.000000   0.000000  -0.000000  -0.000000   0.000000
    29  H    0.000090   0.000001   0.000000   0.000000   0.000000  -0.000000
               7          8          9         10         11         12
     1  C    0.261569  -3.346640  -1.751763  -0.156195  -1.353156   0.012305
     2  S   -0.148999  -1.101805  -0.585103   0.020398  -0.221661   0.011416
     3  O   -0.021488   0.033591  -0.033321   0.097946   0.004041   0.000407
     4  O   -0.009237  -0.161912  -0.065260  -0.077725  -0.014332   0.000510
     5  N    0.054581  -0.100989   0.007015   0.078211  -0.005248  -0.000890
     6  H    0.013455  -0.004911  -0.024285  -0.103094  -0.000393   0.000047
     7  S   17.952552  -0.691004  -0.572912  -1.194759  -0.131484  -0.014484
     8  C   -0.691004  24.613817  -7.622634  -4.114205  -1.561616   0.198190
     9  C   -0.572912  -7.622634  16.420986   2.791587  -0.580334  -0.337497
    10  C   -1.194759  -4.114205   2.791587   9.897940  -1.070169  -0.212737
    11  S   -0.131484  -1.561616  -0.580334  -1.070169  19.021332   0.191888
    12  N   -0.014484   0.198190  -0.337497  -0.212737   0.191888   7.555412
    13  H    0.011937  -0.004913  -0.126780   0.339146  -0.000823   0.000861
    14  C    0.219862  -1.881401   0.823845  -0.098632   0.594542   0.066896
    15  C   -0.206938   1.893568  -1.355210   0.130454  -1.538403  -0.136819
    16  O    0.005376  -0.018860  -0.353086  -0.061342   0.654488   0.049576
    17  O   -0.000447  -0.413588   0.085351  -0.031758   0.833864  -0.003355
    18  C    0.057036   0.377531  -0.456141   0.118478  -0.345541  -0.027231
    19  C   -0.024867  -0.155049  -0.025493  -0.008511   0.068997  -0.005583
    20  O    0.004207   0.027068  -0.030368  -0.002417  -0.036984   0.001897
    21  H    0.002311   0.119166  -0.081274  -0.080433   0.007441   0.291677
    22  H    0.002881   0.062953  -0.102771  -0.021162   0.040469   0.021320
    23  H    0.000653  -0.045700   0.091932   0.016206  -0.007992  -0.059817
    24  H    0.000554   0.088070  -0.117486  -0.013235  -0.022838  -0.074947
    25  H    0.001701   0.024954  -0.033493  -0.001919  -0.005245   0.002357
    26  H   -0.000540  -0.021325   0.015824   0.000634   0.018162  -0.004435
    27  H   -0.000710   0.009671   0.002308   0.000295   0.009101  -0.000199
    28  H    0.000101  -0.001464   0.001153  -0.000018  -0.007137   0.000087
    29  H   -0.000036   0.004916  -0.000491   0.000107  -0.003483   0.000022
              13         14         15         16         17         18
     1  C    0.054108  -0.598534  -0.149554  -0.127528  -0.023606  -0.067909
     2  S    0.003114  -0.065844  -0.007744  -0.007731  -0.005348  -0.002819
     3  O    0.000775  -0.000799  -0.000660  -0.000113  -0.000090   0.000072
     4  O    0.000795  -0.002580   0.000291  -0.000148  -0.000029   0.000066
     5  N    0.001621  -0.000404  -0.003765  -0.000097  -0.000057  -0.000091
     6  H   -0.000161   0.000142   0.000019   0.000000  -0.000000   0.000007
     7  S    0.011937   0.219862  -0.206938   0.005376  -0.000447   0.057036
     8  C   -0.004913  -1.881401   1.893568  -0.018860  -0.413588   0.377531
     9  C   -0.126780   0.823845  -1.355210  -0.353086   0.085351  -0.456141
    10  C    0.339146  -0.098632   0.130454  -0.061342  -0.031758   0.118478
    11  S   -0.000823   0.594542  -1.538403   0.654488   0.833864  -0.345541
    12  N    0.000861   0.066896  -0.136819   0.049576  -0.003355  -0.027231
    13  H    0.460789   0.002821   0.009653  -0.000001   0.000005   0.000399
    14  C    0.002821  16.009280  -4.402322  -0.078337  -0.100830  -3.700005
    15  C    0.009653  -4.402322  11.218644  -0.033951  -0.091032   0.738674
    16  O   -0.000001  -0.078337  -0.033951   8.642892  -0.216586   0.043360
    17  O    0.000005  -0.100830  -0.091032  -0.216586   8.605522  -0.137112
    18  C    0.000399  -3.700005   0.738674   0.043360  -0.137112   9.719297
    19  C    0.000006  -0.042142  -0.526703  -0.078620   0.005503  -0.557139
    20  O    0.000000   0.089842  -0.054692   0.002101   0.006496  -0.118628
    21  H    0.002565   0.082181  -0.103836   0.000091  -0.000054  -0.001200
    22  H   -0.000003   0.395808  -0.115551   0.007427   0.002114  -0.009594
    23  H    0.000006  -0.037814   0.380216  -0.001188  -0.000525  -0.034353
    24  H   -0.000008  -0.099442   0.514139   0.001063   0.001026   0.038943
    25  H   -0.000000  -0.101514  -0.047520   0.004153   0.001096   0.477795
    26  H    0.000000  -0.124252  -0.003940  -0.000118  -0.000568   0.424321
    27  H   -0.000000  -0.084181  -0.004640   0.001559  -0.009401  -0.084994
    28  H    0.000000   0.130796   0.002596  -0.000136   0.000537  -0.108215
    29  H   -0.000000  -0.074023  -0.005271   0.000131  -0.000409  -0.001715
              19         20         21         22         23         24
     1  C   -0.008968  -0.002035  -0.006654  -0.010108   0.009039  -0.021558
     2  S   -0.000664  -0.000052   0.000816  -0.000137   0.000114  -0.000482
     3  O   -0.000025  -0.000000  -0.000003  -0.000000   0.000000   0.000000
     4  O   -0.000020  -0.000000  -0.000014  -0.000000   0.000000  -0.000002
     5  N    0.000011   0.000000   0.000032  -0.000004   0.000002  -0.000006
     6  H   -0.000000   0.000000  -0.000000   0.000000  -0.000000   0.000000
     7  S   -0.024867   0.004207   0.002311   0.002881   0.000653   0.000554
     8  C   -0.155049   0.027068   0.119166   0.062953  -0.045700   0.088070
     9  C   -0.025493  -0.030368  -0.081274  -0.102771   0.091932  -0.117486
    10  C   -0.008511  -0.002417  -0.080433  -0.021162   0.016206  -0.013235
    11  S    0.068997  -0.036984   0.007441   0.040469  -0.007992  -0.022838
    12  N   -0.005583   0.001897   0.291677   0.021320  -0.059817  -0.074947
    13  H    0.000006   0.000000   0.002565  -0.000003   0.000006  -0.000008
    14  C   -0.042142   0.089842   0.082181   0.395808  -0.037814  -0.099442
    15  C   -0.526703  -0.054692  -0.103836  -0.115551   0.380216   0.514139
    16  O   -0.078620   0.002101   0.000091   0.007427  -0.001188   0.001063
    17  O    0.005503   0.006496  -0.000054   0.002114  -0.000525   0.001026
    18  C   -0.557139  -0.118628  -0.001200  -0.009594  -0.034353   0.038943
    19  C    6.555723   0.224533   0.000780  -0.020069   0.005442  -0.008592
    20  O    0.224533   8.388954  -0.000002   0.015629  -0.000388   0.000141
    21  H    0.000780  -0.000002   0.348481  -0.000150  -0.003370  -0.001033
    22  H   -0.020069   0.015629  -0.000150   0.420287  -0.004283   0.003482
    23  H    0.005442  -0.000388  -0.003370  -0.004283   0.519772  -0.038346
    24  H   -0.008592   0.000141  -0.001033   0.003482  -0.038346   0.482630
    25  H   -0.028447   0.010850  -0.000004   0.003226  -0.000662   0.001813
    26  H    0.001003  -0.011076  -0.000011  -0.003214   0.004269   0.000066
    27  H    0.531794  -0.047637  -0.000000   0.000277   0.000002   0.000015
    28  H    0.319029  -0.052748  -0.000000  -0.000023  -0.000009  -0.000003
    29  H    0.068920   0.191329  -0.000000  -0.000256   0.000016   0.000001
              25         26         27         28         29
     1  C   -0.000535   0.000140   0.000203  -0.000033   0.000090
     2  S   -0.000003  -0.000000   0.000001  -0.000000   0.000001
     3  O   -0.000000   0.000000   0.000000   0.000000   0.000000
     4  O    0.000000   0.000000  -0.000000  -0.000000   0.000000
     5  N    0.000000  -0.000000   0.000000  -0.000000   0.000000
     6  H    0.000000  -0.000000   0.000000   0.000000  -0.000000
     7  S    0.001701  -0.000540  -0.000710   0.000101  -0.000036
     8  C    0.024954  -0.021325   0.009671  -0.001464   0.004916
     9  C   -0.033493   0.015824   0.002308   0.001153  -0.000491
    10  C   -0.001919   0.000634   0.000295  -0.000018   0.000107
    11  S   -0.005245   0.018162   0.009101  -0.007137  -0.003483
    12  N    0.002357  -0.004435  -0.000199   0.000087   0.000022
    13  H   -0.000000   0.000000  -0.000000   0.000000  -0.000000
    14  C   -0.101514  -0.124252  -0.084181   0.130796  -0.074023
    15  C   -0.047520  -0.003940  -0.004640   0.002596  -0.005271
    16  O    0.004153  -0.000118   0.001559  -0.000136   0.000131
    17  O    0.001096  -0.000568  -0.009401   0.000537  -0.000409
    18  C    0.477795   0.424321  -0.084994  -0.108215  -0.001715
    19  C   -0.028447   0.001003   0.531794   0.319029   0.068920
    20  O    0.010850  -0.011076  -0.047637  -0.052748   0.191329
    21  H   -0.000004  -0.000011  -0.000000  -0.000000  -0.000000
    22  H    0.003226  -0.003214   0.000277  -0.000023  -0.000256
    23  H   -0.000662   0.004269   0.000002  -0.000009   0.000016
    24  H    0.001813   0.000066   0.000015  -0.000003   0.000001
    25  H    0.456258  -0.030964  -0.000469  -0.000005  -0.000087
    26  H   -0.030964   0.530613   0.003426  -0.007155   0.003216
    27  H   -0.000469   0.003426   0.435110  -0.033667   0.005562
    28  H   -0.000005  -0.007155  -0.033667   0.584981  -0.008115
    29  H   -0.000087   0.003216   0.005562  -0.008115   0.356241
 Mulliken charges:
               1
     1  C   -1.650071
     2  S    1.747736
     3  O   -0.609246
     4  O   -0.565327
     5  N   -0.825989
     6  H    0.342114
     7  S    0.429130
     8  C   -0.205476
     9  C    0.015700
    10  C   -0.243091
    11  S    1.462515
    12  N   -0.526877
    13  H    0.244087
    14  C   -0.922957
    15  C   -0.099701
    16  O   -0.434374
    17  O   -0.506721
    18  C   -0.343293
    19  C   -0.290849
    20  O   -0.606022
    21  H    0.422498
    22  H    0.311453
    23  H    0.206778
    24  H    0.266036
    25  H    0.266663
    26  H    0.205925
    27  H    0.266573
    28  H    0.179451
    29  H    0.463336
 Sum of Mulliken charges =  -1.00000
 Mulliken charges with hydrogens summed into heavy atoms:
               1
     1  C   -1.650071
     2  S    1.747736
     3  O   -0.609246
     4  O   -0.565327
     5  N   -0.483876
     7  S    0.429130
     8  C   -0.205476
     9  C    0.015700
    10  C    0.000996
    11  S    1.462515
    12  N   -0.104379
    14  C   -0.611505
    15  C    0.373114
    16  O   -0.434374
    17  O   -0.506721
    18  C    0.129295
    19  C    0.155174
    20  O   -0.142686
 Electronic spatial extent (au):  <R**2>=           7102.5317
 Charge=             -1.0000 electrons
 Dipole moment (field-independent basis, Debye):
    X=             18.2209    Y=              8.2510    Z=             -1.1409  Tot=             20.0345
 Quadrupole moment (field-independent basis, Debye-Ang):
   XX=           -217.2151   YY=           -136.5724   ZZ=           -142.9838
   XY=             15.8175   XZ=              3.7311   YZ=             -2.8843
 Traceless Quadrupole moment (field-independent basis, Debye-Ang):
   XX=            -51.6246   YY=             29.0180   ZZ=             22.6066
   XY=             15.8175   XZ=              3.7311   YZ=             -2.8843
 Octapole moment (field-independent basis, Debye-Ang**2):
  XXX=            540.2224  YYY=             28.3163  ZZZ=            -25.1519  XYY=             33.6244
  XXY=             49.7189  XXZ=            -18.9658  XZZ=             10.4448  YZZ=             13.1734
  YYZ=             15.4617  XYZ=             -7.7058
 Hexadecapole moment (field-independent basis, Debye-Ang**3):
 XXXX=          -9471.7528 YYYY=          -1087.5965 ZZZZ=           -574.9543 XXXY=            313.5464
 XXXZ=             -2.6522 YYYX=             28.7489 YYYZ=              6.0778 ZZZX=            -14.2196
 ZZZY=             -4.4181 XXYY=          -1685.2557 XXZZ=          -1468.6286 YYZZ=           -312.3966
 XXYZ=           -106.8839 YYXZ=            -24.5297 ZZXY=             38.7734
 N-N= 1.891532808132D+03 E-N=-8.499636072030D+03  KE= 1.980579926876D+03
 Calling FoFJK, ICntrl=      2127 FMM=F ISym2X=0 I1Cent= 0 IOpClX= 0 NMat=1 NMatS=1 NMatT=0.
 ***** Axes restored to original set *****
 -------------------------------------------------------------------
 Center     Atomic                   Forces (Hartrees/Bohr)
 Number     Number              X              Y              Z
 -------------------------------------------------------------------
      1        6          -0.002987348    0.001283869   -0.002584765
      2       16          -0.020530649   -0.021800943    0.027394616
      3        8           0.008195027    0.001508838   -0.009448720
      4        8           0.005713525    0.013604992   -0.006310606
      5        7           0.008934702    0.004566171   -0.005729646
      6        1          -0.002652396   -0.000656718    0.001078949
      7       16           0.005280646   -0.000192667    0.000174536
      8        6           0.004670238    0.000536006   -0.002946609
      9        6          -0.013087465   -0.002909026    0.016619707
     10        6           0.001863403    0.002427816   -0.010173122
     11       16          -0.027500588    0.002474965    0.010057977
     12        7           0.011325284    0.003460059   -0.013727814
     13        1          -0.001068186   -0.000480404    0.003156843
     14        6          -0.001210569   -0.000760226    0.000795487
     15        6           0.002813014   -0.001067369    0.003284762
     16        8           0.010424200    0.004239583   -0.003140881
     17        8           0.010657238   -0.007101253   -0.006262514
     18        6           0.000603847   -0.000696748    0.002448475
     19        6          -0.000826840    0.005317020    0.003330424
     20        8           0.002951008   -0.002921371   -0.003997516
     21        1          -0.002866340    0.000786947   -0.000443135
     22        1           0.000039722   -0.000028984   -0.000249481
     23        1           0.002513810    0.000014489   -0.001186181
     24        1          -0.002451568   -0.000507328   -0.001057253
     25        1          -0.000681728   -0.000784325    0.000818021
     26        1           0.001749991    0.000323883   -0.002512355
     27        1           0.001544809    0.000052105    0.001728690
     28        1          -0.000561443   -0.000196506   -0.002528464
     29        1          -0.002855341   -0.000492872    0.001410574
 -------------------------------------------------------------------
 Cartesian Forces:  Max     0.027500588 RMS     0.007235271

 GradGradGradGradGradGradGradGradGradGradGradGradGradGradGradGradGradGrad
 Berny optimization.
 FormGI is forming the generalized inverse of G from B-inverse, IUseBI=4.
 Internal  Forces:  Max     0.014463229 RMS     0.003361885
 Search for a local minimum.
 Step number   1 out of a maximum of  174
 All quantities printed in internal units (Hartrees-Bohrs-Radians)
 Mixed Optimization -- RFO/linear search
 Second derivative matrix not updated -- first step.
 ITU=  0
     Eigenvalues ---    0.00344   0.00385   0.00451   0.00653   0.01133
     Eigenvalues ---    0.01251   0.01372   0.01514   0.01714   0.01777
     Eigenvalues ---    0.02073   0.02169   0.02242   0.03271   0.03360
     Eigenvalues ---    0.03463   0.04220   0.04314   0.04857   0.04867
     Eigenvalues ---    0.05454   0.05791   0.06110   0.06828   0.08748
     Eigenvalues ---    0.09060   0.09240   0.09916   0.10589   0.11341
     Eigenvalues ---    0.11701   0.12043   0.12045   0.12505   0.13028
     Eigenvalues ---    0.13964   0.15523   0.16000   0.16000   0.16000
     Eigenvalues ---    0.16767   0.17931   0.19980   0.21513   0.21993
     Eigenvalues ---    0.22030   0.23635   0.24646   0.24882   0.24948
     Eigenvalues ---    0.25000   0.25195   0.25959   0.28352   0.29532
     Eigenvalues ---    0.30003   0.30584   0.30785   0.31885   0.33633
     Eigenvalues ---    0.34030   0.34124   0.34150   0.34165   0.34460
     Eigenvalues ---    0.34660   0.35411   0.36304   0.39104   0.41835
     Eigenvalues ---    0.43829   0.43846   0.45112   0.49150   0.51359
     Eigenvalues ---    0.53170   0.62062   0.79979   0.81682   0.84610
     Eigenvalues ---    0.84776
 RFO step:  Lambda=-9.43328760D-03 EMin= 3.43669771D-03
 Linear search not attempted -- first point.
 Iteration  1 RMS(Cart)=  0.06593442 RMS(Int)=  0.00280068
 Iteration  2 RMS(Cart)=  0.00325284 RMS(Int)=  0.00049522
 Iteration  3 RMS(Cart)=  0.00000528 RMS(Int)=  0.00049521
 Iteration  4 RMS(Cart)=  0.00000000 RMS(Int)=  0.00049521
 Variable       Old X    -DE/DX   Delta X   Delta X   Delta X     New X
                                 (Linear)    (Quad)   (Total)
    R1        3.40531   0.00750   0.00000   0.02789   0.02789   3.43320
    R2        3.26648  -0.00238   0.00000  -0.00677  -0.00676   3.25972
    R3        2.56862   0.00187   0.00000   0.00354   0.00354   2.57216
    R4        2.81627  -0.00869   0.00000  -0.01074  -0.01074   2.80552
    R5        2.80721  -0.01418   0.00000  -0.01716  -0.01716   2.79005
    R6        2.93045   0.00424   0.00000   0.00673   0.00673   2.93717
    R7        1.93360  -0.00091   0.00000  -0.00203  -0.00203   1.93157
    R8        3.29012   0.00009   0.00000   0.00027   0.00027   3.29039
    R9        2.61157  -0.00218   0.00000  -0.00371  -0.00372   2.60786
   R10        3.29093   0.00217   0.00000   0.00758   0.00754   3.29847
   R11        2.71336  -0.00337   0.00000  -0.00838  -0.00838   2.70498
   R12        2.59304   0.01446   0.00000   0.02846   0.02851   2.62155
   R13        2.05012   0.00013   0.00000   0.00035   0.00035   2.05047
   R14        3.42258   0.00285   0.00000   0.00986   0.00983   3.43241
   R15        2.79138  -0.00679   0.00000  -0.00792  -0.00792   2.78346
   R16        2.79221  -0.01282   0.00000  -0.01498  -0.01498   2.77723
   R17        2.75067  -0.00367   0.00000  -0.01020  -0.01013   2.74054
   R18        1.91846  -0.00287   0.00000  -0.00623  -0.00623   1.91223
   R19        2.88901   0.00017   0.00000  -0.00051  -0.00053   2.88848
   R20        2.88907  -0.00105   0.00000  -0.00343  -0.00343   2.88564
   R21        2.07052  -0.00011   0.00000  -0.00032  -0.00032   2.07020
   R22        2.06231   0.00266   0.00000   0.00748   0.00748   2.06979
   R23        2.07955   0.00170   0.00000   0.00491   0.00491   2.08446
   R24        2.87958   0.00109   0.00000   0.00351   0.00351   2.88308
   R25        2.07122   0.00059   0.00000   0.00167   0.00167   2.07289
   R26        2.07279   0.00273   0.00000   0.00780   0.00780   2.08059
   R27        2.69134  -0.00402   0.00000  -0.00940  -0.00940   2.68194
   R28        2.06561  -0.00073   0.00000  -0.00206  -0.00206   2.06355
   R29        2.07077   0.00255   0.00000   0.00727   0.00727   2.07804
   R30        1.83495  -0.00318   0.00000  -0.00588  -0.00588   1.82907
    A1        2.10258   0.00324   0.00000   0.01233   0.01234   2.11492
    A2        2.18952  -0.00023   0.00000  -0.00105  -0.00105   2.18847
    A3        1.98916  -0.00300   0.00000  -0.01095  -0.01097   1.97819
    A4        1.78511  -0.00614   0.00000  -0.04198  -0.04250   1.74261
    A5        1.81388  -0.00630   0.00000  -0.03532  -0.03517   1.77871
    A6        1.90459  -0.00913   0.00000  -0.05397  -0.05452   1.85007
    A7        1.98404   0.00691   0.00000   0.05719   0.05507   2.03911
    A8        2.03668   0.00439   0.00000   0.01647   0.01339   2.05006
    A9        1.91933   0.00662   0.00000   0.03637   0.03413   1.95346
   A10        1.89547  -0.00358   0.00000  -0.02114  -0.02114   1.87433
   A11        1.56282   0.00250   0.00000   0.01048   0.01046   1.57328
   A12        1.97775  -0.00269   0.00000  -0.01145  -0.01142   1.96633
   A13        2.13723   0.00181   0.00000   0.00691   0.00699   2.14422
   A14        2.16301   0.00088   0.00000   0.00530   0.00516   2.16817
   A15        1.93595   0.00209   0.00000   0.00711   0.00707   1.94303
   A16        2.17847  -0.00138   0.00000  -0.00350  -0.00355   2.17492
   A17        2.16732  -0.00068   0.00000  -0.00299  -0.00297   2.16435
   A18        1.95857   0.00111   0.00000   0.00469   0.00465   1.96322
   A19        2.16631  -0.00400   0.00000  -0.02267  -0.02268   2.14363
   A20        2.15830   0.00289   0.00000   0.01800   0.01799   2.17628
   A21        1.75770  -0.00105   0.00000  -0.01472  -0.01459   1.74311
   A22        1.93848   0.00417   0.00000   0.02745   0.02595   1.96442
   A23        1.89697   0.00326   0.00000   0.03479   0.03405   1.93103
   A24        1.90413  -0.00795   0.00000  -0.06079  -0.06082   1.84330
   A25        1.93502  -0.00407   0.00000  -0.02982  -0.02983   1.90519
   A26        2.01452   0.00486   0.00000   0.03634   0.03359   2.04811
   A27        2.03885  -0.00065   0.00000  -0.00448  -0.00450   2.03435
   A28        1.99665  -0.00017   0.00000  -0.00644  -0.00653   1.99012
   A29        2.00335  -0.00006   0.00000  -0.00367  -0.00378   1.99956
   A30        1.89400   0.00228   0.00000   0.00412   0.00384   1.89784
   A31        1.92494  -0.00306   0.00000  -0.02137  -0.02135   1.90359
   A32        1.82282   0.00102   0.00000   0.01898   0.01902   1.84184
   A33        1.94012  -0.00021   0.00000  -0.00470  -0.00467   1.93545
   A34        1.93211  -0.00075   0.00000   0.00052   0.00040   1.93252
   A35        1.94582   0.00079   0.00000   0.00351   0.00361   1.94943
   A36        1.94992  -0.00118   0.00000  -0.01397  -0.01410   1.93582
   A37        1.89240  -0.00036   0.00000  -0.00125  -0.00122   1.89117
   A38        1.94317   0.00173   0.00000   0.01356   0.01349   1.95666
   A39        1.87835   0.00119   0.00000   0.01028   0.01035   1.88870
   A40        1.91105  -0.00145   0.00000  -0.01284  -0.01279   1.89827
   A41        1.88663   0.00011   0.00000   0.00493   0.00491   1.89154
   A42        2.01100  -0.00208   0.00000  -0.00989  -0.00998   2.00101
   A43        1.91741  -0.00143   0.00000  -0.01886  -0.01889   1.89853
   A44        1.84934   0.00296   0.00000   0.02699   0.02707   1.87641
   A45        1.90654   0.00193   0.00000   0.00496   0.00473   1.91126
   A46        1.90234  -0.00097   0.00000  -0.00330  -0.00328   1.89906
   A47        1.87170  -0.00033   0.00000   0.00145   0.00158   1.87328
   A48        1.96234  -0.00024   0.00000  -0.00235  -0.00236   1.95998
   A49        1.94694  -0.00124   0.00000  -0.00932  -0.00932   1.93762
   A50        1.89755   0.00045   0.00000   0.00360   0.00361   1.90116
   A51        1.84926   0.00061   0.00000   0.00194   0.00191   1.85117
   A52        1.92649  -0.00026   0.00000  -0.00173  -0.00173   1.92476
   A53        1.87948   0.00070   0.00000   0.00817   0.00819   1.88766
   A54        1.89010   0.00081   0.00000   0.00476   0.00476   1.89486
    D1       -0.59380  -0.00149   0.00000   0.01186   0.01258  -0.58121
    D2        1.47471   0.00124   0.00000   0.04439   0.04404   1.51875
    D3       -2.76147   0.00142   0.00000   0.04332   0.04300  -2.71847
    D4        2.61860  -0.00149   0.00000   0.00609   0.00678   2.62537
    D5       -1.59609   0.00124   0.00000   0.03862   0.03824  -1.55785
    D6        0.45093   0.00142   0.00000   0.03755   0.03719   0.48812
    D7       -3.05677   0.00014   0.00000   0.00484   0.00479  -3.05198
    D8        0.02172   0.00021   0.00000   0.01025   0.01020   0.03192
    D9        3.06532  -0.00024   0.00000  -0.00784  -0.00782   3.05750
   D10       -0.07821   0.00025   0.00000   0.00403   0.00390  -0.07430
   D11       -0.00950  -0.00046   0.00000  -0.01410  -0.01403  -0.02353
   D12        3.13016   0.00003   0.00000  -0.00222  -0.00231   3.12785
   D13        1.29792   0.00036   0.00000   0.02022   0.02052   1.31844
   D14       -0.71328   0.01207   0.00000   0.10254   0.10392  -0.60936
   D15       -3.00616  -0.00859   0.00000  -0.03186  -0.03353  -3.03969
   D16       -0.02904   0.00010   0.00000  -0.00355  -0.00358  -0.03262
   D17       -3.06512   0.00003   0.00000  -0.01153  -0.01154  -3.07665
   D18        0.02907  -0.00038   0.00000  -0.00350  -0.00350   0.02557
   D19       -3.05669  -0.00085   0.00000  -0.01544  -0.01546  -3.07215
   D20        3.06334  -0.00025   0.00000   0.00470   0.00470   3.06804
   D21       -0.02242  -0.00071   0.00000  -0.00723  -0.00727  -0.02968
   D22        2.84685   0.00085   0.00000   0.00541   0.00550   2.85235
   D23       -1.42140  -0.00713   0.00000  -0.06080  -0.06169  -1.48308
   D24        0.81299   0.00467   0.00000   0.03259   0.03342   0.84641
   D25       -0.17790   0.00098   0.00000  -0.00244  -0.00241  -0.18031
   D26        1.83704  -0.00700   0.00000  -0.06865  -0.06960   1.76744
   D27       -2.21176   0.00480   0.00000   0.02475   0.02551  -2.18625
   D28       -0.01256   0.00050   0.00000   0.01099   0.01103  -0.00153
   D29        3.13096   0.00002   0.00000  -0.00077  -0.00090   3.13006
   D30        3.07362   0.00093   0.00000   0.02281   0.02288   3.09650
   D31       -0.06605   0.00046   0.00000   0.01105   0.01096  -0.05509
   D32       -0.35088  -0.00049   0.00000   0.00123   0.00125  -0.34963
   D33       -2.76233   0.00063   0.00000   0.02111   0.02106  -2.74127
   D34        2.85377  -0.00110   0.00000  -0.01255  -0.01250   2.84127
   D35        0.44232   0.00003   0.00000   0.00733   0.00731   0.44963
   D36        0.71436   0.00068   0.00000   0.02068   0.02081   0.73517
   D37        2.84344  -0.00002   0.00000   0.00416   0.00436   2.84780
   D38       -1.34711  -0.00006   0.00000   0.00832   0.00841  -1.33870
   D39       -1.32613  -0.00043   0.00000   0.02044   0.02053  -1.30560
   D40        0.80295  -0.00112   0.00000   0.00392   0.00408   0.80703
   D41        2.89559  -0.00116   0.00000   0.00809   0.00813   2.90372
   D42        2.71981   0.00229   0.00000   0.04127   0.04091   2.76071
   D43       -1.43430   0.00159   0.00000   0.02475   0.02446  -1.40984
   D44        0.65834   0.00155   0.00000   0.02892   0.02851   0.68685
   D45        0.99145   0.00020   0.00000   0.01038   0.01027   1.00172
   D46        3.05859   0.00073   0.00000   0.01392   0.01386   3.07245
   D47       -1.15131   0.00167   0.00000   0.02725   0.02728  -1.12403
   D48       -2.88304  -0.00097   0.00000  -0.01071  -0.01077  -2.89381
   D49       -0.81590  -0.00044   0.00000  -0.00717  -0.00718  -0.82308
   D50        1.25738   0.00050   0.00000   0.00616   0.00624   1.26362
   D51       -1.16914  -0.00181   0.00000  -0.02921  -0.02930  -1.19843
   D52        3.03855  -0.00144   0.00000  -0.02602  -0.02603   3.01253
   D53        0.99182  -0.00145   0.00000  -0.03073  -0.03070   0.96113
   D54        2.99426   0.00061   0.00000  -0.00240  -0.00246   2.99180
   D55        0.91877   0.00099   0.00000   0.00078   0.00081   0.91958
   D56       -1.12796   0.00097   0.00000  -0.00392  -0.00386  -1.13182
   D57        0.82160   0.00030   0.00000  -0.00392  -0.00404   0.81756
   D58       -1.25389   0.00067   0.00000  -0.00074  -0.00077  -1.25466
   D59        2.98257   0.00065   0.00000  -0.00544  -0.00544   2.97713
   D60        1.02981   0.00069   0.00000   0.06717   0.06724   1.09705
   D61       -1.13218   0.00083   0.00000   0.08325   0.08314  -1.04904
   D62        3.13454   0.00032   0.00000   0.07630   0.07633  -3.07231
   D63        3.13140   0.00139   0.00000   0.05505   0.05516  -3.09663
   D64        0.96942   0.00153   0.00000   0.07113   0.07106   1.04047
   D65       -1.04704   0.00102   0.00000   0.06417   0.06425  -0.98280
   D66       -0.98689   0.00083   0.00000   0.05483   0.05488  -0.93201
   D67        3.13431   0.00097   0.00000   0.07091   0.07078  -3.07810
   D68        1.11785   0.00047   0.00000   0.06396   0.06397   1.18182
   D69        0.93171   0.00204   0.00000   0.07743   0.07746   1.00916
   D70       -1.14294   0.00227   0.00000   0.08297   0.08297  -1.05997
   D71        3.07024   0.00187   0.00000   0.07621   0.07623  -3.13672
   D72        3.09941   0.00015   0.00000   0.04898   0.04897  -3.13480
   D73        1.02477   0.00038   0.00000   0.05451   0.05448   1.07925
   D74       -1.04524  -0.00002   0.00000   0.04776   0.04774  -0.99750
   D75       -1.14384   0.00029   0.00000   0.05164   0.05166  -1.09218
   D76        3.06470   0.00053   0.00000   0.05718   0.05717   3.12187
   D77        0.99469   0.00012   0.00000   0.05042   0.05043   1.04512
   D78        1.11422   0.00067   0.00000   0.01202   0.01202   1.12625
   D79       -3.03795  -0.00059   0.00000   0.00040   0.00039  -3.03756
   D80       -1.00790   0.00044   0.00000   0.01025   0.01025  -0.99765
         Item               Value     Threshold  Converged?
 Maximum Force            0.014463     0.000450     NO 
 RMS     Force            0.003362     0.000300     NO 
 Maximum Displacement     0.286725     0.001800     NO 
 RMS     Displacement     0.065850     0.001200     NO 
 Predicted change in Energy=-5.459211D-03
 GradGradGradGradGradGradGradGradGradGradGradGradGradGradGradGradGradGrad

                          Input orientation:                          
 ---------------------------------------------------------------------
 Center     Atomic      Atomic             Coordinates (Angstroms)
 Number     Number       Type             X           Y           Z
 ---------------------------------------------------------------------
      1          6           0       -1.416909    1.056396   -0.342527
      2         16           0       -1.448211    0.485653    1.381983
      3          8           0       -2.560984    1.317918    1.904635
      4          8           0       -1.714333   -0.957598    1.220557
      5          7           0       -0.025657    0.753757    1.947903
      6          1           0        0.048971    1.757905    2.123669
      7         16           0       -2.864791    1.525861   -1.154164
      8          6           0       -1.972896    1.731643   -2.635366
      9          6           0       -0.623267    1.488124   -2.481583
     10          6           0       -0.314796    1.094488   -1.140377
     11         16           0       -2.701123    2.332225   -4.103588
     12          7           0        0.326298    1.655180   -3.479041
     13          1           0        0.678348    0.841588   -0.783905
     14          6           0       -1.205679    2.776988   -5.033627
     15          6           0       -0.163541    1.675030   -4.843898
     16          8           0       -3.353378    1.268798   -4.886687
     17          8           0       -3.481548    3.548214   -3.834956
     18          6           0       -1.565254    2.938306   -6.508909
     19          6           0       -2.555899    4.060612   -6.803351
     20          8           0       -2.088631    5.323050   -6.353789
     21          1           0        1.167970    1.110413   -3.342018
     22          1           0       -0.857648    3.719176   -4.596271
     23          1           0        0.680361    1.883501   -5.510246
     24          1           0       -0.609556    0.710292   -5.138965
     25          1           0       -1.967598    1.987798   -6.880258
     26          1           0       -0.631508    3.135987   -7.057762
     27          1           0       -3.504944    3.889723   -6.290968
     28          1           0       -2.750934    4.089551   -7.885182
     29          1           0       -1.294641    5.554685   -6.856543
 ---------------------------------------------------------------------
                    Distance matrix (angstroms):
                    1          2          3          4          5
     1  C    0.000000
     2  S    1.816772   0.000000
     3  O    2.535160   1.484619   0.000000
     4  O    2.566683   1.476432   2.522449   0.000000
     5  N    2.696895   1.554286   2.597698   2.511851   0.000000
     6  H    2.953479   2.100066   2.655830   3.361370   1.022143
     7  S    1.724968   3.085575   3.080875   3.623592   4.275470
     8  C    2.454016   4.238736   4.596589   4.708186   5.074875
     9  C    2.322029   4.075859   4.798190   4.569225   4.529545
    10  C    1.361128   2.831539   3.790433   3.426918   3.120444
    11  S    4.174030   5.922087   6.094851   6.335866   6.802222
    12  N    3.637999   5.305302   6.118342   5.751261   5.512545
    13  H    2.151989   3.056144   4.236556   3.602757   2.822430
    14  C    5.001148   6.816824   7.218395   7.302101   7.363945
    15  C    4.713383   6.467348   7.170632   6.790677   6.855385
    16  O    4.944130   6.598424   6.837570   6.703859   7.619095
    17  O    4.761193   6.382021   6.226120   6.998828   7.293397
    18  C    6.448865   8.264102   8.625825   8.657074   8.869063
    19  C    7.215599   9.000389   9.129700   9.501251   9.691330
    20  O    7.402082   9.146186   9.190526   9.846692   9.698061
    21  H    3.959983   5.436076   6.440150   5.779397   5.434631
    22  H    5.049507   6.822314   7.136469   7.512763   7.232713
    23  H    5.638081   7.347626   8.112130   7.688309   7.576197
    24  H    4.876210   6.578493   7.334138   6.666776   7.111014
    25  H    6.626666   8.413729   8.830356   8.623381   9.123070
    26  H    7.073609   8.883725   9.346273   9.298414   9.335099
    27  H    6.911699   8.642454   8.641363   9.117335   9.477273
    28  H    8.238405  10.028237  10.176373  10.462444  10.735186
    29  H    7.917194   9.674295   9.813871  10.383906  10.108289
                    6          7          8          9         10
     6  H    0.000000
     7  S    4.391815   0.000000
     8  C    5.170788   1.741202   0.000000
     9  C    4.661870   2.605359   1.380018   0.000000
    10  C    3.350588   2.586261   2.321693   1.431411   0.000000
    11  S    6.831661   3.062044   1.745476   2.767832   4.000897
    12  N    5.610509   3.950294   2.450292   1.387265   2.488921
    13  H    3.112834   3.627555   3.353983   2.234798   1.085064
    14  C    7.337544   4.400932   2.726357   2.917757   4.333807
    15  C    6.971299   4.575275   2.855623   2.413879   3.751796
    16  O    7.807707   3.773132   2.681119   3.645015   4.826822
    17  O    7.153669   3.414227   2.648580   3.774303   4.828028
    18  C    8.861177   5.688329   4.077565   4.382889   5.812439
    19  C    9.580161   6.199492   4.809999   5.387991   6.774195
    20  O    9.441763   6.485150   5.170906   5.643397   6.943118
    21  H    5.616506   4.606784   3.278769   2.022756   2.654444
    22  H    7.058763   4.548336   3.006529   3.082926   4.373429
    23  H    7.661010   5.627740   3.915069   3.320928   4.550674
    24  H    7.367292   4.650793   3.028177   2.768914   4.027803
    25  H    9.229848   5.814335   4.252616   4.626580   6.039536
    26  H    9.309180   6.514025   4.830019   4.863839   6.267653
    27  H    9.379822   5.690729   4.513081   5.346321   6.672254
    28  H   10.651438   7.203616   5.807378   6.363433   7.771588
    29  H    9.842003   7.156390   5.735330   6.010652   7.316284
                   11         12         13         14         15
    11  S    0.000000
    12  N    3.164448   0.000000
    13  H    4.966197   2.837186   0.000000
    14  C    1.816354   2.454006   5.035421   0.000000
    15  C    2.723837   1.450231   4.229296   1.528516   0.000000
    16  O    1.472942   3.958633   5.768028   2.628468   3.215885
    17  O    1.469645   4.267312   5.825759   2.685365   3.941568
    18  C    2.728205   3.795324   6.496587   1.527014   2.516531
    19  C    3.208915   5.014400   7.553555   2.569573   3.905616
    20  O    3.792570   5.248745   7.665721   3.000810   4.392470
    21  H    4.128280   1.011908   2.618385   3.357562   2.085031
    22  H    2.358977   2.628690   5.017363   1.095502   2.172933
    23  H    3.689780   2.074436   4.839822   2.140708   1.095285
    24  H    2.842063   2.126966   4.543400   2.153530   1.103047
    25  H    2.892505   4.115929   6.743911   2.147880   2.738468
    26  H    3.695468   3.989665   6.807442   2.134402   2.693434
    27  H    2.802955   5.251526   7.557697   2.847051   4.261907
    28  H    4.170268   5.899967   8.528621   3.498857   4.666255
    29  H    4.465557   5.407504   7.936176   3.323633   4.514626
                   16         17         18         19         20
    16  O    0.000000
[...]
 530,0.00024537,-0.00092077,0.00212931,0.00035536,0.00032389,-0.0003150
 7,0.00015316,-0.00006396,-0.00001753,0.00048419,0.00005567,0.00063172,
 0.00076604,-0.00003918,-0.00003475,0.22177474,0.00004367,-0.00005012,0
 .00006667,-0.00002734,-0.00001128,-0.00016271,-0.00002147,0.00001415,0
 .00004254,0.00000685,-0.00004775,0.00005565,0.00002597,0.00000441,0.00
 004049,0.00000199,0.00000105,-0.00000872,-0.00003621,-0.00000234,0.000
 01266,0.00005893,0.00022154,0.00014073,0.00060192,0.00066464,-0.000568
 81,-0.00015423,0.00022306,0.00002859,0.00070528,-0.00556944,0.00144509
 ,0.00091231,0.00050992,0.00025665,-0.00000030,-0.00000599,-0.00000711,
 0.02010035,0.00522201,-0.01201504,-0.05985957,-0.07032266,0.04257225,-
 0.00035547,0.00186325,0.00038590,0.00196958,0.00016172,-0.00117519,0.0
 0017261,0.00076827,-0.00119949,0.00009437,-0.00000753,-0.00027328,-0.0
 0024488,0.00004186,-0.00010316,-0.00017557,0.00014067,0.00058464,-0.00
 075195,0.00064170,-0.00026507,0.06026881,0.07204352,-0.00035780,0.0001
 0297,-0.00058961,0.00017297,-0.00015702,0.00065550,0.00009938,-0.00002
 846,-0.00025430,-0.00002313,0.00020895,-0.00014807,-0.00013833,-0.0000
 1572,-0.00018276,0.00001458,0.00000612,0.00002200,0.00039769,0.0000300
 2,-0.00021180,0.00017771,-0.00017618,0.00079706,-0.00567599,0.00176287
 ,-0.00399203,0.00161677,-0.00028558,-0.00066114,-0.00157791,0.00036957
 ,-0.00145695,0.02614979,0.00657466,-0.02896915,-0.00002814,0.00003499,
 -0.00000262,-0.00065344,-0.00155374,0.00111009,0.11411679,0.04153746,-
 0.13458953,-0.00016914,0.00012847,0.00060262,-0.00021989,-0.00013639,0
 .00050961,-0.00197148,0.00030662,0.00058960,-0.00005791,-0.00010518,0.
 00001919,-0.00008566,-0.00007810,-0.00003519,0.00021556,0.00038898,0.0
 0062979,0.00022627,-0.00006077,-0.00005508,-0.12574661,-0.04785918,0.1
 5980028,0.00005048,0.00007063,0.00002890,0.00011018,-0.00017854,0.0004
 2647,0.00000722,0.00002723,-0.00015793,-0.00002314,0.00017495,-0.00009
 192,-0.00009651,0.00000565,-0.00014113,0.00000438,0.00000512,0.0000228
 0,0.00045286,-0.00018227,-0.00054391,0.00018893,-0.00067757,0.00029562
 ,-0.00079886,0.00064634,0.00225512,0.00010383,0.00011639,-0.00030383,0
 .00024893,0.00347713,0.00004452,-0.00321466,-0.00766889,-0.01247957,-0
 .00000661,-0.00005664,0.00001987,0.00710351,0.02427530,0.00724868,-0.0
 7798364,-0.07549810,-0.01832594,-0.00038930,-0.00091319,-0.00013095,0.
 00022390,-0.00060292,0.00003780,0.00064107,-0.00049221,0.00110379,0.00
 001575,0.00006953,0.00018177,-0.00013517,0.00004167,-0.00026819,-0.000
 14889,-0.00068532,-0.00032564,-0.00391262,0.00317187,-0.00032638,-0.00
 719201,-0.02307156,-0.00592755,0.08468897,0.00021313,-0.00005459,0.000
 01068,0.00001992,-0.00012507,0.00008097,-0.00000326,0.00002892,-0.0000
 5244,-0.00000479,0.00006816,-0.00000165,-0.00001698,0.00001941,-0.0000
 4483,0.00000094,0.00000226,0.00000914,0.00019346,-0.00003964,-0.000415
 91,0.00049116,-0.00023937,-0.00026278,0.00084774,0.00113677,-0.0000382
 7,0.00010230,-0.00026573,0.00007954,-0.00240627,-0.00371351,-0.0019324
 4,-0.00145011,0.00810359,-0.00304574,0.00000174,0.00003648,0.00005333,
 -0.00516395,-0.02265421,-0.00633618,-0.07160177,-0.25293042,-0.0571707
 0,-0.00126569,0.00205759,0.00150410,0.00031884,0.00077484,0.00013706,-
 0.00040441,0.00053746,-0.00066157,0.00010019,-0.00024622,0.00014733,0.
 00025071,0.00022403,0.00027461,0.00000401,0.00049250,-0.00040459,0.003
 49522,-0.00144048,0.00089179,-0.00242138,-0.00662600,-0.00139902,0.078
 23234,0.27512916,-0.00105155,0.00020001,0.00050102,-0.00001464,-0.0002
 2760,0.00019238,0.00004284,0.00001877,-0.00009915,0.00001304,0.0001268
 9,-0.00001855,-0.00001824,0.00005565,-0.00011154,0.00000162,0.00000364
 ,0.00002909,0.00130265,-0.00003342,-0.00051132,0.00084587,0.00043769,0
 .00182028,-0.00671002,-0.00312994,0.00594627,0.00066783,0.00114388,-0.
 00169204,-0.00003536,-0.00133800,-0.00203084,-0.01402650,-0.02713182,-
 0.02735019,0.00001553,-0.00020298,0.00008597,0.00234667,0.00142992,0.0
 0169402,-0.01639062,-0.05620438,-0.06714226,0.00003069,0.00015983,0.00
 052973,0.00008534,0.00017440,0.00047150,0.00011724,-0.00023731,0.00052
 093,0.00018551,0.00000184,0.00007709,-0.00008416,0.00008007,-0.0001144
 0,0.00036656,-0.00061272,0.00009404,-0.00102508,0.00007421,0.00038853,
 0.00522027,0.01750110,0.00628718,0.02800124,0.06780625,0.08015275,-0.0
 0002460,0.00000948,-0.00011348,0.00002075,-0.00003857,0.00019581,0.000
 01385,0.00000085,-0.00005361,-0.00000384,0.00006937,-0.00005087,-0.000
 04414,-0.00000471,-0.00005760,0.00000250,0.00000182,0.00000692,-0.0001
 2863,-0.00004397,0.00003324,-0.00004204,-0.00004059,-0.00046433,0.0003
 3420,0.00009283,-0.00015753,-0.00003085,0.00000461,-0.00004590,0.00006
 930,-0.00055261,0.00229813,0.00000063,0.00031684,0.00016000,-0.0000039
 9,0.00000833,-0.00001032,-0.00364501,-0.00483680,-0.00305899,-0.000263
 10,-0.00072346,-0.00021434,-0.00121957,-0.00031714,0.00128616,-0.00003
 500,-0.00013584,-0.00037770,-0.13427662,-0.11393110,-0.04823619,0.0117
 7641,0.01075579,0.00604535,0.00007512,0.00545070,-0.00008242,-0.000016
 85,0.00002044,-0.00000592,0.00004282,0.00084293,-0.00045810,0.00006973
 ,-0.00006337,-0.00016169,-0.00004075,0.00048263,-0.00022854,0.14217376
 ,-0.00001846,0.00000715,-0.00005313,0.00000083,-0.00000611,0.00007357,
 0.00000979,-0.00000251,-0.00002071,0.00000204,0.00002265,-0.00002210,-
 0.00001305,-0.00000436,-0.00002020,0.00000028,0.00000033,0.00000219,-0
 .00006321,-0.00003000,-0.00001383,0.00010277,-0.00014938,-0.00028901,0
 .00012352,0.00007627,-0.00006677,0.00000047,0.00001235,-0.00001864,-0.
 00130589,0.00058651,0.00082062,0.00009262,-0.00019000,0.00026867,0.000
 00013,0.00000453,-0.00000263,0.00399703,0.00505445,-0.00140826,-0.0000
 7546,0.00050414,-0.00019116,-0.00050348,-0.00140841,0.00118781,0.00005
 652,-0.00006225,0.00007889,-0.11199994,-0.20730883,-0.06441959,-0.0190
 5367,-0.01662501,-0.00851533,0.00253193,-0.00719841,0.00065763,-0.0000
 1710,-0.00006074,-0.00003158,-0.00037213,-0.00005002,0.00132516,-0.000
 07409,-0.00002869,0.00000202,-0.00005465,-0.00009538,0.00009635,0.1247
 4341,0.22347223,-0.00003075,-0.00000203,0.00011590,-0.00002057,0.00001
 058,-0.00016449,-0.00000747,0.00000712,0.00004387,0.00000604,-0.000034
 66,0.00004396,0.00005039,0.00001460,0.00004965,-0.00000390,-0.00000244
 ,-0.00000203,0.00020392,-0.00000881,-0.00010827,0.00028705,0.00028271,
 0.00051162,-0.00057938,-0.00019788,0.00050098,0.00007835,-0.00001146,-
 0.00002746,-0.00324234,-0.00509087,-0.00475127,0.00012674,0.00081372,-
 0.00039556,0.00000872,-0.00001296,0.00001669,-0.01657383,-0.02523346,-
 0.01269401,0.00066089,-0.00121406,-0.00000685,0.00071623,0.00151881,0.
 00285899,0.00075227,0.00074459,0.00019945,-0.04629832,-0.06311920,-0.0
 7257023,0.00428692,0.00338579,0.00040432,-0.00085873,0.00228612,0.0010
 4277,0.00000291,0.00016301,-0.00007240,-0.00128984,0.00206277,-0.00538
 071,0.00003663,0.00008720,-0.00005166,-0.00040984,0.00058887,0.0000903
 4,0.05241435,0.06919186,0.08454066,0.00000971,0.00002426,-0.00003288,-
 0.00003252,0.00004430,-0.00016549,-0.00000351,-0.00000568,0.00005291,0
 .00000820,-0.00005742,0.00004766,0.00004329,-0.00000218,0.00006135,-0.
 00000464,-0.00000167,-0.00001135,0.00002032,0.00000823,-0.00013526,0.0
 0052492,0.00006493,-0.00015216,-0.00016804,0.00016973,-0.00007208,0.00
 004700,0.00002820,0.00008016,-0.00108376,0.00053224,-0.00295460,0.0006
 6646,-0.00011060,-0.00014713,0.00000072,-0.00000533,0.00000701,0.00565
 534,0.00026399,-0.00474526,0.00049547,0.00062147,-0.00154858,0.0001864
 9,-0.00019252,0.00116003,0.00022645,-0.00026617,0.00051905,-0.22542969
 ,-0.00170046,0.11655570,-0.01787115,-0.00118070,0.01031493,0.00354471,
 -0.00095694,-0.00140537,-0.00005861,-0.00006696,0.00006532,-0.00003065
 ,-0.00021705,0.00045750,0.00030275,-0.00016992,-0.00038999,0.00004932,
 0.00008698,0.00028475,-0.01514206,0.00115820,0.00978321,0.24773190,-0.
 00002612,-0.00002033,0.00015375,0.00000017,0.00008206,-0.00018587,-0.0
 0002362,-0.00000180,0.00005225,0.00000141,-0.00006098,0.00003757,0.000
 04871,-0.00000274,0.00006572,-0.00000249,-0.00000242,-0.00000807,0.000
 19647,-0.00007487,-0.00009770,-0.00007984,-0.00012845,0.00048041,-0.00
 059263,0.00000454,0.00026487,0.00003656,-0.00003957,-0.00004193,0.0003
 1257,-0.00123623,-0.00032129,0.00032370,-0.00009877,-0.00052685,0.0000
 0515,-0.00000375,0.00001279,-0.00288594,-0.00073837,0.00171079,-0.0004
 0415,0.00054401,0.00135717,-0.00002899,-0.00004643,0.00136984,-0.00048
 594,0.00066133,-0.00004274,-0.00126504,-0.04684276,-0.00032571,0.02806
 213,-0.00354988,-0.01745282,0.00019641,0.00416608,-0.00006768,-0.00000
 254,-0.00004012,0.00002325,0.00010317,-0.00006331,0.00003711,0.0003718
 1,0.00014002,0.00039819,-0.00023415,-0.00021153,-0.00011578,-0.0211757
 2,0.00144940,0.01462587,-0.00270626,0.05134973,0.00014184,0.00008077,-
 0.00046762,0.00000442,-0.00024573,0.00057444,0.00006060,0.00000080,-0.
 00016500,-0.00000752,0.00017029,-0.00011173,-0.00016767,-0.00000378,-0
 .00021255,0.00001199,0.00000951,0.00002141,-0.00066995,0.00036734,0.00
 017173,0.00146560,0.00091222,-0.00171321,0.00148408,-0.00014693,-0.000
 43283,-0.00014318,0.00005145,0.00008246,-0.00641129,-0.00165108,-0.002
 94624,-0.00095524,-0.00082796,0.00120139,-0.00001714,0.00000672,-0.000
 03398,0.02552346,0.00419432,-0.02208423,0.00253502,-0.00036952,0.00013
 042,0.00057286,0.00058778,0.00090663,0.00119674,-0.00077728,0.00024391
 ,0.11614795,0.00064782,-0.12184509,-0.00378604,-0.00008714,0.00357369,
 -0.00138008,-0.00061384,-0.00002707,0.00010626,0.00013525,0.00007840,-
 0.00017442,-0.00026174,0.00000853,-0.00146202,0.00035826,0.00011861,-0
 .00013599,0.00019027,0.00014327,-0.00865750,0.00133274,0.00564316,-0.1
 2553928,-0.00361340,0.13576478,0.00000368,-0.00001358,0.00003048,-0.00
 000435,0.00003612,-0.00011220,-0.00001462,-0.00000092,0.00003539,-0.00
 000044,-0.00003597,0.00002819,0.00002443,-0.00000113,0.00003933,-0.000
 00188,-0.00000078,-0.00000648,0.00003271,0.00001392,-0.00005130,0.0001
 2174,-0.00010771,0.00008361,-0.00014657,0.00003365,0.00002355,0.000014
 62,-0.00000317,0.00002049,-0.00055411,0.00188313,-0.00074734,0.0001378
 7,0.00001884,-0.00011455,0.00000411,0.00000072,0.00000244,0.00055233,-
 0.00064551,0.00060661,-0.00015606,-0.00003970,0.00006709,-0.00005875,-
 0.00025288,-0.00021499,-0.00058893,-0.00138197,0.00191908,-0.01136669,
 0.00380751,0.00920750,-0.21928148,0.01911847,0.12835813,-0.02123086,-0
 .00615253,0.01274598,-0.00001013,-0.00001394,0.00001197,-0.00025162,-0
 .00001272,-0.00024833,0.00012919,-0.00001821,-0.00003936,0.00006140,-0
 .00009492,0.00001858,0.00000090,0.00027765,-0.00014035,-0.00013646,0.0
 0230785,-0.00026049,0.24289853,-0.00000809,0.00002766,-0.00005576,0.00
 001096,-0.00003577,0.00017998,0.00001827,-0.00000525,-0.00005310,0.000
 00001,0.00004969,-0.00004898,-0.00004026,-0.00000725,-0.00005900,0.000
 00235,0.00000202,0.00000738,-0.00008152,-0.00003267,0.00011523,-0.0004
 6636,0.00012018,-0.00005874,0.00039258,0.00004850,-0.00021020,-0.00007
 819,-0.00001265,-0.00001997,0.00284800,-0.00291590,0.00189449,-0.00029
 806,-0.00006909,0.00033092,-0.00000513,0.00000119,-0.00001457,-0.00104
 211,0.00141808,-0.00068823,0.00007907,-0.00001178,-0.00020324,-0.00053
 391,0.00040469,-0.00015975,-0.00111763,0.00089456,-0.00062440,0.024399
 76,-0.00210750,-0.01811989,0.02658855,-0.05093878,-0.01920147,-0.03179
 197,-0.00465340,0.01885655,0.00001828,0.00002536,-0.00000077,-0.000003
 54,0.00004325,0.00038292,-0.00031697,0.00002377,0.00003541,-0.00000211
 ,0.00007667,-0.00002494,-0.00072743,0.00080589,-0.00020817,0.00315629,
 -0.00520879,0.00125537,-0.01490133,0.06519407,0.00001575,-0.00001712,0
 .00009210,-0.00000909,0.00007857,-0.00024234,-0.00003025,-0.00000197,0
 .00007615,0.00000047,-0.00007793,0.00005978,0.00005219,-0.00000193,0.0
 0008390,-0.00000360,-0.00000201,-0.00001346,0.00009042,0.00000600,-0.0
 0010083,0.00029446,-0.00025559,0.00006012,-0.00028822,-0.00005003,0.00
 014376,0.00003913,-0.00000200,0.00004773,-0.00147588,0.00316063,0.0000
 6837,0.00015081,0.00006854,-0.00016195,0.00000202,-0.00000016,0.000013
 31,-0.00031539,-0.00061105,0.00102741,0.00006555,0.00001990,-0.0000624
 4,0.00013737,-0.00058391,-0.00041092,0.00134785,-0.00062355,-0.0018758
 5,-0.00647204,0.00114768,0.00498116,0.13972843,-0.01398497,-0.16249268
 ,-0.00889197,0.00008668,0.00810175,-0.00001503,-0.00002654,0.00000084,
 -0.00001595,-0.00023366,0.00009071,0.00013130,-0.00003054,-0.00000659,
 -0.00002752,-0.00004786,-0.00000055,0.00038500,-0.00044203,0.00005721,
 -0.00191271,0.00151778,0.00094690,-0.14277904,0.01573592,0.16581933,-0
 .00001341,0.00000352,-0.00002628,-0.00000571,-0.00002639,0.00005226,0.
 00001291,0.00000186,-0.00001958,0.00000219,0.00002167,-0.00001155,-0.0
 0000553,0.00000483,-0.00001981,-0.00000101,-0.00000032,0.00000474,0.00
 000742,0.00001735,-0.00005180,0.00032204,-0.00006584,-0.00007088,-0.00
 019755,-0.00005952,0.00021566,0.00004663,0.00001412,-0.00003590,-0.001
 71932,0.00116499,0.00018580,-0.00018064,0.00027534,-0.00015982,0.00000
 436,-0.00000102,0.00000759,-0.00060434,0.00305948,0.00048881,0.0001516
 3,-0.00018041,-0.00077260,0.00025768,-0.00006899,-0.00008782,0.0003386
 2,-0.00118039,0.00073768,-0.00393617,0.00389655,-0.01731008,-0.0763873
 4,0.00748788,-0.06503370,-0.01150950,-0.01145562,-0.02226023,-0.000017
 65,-0.00000802,-0.00010728,-0.00008485,-0.00026578,0.00020877,0.000023
 69,-0.00006277,-0.00002198,0.00002829,0.00001335,0.00000359,0.00064767
 ,-0.00009474,0.00027397,0.00028735,-0.00118542,-0.00013712,0.01126924,
 -0.00147135,0.02291182,0.08083562,0.00004925,-0.00001018,0.00010556,-0
 .00001669,0.00005609,-0.00026894,-0.00003541,0.00001309,0.00008918,0.0
 0000091,-0.00006782,0.00006701,0.00006099,0.00000916,0.00009167,-0.000
 00556,-0.00000279,-0.00001089,0.00000824,-0.00002611,0.00002081,-0.000
 21620,-0.00006297,0.00015877,0.00016568,0.00009551,-0.00030281,-0.0000
 6546,-0.00002251,0.00012129,0.00149601,0.00020092,-0.00070888,0.000617
 09,-0.00049952,0.00030213,-0.00000146,-0.00000584,-0.00000859,0.003632
 28,-0.00528763,-0.00085204,-0.00046912,0.00042690,0.00165251,-0.000348
 21,-0.00026216,-0.00003581,-0.00047380,0.00040271,0.00005063,0.0078176
 3,-0.00161816,0.02899432,0.00700378,-0.04999864,0.01946043,-0.01900263
 ,-0.00999893,-0.03185351,0.00000716,-0.00006745,0.00023328,-0.00002748
 ,-0.00001694,-0.00012025,0.00002614,0.00006701,-0.00001952,0.00002319,
 -0.00006669,-0.00001128,-0.00068246,0.00088598,-0.00006796,-0.00001521
 ,0.00105701,-0.00076301,-0.00065167,0.00143954,-0.00303783,-0.00035070
 ,0.06245556,-0.00006059,0.00002282,-0.00010013,0.00000259,-0.00011181,
 0.00032822,0.00005184,0.00000222,-0.00011009,0.00000389,0.00011287,-0.
 00008202,-0.00005774,0.00000917,-0.00011560,0.00000259,0.00000099,0.00
 002166,-0.00002627,-0.00001641,0.00004828,-0.00012264,0.00018352,-0.00
 008945,0.00002510,-0.00005734,0.00013565,0.00003881,0.00002306,-0.0001
 2212,0.00019181,-0.00168276,0.00043711,-0.00016794,0.00018732,-0.00010
 774,-0.00000211,-0.00000487,0.00000140,-0.00091534,0.00120125,0.001652
 21,0.00033952,-0.00022510,-0.00035718,0.00026784,0.00053285,0.00018888
 ,0.00012497,0.00098548,-0.00081744,0.00045300,-0.00014439,-0.00444328,
 -0.06793160,0.01774439,-0.28302584,-0.00733119,-0.00821909,-0.00090779
 ,0.00002642,0.00000751,-0.00007245,0.00022933,-0.00021378,0.00037934,-
 0.00000001,-0.00003517,-0.00000129,-0.00005169,0.00008451,-0.00000281,
 -0.00024639,0.00080347,-0.00003337,-0.00054493,0.00008522,0.00042289,-
 0.00687573,0.00225351,-0.01752492,0.08261214,-0.01288578,0.30344121,0.
 00002652,-0.00000342,-0.00000657,0.00003522,0.00002150,-0.00001556,-0.
 00002435,0.00000149,0.00001059,-0.00000925,-0.00001638,0.00000453,-0.0
 0002034,-0.00001336,0.00000883,0.00000495,0.00000184,-0.00000581,-0.00
 004080,0.00001465,0.00001864,-0.00001835,-0.00002529,-0.00004647,0.000
 11620,0.00000099,-0.00010243,-0.00001879,-0.00000644,0.00003582,0.0000
 7432,0.00009840,0.00013827,-0.00022945,-0.00009857,0.00007802,-0.00000
 180,0.00000674,-0.00000473,-0.00028279,0.00030338,0.00020790,0.0002150
 8,0.00005154,-0.00018566,-0.00005249,-0.00007098,-0.00015949,-0.000043
 42,0.00000942,0.00008238,0.00351521,0.00092160,-0.00089547,-0.02190936
 ,0.00231414,0.01859439,-0.30979028,-0.02157268,0.23006793,0.00002144,0
 .00005929,-0.00002273,0.00012894,-0.00010997,-0.00008491,-0.00008279,0
 .00005018,0.00005851,-0.00003686,-0.00002114,0.00003490,-0.00031062,0.
 00054869,-0.00023328,0.00016071,-0.00086728,0.00065411,-0.00144779,-0.
 00462817,-0.00311588,0.00042768,0.00145372,-0.00003567,0.32959327,-0.0
 0007202,0.00001361,-0.00016834,0.00003258,-0.00009331,0.00045770,0.000
 05925,-0.00001671,-0.00015067,-0.00000370,0.00011378,-0.00011663,-0.00
 010529,-0.00001054,-0.00015999,0.00000918,0.00000323,0.00002372,-0.000
 06184,0.00003128,0.00002642,0.00014404,0.00011294,-0.00028805,-0.00003
 421,-0.00010460,0.00022226,0.00007256,0.00003784,-0.00015949,-0.001265
 98,0.00015075,0.00065852,-0.00000527,0.00014494,-0.00030672,0.00000018
 ,0.00000590,0.00000614,0.00051225,-0.00013139,0.00013090,0.00014145,-0
 .00017541,0.00018291,0.00038522,0.00024829,-0.00029978,0.00047094,-0.0
 0036695,0.00004225,-0.00207893,0.00154060,0.00216981,-0.03109498,-0.00
 334188,0.02323630,0.01190092,-0.03181184,-0.03404450,0.00003368,0.0000
 2563,-0.00004137,-0.00007234,-0.00008103,0.00024542,0.00015831,-0.0000
 8080,-0.00001244,-0.00001919,0.00002099,-0.00004036,0.00047374,0.00033
 822,-0.00057964,0.00149624,-0.00108309,-0.00093948,-0.00316923,-0.0045
 7628,-0.00179104,0.00051633,0.00090485,-0.00064366,0.02157611,0.038180
 98,0.00005954,-0.00001595,0.00006286,0.00002048,0.00007860,-0.00022252
 ,-0.00004913,0.00000308,0.00007887,-0.00000731,-0.00007978,0.00005747,
 0.00002404,-0.00001447,0.00008085,0.00000239,0.00000093,-0.00001854,-0
 .00001539,0.00000689,0.00000717,-0.00006504,-0.00000934,0.00006280,0.0
 0015478,0.00007927,-0.00022666,-0.00005163,-0.00002879,0.00010362,0.00
 062584,-0.00023305,-0.00045710,-0.00018484,-0.00025297,0.00019735,-0.0
 0000256,0.00000717,-0.00000714,-0.00007159,0.00040142,-0.00029910,0.00
 006081,0.00010482,-0.00008232,-0.00029237,-0.00018881,0.00009778,-0.00
 027087,0.00025063,0.00013064,-0.00105149,-0.00021172,-0.00017723,-0.01
 083154,-0.00494819,0.00500329,0.25977642,-0.00618338,-0.21812074,0.000
 00303,0.00004879,0.00001426,0.00032744,0.00018026,-0.00047536,-0.00010
 158,0.00012507,0.00006625,-0.00001858,-0.00004449,0.00004927,-0.000143
 54,-0.00032602,0.00013876,0.00036749,0.00060726,0.00000691,-0.00160824
 ,-0.00129650,0.00122201,-0.00157640,-0.00040049,0.00085668,-0.24508018
 ,0.01233979,0.21184988\\0.00000726,-0.00000079,-0.00000363,-0.00002422
 ,-0.00001188,0.00001071,0.00001180,-0.00000285,-0.00000708,-0.00000517
 ,0.00000307,-0.00000156,0.00001363,0.00001095,-0.00000889,-0.00000267,
 0.00000005,0.00000899,-0.00000561,0.00000332,-0.00000459,0.00000187,-0
 .00000408,0.00001149,-0.00000534,0.00000205,-0.00000920,0.00000106,0.0
 0000032,0.00000589,0.00000450,0.00000233,-0.00001169,-0.00000147,0.000
 00125,-0.00000020,-0.00000114,-0.00000039,0.00000274,-0.00000017,0.000
 00118,-0.00000308,0.00000304,-0.00000185,0.00000356,-0.00000173,-0.000
 00117,0.00000187,-0.00000366,-0.00000055,0.00000441,0.00000011,-0.0000
 0471,0.00000093,0.00000125,-0.00000042,-0.00000352,-0.00000078,0.00000
 297,0.00000082,0.00000049,-0.00000242,-0.00000024,0.00000018,-0.000000
 09,-0.00000041,-0.00000045,-0.00000015,-0.00000065,-0.00000023,0.00000
 128,-0.00000060,0.00000236,0.00000090,0.00000040,0.00000228,0.00000255
 ,0.00000234,0.00000041,0.00000178,-0.00000042,0.00000015,-0.00000069,0
 .00000157,0.00000224,-0.00000196,0.00000005\\\@
 The archive entry for this job was punched.


 UNLESS WE CHANGE DIRECTIONS, WE WILL WIND UP WHERE WE ARE HEADED.
     -- CONFUCIUS
 Job cpu time:       0 days  3 hours  4 minutes 54.9 seconds.
 Elapsed time:       0 days  0 hours 11 minutes 47.8 seconds.
 File lengths (MBytes):  RWF=    483 Int=      0 D2E=      0 Chk=     13 Scr=      1
 Normal termination of Gaussian 16 at Sun Jun 12 21:55:27 2022.
