 Entering Gaussian System, Link 0=g16
 AtFile(1): /home/561/yj5695/Basis/6-31pGd.gbs
 Initial command:
 /apps/gaussian/g16c01/g16/l1.exe "/jobfs/40781022.gadi-pbs/Gau-1007246.inp" -scrdir="/jobfs/40781022.gadi-pbs/"
 Entering Link 1 = /apps/gaussian/g16c01/g16/l1.exe PID=   1007247.
  
 Copyright (c) 1988-2019, Gaussian, Inc.  All Rights Reserved.
  
 This is part of the Gaussian(R) 16 program.  It is based on
 the Gaussian(R) 09 system (copyright 2009, Gaussian, Inc.),
 the Gaussian(R) 03 system (copyright 2003, Gaussian, Inc.),
 the Gaussian(R) 98 system (copyright 1998, Gaussian, Inc.),
 the Gaussian(R) 94 system (copyright 1995, Gaussian, Inc.),
 the Gaussian 92(TM) system (copyright 1992, Gaussian, Inc.),
 the Gaussian 90(TM) system (copyright 1990, Gaussian, Inc.),
 the Gaussian 88(TM) system (copyright 1988, Gaussian, Inc.),
 the Gaussian 86(TM) system (copyright 1986, Carnegie Mellon
 University), and the Gaussian 82(TM) system (copyright 1983,
 Carnegie Mellon University). Gaussian is a federally registered
 trademark of Gaussian, Inc.
  
 This software contains proprietary and confidential information,
 including trade secrets, belonging to Gaussian, Inc.
  
 This software is provided under written license and may be
 used, copied, transmitted, or stored only in accord with that
 written license.
  
 The following legend is applicable only to US Government
 contracts under FAR:
  
                    RESTRICTED RIGHTS LEGEND
  
 Use, reproduction and disclosure by the US Government is
 subject to restrictions as set forth in subparagraphs (a)
 and (c) of the Commercial Computer Software - Restricted
 Rights clause in FAR 52.227-19.
  
 Gaussian, Inc.
 340 Quinnipiac St., Bldg. 40, Wallingford CT 06492
  
  
 ---------------------------------------------------------------
 Warning -- This program may not be used in any manner that
 competes with the business of Gaussian, Inc. or will provide
 assistance to any competitor of Gaussian, Inc.  The licensee
 of this program is prohibited from giving any competitor of
 Gaussian, Inc. access to this program.  By using this program,
 the user acknowledges that Gaussian, Inc. is engaged in the
 business of creating and licensing software in the field of
 computational chemistry and represents and warrants to the
 licensee that it is not a competitor of Gaussian, Inc. and that
 it will not use this program in any manner prohibited above.
 ---------------------------------------------------------------
  

 Cite this work as:
 Gaussian 16, Revision C.01,
 M. J. Frisch, G. W. Trucks, H. B. Schlegel, G. E. Scuseria, 
 M. A. Robb, J. R. Cheeseman, G. Scalmani, V. Barone, 
 G. A. Petersson, H. Nakatsuji, X. Li, M. Caricato, A. V. Marenich, 
 J. Bloino, B. G. Janesko, R. Gomperts, B. Mennucci, H. P. Hratchian, 
 J. V. Ortiz, A. F. Izmaylov, J. L. Sonnenberg, D. Williams-Young, 
 F. Ding, F. Lipparini, F. Egidi, J. Goings, B. Peng, A. Petrone, 
 T. Henderson, D. Ranasinghe, V. G. Zakrzewski, J. Gao, N. Rega, 
 G. Zheng, W. Liang, M. Hada, M. Ehara, K. Toyota, R. Fukuda, 
 J. Hasegawa, M. Ishida, T. Nakajima, Y. Honda, O. Kitao, H. Nakai, 
 T. Vreven, K. Throssell, J. A. Montgomery, Jr., J. E. Peralta, 
 F. Ogliaro, M. J. Bearpark, J. J. Heyd, E. N. Brothers, K. N. Kudin, 
 V. N. Staroverov, T. A. Keith, R. Kobayashi, J. Normand, 
 K. Raghavachari, A. P. Rendell, J. C. Burant, S. S. Iyengar, 
 J. Tomasi, M. Cossi, J. M. Millam, M. Klene, C. Adamo, R. Cammi, 
 J. W. Ochterski, R. L. Martin, K. Morokuma, O. Farkas, 
 J. B. Foresman, and D. J. Fox, Gaussian, Inc., Wallingford CT, 2019.
 
 ******************************************
 Gaussian 16:  ES64L-G16RevC.01  3-Jul-2019
                20-May-2022 
 ******************************************
 %nproc=16
 Will use up to   16 processors via shared memory.
 %mem=20gb
 --------------------------------------------------
 #M062X/gen 6D INT(grid=ultrafine) OPT Freq=noraman
 --------------------------------------------------
 1/18=20,19=15,26=4,38=1/1,3;
 2/9=110,12=2,17=6,18=5,40=1/2;
 3/5=7,8=2,11=2,25=1,30=1,71=1,74=-55,75=-5/1,2,3;
 4//1;
 5/5=2,38=5/2;
 6/7=2,8=2,9=2,10=2,28=1/1;
 7//1,2,3,16;
 1/18=20,19=15,26=4/3(2);
 2/9=110/2;
 99//99;
 2/9=110/2;
 3/5=7,6=1,8=2,11=2,25=1,30=1,71=1,74=-55,75=-5,82=7/1,2,3;
 4/5=5,16=3,69=1/1;
 5/5=2,38=5/2;
 7//1,2,3,16;
 1/18=20,19=15,26=4/3(-5);
 2/9=110/2;
 6/7=2,8=2,9=2,10=2,19=2,28=1/1;
 99/9=1/99;
 -------------
 A.25.a2d3.freq
 -------------
 Symbolic Z-matrix:
 Charge = -1 Multiplicity = 1
 C                     1.07235   0.40499  -0.07501 
 C                    -1.24327   0.76398   0.13014 
 N                    -2.60969   0.7785    0.29263 
 S                    -0.25218  -0.65134   0.2895 
 S                     2.77656  -0.19673  -0.20706 
 O                     3.48039   0.59665   0.8341 
 O                     2.60478  -1.6343    0.112 
 N                     3.282    -0.02051  -1.66073 
 H                     3.54019   0.95983  -1.79964 
 C                    -3.3715   -0.31956   0.60158 
 O                    -2.84859  -1.42201   0.74913 
 C                    -4.84187  -0.07922   0.757 
 N                     0.749     1.63752  -0.28143 
 N                    -0.59371   1.85963  -0.16221 
 H                    -3.06208   1.68251   0.17365 
 H                    -5.10268  -0.23016   1.80905 
 H                    -5.38022  -0.82176   0.16324 
 H                    -5.13793   0.92536   0.45263 
 

 GradGradGradGradGradGradGradGradGradGradGradGradGradGradGradGradGradGrad
 Berny optimization.
 Initialization pass.
                           ----------------------------
                           !    Initial Parameters    !
                           ! (Angstroms and Degrees)  !
 --------------------------                            --------------------------
 ! Name  Definition              Value          Derivative Info.                !
 --------------------------------------------------------------------------------
 ! R1    R(1,4)                  1.7329         estimate D2E/DX2                !
 ! R2    R(1,5)                  1.8121         estimate D2E/DX2                !
 ! R3    R(1,13)                 1.2908         estimate D2E/DX2                !
 ! R4    R(2,3)                  1.3761         estimate D2E/DX2                !
 ! R5    R(2,4)                  1.7352         estimate D2E/DX2                !
 ! R6    R(2,14)                 1.3068         estimate D2E/DX2                !
 ! R7    R(3,10)                 1.3717         estimate D2E/DX2                !
 ! R8    R(3,15)                 1.0179         estimate D2E/DX2                !
 ! R9    R(5,6)                  1.4862         estimate D2E/DX2                !
 ! R10   R(5,7)                  1.4825         estimate D2E/DX2                !
 ! R11   R(5,8)                  1.5491         estimate D2E/DX2                !
 ! R12   R(8,9)                  1.0232         estimate D2E/DX2                !
 ! R13   R(10,11)                1.2291         estimate D2E/DX2                !
 ! R14   R(10,12)                1.498          estimate D2E/DX2                !
 ! R15   R(12,16)                1.0944         estimate D2E/DX2                !
 ! R16   R(12,17)                1.0926         estimate D2E/DX2                !
 ! R17   R(12,18)                1.0906         estimate D2E/DX2                !
 ! R18   R(13,14)                1.3662         estimate D2E/DX2                !
 ! A1    A(4,1,5)              122.1221         estimate D2E/DX2                !
 ! A2    A(4,1,13)             115.1005         estimate D2E/DX2                !
 ! A3    A(5,1,13)             122.7493         estimate D2E/DX2                !
 ! A4    A(3,2,4)              124.3963         estimate D2E/DX2                !
 ! A5    A(3,2,14)             120.738          estimate D2E/DX2                !
 ! A6    A(4,2,14)             114.8656         estimate D2E/DX2                !
 ! A7    A(2,3,10)             124.7233         estimate D2E/DX2                !
 ! A8    A(2,3,15)             115.9049         estimate D2E/DX2                !
 ! A9    A(10,3,15)            119.3711         estimate D2E/DX2                !
 ! A10   A(1,4,2)               85.4141         estimate D2E/DX2                !
 ! A11   A(1,5,6)              102.5367         estimate D2E/DX2                !
 ! A12   A(1,5,7)              101.3806         estimate D2E/DX2                !
 ! A13   A(1,5,8)              109.7221         estimate D2E/DX2                !
 ! A14   A(6,5,7)              114.9448         estimate D2E/DX2                !
 ! A15   A(6,5,8)              116.2411         estimate D2E/DX2                !
 ! A16   A(7,5,8)              110.4911         estimate D2E/DX2                !
 ! A17   A(5,8,9)              108.5845         estimate D2E/DX2                !
 ! A18   A(3,10,11)            120.5836         estimate D2E/DX2                !
 ! A19   A(3,10,12)            116.1091         estimate D2E/DX2                !
 ! A20   A(11,10,12)           123.3036         estimate D2E/DX2                !
 ! A21   A(10,12,16)           108.1525         estimate D2E/DX2                !
 ! A22   A(10,12,17)           108.5561         estimate D2E/DX2                !
 ! A23   A(10,12,18)           112.6614         estimate D2E/DX2                !
 ! A24   A(16,12,17)           108.136          estimate D2E/DX2                !
 ! A25   A(16,12,18)           109.307          estimate D2E/DX2                !
 ! A26   A(17,12,18)           109.9122         estimate D2E/DX2                !
 ! A27   A(1,13,14)            112.7968         estimate D2E/DX2                !
 ! A28   A(2,14,13)            111.8225         estimate D2E/DX2                !
 ! D1    D(5,1,4,2)           -178.2829         estimate D2E/DX2                !
 ! D2    D(13,1,4,2)            -0.1641         estimate D2E/DX2                !
 ! D3    D(4,1,5,6)           -120.9027         estimate D2E/DX2                !
 ! D4    D(4,1,5,7)             -1.8594         estimate D2E/DX2                !
 ! D5    D(4,1,5,8)            114.98           estimate D2E/DX2                !
 ! D6    D(13,1,5,6)            61.123          estimate D2E/DX2                !
 ! D7    D(13,1,5,7)          -179.8338         estimate D2E/DX2                !
 ! D8    D(13,1,5,8)           -62.9944         estimate D2E/DX2                !
 ! D9    D(4,1,13,14)            0.2653         estimate D2E/DX2                !
 ! D10   D(5,1,13,14)          178.3709         estimate D2E/DX2                !
 ! D11   D(4,2,3,10)             0.0043         estimate D2E/DX2                !
 ! D12   D(4,2,3,15)           179.7148         estimate D2E/DX2                !
 ! D13   D(14,2,3,10)         -179.8731         estimate D2E/DX2                !
 ! D14   D(14,2,3,15)           -0.1625         estimate D2E/DX2                !
 ! D15   D(3,2,4,1)           -179.8635         estimate D2E/DX2                !
 ! D16   D(14,2,4,1)             0.0203         estimate D2E/DX2                !
 ! D17   D(3,2,14,13)         -179.9952         estimate D2E/DX2                !
 ! D18   D(4,2,14,13)            0.1164         estimate D2E/DX2                !
 ! D19   D(2,3,10,11)           -0.3595         estimate D2E/DX2                !
 ! D20   D(2,3,10,12)          178.9654         estimate D2E/DX2                !
 ! D21   D(15,3,10,11)         179.9393         estimate D2E/DX2                !
 ! D22   D(15,3,10,12)          -0.7358         estimate D2E/DX2                !
 ! D23   D(1,5,8,9)             78.4607         estimate D2E/DX2                !
 ! D24   D(6,5,8,9)            -37.2485         estimate D2E/DX2                !
 ! D25   D(7,5,8,9)           -170.5773         estimate D2E/DX2                !
 ! D26   D(3,10,12,16)        -112.1853         estimate D2E/DX2                !
 ! D27   D(3,10,12,17)         130.7112         estimate D2E/DX2                !
 ! D28   D(3,10,12,18)           8.7418         estimate D2E/DX2                !
 ! D29   D(11,10,12,16)         67.1194         estimate D2E/DX2                !
 ! D30   D(11,10,12,17)        -49.9841         estimate D2E/DX2                !
 ! D31   D(11,10,12,18)       -171.9535         estimate D2E/DX2                !
 ! D32   D(1,13,14,2)           -0.2421         estimate D2E/DX2                !
 --------------------------------------------------------------------------------
 Trust Radius=3.00D-01 FncErr=1.00D-07 GrdErr=1.00D-06 EigMax=2.50D+02 EigMin=1.00D-04
 Number of steps in this run=     88 maximum allowed number of steps=    108.
 GradGradGradGradGradGradGradGradGradGradGradGradGradGradGradGradGradGrad

                          Input orientation:                          
 ---------------------------------------------------------------------
 Center     Atomic      Atomic             Coordinates (Angstroms)
 Number     Number       Type             X           Y           Z
 ---------------------------------------------------------------------
      1          6           0        1.072345    0.404990   -0.075012
      2          6           0       -1.243272    0.763979    0.130138
      3          7           0       -2.609695    0.778496    0.292625
      4         16           0       -0.252177   -0.651344    0.289497
      5         16           0        2.776560   -0.196726   -0.207057
      6          8           0        3.480385    0.596651    0.834096
      7          8           0        2.604777   -1.634300    0.111999
      8          7           0        3.282003   -0.020514   -1.660731
      9          1           0        3.540191    0.959826   -1.799639
     10          6           0       -3.371502   -0.319557    0.601583
     11          8           0       -2.848589   -1.422006    0.749127
     12          6           0       -4.841870   -0.079223    0.756999
     13          7           0        0.749004    1.637517   -0.281434
     14          7           0       -0.593708    1.859626   -0.162207
     15          1           0       -3.062078    1.682506    0.173654
     16          1           0       -5.102684   -0.230160    1.809050
     17          1           0       -5.380221   -0.821760    0.163237
     18          1           0       -5.137931    0.925361    0.452633
 ---------------------------------------------------------------------
                    Distance matrix (angstroms):
                    1          2          3          4          5
     1  C    0.000000
     2  C    2.352242   0.000000
     3  N    3.719150   1.376127   0.000000
     4  S    1.732936   1.735167   2.757234   0.000000
     5  S    1.812139   4.146770   5.496588   3.102659   0.000000
     6  O    2.581059   4.778754   6.116807   3.973173   1.486209
     7  O    2.557739   4.534264   5.748471   3.026532   1.482540
     8  N    2.752843   4.929579   6.258284   4.085555   1.549094
     9  H    3.061445   5.161774   6.498580   4.619785   2.111176
    10  C    4.553078   2.434271   1.371687   3.152406   6.202229
    11  O    4.403504   2.781856   2.260016   2.747096   5.835915
    12  C    5.992049   3.748847   2.435966   4.648781   7.680084
    13  N    1.290845   2.213960   3.514017   2.562657   2.735135
    14  N    2.213436   1.306843   2.332363   2.574034   3.948329
    15  H    4.334436   2.038049   1.017861   3.654561   6.145417
    16  H    6.487225   4.324595   3.087381   5.100377   8.133159
    17  H    6.572464   4.430577   3.202089   5.132428   8.189069
    18  H    6.254336   3.911319   2.537548   5.136458   8.020813
                    6          7          8          9         10
     6  O    0.000000
     7  O    2.503049   0.000000
     8  N    2.577675   2.491087   0.000000
     9  H    2.659330   3.355421   1.023241   0.000000
    10  C    6.916780   6.138742   7.033961   7.427932   0.000000
    11  O    6.643652   5.494561   6.734668   7.279137   1.229065
    12  C    8.350011   7.634582   8.476212   8.824679   1.497965
    13  N    3.128618   3.781993   3.326801   3.248836   4.646334
    14  N    4.380178   4.744788   4.560881   4.536512   3.612250
    15  H    6.664765   6.566449   6.820015   6.928644   2.070537
    16  H    8.677743   8.016018   9.076690   9.441291   2.112572
    17  H    8.998460   8.026396   8.888361   9.305948   2.116437
    18  H    8.633014   8.161949   8.732484   8.965697   2.166167
                   11         12         13         14         15
    11  O    0.000000
    12  C    2.403393   0.000000
    13  N    4.833778   5.939984   0.000000
    14  N    4.084620   4.759302   1.366171   0.000000
    15  H    3.164608   2.571311   3.838421   2.497403   0.000000
    16  H    2.761318   1.094357   6.488496   5.346393   3.239890
    17  H    2.666968   1.092582   6.619152   5.496039   3.412513
    18  H    3.292282   1.090632   5.975117   4.679834   2.227165
                   16         17         18
    16  H    0.000000
    17  H    1.770795   0.000000
    18  H    1.782227   1.787424   0.000000
 Stoichiometry    C4H5N4O3S2(1-)
 Framework group  C1[X(C4H5N4O3S2)]
 Deg. of freedom    48
 Full point group                 C1      NOp   1
 Largest Abelian subgroup         C1      NOp   1
 Largest concise Abelian subgroup C1      NOp   1
                         Standard orientation:                         
 ---------------------------------------------------------------------
 Center     Atomic      Atomic             Coordinates (Angstroms)
 Number     Number       Type             X           Y           Z
 ---------------------------------------------------------------------
      1          6           0       -1.028922    0.371467   -0.028665
      2          6           0        1.292774    0.748035    0.002434
      3          7           0        2.668662    0.768733    0.017540
      4         16           0        0.334327   -0.698306   -0.014352
      5         16           0       -2.734389   -0.240692   -0.006543
      6          8           0       -3.296807    0.325911   -1.260123
      7          8           0       -2.519011   -1.707390   -0.024819
      8          7           0       -3.427099    0.189309    1.310630
      9          1           0       -3.703438    1.171085    1.228323
     10          6           0        3.466870   -0.346782    0.021286
     11          8           0        2.970303   -1.471062    0.017506
     12          6           0        4.944381   -0.100186    0.014217
     13          7           0       -0.738219    1.629105   -0.017721
     14          7           0        0.608024    1.861108   -0.002574
     15          1           0        3.099502    1.690904    0.021718
     16          1           0        5.341687   -0.437195   -0.948171
     17          1           0        5.401523   -0.704548    0.801303
     18          1           0        5.195646    0.951066    0.159863
 ---------------------------------------------------------------------
 Rotational constants (GHZ):           1.9202718           0.3225435           0.2929905
 General basis read from cards:  (6D, 7F)
 There are   265 symmetry adapted cartesian basis functions of A   symmetry.
 There are   265 symmetry adapted basis functions of A   symmetry.
   265 basis functions,   484 primitive gaussians,   265 cartesian basis functions
    57 alpha electrons       57 beta electrons
       nuclear repulsion energy      1044.2635271161 Hartrees.
 NAtoms=   18 NActive=   18 NUniq=   18 SFac= 1.00D+00 NAtFMM=   60 NAOKFM=F Big=F
 Integral buffers will be    131072 words long.
 Raffenetti 2 integral format.
 Two-electron integral symmetry is turned on.
 One-electron integrals computed using PRISM.
 NBasis=   265 RedAO= T EigKep=  1.10D-05  NBF=   265
 NBsUse=   265 1.00D-06 EigRej= -1.00D+00 NBFU=   265
 ExpMin= 4.05D-02 ExpMax= 2.19D+04 ExpMxC= 3.30D+03 IAcc=3 IRadAn=         5 AccDes= 0.00D+00
 Harris functional with IExCor= 1009 and IRadAn=       5 diagonalized for initial guess.
 HarFok:  IExCor= 1009 AccDes= 0.00D+00 IRadAn=         5 IDoV= 1 UseB2=F ITyADJ=14
 ICtDFT=  3500011 ScaDFX=  1.000000  1.000000  1.000000  1.000000
 FoFCou: FMM=F IPFlag=           0 FMFlag=      100000 FMFlg1=           0
         NFxFlg=           0 DoJE=T BraDBF=F KetDBF=T FulRan=T
         wScrn=  0.000000 ICntrl=       500 IOpCl=  0 I1Cent=   200000004 NGrid=           0
         NMat0=    1 NMatS0=      1 NMatT0=    0 NMatD0=    1 NMtDS0=    0 NMtDT0=    0
 Petite list used in FoFCou.
 Requested convergence on RMS density matrix=1.00D-08 within 128 cycles.
 Requested convergence on MAX density matrix=1.00D-06.
 Requested convergence on             energy=1.00D-06.
 No special actions if energy rises.
 SCF Done:  E(RM062X) =  -1396.18014491     A.U. after   15 cycles
            NFock= 15  Conv=0.86D-08     -V/T= 2.0053

 **********************************************************************

            Population analysis using the SCF Density.

 **********************************************************************

 Orbital symmetries:
       Occupied  (A) (A) (A) (A) (A) (A) (A) (A) (A) (A) (A) (A)
                 (A) (A) (A) (A) (A) (A) (A) (A) (A) (A) (A) (A)
                 (A) (A) (A) (A) (A) (A) (A) (A) (A) (A) (A) (A)
                 (A) (A) (A) (A) (A) (A) (A) (A) (A) (A) (A) (A)
                 (A) (A) (A) (A) (A) (A) (A) (A) (A)
       Virtual   (A) (A) (A) (A) (A) (A) (A) (A) (A) (A) (A) (A)
                 (A) (A) (A) (A) (A) (A) (A) (A) (A) (A) (A) (A)
                 (A) (A) (A) (A) (A) (A) (A) (A) (A) (A) (A) (A)
                 (A) (A) (A) (A) (A) (A) (A) (A) (A) (A) (A) (A)
                 (A) (A) (A) (A) (A) (A) (A) (A) (A) (A) (A) (A)
                 (A) (A) (A) (A) (A) (A) (A) (A) (A) (A) (A) (A)
                 (A) (A) (A) (A) (A) (A) (A) (A) (A) (A) (A) (A)
                 (A) (A) (A) (A) (A) (A) (A) (A) (A) (A) (A) (A)
                 (A) (A) (A) (A) (A) (A) (A) (A) (A) (A) (A) (A)
                 (A) (A) (A) (A) (A) (A) (A) (A) (A) (A) (A) (A)
                 (A) (A) (A) (A) (A) (A) (A) (A) (A) (A) (A) (A)
                 (A) (A) (A) (A) (A) (A) (A) (A) (A) (A) (A) (A)
                 (A) (A) (A) (A) (A) (A) (A) (A) (A) (A) (A) (A)
                 (A) (A) (A) (A) (A) (A) (A) (A) (A) (A) (A) (A)
                 (A) (A) (A) (A) (A) (A) (A) (A) (A) (A) (A) (A)
                 (A) (A) (A) (A) (A) (A) (A) (A) (A) (A) (A) (A)
                 (A) (A) (A) (A) (A) (A) (A) (A) (A) (A) (A) (A)
                 (A) (A) (A) (A)
 The electronic state is 1-A.
 Alpha  occ. eigenvalues --  -89.98079 -89.86162 -19.55548 -19.45576 -19.45535
 Alpha  occ. eigenvalues --  -14.74475 -14.68725 -14.67767 -14.56516 -10.60218
 Alpha  occ. eigenvalues --  -10.55403 -10.50325 -10.49369  -8.28855  -8.20533
 Alpha  occ. eigenvalues --   -6.21068  -6.21044  -6.20944  -6.12500  -6.12275
 Alpha  occ. eigenvalues --   -6.12042  -1.10514  -1.05208  -1.03939  -0.98052
 Alpha  occ. eigenvalues --   -0.92824  -0.82550  -0.80755  -0.79647  -0.77258
 Alpha  occ. eigenvalues --   -0.64911  -0.60376  -0.58185  -0.53167  -0.49515
 Alpha  occ. eigenvalues --   -0.47781  -0.47124  -0.43602  -0.42465  -0.41862
 Alpha  occ. eigenvalues --   -0.40686  -0.39431  -0.38156  -0.37305  -0.35004
 Alpha  occ. eigenvalues --   -0.30875  -0.28059  -0.27019  -0.25663  -0.23649
 Alpha  occ. eigenvalues --   -0.22907  -0.22262  -0.20982  -0.20516  -0.18741
 Alpha  occ. eigenvalues --   -0.16529  -0.14014
 Alpha virt. eigenvalues --    0.07109   0.09330   0.09412   0.11183   0.11843
 Alpha virt. eigenvalues --    0.14084   0.14522   0.15347   0.15567   0.15715
 Alpha virt. eigenvalues --    0.16919   0.17431   0.18163   0.19369   0.19480
 Alpha virt. eigenvalues --    0.19754   0.20047   0.20320   0.20528   0.22534
 Alpha virt. eigenvalues --    0.22810   0.23847   0.24545   0.24647   0.25421
 Alpha virt. eigenvalues --    0.26623   0.27673   0.28105   0.28982   0.29280
 Alpha virt. eigenvalues --    0.30020   0.31148   0.31616   0.32585   0.32780
 Alpha virt. eigenvalues --    0.32826   0.33713   0.34335   0.34778   0.35565
 Alpha virt. eigenvalues --    0.36034   0.36536   0.37721   0.38591   0.38606
 Alpha virt. eigenvalues --    0.38983   0.39500   0.40360   0.40609   0.41339
 Alpha virt. eigenvalues --    0.41727   0.42198   0.42737   0.43692   0.43809
 Alpha virt. eigenvalues --    0.46081   0.46529   0.47532   0.47962   0.48299
 Alpha virt. eigenvalues --    0.49394   0.50358   0.50940   0.52011   0.52290
 Alpha virt. eigenvalues --    0.52793   0.53750   0.54625   0.55891   0.56802
 Alpha virt. eigenvalues --    0.60500   0.62454   0.64946   0.65763   0.68873
 Alpha virt. eigenvalues --    0.74791   0.75671   0.76574   0.77600   0.79072
 Alpha virt. eigenvalues --    0.79718   0.80444   0.82899   0.84100   0.84660
 Alpha virt. eigenvalues --    0.85188   0.85939   0.89357   0.90825   0.95193
 Alpha virt. eigenvalues --    0.95898   0.98364   0.98597   1.01485   1.05840
 Alpha virt. eigenvalues --    1.06879   1.08592   1.10174   1.10821   1.14157
 Alpha virt. eigenvalues --    1.15367   1.15902   1.16913   1.18122   1.18328
 Alpha virt. eigenvalues --    1.20316   1.20831   1.22406   1.23274   1.24284
 Alpha virt. eigenvalues --    1.24994   1.26559   1.27469   1.28848   1.30933
 Alpha virt. eigenvalues --    1.34635   1.35553   1.37342   1.38572   1.39925
 Alpha virt. eigenvalues --    1.40509   1.41885   1.43395   1.43995   1.46830
 Alpha virt. eigenvalues --    1.47973   1.51680   1.52506   1.54043   1.55659
 Alpha virt. eigenvalues --    1.56070   1.57058   1.57376   1.58057   1.59832
 Alpha virt. eigenvalues --    1.60457   1.62869   1.64532   1.67401   1.69953
 Alpha virt. eigenvalues --    1.74522   1.79535   1.80904   1.84396   1.87720
 Alpha virt. eigenvalues --    1.91328   1.93083   1.93998   1.95260   1.96537
 Alpha virt. eigenvalues --    1.97783   1.99631   2.00225   2.02996   2.04133
 Alpha virt. eigenvalues --    2.05263   2.06084   2.08661   2.10458   2.12561
 Alpha virt. eigenvalues --    2.17349   2.18788   2.22045   2.23571   2.24676
 Alpha virt. eigenvalues --    2.26515   2.33947   2.34642   2.36179   2.38542
 Alpha virt. eigenvalues --    2.42193   2.43765   2.46412   2.49038   2.50091
 Alpha virt. eigenvalues --    2.51775   2.52726   2.56582   2.57805   2.59838
 Alpha virt. eigenvalues --    2.60516   2.70209   2.71340   2.78833   2.79823
 Alpha virt. eigenvalues --    2.89291   2.93171   2.95341   3.05519   3.06707
 Alpha virt. eigenvalues --    3.10564   3.18164   3.23784   3.28435   3.36244
 Alpha virt. eigenvalues --    4.11867   4.14470   4.19803   4.25323   4.30219
 Alpha virt. eigenvalues --    4.34942   4.37880   4.42120   4.42805   4.50059
 Alpha virt. eigenvalues --    4.56594   4.58972   4.71387
          Condensed to atoms (all electrons):
               1          2          3          4          5          6
     1  C   12.134897  -2.030970   0.043504  -2.524436  -0.682330  -0.116946
     2  C   -2.030970   9.816020   0.055274  -0.311142  -0.957933  -0.058771
     3  N    0.043504   0.055274   7.679845  -0.086509   0.014631   0.000402
     4  S   -2.524436  -0.311142  -0.086509  18.893958  -0.655366  -0.004980
     5  S   -0.682330  -0.957933   0.014631  -0.655366  16.417103   0.243783
     6  O   -0.116946  -0.058771   0.000402  -0.004980   0.243783   8.897126
     7  O   -0.128920   0.070313  -0.002148   0.168753   0.001902  -0.150818
     8  N    0.040954   0.002592   0.000886   0.072014   0.000827  -0.228687
     9  H   -0.099084  -0.004919  -0.000024  -0.000344   0.147892  -0.013293
    10  C   -0.188507  -0.497891   0.077784   0.123313  -0.016066   0.001409
    11  O    0.021164  -0.027458  -0.148602  -0.029527  -0.002713  -0.000042
    12  C    0.171581  -0.024459  -0.227860  -0.288523   0.006999   0.000291
    13  N   -1.165307   1.842674  -0.184744  -0.247368  -0.472292  -0.007670
    14  N    1.301930  -1.389405   0.057793  -0.002883   0.473000   0.017539
    15  H    0.022556   0.006077   0.229193  -0.015622   0.000969   0.000002
    16  H   -0.000570  -0.007138  -0.000711   0.000828  -0.000011   0.000000
    17  H    0.000186  -0.004313   0.002746  -0.001617   0.000004   0.000000
    18  H    0.001721   0.030096   0.011230   0.000133   0.000042   0.000000
               7          8          9         10         11         12
     1  C   -0.128920   0.040954  -0.099084  -0.188507   0.021164   0.171581
     2  C    0.070313   0.002592  -0.004919  -0.497891  -0.027458  -0.024459
     3  N   -0.002148   0.000886  -0.000024   0.077784  -0.148602  -0.227860
     4  S    0.168753   0.072014  -0.000344   0.123313  -0.029527  -0.288523
     5  S    0.001902   0.000827   0.147892  -0.016066  -0.002713   0.006999
     6  O   -0.150818  -0.228687  -0.013293   0.001409  -0.000042   0.000291
     7  O    8.928067  -0.220974   0.020245   0.004998  -0.000038   0.000724
     8  N   -0.220974   7.972005   0.170004   0.000925  -0.000019   0.000130
     9  H    0.020245   0.170004   0.428602  -0.000003  -0.000000  -0.000001
    10  C    0.004998   0.000925  -0.000003   6.682961   0.475482  -1.124796
    11  O   -0.000038  -0.000019  -0.000000   0.475482   8.241806  -0.042891
    12  C    0.000724   0.000130  -0.000001  -1.124796  -0.042891   7.244318
    13  N    0.033078  -0.052243   0.006586   0.007824  -0.002575  -0.003008
    14  N   -0.039422   0.046461  -0.001445  -0.010939   0.008756   0.037723
    15  H    0.000000   0.000003  -0.000000  -0.066917   0.006065   0.045226
    16  H   -0.000000  -0.000000   0.000000  -0.040454  -0.003906   0.397574
    17  H    0.000000   0.000000   0.000000  -0.096749  -0.004768   0.454477
    18  H   -0.000000   0.000000  -0.000000  -0.098572   0.006862   0.387904
              13         14         15         16         17         18
     1  C   -1.165307   1.301930   0.022556  -0.000570   0.000186   0.001721
     2  C    1.842674  -1.389405   0.006077  -0.007138  -0.004313   0.030096
     3  N   -0.184744   0.057793   0.229193  -0.000711   0.002746   0.011230
     4  S   -0.247368  -0.002883  -0.015622   0.000828  -0.001617   0.000133
     5  S   -0.472292   0.473000   0.000969  -0.000011   0.000004   0.000042
     6  O   -0.007670   0.017539   0.000002   0.000000   0.000000   0.000000
     7  O    0.033078  -0.039422   0.000000  -0.000000   0.000000  -0.000000
     8  N   -0.052243   0.046461   0.000003  -0.000000   0.000000   0.000000
     9  H    0.006586  -0.001445  -0.000000   0.000000   0.000000  -0.000000
    10  C    0.007824  -0.010939  -0.066917  -0.040454  -0.096749  -0.098572
    11  O   -0.002575   0.008756   0.006065  -0.003906  -0.004768   0.006862
    12  C   -0.003008   0.037723   0.045226   0.397574   0.454477   0.387904
    13  N    9.397241  -2.141056  -0.002811   0.000037  -0.000030  -0.000299
    14  N   -2.141056   8.823254   0.024563   0.000112   0.000105  -0.000342
    15  H   -0.002811   0.024563   0.303687   0.000073   0.000022   0.001969
    16  H    0.000037   0.000112   0.000073   0.450795  -0.021267  -0.024637
    17  H   -0.000030   0.000105   0.000022  -0.021267   0.446803  -0.024403
    18  H   -0.000299  -0.000342   0.001969  -0.024637  -0.024403   0.502653
 Mulliken charges:
               1
     1  C   -0.801424
     2  C   -0.508645
     3  N   -0.522693
     4  S    0.909319
     5  S    1.479561
     6  O   -0.579346
     7  O   -0.685761
     8  N   -0.804879
     9  H    0.345785
    10  C    0.766198
    11  O   -0.497595
    12  C   -1.035410
    13  N   -0.008036
    14  N   -0.205745
    15  H    0.444945
    16  H    0.249276
    17  H    0.248805
    18  H    0.205644
 Sum of Mulliken charges =  -1.00000
 Mulliken charges with hydrogens summed into heavy atoms:
               1
     1  C   -0.801424
     2  C   -0.508645
     3  N   -0.077747
     4  S    0.909319
     5  S    1.479561
     6  O   -0.579346
     7  O   -0.685761
     8  N   -0.459095
    10  C    0.766198
    11  O   -0.497595
    12  C   -0.331685
    13  N   -0.008036
    14  N   -0.205745
 Electronic spatial extent (au):  <R**2>=           3629.3561
 Charge=             -1.0000 electrons
 Dipole moment (field-independent basis, Debye):
    X=             15.4287    Y=              2.9761    Z=              0.0690  Tot=             15.7133
 Quadrupole moment (field-independent basis, Debye-Ang):
   XX=           -120.9685   YY=           -108.9753   ZZ=           -100.9647
   XY=              1.1436   XZ=             -0.4545   YZ=              2.5318
 Traceless Quadrupole moment (field-independent basis, Debye-Ang):
   XX=            -10.6657   YY=              1.3275   ZZ=              9.3382
   XY=              1.1436   XZ=             -0.4545   YZ=              2.5318
 Octapole moment (field-independent basis, Debye-Ang**2):
  XXX=            223.7272  YYY=             -3.9545  ZZZ=             -9.6898  XYY=              8.5823
  XXY=             52.7342  XXZ=             -0.5977  XZZ=             35.4029  YZZ=             -3.7398
  YYZ=              1.6085  XYZ=             -9.5449
 Hexadecapole moment (field-independent basis, Debye-Ang**3):
 XXXX=          -4130.7131 YYYY=           -698.0692 ZZZZ=           -270.0909 XXXY=             -5.3764
 XXXZ=             15.9475 YYYX=              0.0105 YYYZ=              3.3779 ZZZX=             28.8638
 ZZZY=              3.7968 XXYY=           -810.8544 XXZZ=           -803.6285 YYZZ=           -143.8774
 XXYZ=             36.4793 YYXZ=             -3.5399 ZZXY=             -9.2318
 N-N= 1.044263527116D+03 E-N=-5.397876325127D+03  KE= 1.388752987313D+03
 Calling FoFJK, ICntrl=      2127 FMM=F ISym2X=0 I1Cent= 0 IOpClX= 0 NMat=1 NMatS=1 NMatT=0.
 ***** Axes restored to original set *****
 -------------------------------------------------------------------
 Center     Atomic                   Forces (Hartrees/Bohr)
 Number     Number              X              Y              Z
 -------------------------------------------------------------------
      1        6          -0.001154215    0.003376387   -0.001043970
      2        6           0.019714452    0.000560416   -0.002413109
      3        7          -0.020381627    0.004363366    0.001608281
      4       16           0.001349484   -0.001081643    0.000178138
      5       16           0.026095098   -0.013052124    0.013025379
      6        8          -0.008416329   -0.000825969   -0.006800233
      7        8          -0.006454623    0.007958660   -0.002495364
      8        7          -0.003977141    0.002727342   -0.005660223
      9        1          -0.000634252   -0.001080748    0.002718286
     10        6           0.021296955   -0.013187477   -0.000734579
     11        8          -0.013891230    0.010725683   -0.000254256
     12        6          -0.004689851   -0.000472775    0.001686823
     13        7          -0.004239168    0.003771359   -0.000551892
     14        7          -0.006632318   -0.002753056    0.001328087
     15        1           0.005007701   -0.002615968   -0.000127414
     16        1          -0.000895711    0.000133637   -0.000626563
     17        1          -0.000284694    0.000576552    0.000369809
     18        1          -0.001812530    0.000876358   -0.000207200
 -------------------------------------------------------------------
 Cartesian Forces:  Max     0.026095098 RMS     0.007755121

 GradGradGradGradGradGradGradGradGradGradGradGradGradGradGradGradGradGrad
 Berny optimization.
 FormGI is forming the generalized inverse of G from B-inverse, IUseBI=4.
 Internal  Forces:  Max     0.015747240 RMS     0.005032730
 Search for a local minimum.
 Step number   1 out of a maximum of   88
 All quantities printed in internal units (Hartrees-Bohrs-Radians)
 Mixed Optimization -- RFO/linear search
 Second derivative matrix not updated -- first step.
 ITU=  0
     Eigenvalues ---    0.00230   0.00793   0.00991   0.01285   0.01911
     Eigenvalues ---    0.01997   0.02008   0.02038   0.02066   0.02537
     Eigenvalues ---    0.03292   0.07182   0.07762   0.10490   0.12168
     Eigenvalues ---    0.16000   0.16000   0.16000   0.16000   0.16000
     Eigenvalues ---    0.16767   0.21544   0.22000   0.24990   0.24996
     Eigenvalues ---    0.24998   0.25000   0.25000   0.25000   0.25000
     Eigenvalues ---    0.25183   0.31336   0.31701   0.32592   0.34314
     Eigenvalues ---    0.34516   0.34740   0.43825   0.44681   0.49817
     Eigenvalues ---    0.50140   0.50654   0.61203   0.62472   0.67668
     Eigenvalues ---    0.81431   0.82762   0.91477
 RFO step:  Lambda=-6.98789087D-03 EMin= 2.30000000D-03
 Linear search not attempted -- first point.
 Iteration  1 RMS(Cart)=  0.08734998 RMS(Int)=  0.00222571
 Iteration  2 RMS(Cart)=  0.00372633 RMS(Int)=  0.00039723
 Iteration  3 RMS(Cart)=  0.00000369 RMS(Int)=  0.00039723
 Iteration  4 RMS(Cart)=  0.00000000 RMS(Int)=  0.00039723
 Variable       Old X    -DE/DX   Delta X   Delta X   Delta X     New X
                                 (Linear)    (Quad)   (Total)
    R1        3.27477   0.00238   0.00000   0.00843   0.00843   3.28320
    R2        3.42445   0.00758   0.00000   0.02929   0.02929   3.45373
    R3        2.43934   0.00398   0.00000   0.00626   0.00627   2.44561
    R4        2.60050   0.01575   0.00000   0.03117   0.03117   2.63168
    R5        3.27899   0.00061   0.00000   0.00086   0.00086   3.27985
    R6        2.46958  -0.00524   0.00000  -0.00865  -0.00865   2.46093
    R7        2.59211   0.00129   0.00000   0.00251   0.00251   2.59462
    R8        1.92348  -0.00453   0.00000  -0.00999  -0.00999   1.91349
    R9        2.80853  -0.00919   0.00000  -0.01119  -0.01119   2.79734
   R10        2.80159  -0.00751   0.00000  -0.00899  -0.00899   2.79260
   R11        2.92736   0.00144   0.00000   0.00228   0.00228   2.92965
   R12        1.93365  -0.00156   0.00000  -0.00351  -0.00351   1.93013
   R13        2.32260  -0.01556   0.00000  -0.01688  -0.01688   2.30571
   R14        2.83074   0.00785   0.00000   0.02357   0.02357   2.85431
   R15        2.06803  -0.00041   0.00000  -0.00116  -0.00116   2.06687
   R16        2.06468  -0.00045   0.00000  -0.00128  -0.00128   2.06340
   R17        2.06100   0.00136   0.00000   0.00383   0.00383   2.06482
   R18        2.58169  -0.00015   0.00000  -0.00036  -0.00036   2.58133
    A1        2.13143  -0.00460   0.00000  -0.01941  -0.01941   2.11202
    A2        2.00888  -0.00198   0.00000  -0.00487  -0.00487   2.00401
    A3        2.14238   0.00658   0.00000   0.02411   0.02410   2.16648
    A4        2.17112   0.01058   0.00000   0.04256   0.04256   2.21369
    A5        2.10728  -0.01186   0.00000  -0.04476  -0.04475   2.06252
    A6        2.00478   0.00128   0.00000   0.00219   0.00219   2.00697
    A7        2.17683   0.01236   0.00000   0.05443   0.05443   2.23126
    A8        2.02292  -0.00942   0.00000  -0.04664  -0.04664   1.97628
    A9        2.08342  -0.00293   0.00000  -0.00779  -0.00779   2.07563
   A10        1.49076  -0.00022   0.00000  -0.00031  -0.00031   1.49044
   A11        1.78960  -0.00352   0.00000  -0.02555  -0.02562   1.76398
   A12        1.76943  -0.00784   0.00000  -0.04487  -0.04493   1.72450
   A13        1.91501  -0.00650   0.00000  -0.03975  -0.03995   1.87506
   A14        2.00617   0.00482   0.00000   0.04088   0.03916   2.04532
   A15        2.02879   0.00386   0.00000   0.01989   0.01829   2.04708
   A16        1.92843   0.00555   0.00000   0.02790   0.02597   1.95440
   A17        1.89516  -0.00486   0.00000  -0.02910  -0.02910   1.86606
   A18        2.10458   0.01185   0.00000   0.04611   0.04610   2.15068
   A19        2.02649  -0.00484   0.00000  -0.01885  -0.01886   2.00763
   A20        2.15205  -0.00701   0.00000  -0.02727  -0.02727   2.12478
   A21        1.88762   0.00107   0.00000   0.00677   0.00674   1.89435
   A22        1.89466   0.00018   0.00000   0.00017   0.00016   1.89482
   A23        1.96631   0.00187   0.00000   0.01179   0.01175   1.97807
   A24        1.88733  -0.00083   0.00000  -0.00627  -0.00627   1.88106
   A25        1.90777  -0.00118   0.00000  -0.00531  -0.00537   1.90239
   A26        1.91833  -0.00117   0.00000  -0.00759  -0.00759   1.91073
   A27        1.96868  -0.00054   0.00000   0.00007   0.00007   1.96875
   A28        1.95167   0.00146   0.00000   0.00292   0.00291   1.95458
    D1       -3.11162  -0.00003   0.00000   0.00439   0.00430  -3.10732
    D2       -0.00286   0.00002   0.00000  -0.00071  -0.00070  -0.00356
    D3       -2.11015  -0.00050   0.00000   0.00926   0.00942  -2.10073
    D4       -0.03245   0.00061   0.00000   0.02810   0.02778  -0.00467
    D5        2.00678   0.00033   0.00000   0.02106   0.02121   2.02799
    D6        1.06680  -0.00037   0.00000   0.01539   0.01556   1.08235
    D7       -3.13869   0.00074   0.00000   0.03423   0.03392  -3.10477
    D8       -1.09946   0.00046   0.00000   0.02718   0.02734  -1.07212
    D9        0.00463  -0.00000   0.00000   0.00119   0.00119   0.00582
   D10        3.11316  -0.00019   0.00000  -0.00486  -0.00493   3.10823
   D11        0.00008   0.00001   0.00000   0.00090   0.00089   0.00097
   D12        3.13662   0.00001   0.00000   0.00024   0.00023   3.13685
   D13       -3.13938   0.00000   0.00000   0.00010   0.00011  -3.13927
   D14       -0.00284  -0.00001   0.00000  -0.00056  -0.00056  -0.00339
   D15       -3.13921  -0.00002   0.00000  -0.00066  -0.00068  -3.13989
   D16        0.00035  -0.00002   0.00000   0.00004   0.00003   0.00039
   D17       -3.14151   0.00006   0.00000   0.00137   0.00136  -3.14015
   D18        0.00203   0.00003   0.00000   0.00059   0.00061   0.00264
   D19       -0.00628   0.00001   0.00000  -0.00059  -0.00056  -0.00683
   D20        3.12354  -0.00011   0.00000  -0.00296  -0.00299   3.12055
   D21        3.14053   0.00004   0.00000   0.00019   0.00023   3.14076
   D22       -0.01284  -0.00009   0.00000  -0.00217  -0.00221  -0.01505
   D23        1.36940   0.00132   0.00000   0.01055   0.01064   1.38004
   D24       -0.65011   0.00807   0.00000   0.05931   0.06042  -0.58968
   D25       -2.97713  -0.00858   0.00000  -0.04954  -0.05075  -3.02789
   D26       -1.95800  -0.00026   0.00000  -0.00265  -0.00270  -1.96070
   D27        2.28134   0.00005   0.00000   0.00100   0.00098   2.28232
   D28        0.15257   0.00018   0.00000   0.00276   0.00276   0.15533
   D29        1.17145  -0.00025   0.00000  -0.00454  -0.00454   1.16691
   D30       -0.87239   0.00006   0.00000  -0.00089  -0.00087  -0.87326
   D31       -3.00115   0.00019   0.00000   0.00087   0.00091  -3.00024
   D32       -0.00423  -0.00002   0.00000  -0.00114  -0.00116  -0.00538
         Item               Value     Threshold  Converged?
 Maximum Force            0.015747     0.000450     NO 
 RMS     Force            0.005033     0.000300     NO 
 Maximum Displacement     0.304955     0.001800     NO 
 RMS     Displacement     0.087439     0.001200     NO 
 Predicted change in Energy=-3.640387D-03
 GradGradGradGradGradGradGradGradGradGradGradGradGradGradGradGradGradGrad

                          Input orientation:                          
 ---------------------------------------------------------------------
 Center     Atomic      Atomic             Coordinates (Angstroms)
 Number     Number       Type             X           Y           Z
 ---------------------------------------------------------------------
      1          6           0        1.120905    0.399242   -0.079140
      2          6           0       -1.209232    0.662021    0.140542
      3          7           0       -2.592340    0.679407    0.302120
      4         16           0       -0.159465   -0.710202    0.305999
      5         16           0        2.851478   -0.171737   -0.218261
      6          8           0        3.506403    0.649434    0.824813
      7          8           0        2.642171   -1.603463    0.082047
      8          7           0        3.298534    0.054059   -1.685434
      9          1           0        3.525617    1.045595   -1.777695
     10          6           0       -3.416027   -0.370801    0.624249
     11          8           0       -3.009964   -1.506223    0.810397
     12          6           0       -4.879186   -0.018942    0.753798
     13          7           0        0.738345    1.616576   -0.295011
     14          7           0       -0.611902    1.777931   -0.165790
     15          1           0       -2.999471    1.595732    0.161064
     16          1           0       -5.171432   -0.127428    1.802175
     17          1           0       -5.461786   -0.734155    0.169589
     18          1           0       -5.111109    0.996315    0.423095
 ---------------------------------------------------------------------
                    Distance matrix (angstroms):
                    1          2          3          4          5
     1  C    0.000000
     2  C    2.355175   0.000000
     3  N    3.743266   1.392623   0.000000
     4  S    1.737396   1.735622   2.801769   0.000000
     5  S    1.827637   4.160921   5.534474   3.103316   0.000000
     6  O    2.563265   4.765039   6.121174   3.944156   1.480288
     7  O    2.520131   4.468685   5.714896   2.949108   1.477780
     8  N    2.727893   4.901404   6.248506   4.062961   1.550303
     9  H    3.014216   5.123041   6.472180   4.583058   2.090022
    10  C    4.655263   2.484077   1.373013   3.289631   6.327011
    11  O    4.635316   2.897003   2.282484   3.002235   6.098811
    12  C    6.072047   3.782639   2.433386   4.791047   7.793036
    13  N    1.294161   2.212225   3.511170   2.565379   2.769347
    14  N    2.216057   1.302266   2.312538   2.572565   3.974790
    15  H    4.297299   2.019206   1.012573   3.661143   6.123842
    16  H    6.588644   4.368441   3.090770   5.262887   8.273524
    17  H    6.684181   4.475977   3.201475   5.304130   8.341289
    18  H    6.280664   3.926351   2.541508   5.238768   8.073319
                    6          7          8          9         10
     6  O    0.000000
     7  O    2.524706   0.000000
     8  N    2.588247   2.510414   0.000000
     9  H    2.632558   3.355089   1.021382   0.000000
    10  C    7.000082   6.206062   7.113401   7.480771   0.000000
    11  O    6.863680   5.699701   6.961379   7.478222   1.220131
    12  C    8.412483   7.715748   8.534066   8.842081   1.510437
    13  N    3.138712   3.759704   3.305950   3.208310   4.696117
    14  N    4.383518   4.699387   4.535698   4.500401   3.619991
    15  H    6.607756   6.486079   6.741749   6.829217   2.062841
    16  H    8.767187   8.135718   9.161696   9.477874   2.127953
    17  H    9.097915   8.150920   8.989194   9.366581   2.126939
    18  H    8.633842   8.184652   8.721000   8.912853   2.186955
                   11         12         13         14         15
    11  O    0.000000
    12  C    2.389392   0.000000
    13  N    5.002362   5.944037   0.000000
    14  N    4.182023   4.720605   1.365980   0.000000
    15  H    3.169206   2.547909   3.765595   2.416716   0.000000
    16  H    2.748934   1.093741   6.508856   5.319078   3.221791
    17  H    2.649180   1.091903   6.647061   5.472151   3.389903
    18  H    3.290518   1.092658   5.925919   4.604409   2.210652
                   16         17         18
    16  H    0.000000
    17  H    1.765717   0.000000
    18  H    1.779971   1.783750   0.000000
 Stoichiometry    C4H5N4O3S2(1-)
 Framework group  C1[X(C4H5N4O3S2)]
 Deg. of freedom    48
 Full point group                 C1      NOp   1
 Largest Abelian subgroup         C1      NOp   1
 Largest concise Abelian subgroup C1      NOp   1
                         Standard orientation:                         
 ---------------------------------------------------------------------
 Center     Atomic      Atomic             Coordinates (Angstroms)
 Number     Number       Type             X           Y           Z
 ---------------------------------------------------------------------
      1          6           0       -1.066325    0.367111   -0.034919
      2          6           0        1.268016    0.677743   -0.000118
      3          7           0        2.659872    0.720226    0.018102
      4         16           0        0.270532   -0.742463   -0.020683
      5         16           0       -2.791227   -0.236442   -0.008605
      6          8           0       -3.311610    0.335139   -1.271043
      7          8           0       -2.522211   -1.689347    0.014433
      8          7           0       -3.435289    0.255427    1.313018
      9          1           0       -3.687363    1.235416    1.174089
     10          6           0        3.534895   -0.337827    0.022647
     11          8           0        3.174458   -1.503494    0.017547
     12          6           0        4.996801    0.041904    0.015114
     13          7           0       -0.734391    1.617897   -0.020447
     14          7           0        0.618417    1.806416   -0.003972
     15          1           0        3.030683    1.662444    0.023568
     16          1           0        5.429289   -0.258915   -0.943390
     17          1           0        5.505825   -0.519343    0.801338
     18          1           0        5.166995    1.111151    0.162239
 ---------------------------------------------------------------------
 Rotational constants (GHZ):           1.9370512           0.3135939           0.2860852
 Basis read from rwf:  (6D, 7F)
 There are   265 symmetry adapted cartesian basis functions of A   symmetry.
 There are   265 symmetry adapted basis functions of A   symmetry.
   265 basis functions,   484 primitive gaussians,   265 cartesian basis functions
    57 alpha electrons       57 beta electrons
       nuclear repulsion energy      1038.4185823246 Hartrees.
 NAtoms=   18 NActive=   18 NUniq=   18 SFac= 1.00D+00 NAtFMM=   60 NAOKFM=F Big=F
 Integral buffers will be    131072 words long.
 Raffenetti 2 integral format.
 Two-electron integral symmetry is turned on.
 One-electron integrals computed using PRISM.
 NBasis=   265 RedAO= T EigKep=  1.03D-05  NBF=   265
 NBsUse=   265 1.00D-06 EigRej= -1.00D+00 NBFU=   265
 Initial guess from the checkpoint file:  "/jobfs/40781022.gadi-pbs/Gau-1007247.chk"
 B after Tr=    -0.000000   -0.000000   -0.000000
         Rot=    0.999988    0.004533   -0.000189   -0.002056 Ang=   0.57 deg.
 ExpMin= 4.05D-02 ExpMax= 2.19D+04 ExpMxC= 3.30D+03 IAcc=3 IRadAn=         5 AccDes= 0.00D+00
 Harris functional with IExCor= 1009 and IRadAn=       5 diagonalized for initial guess.
 HarFok:  IExCor= 1009 AccDes= 0.00D+00 IRadAn=         5 IDoV= 1 UseB2=F ITyADJ=14
 ICtDFT=  3500011 ScaDFX=  1.000000  1.000000  1.000000  1.000000
 FoFCou: FMM=F IPFlag=           0 FMFlag=      100000 FMFlg1=           0
         NFxFlg=           0 DoJE=T BraDBF=F KetDBF=T FulRan=T
         wScrn=  0.000000 ICntrl=       500 IOpCl=  0 I1Cent=   200000004 NGrid=           0
         NMat0=    1 NMatS0=      1 NMatT0=    0 NMatD0=    1 NMtDS0=    0 NMtDT0=    0
 Petite list used in FoFCou.
 Requested convergence on RMS density matrix=1.00D-08 within 128 cycles.
 Requested convergence on MAX density matrix=1.00D-06.
 Requested convergence on             energy=1.00D-06.
 No special actions if energy rises.
 SCF Done:  E(RM062X) =  -1396.18283683     A.U. after   14 cycles
            NFock= 14  Conv=0.31D-08     -V/T= 2.0054
 Calling FoFJK, ICntrl=      2127 FMM=F ISym2X=0 I1Cent= 0 IOpClX= 0 NMat=1 NMatS=1 NMatT=0.
 ***** Axes restored to original set *****
 -------------------------------------------------------------------
 Center     Atomic                   Forces (Hartrees/Bohr)
 Number     Number              X              Y              Z
 -------------------------------------------------------------------
      1        6          -0.001572334    0.007161581   -0.001677817
      2        6           0.004249978   -0.001906205    0.000000652
      3        7          -0.006478305   -0.002983430    0.001338416
      4       16          -0.005055974    0.000000925    0.000593728
      5       16          -0.000625944   -0.001436290    0.005336560
      6        8           0.000192930   -0.004075078   -0.004273934
      7        8           0.004044664    0.002463446   -0.001022131
      8        7           0.000816987   -0.001628565   -0.000193002
      9        1           0.001012222    0.000438112    0.000713210
     10        6           0.007277498   -0.002741608   -0.000157541
     11        8           0.000885368    0.004009707   -0.000994191
     12        6          -0.002367354    0.001591550    0.000206840
     13        7          -0.001714793   -0.001885665    0.000635431
     14        7          -0.001547474    0.000165594    0.000064398
     15        1           0.001265948    0.000805577   -0.000343927
     16        1           0.000150928    0.000015468   -0.000019367
     17        1           0.000107379   -0.000071182   -0.000213673
     18        1          -0.000641726    0.000076064    0.000006348
 -------------------------------------------------------------------
 Cartesian Forces:  Max     0.007277498 RMS     0.002545798

 GradGradGradGradGradGradGradGradGradGradGradGradGradGradGradGradGradGrad
 Berny optimization.
 Using GEDIIS/GDIIS optimizer.
 FormGI is forming the generalized inverse of G from B-inverse, IUseBI=4.
 Internal  Forces:  Max     0.006430453 RMS     0.002142754
 Search for a local minimum.
 Step number   2 out of a maximum of   88
 All quantities printed in internal units (Hartrees-Bohrs-Radians)
 Mixed Optimization -- RFO/linear search
 Update second derivatives using D2CorX and points    1    2
 DE= -2.69D-03 DEPred=-3.64D-03 R= 7.39D-01
 TightC=F SS=  1.41D+00  RLast= 1.85D-01 DXNew= 5.0454D-01 5.5561D-01
 Trust test= 7.39D-01 RLast= 1.85D-01 DXMaxT set to 5.05D-01
 ITU=  1  0
 Use linear search instead of GDIIS.
     Eigenvalues ---    0.00231   0.00793   0.00998   0.01313   0.01917
     Eigenvalues ---    0.01969   0.02008   0.02038   0.02066   0.02536
     Eigenvalues ---    0.03280   0.07079   0.07716   0.11183   0.12828
     Eigenvalues ---    0.15252   0.16000   0.16000   0.16000   0.16000
     Eigenvalues ---    0.17627   0.21055   0.21859   0.23208   0.24995
     Eigenvalues ---    0.24998   0.24999   0.25000   0.25000   0.25080
     Eigenvalues ---    0.29919   0.31631   0.32232   0.33678   0.34315
     Eigenvalues ---    0.34527   0.34742   0.43856   0.44691   0.48963
     Eigenvalues ---    0.50146   0.52453   0.61027   0.62475   0.67718
     Eigenvalues ---    0.80100   0.82463   0.90140
 RFO step:  Lambda=-8.75771986D-04 EMin= 2.30517362D-03
 Quartic linear search produced a step of -0.16583.
 Iteration  1 RMS(Cart)=  0.02693679 RMS(Int)=  0.00022429
 Iteration  2 RMS(Cart)=  0.00039392 RMS(Int)=  0.00002928
 Iteration  3 RMS(Cart)=  0.00000004 RMS(Int)=  0.00002928
 Variable       Old X    -DE/DX   Delta X   Delta X   Delta X     New X
                                 (Linear)    (Quad)   (Total)
    R1        3.28320   0.00242  -0.00140   0.00883   0.00743   3.29064
    R2        3.45373   0.00643  -0.00486   0.02947   0.02462   3.47835
    R3        2.44561  -0.00041  -0.00104   0.00147   0.00043   2.44604
    R4        2.63168  -0.00021  -0.00517   0.00870   0.00354   2.63521
    R5        3.27985  -0.00361  -0.00014  -0.00937  -0.00951   3.27034
    R6        2.46093  -0.00100   0.00143  -0.00392  -0.00248   2.45845
    R7        2.59462  -0.00572  -0.00042  -0.00866  -0.00907   2.58555
    R8        1.91349   0.00027   0.00166  -0.00240  -0.00074   1.91275
    R9        2.79734  -0.00519   0.00186  -0.00859  -0.00673   2.79061
   R10        2.79260  -0.00317   0.00149  -0.00583  -0.00434   2.78826
   R11        2.92965  -0.00014  -0.00038   0.00049   0.00011   2.92976
   R12        1.93013   0.00059   0.00058   0.00010   0.00068   1.93081
   R13        2.30571  -0.00359   0.00280  -0.00823  -0.00543   2.30028
   R14        2.85431   0.00304  -0.00391   0.01449   0.01058   2.86489
   R15        2.06687  -0.00006   0.00019  -0.00048  -0.00028   2.06659
   R16        2.06340   0.00010   0.00021  -0.00012   0.00010   2.06349
   R17        2.06482   0.00020  -0.00063   0.00158   0.00095   2.06577
   R18        2.58133   0.00073   0.00006   0.00108   0.00115   2.58247
    A1        2.11202  -0.00279   0.00322  -0.01496  -0.01174   2.10028
    A2        2.00401  -0.00144   0.00081  -0.00561  -0.00481   1.99920
    A3        2.16648   0.00423  -0.00400   0.02066   0.01666   2.18314
    A4        2.21369  -0.00377  -0.00706  -0.00020  -0.00726   2.20643
    A5        2.06252   0.00186   0.00742  -0.00618   0.00124   2.06376
    A6        2.00697   0.00190  -0.00036   0.00638   0.00602   2.01299
    A7        2.23126  -0.00596  -0.00903  -0.00722  -0.01624   2.21502
    A8        1.97628   0.00153   0.00773  -0.00921  -0.00147   1.97480
    A9        2.07563   0.00443   0.00129   0.01643   0.01772   2.09335
   A10        1.49044  -0.00001   0.00005  -0.00027  -0.00022   1.49022
   A11        1.76398   0.00311   0.00425   0.00964   0.01390   1.77788
   A12        1.72450   0.00405   0.00745   0.00800   0.01545   1.73995
   A13        1.87506   0.00170   0.00663   0.00052   0.00720   1.88226
   A14        2.04532  -0.00127  -0.00649  -0.00022  -0.00671   2.03862
   A15        2.04708  -0.00246  -0.00303  -0.00723  -0.01016   2.03692
   A16        1.95440  -0.00243  -0.00431  -0.00508  -0.00923   1.94517
   A17        1.86606  -0.00099   0.00483  -0.01307  -0.00825   1.85781
   A18        2.15068  -0.00302  -0.00765   0.00301  -0.00464   2.14605
   A19        2.00763   0.00090   0.00313  -0.00233   0.00080   2.00843
   A20        2.12478   0.00212   0.00452  -0.00066   0.00387   2.12865
   A21        1.89435  -0.00031  -0.00112   0.00026  -0.00085   1.89350
   A22        1.89482  -0.00044  -0.00003  -0.00251  -0.00253   1.89229
   A23        1.97807   0.00101  -0.00195   0.00870   0.00676   1.98483
   A24        1.88106   0.00019   0.00104  -0.00134  -0.00030   1.88076
   A25        1.90239  -0.00022   0.00089  -0.00207  -0.00118   1.90122
   A26        1.91073  -0.00027   0.00126  -0.00346  -0.00219   1.90854
   A27        1.96875   0.00073  -0.00001   0.00298   0.00297   1.97172
   A28        1.95458  -0.00118  -0.00048  -0.00347  -0.00395   1.95064
    D1       -3.10732  -0.00014  -0.00071  -0.00301  -0.00368  -3.11100
    D2       -0.00356  -0.00000   0.00012  -0.00006   0.00006  -0.00351
    D3       -2.10073  -0.00036  -0.00156  -0.00262  -0.00423  -2.10496
    D4       -0.00467   0.00049  -0.00461   0.00249  -0.00204  -0.00671
    D5        2.02799   0.00011  -0.00352   0.00050  -0.00304   2.02495
    D6        1.08235  -0.00036  -0.00258  -0.00517  -0.00781   1.07454
    D7       -3.10477   0.00048  -0.00562  -0.00006  -0.00561  -3.11039
    D8       -1.07212   0.00011  -0.00453  -0.00205  -0.00661  -1.07873
    D9        0.00582  -0.00001  -0.00020  -0.00097  -0.00116   0.00465
   D10        3.10823  -0.00005   0.00082   0.00119   0.00204   3.11028
   D11        0.00097   0.00004  -0.00015   0.00176   0.00162   0.00258
   D12        3.13685   0.00003  -0.00004   0.00135   0.00131   3.13816
   D13       -3.13927   0.00003  -0.00002   0.00101   0.00099  -3.13829
   D14       -0.00339   0.00002   0.00009   0.00059   0.00068  -0.00271
   D15       -3.13989   0.00002   0.00011   0.00042   0.00054  -3.13935
   D16        0.00039   0.00003  -0.00001   0.00115   0.00115   0.00154
   D17       -3.14015  -0.00004  -0.00023  -0.00125  -0.00148   3.14156
   D18        0.00264  -0.00004  -0.00010  -0.00192  -0.00203   0.00061
   D19       -0.00683  -0.00003   0.00009  -0.00123  -0.00114  -0.00797
   D20        3.12055   0.00003   0.00050   0.00084   0.00134   3.12188
   D21        3.14076  -0.00002  -0.00004  -0.00071  -0.00075   3.14001
   D22       -0.01505   0.00005   0.00037   0.00135   0.00172  -0.01333
   D23        1.38004   0.00038  -0.00177   0.01761   0.01583   1.39587
   D24       -0.58968  -0.00333  -0.01002   0.00919  -0.00087  -0.59056
   D25       -3.02789   0.00490   0.00842   0.02494   0.03341  -2.99447
   D26       -1.96070  -0.00013   0.00045  -0.00349  -0.00304  -1.96374
   D27        2.28232   0.00005  -0.00016  -0.00068  -0.00084   2.28148
   D28        0.15533   0.00004  -0.00046  -0.00025  -0.00071   0.15463
   D29        1.16691  -0.00011   0.00075  -0.00143  -0.00067   1.16624
   D30       -0.87326   0.00006   0.00014   0.00139   0.00153  -0.87173
   D31       -3.00024   0.00006  -0.00015   0.00182   0.00166  -2.99858
   D32       -0.00538   0.00003   0.00019   0.00182   0.00202  -0.00336
         Item               Value     Threshold  Converged?
 Maximum Force            0.006430     0.000450     NO 
 RMS     Force            0.002143     0.000300     NO 
 Maximum Displacement     0.076944     0.001800     NO 
 RMS     Displacement     0.027057     0.001200     NO 
 Predicted change in Energy=-5.348795D-04
 GradGradGradGradGradGradGradGradGradGradGradGradGradGradGradGradGradGrad

                          Input orientation:                          
 ---------------------------------------------------------------------
 Center     Atomic      Atomic             Coordinates (Angstroms)
 Number     Number       Type             X           Y           Z
 ---------------------------------------------------------------------
      1          6           0        1.108804    0.420540   -0.085344
      2          6           0       -1.219614    0.687732    0.136333
      3          7           0       -2.604321    0.701902    0.300646
      4         16           0       -0.179971   -0.686466    0.296531
      5         16           0        2.843171   -0.181651   -0.217155
      6          8           0        3.523496    0.623270    0.817243
      7          8           0        2.633351   -1.610931    0.083166
      8          7           0        3.308823    0.027678   -1.681042
      9          1           0        3.566333    1.012903   -1.764574
     10          6           0       -3.404684   -0.360497    0.621166
     11          8           0       -2.973412   -1.485038    0.797598
     12          6           0       -4.879108   -0.035671    0.758721
     13          7           0        0.726304    1.639087   -0.295780
     14          7           0       -0.624160    1.803966   -0.166872
     15          1           0       -3.012027    1.618008    0.162666
     16          1           0       -5.164547   -0.156774    1.807433
     17          1           0       -5.448207   -0.760376    0.172809
     18          1           0       -5.138692    0.975679    0.435012
 ---------------------------------------------------------------------
                    Distance matrix (angstroms):
                    1          2          3          4          5
     1  C    0.000000
     2  C    2.354159   0.000000
     3  N    3.743721   1.394494   0.000000
     4  S    1.741330   1.730590   2.793753   0.000000
     5  S    1.840663   4.169773   5.542919   3.107748   0.000000
     6  O    2.585828   4.792170   6.150057   3.962602   1.476727
     7  O    2.545490   4.486872   5.729722   2.968997   1.475486
     8  N    2.746029   4.923948   6.272714   4.073387   1.550360
     9  H    3.034824   5.159891   6.514509   4.601174   2.084330
    10  C    4.634733   2.471513   1.368213   3.257364   6.306382
    11  O    4.590784   2.869496   2.272861   2.948237   6.046584
    12  C    6.064294   3.781874   2.434852   4.766450   7.785065
    13  N    1.294390   2.208710   3.510998   2.565222   2.793277
    14  N    2.218936   1.300953   2.313905   2.571828   3.995947
    15  H    4.298451   2.019616   1.012182   3.653637   6.137294
    16  H    6.578057   4.366722   3.092328   5.235399   8.259730
    17  H    6.667503   4.469825   3.200357   5.270207   8.320693
    18  H    6.293660   3.940976   2.552655   5.231713   8.091655
                    6          7          8          9         10
     6  O    0.000000
     7  O    2.514535   0.000000
     8  N    2.577255   2.500746   0.000000
     9  H    2.611403   3.342021   1.021742   0.000000
    10  C    7.000423   6.189580   7.107884   7.494869   0.000000
    11  O    6.830459   5.653500   6.920870   7.454711   1.217258
    12  C    8.428606   7.705509   8.543926   8.876486   1.516034
    13  N    3.177261   3.787221   3.344397   3.258101   4.680191
    14  N    4.423300   4.726037   4.573430   4.553973   3.610709
    15  H    6.643119   6.504050   6.773592   6.881513   2.068546
    16  H    8.779012   8.117567   9.165233   9.505560   2.132101
    17  H    9.100617   8.126688   8.985731   9.389351   2.130003
    18  H    8.677776   8.198720   8.759960   8.978699   2.196999
                   11         12         13         14         15
    11  O    0.000000
    12  C    2.394547   0.000000
    13  N    4.964226   5.944530   0.000000
    14  N    4.155326   4.727110   1.366586   0.000000
    15  H    3.167574   2.564357   3.766396   2.417661   0.000000
    16  H    2.754111   1.093590   6.507746   5.325176   3.238589
    17  H    2.653319   1.091953   6.640902   5.473816   3.404671
    18  H    3.297731   1.093160   5.947466   4.629182   2.238184
                   16         17         18
    16  H    0.000000
    17  H    1.765444   0.000000
    18  H    1.779510   1.782816   0.000000
 Stoichiometry    C4H5N4O3S2(1-)
 Framework group  C1[X(C4H5N4O3S2)]
 Deg. of freedom    48
 Full point group                 C1      NOp   1
 Largest Abelian subgroup         C1      NOp   1
 Largest concise Abelian subgroup C1      NOp   1
                         Standard orientation:                         
 ---------------------------------------------------------------------
 Center     Atomic      Atomic             Coordinates (Angstroms)
 Number     Number       Type             X           Y           Z
 ---------------------------------------------------------------------
      1          6           0       -1.056352    0.388367   -0.032678
      2          6           0        1.277744    0.693202    0.001005
      3          7           0        2.671740    0.726305    0.018100
      4         16           0        0.283810   -0.723375   -0.017678
      5         16           0       -2.786163   -0.240358   -0.010399
      6          8           0       -3.329847    0.322197   -1.262861
      7          8           0       -2.522621   -1.692004    0.007676
      8          7           0       -3.446558    0.232455    1.310186
      9          1           0       -3.723472    1.204897    1.163109
     10          6           0        3.519227   -0.347829    0.020563
     11          8           0        3.127625   -1.500365    0.015616
     12          6           0        4.995205   -0.001702    0.013851
     13          7           0       -0.718651    1.637860   -0.019608
     14          7           0        0.635046    1.824310   -0.002359
     15          1           0        3.047387    1.666182    0.023853
     16          1           0        5.420287   -0.313912   -0.944152
     17          1           0        5.488100   -0.577007    0.800261
     18          1           0        5.198103    1.062196    0.162021
 ---------------------------------------------------------------------
 Rotational constants (GHZ):           1.9312935           0.3141821           0.2862955
 Basis read from rwf:  (6D, 7F)
 There are   265 symmetry adapted cartesian basis functions of A   symmetry.
 There are   265 symmetry adapted basis functions of A   symmetry.
   265 basis functions,   484 primitive gaussians,   265 cartesian basis functions
    57 alpha electrons       57 beta electrons
       nuclear repulsion energy      1038.4080972226 Hartrees.
 NAtoms=   18 NActive=   18 NUniq=   18 SFac= 1.00D+00 NAtFMM=   60 NAOKFM=F Big=F
 Integral buffers will be    131072 words long.
 Raffenetti 2 integral format.
 Two-electron integral symmetry is turned on.
 One-electron integrals computed using PRISM.
 NBasis=   265 RedAO= T EigKep=  1.04D-05  NBF=   265
 NBsUse=   265 1.00D-06 EigRej= -1.00D+00 NBFU=   265
 Initial guess from the checkpoint file:  "/jobfs/40781022.gadi-pbs/Gau-1007247.chk"
 B after Tr=    -0.000000    0.000000   -0.000000
         Rot=    0.999999   -0.000995   -0.000026    0.000958 Ang=  -0.16 deg.
 ExpMin= 4.05D-02 ExpMax= 2.19D+04 ExpMxC= 3.30D+03 IAcc=3 IRadAn=         5 AccDes= 0.00D+00
 Harris functional with IExCor= 1009 and IRadAn=       5 diagonalized for initial guess.
 HarFok:  IExCor= 1009 AccDes= 0.00D+00 IRadAn=         5 IDoV= 1 UseB2=F ITyADJ=14
 ICtDFT=  3500011 ScaDFX=  1.000000  1.000000  1.000000  1.000000
 FoFCou: FMM=F IPFlag=           0 FMFlag=      100000 FMFlg1=           0
         NFxFlg=           0 DoJE=T BraDBF=F KetDBF=T FulRan=T
         wScrn=  0.000000 ICntrl=       500 IOpCl=  0 I1Cent=   200000004 NGrid=           0
         NMat0=    1 NMatS0=      1 NMatT0=    0 NMatD0=    1 NMtDS0=    0 NMtDT0=    0
 Petite list used in FoFCou.
 Requested convergence on RMS density matrix=1.00D-08 within 128 cycles.
 Requested convergence on MAX density matrix=1.00D-06.
 Requested convergence on             energy=1.00D-06.
 No special actions if energy rises.
 SCF Done:  E(RM062X) =  -1396.18342864     A.U. after   12 cycles
            NFock= 12  Conv=0.79D-08     -V/T= 2.0054
 Calling FoFJK, ICntrl=      2127 FMM=F ISym2X=0 I1Cent= 0 IOpClX= 0 NMat=1 NMatS=1 NMatT=0.
 ***** Axes restored to original set *****
 -------------------------------------------------------------------
 Center     Atomic                   Forces (Hartrees/Bohr)
 Number     Number              X              Y              Z
 -------------------------------------------------------------------
      1        6          -0.000106725    0.003862641   -0.000459827
      2        6           0.000647900   -0.001678177    0.000237089
      3        7          -0.001395667   -0.000611776    0.000216444
      4       16          -0.002063167   -0.000660561    0.000461409
      5       16           0.002855635   -0.002734601    0.001681742
      6        8          -0.001416703   -0.000558251   -0.000892559
      7        8          -0.000790640    0.001909509    0.000116810
      8        7          -0.000831662    0.000473846   -0.000948814
      9        1           0.000776897    0.000357435   -0.000175817
     10        6           0.000416447    0.001048071   -0.000372302
     11        8           0.000934364   -0.000788728    0.000120693
     12        6          -0.000499310    0.000338360    0.000123752
     13        7           0.000768007   -0.001660118    0.000147857
     14        7           0.000098012    0.000403152   -0.000022842
     15        1           0.000049073    0.000619329   -0.000144718
     16        1           0.000168023   -0.000058760    0.000089159
     17        1           0.000088108   -0.000140886   -0.000160559
     18        1           0.000301408   -0.000120486   -0.000017517
 -------------------------------------------------------------------
 Cartesian Forces:  Max     0.003862641 RMS     0.001068013

 GradGradGradGradGradGradGradGradGradGradGradGradGradGradGradGradGradGrad
 Berny optimization.
 Using GEDIIS/GDIIS optimizer.
 FormGI is forming the generalized inverse of G from B-inverse, IUseBI=4.
 Internal  Forces:  Max     0.002201519 RMS     0.000752093
 Search for a local minimum.
 Step number   3 out of a maximum of   88
 All quantities printed in internal units (Hartrees-Bohrs-Radians)
 Mixed Optimization -- En-DIIS/RFO-DIIS
 Update second derivatives using D2CorX and points    1    2    3
 DE= -5.92D-04 DEPred=-5.35D-04 R= 1.11D+00
 TightC=F SS=  1.41D+00  RLast= 6.83D-02 DXNew= 8.4853D-01 2.0503D-01
 Trust test= 1.11D+00 RLast= 6.83D-02 DXMaxT set to 5.05D-01
 ITU=  1  1  0
 Use linear search instead of GDIIS.
     Eigenvalues ---    0.00230   0.00793   0.01001   0.01310   0.01919
     Eigenvalues ---    0.01972   0.02007   0.02039   0.02066   0.02536
     Eigenvalues ---    0.03141   0.07036   0.07733   0.11026   0.12629
     Eigenvalues ---    0.14248   0.16000   0.16000   0.16000   0.16073
     Eigenvalues ---    0.18148   0.20666   0.23005   0.23024   0.24997
     Eigenvalues ---    0.24999   0.25000   0.25000   0.25062   0.26126
     Eigenvalues ---    0.29520   0.30447   0.31831   0.33091   0.34316
     Eigenvalues ---    0.34519   0.34766   0.43835   0.44753   0.48914
     Eigenvalues ---    0.50163   0.51369   0.61664   0.62940   0.67777
     Eigenvalues ---    0.78312   0.82411   0.92109
 RFO step:  Lambda=-2.08718497D-04 EMin= 2.30171453D-03
 Quartic linear search produced a step of  0.10077.
 Iteration  1 RMS(Cart)=  0.02261739 RMS(Int)=  0.00021435
 Iteration  2 RMS(Cart)=  0.00030318 RMS(Int)=  0.00001375
 Iteration  3 RMS(Cart)=  0.00000004 RMS(Int)=  0.00001375
 Variable       Old X    -DE/DX   Delta X   Delta X   Delta X     New X
                                 (Linear)    (Quad)   (Total)
    R1        3.29064   0.00165   0.00075   0.00655   0.00730   3.29793
    R2        3.47835   0.00076   0.00248   0.00671   0.00920   3.48754
    R3        2.44604  -0.00174   0.00004  -0.00262  -0.00258   2.44346
    R4        2.63521  -0.00008   0.00036   0.00134   0.00169   2.63690
    R5        3.27034  -0.00153  -0.00096  -0.00600  -0.00696   3.26338
    R6        2.45845   0.00071  -0.00025   0.00078   0.00053   2.45897
    R7        2.58555  -0.00109  -0.00091  -0.00316  -0.00407   2.58147
    R8        1.91275   0.00056  -0.00007   0.00096   0.00088   1.91363
    R9        2.79061  -0.00158  -0.00068  -0.00323  -0.00391   2.78670
   R10        2.78826  -0.00171  -0.00044  -0.00307  -0.00350   2.78476
   R11        2.92976   0.00116   0.00001   0.00217   0.00218   2.93194
   R12        1.93081   0.00055   0.00007   0.00135   0.00142   1.93223
   R13        2.30028   0.00108  -0.00055   0.00016  -0.00038   2.29990
   R14        2.86489  -0.00005   0.00107   0.00169   0.00275   2.86764
   R15        2.06659   0.00005  -0.00003   0.00009   0.00006   2.06665
   R16        2.06349   0.00013   0.00001   0.00039   0.00040   2.06390
   R17        2.06577  -0.00018   0.00010  -0.00034  -0.00025   2.06553
   R18        2.58247   0.00051   0.00012   0.00120   0.00131   2.58379
    A1        2.10028  -0.00173  -0.00118  -0.00934  -0.01053   2.08975
    A2        1.99920   0.00038  -0.00048   0.00050   0.00001   1.99921
    A3        2.18314   0.00135   0.00168   0.00865   0.01032   2.19346
    A4        2.20643  -0.00121  -0.00073  -0.00479  -0.00553   2.20091
    A5        2.06376   0.00099   0.00012   0.00266   0.00278   2.06654
    A6        2.01299   0.00022   0.00061   0.00214   0.00274   2.01574
    A7        2.21502  -0.00220  -0.00164  -0.01073  -0.01237   2.20265
    A8        1.97480   0.00081  -0.00015   0.00176   0.00161   1.97641
    A9        2.09335   0.00139   0.00179   0.00897   0.01076   2.10410
   A10        1.49022  -0.00028  -0.00002  -0.00125  -0.00128   1.48894
   A11        1.77788  -0.00065   0.00140  -0.00454  -0.00314   1.77474
   A12        1.73995  -0.00175   0.00156  -0.01106  -0.00950   1.73045
   A13        1.88226   0.00000   0.00073  -0.00233  -0.00160   1.88066
   A14        2.03862   0.00021  -0.00068   0.00250   0.00174   2.04036
   A15        2.03692   0.00044  -0.00102   0.00338   0.00232   2.03925
   A16        1.94517   0.00108  -0.00093   0.00711   0.00614   1.95131
   A17        1.85781   0.00059  -0.00083   0.00231   0.00148   1.85928
   A18        2.14605  -0.00082  -0.00047  -0.00242  -0.00289   2.14315
   A19        2.00843   0.00029   0.00008   0.00068   0.00076   2.00919
   A20        2.12865   0.00053   0.00039   0.00171   0.00210   2.13075
   A21        1.89350  -0.00017  -0.00009  -0.00091  -0.00100   1.89250
   A22        1.89229  -0.00016  -0.00026  -0.00132  -0.00157   1.89072
   A23        1.98483  -0.00032   0.00068  -0.00134  -0.00066   1.98417
   A24        1.88076   0.00020  -0.00003   0.00147   0.00144   1.88220
   A25        1.90122   0.00025  -0.00012   0.00137   0.00125   1.90247
   A26        1.90854   0.00022  -0.00022   0.00085   0.00063   1.90917
   A27        1.97172  -0.00033   0.00030  -0.00164  -0.00134   1.97037
   A28        1.95064   0.00002  -0.00040   0.00026  -0.00013   1.95050
    D1       -3.11100   0.00008  -0.00037   0.00735   0.00694  -3.10406
    D2       -0.00351   0.00004   0.00001   0.00153   0.00153  -0.00198
    D3       -2.10496   0.00028  -0.00043   0.01952   0.01908  -2.08588
    D4       -0.00671  -0.00031  -0.00021   0.01695   0.01675   0.01005
    D5        2.02495   0.00011  -0.00031   0.01910   0.01879   2.04375
    D6        1.07454   0.00034  -0.00079   0.02621   0.02542   1.09996
    D7       -3.11039  -0.00024  -0.00057   0.02365   0.02309  -3.08730
    D8       -1.07873   0.00018  -0.00067   0.02579   0.02513  -1.05360
    D9        0.00465  -0.00003  -0.00012  -0.00027  -0.00039   0.00427
   D10        3.11028  -0.00013   0.00021  -0.00683  -0.00665   3.10362
   D11        0.00258   0.00003   0.00016   0.00208   0.00224   0.00482
   D12        3.13816   0.00002   0.00013   0.00136   0.00149   3.13965
   D13       -3.13829   0.00003   0.00010   0.00180   0.00190  -3.13638
   D14       -0.00271   0.00002   0.00007   0.00109   0.00116  -0.00155
   D15       -3.13935  -0.00006   0.00005  -0.00283  -0.00277   3.14107
   D16        0.00154  -0.00006   0.00012  -0.00256  -0.00245  -0.00090
   D17        3.14156   0.00006  -0.00015   0.00321   0.00306  -3.13856
   D18        0.00061   0.00006  -0.00020   0.00297   0.00277   0.00338
   D19       -0.00797   0.00001  -0.00011   0.00150   0.00138  -0.00659
   D20        3.12188  -0.00002   0.00013  -0.00173  -0.00160   3.12028
   D21        3.14001   0.00003  -0.00008   0.00229   0.00221  -3.14097
   D22       -0.01333  -0.00000   0.00017  -0.00095  -0.00077  -0.01410
   D23        1.39587   0.00070   0.00159   0.01597   0.01757   1.41343
   D24       -0.59056   0.00126  -0.00009   0.02135   0.02130  -0.56926
   D25       -2.99447  -0.00084   0.00337   0.00513   0.00846  -2.98602
   D26       -1.96374   0.00003  -0.00031  -0.00018  -0.00048  -1.96422
   D27        2.28148  -0.00003  -0.00008  -0.00072  -0.00080   2.28068
   D28        0.15463   0.00002  -0.00007   0.00004  -0.00003   0.15459
   D29        1.16624  -0.00001  -0.00007  -0.00341  -0.00348   1.16277
   D30       -0.87173  -0.00007   0.00015  -0.00395  -0.00380  -0.87552
   D31       -2.99858  -0.00003   0.00017  -0.00319  -0.00303  -3.00161
   D32       -0.00336  -0.00002   0.00020  -0.00170  -0.00150  -0.00486
         Item               Value     Threshold  Converged?
 Maximum Force            0.002202     0.000450     NO 
 RMS     Force            0.000752     0.000300     NO 
 Maximum Displacement     0.086146     0.001800     NO 
 RMS     Displacement     0.022709     0.001200     NO 
 Predicted change in Energy=-1.099830D-04
 GradGradGradGradGradGradGradGradGradGradGradGradGradGradGradGradGradGrad

                          Input orientation:                          
 ---------------------------------------------------------------------
 Center     Atomic      Atomic             Coordinates (Angstroms)
 Number     Number       Type             X           Y           Z
 ---------------------------------------------------------------------
      1          6           0        1.103617    0.434920   -0.086493
      2          6           0       -1.223201    0.704907    0.132807
      3          7           0       -2.609104    0.717024    0.294780
      4         16           0       -0.190570   -0.668501    0.304952
      5         16           0        2.833676   -0.193715   -0.219497
      6          8           0        3.516800    0.587895    0.827901
      7          8           0        2.587765   -1.618500    0.065294
      8          7           0        3.306835    0.028612   -1.680281
      9          1           0        3.595852    1.007156   -1.746703
     10          6           0       -3.392482   -0.352912    0.622911
[...]
 2570556,-1.2377491,0.1275087,-0.0115987,0.1303129,-0.65331,-1.1691077,
 0.0286967,0.2734265,0.0294934,-0.4960644,0.1780495,0.5583272,0.1289319
 ,-1.302531,0.277541,-0.0319618,-0.000687,-0.0625689,-0.0050127,-0.0168
 667,-0.0269687,-0.0555573,0.2100465,1.5907472,0.0823346,-0.2028492,0.9
 297742,1.590656,-0.4690537,-0.3936056,-0.3450473,0.3593754,-0.7864112,
 0.2211206,0.0045769,-0.3702215,-1.1664914,0.2542155,0.1429572,0.169644
 9,-0.421866,-0.3611287,0.0512155,0.0394539,-0.0293447,0.0998753,-0.008
 9155,0.0553585,-0.0200874,0.0405109,-0.5023746,-0.1128498,0.0823468,0.
 2968712,-0.4290485,0.0011949,-0.0031484,0.0720761,-0.179567,-0.4593518
 ,0.1577063,0.0100968,-0.1689996,-0.5108443,0.0961449,0.060325,0.050367
 7,-0.2259683,0.1241521,-0.023816,0.0281435,0.0137872,0.2019085,0.02024
 98,0.0158743,0.0233917,0.2810473,0.0262106,0.0079668,0.0156022,0.00984
 3,0.0692541,0.0391612,0.0690086,0.0323745,-0.0421275,0.0030992,-0.0134
 971,-0.0188034,-0.0361559,0.020735,-0.0610725,-0.0674417,-0.0571088,0.
 0292232,0.015769,-0.0120208,0.0107177,0.0887341,-0.1079258,0.0323589,-
 0.0129574,0.0454182,0.0691985\Polar=181.0030904,3.5808767,119.8932994,
 -17.897071,-8.353718,94.7144402\Quadrupole=-7.8469646,0.945381,6.90158
 35,-1.6266739,3.0095357,0.0751919\PG=C01 [X(C4H5N4O3S2)]\NImag=0\\0.50
 275353,-0.15765575,0.61196207,-0.01106374,-0.09432310,0.14706933,-0.04
 606358,-0.01181229,0.00963627,0.72064837,0.03285805,0.00438544,-0.0032
 5608,0.07134722,0.60039295,-0.00083753,0.00247554,0.00841238,-0.092248
 01,-0.12229530,0.16206446,-0.01098921,-0.01505943,0.00524498,-0.291422
 49,0.00660739,0.03029242,0.72020390,-0.00153326,-0.01444050,0.00389719
 ,0.03829638,-0.12249470,0.01590559,-0.02840348,0.81803629,0.00206598,0
 .00554069,-0.00034048,0.02255753,0.02001318,-0.04352485,-0.07737721,-0
 .18217404,0.10561208,-0.10159877,-0.04744379,0.01913878,-0.09412014,0.
 06842740,-0.00987841,-0.01176829,0.02141692,-0.00372067,0.23625528,-0.
 03442191,-0.06758694,0.00995619,0.05827939,-0.12569964,0.01240124,0.01
 015839,0.00514166,-0.00291516,-0.01562111,0.32747778,0.01558204,0.0119
 5599,-0.04609847,-0.00689106,0.01049526,-0.04417074,-0.00107860,-0.004
 10905,-0.00038884,-0.02069220,-0.06488337,0.06251750,-0.13061593,0.013
 61437,0.01298370,-0.00283911,-0.00606091,0.00176718,0.00911779,0.00224
 495,-0.00180037,-0.01140060,-0.00428262,0.00300315,0.48884741,0.030712
 87,-0.05310726,-0.00235276,-0.00500479,0.00204398,-0.00003354,-0.00374
 337,-0.00153668,0.00125505,-0.02495332,0.00816064,0.00233504,0.1955333
 3,0.86924896,0.00376329,0.00244165,-0.04573667,0.00169270,0.00087706,0
 .00050961,-0.00039332,0.00034162,0.00168432,0.00791827,0.00009093,0.00
 151883,0.01884656,0.01815487,0.79039624,-0.01356175,-0.01385775,-0.023
 72420,0.00035941,0.00169045,-0.00013956,-0.00328132,-0.00051547,0.0013
 1080,-0.00215166,0.00270057,-0.00106220,-0.17272064,-0.11634881,-0.143
 18974,0.16824925,0.00208592,0.00334834,-0.00271063,0.00088027,-0.00004
 755,0.00012981,-0.00017249,0.00042561,-0.00027997,0.00214268,-0.000041
 55,-0.00051314,-0.10547905,-0.20836060,-0.15778980,0.13097895,0.204091
 53,-0.00236846,-0.00881833,0.00091702,-0.00061072,-0.00015955,-0.00010
 717,-0.00126089,0.00006238,0.00019119,-0.00215168,0.00183870,-0.001110
 26,-0.13743579,-0.16723897,-0.30260566,0.16454016,0.19095700,0.3163485
 1,-0.00041687,0.02876166,-0.00535720,0.00291174,-0.00166229,0.00057328
 ,-0.00153090,0.00023984,0.00020873,0.00308055,0.00011220,-0.00091192,-
 0.09399380,-0.05759703,0.01249396,0.01136659,-0.02315819,0.00068905,0.
 07604736,-0.00910740,-0.02891802,0.01002261,0.00061873,-0.00393790,0.0
 0130888,0.00328248,0.00234835,-0.00100263,0.00457807,-0.00318937,-0.00
 053733,-0.07043906,-0.48560091,0.08117042,-0.00645589,-0.01683265,0.00
 674242,0.06918916,0.54611998,0.00374341,0.00293527,0.00666339,-0.00035
 386,0.00118044,0.00091413,-0.00043427,-0.00049744,0.00007554,-0.001403
 90,0.00000783,-0.00197310,0.01334019,0.08135917,-0.09921116,-0.0078882
 1,-0.02722463,0.01190605,-0.01840745,-0.10191445,0.09312954,-0.0036715
 3,-0.00265417,0.02002173,0.00015887,0.00085433,-0.00059054,-0.00297515
 ,-0.00075912,-0.00006544,-0.00163969,0.00249944,0.00032825,-0.09965935
 ,-0.02059789,0.10419267,0.01907720,-0.00423320,-0.01645786,0.00427025,
 -0.00354777,0.01104322,0.13836054,0.00399195,0.00789426,-0.00273441,0.
 00098299,-0.00005555,-0.00035113,0.00063422,0.00041724,0.00008119,0.00
 327494,-0.00146440,-0.00043306,-0.03077289,-0.09984943,0.07035332,-0.0
 0036393,0.01127678,-0.02229458,-0.01807301,-0.01281930,0.04109850,0.16
 018081,0.47226030,0.00202156,0.00530058,-0.00678143,-0.00004124,-0.000
 17511,-0.00009522,0.00203000,-0.00009308,-0.00013262,0.00054246,-0.002
 82929,-0.00025330,0.07456562,0.02314907,-0.32647489,0.01041400,-0.0002
 0436,-0.03184189,0.00670109,0.00300760,-0.00668331,-0.12196788,-0.0819
 5984,0.39496292,0.00005379,0.00128680,0.00118742,0.00025325,0.00041795
 ,-0.00014491,0.00034149,0.00013232,-0.00001597,0.00060396,-0.00038415,
 -0.00010992,-0.00627845,-0.01432862,0.00196713,-0.00268834,0.00060273,
 -0.00227115,0.00513969,-0.00082102,0.00169364,-0.05148081,-0.11757159,
 0.02110879,0.05494145,-0.00019087,0.00022004,-0.00082341,0.00010300,-0
 .00025846,0.00005890,0.00010039,0.00005264,0.00000032,0.00022110,-0.00
 004914,0.00001534,0.00079556,-0.01659051,-0.01633975,0.00208860,0.0025
 4222,-0.00346698,-0.00222235,0.00258066,0.00321250,-0.13116626,-0.3800
 8684,0.05544634,0.13009740,0.39174307,0.00006193,-0.00128467,-0.001295
 50,-0.00008334,0.00007973,0.00005836,-0.00021842,-0.00008210,0.0000756
 7,-0.00026965,0.00015957,0.00005040,0.01764468,0.04273212,-0.01819577,
 -0.00113511,-0.00359020,0.00452044,0.00424539,0.00314791,-0.00591556,0
 .00249915,-0.00286547,-0.02494017,-0.02291364,-0.03819041,0.04592441,0
 .00125171,-0.00212705,0.00009683,-0.03550770,-0.03020673,0.01135416,-0
 .22040539,-0.10140762,0.04677868,-0.00251576,-0.00039686,0.00069954,-0
 .00486630,0.00134607,0.00044140,0.00177190,0.00034151,0.00072965,0.001
 25413,-0.00102377,0.00001823,0.00155567,-0.00012090,-0.00129180,-0.000
 17296,-0.00002160,0.00010738,0.67237195,0.01054263,0.01464837,-0.00507
 784,-0.03978241,0.02149334,-0.00109906,-0.05732941,-0.22700939,0.05129
 467,0.00440545,-0.00263429,0.00043533,-0.00688972,0.00366951,0.0000698
 5,0.00253008,-0.00022630,0.00099830,0.00121528,-0.00345429,0.00051392,
 0.00228700,-0.00070995,-0.00133707,-0.00031970,-0.00010537,0.00016078,
 -0.13717533,0.91769166,-0.00279635,-0.00346528,0.00061369,0.01367154,-
 0.00242208,-0.00514910,0.03613553,0.05707274,-0.06421868,-0.00049299,0
 .00116787,0.00187443,0.00224407,-0.00109439,-0.00043429,-0.00103048,-0
 .00005729,-0.00045936,-0.00049106,0.00096620,-0.00015780,-0.00064077,0
 .00020180,0.00032259,0.00013308,0.00001449,-0.00005965,-0.02378547,-0.
 15334990,0.25855294,0.00375991,0.00687862,-0.00162545,-0.00118025,0.00
 609895,-0.00178832,0.03621574,-0.01273626,0.00085295,-0.00498939,-0.00
 299571,0.00087709,0.00243769,-0.00084997,-0.00022362,-0.00087546,-0.00
 026857,-0.00042703,-0.00061170,0.00010060,0.00009183,-0.00070740,0.000
 00776,0.00076293,0.00006588,-0.00000054,-0.00005704,-0.20755202,0.2126
 1855,-0.03541778,0.19825627,-0.00566499,-0.00582375,0.00277468,0.01934
 310,-0.00494606,-0.00223319,-0.01478838,-0.10097434,0.03118425,-0.0018
 1344,-0.00097951,-0.00019988,0.00403564,-0.00271177,0.00001347,-0.0015
 1977,0.00019307,-0.00061774,-0.00058647,0.00221024,-0.00031225,-0.0013
 3447,0.00051257,0.00078508,0.00018452,0.00006791,-0.00009369,0.2327001
 9,-0.60028453,0.09810504,-0.24745824,0.72061543,0.00118797,0.00108314,
 0.00186747,-0.00505940,-0.00047190,-0.00296304,0.00139518,0.03086755,0
 .01110327,0.00069958,-0.00010338,-0.00298797,-0.00131283,0.00069995,-0
 .00021055,0.00054364,0.00005432,0.00039160,0.00025268,-0.00050396,0.00
 022480,0.00040420,-0.00011354,-0.00012469,-0.00006295,-0.00000966,0.00
 002266,-0.04033033,0.10066382,-0.09721059,0.03977076,-0.13598314,0.063
 58679,0.00000072,0.00011294,-0.00003678,0.00419805,-0.00054565,0.00053
 775,-0.02986500,-0.00265256,0.00587124,-0.00003712,0.00023419,0.000001
 68,0.00077500,-0.00012166,-0.00012404,-0.00028105,-0.00006481,-0.00011
 133,-0.00023055,0.00011719,0.00001257,-0.00023284,-0.00000356,0.000204
 55,0.00003033,0.00000069,-0.00001582,-0.20029237,0.00797158,0.01254739
 ,-0.01769518,0.02507226,-0.00179783,0.49252125,-0.00064086,-0.00055595
 ,0.00009488,0.00035405,-0.00336246,0.00253032,-0.03002805,0.00613612,0
 .00514294,-0.00008208,-0.00052946,0.00028485,0.00030690,-0.00017043,-0
 .00003944,-0.00012691,0.00001122,-0.00004273,-0.00004572,0.00014946,-0
 .00002500,-0.00008428,0.00001407,0.00006594,0.00001288,0.00000521,-0.0
 0001284,0.02070873,-0.08775412,-0.00199488,0.04656180,-0.01626065,0.00
 221139,0.00650195,0.61050848,0.00007943,0.00002905,-0.00047477,0.00029
 789,0.00265653,0.00657312,0.01267399,0.00173749,0.00988344,0.00010237,
 0.00023511,0.00045661,-0.00014862,0.00000901,-0.00009652,0.00000388,0.
 00003348,0.00002486,0.00004107,-0.00005083,0.00000775,0.00009766,-0.00
 003469,-0.00002627,-0.00002093,-0.00000112,0.00000496,0.00944999,-0.00
 040378,-0.08621409,-0.00698691,0.00486635,0.01624751,0.00649434,-0.013
 27616,0.56196041,-0.12513121,0.11150292,-0.01744021,-0.07898636,-0.075
 63425,0.02886307,-0.00528772,-0.00737149,0.00360463,-0.00613440,0.0248
 0830,-0.00241491,-0.00167620,0.01793649,-0.00430105,-0.00041526,-0.001
 21812,-0.00094638,-0.00344010,0.00937693,-0.00119659,0.00019882,-0.000
 72786,0.00046635,-0.00024320,-0.00000593,0.00030121,0.00005172,0.01105
 260,-0.00223760,0.00119318,-0.00524512,0.00095860,-0.00015925,-0.00066
 665,0.00003696,0.45224771,0.09696064,-0.43069598,0.07643683,-0.0253898
 0,-0.01009897,0.00694207,0.01335780,0.00562197,-0.00071676,-0.04673549
 ,-0.07405784,0.02907206,0.00928453,-0.00703587,-0.00330593,-0.00043147
 ,0.00144733,0.00204111,-0.00062168,-0.00074567,0.00110312,-0.00010581,
 0.00125435,-0.00085858,0.00027190,-0.00033076,0.00015003,-0.00165594,-
 0.01515335,0.00466105,-0.00603293,0.00823155,-0.00152073,-0.00016277,0
 .00033885,-0.00030440,-0.08337561,0.59179948,-0.01438115,0.07479385,-0
 .07566957,0.01695571,0.01351536,0.00043555,-0.00117038,0.00197893,0.00
 888749,0.01440251,0.01952823,0.01583260,-0.00269983,-0.00289120,-0.008
 35881,-0.00146849,0.00044942,0.00162834,0.00111466,-0.00086923,0.00218
 901,0.00152727,0.00016194,0.00165534,-0.00010420,0.00003911,-0.0003472
 7,0.00075230,0.00281544,0.00264549,0.00109777,-0.00150965,-0.00100872,
 -0.00007151,-0.00022434,-0.00099631,-0.02717948,-0.10930881,0.12101919
 ,-0.07538391,0.08762221,-0.00899662,-0.16113064,-0.10687777,0.03787135
 ,-0.04410316,-0.05322221,0.01810726,-0.00179747,-0.03810578,0.01180340
 ,0.02218368,-0.00167746,-0.00317668,-0.00457850,-0.00233156,-0.0016836
 6,-0.00360678,0.00423237,-0.00028726,-0.00299327,-0.00146687,0.0041965
 7,-0.00059609,0.00019402,-0.00015312,-0.00064926,0.00402452,-0.0011811
 9,-0.00029584,-0.00046013,0.00026192,-0.00110533,-0.00108824,0.0005735
 6,-0.23105060,0.04607829,0.01093056,0.50167746,0.03325736,-0.04058126,
 0.00765047,-0.11201346,-0.36330087,0.08606942,-0.02611051,0.00041556,0
 .00284340,0.03304069,-0.06443573,0.01581563,-0.00223086,-0.00792894,0.
 00377460,-0.00025876,0.00221011,0.00010932,0.00438175,0.00201989,-0.00
 138031,-0.00119086,0.00132730,-0.00038945,0.00042037,0.00019868,-0.000
 30526,0.00701276,0.00118034,-0.00155718,-0.00216223,-0.00064239,0.0006
 1329,-0.00053936,0.00034296,0.00026072,-0.00043175,-0.07048225,0.00187
 778,0.06486044,0.53975899,0.00255505,0.00116515,0.01051429,0.03924812,
 0.08540824,-0.08439594,0.01138772,0.00611605,-0.00407885,-0.00475186,0
 .02488496,0.01435329,-0.00088088,0.00365082,0.00646724,0.00259127,0.00
 078131,0.00027952,-0.00115091,-0.00144273,-0.00102899,-0.00029704,-0.0
 0112497,0.00056244,-0.00045439,0.00004617,0.00006885,-0.00173662,-0.00
 098503,-0.00120195,0.00068379,0.00030275,0.00053863,0.00041346,0.00032
 764,0.00105230,0.02156442,-0.00421933,-0.06635141,-0.06813588,-0.11486
 476,0.12434538,-0.00032362,0.00134965,-0.00021552,-0.01710493,0.034542
 39,-0.00602231,-0.13588208,0.14508983,-0.01901452,-0.00218542,-0.00263
 747,0.00092182,0.00017160,-0.00013434,0.00012537,-0.00007788,-0.000078
 72,-0.00014110,-0.00010906,-0.00023723,0.00003890,-0.00010246,0.000004
 91,0.00015365,0.00001102,0.00000248,0.00000062,0.01748462,-0.01548741,
 0.00056994,-0.00269194,-0.00672121,0.00293587,-0.00073336,-0.00162326,
 0.00005906,-0.00030857,-0.00166428,0.00023137,0.00353084,0.00164788,-0
 .00096836,0.14106555,-0.00102560,-0.00074936,0.00043991,0.00351567,0.0
 0495576,-0.00140293,0.14339258,-0.37278483,0.06993853,-0.00060771,-0.0
 0012702,0.00022950,0.00050268,-0.00028458,0.00016699,-0.00017121,-0.00
 005030,-0.00013114,0.00003886,0.00009009,-0.00005609,-0.00019817,0.000
 03039,0.00013697,0.00000254,0.00001137,-0.00001090,0.01457777,-0.01729
 919,0.00052164,-0.00402041,-0.00002841,0.00232459,0.00043781,0.0003335
 5,-0.00092895,-0.00027555,-0.00023185,-0.00030162,-0.00165326,0.000031
 67,-0.00008112,-0.15444630,0.38433096,0.00033867,0.00010226,0.00037083
 ,0.00138874,-0.00528144,0.00212273,-0.01857329,0.06957177,-0.02353054,
 0.00054011,0.00046080,0.00033395,-0.00008867,0.00025006,0.00072041,0.0
 0022286,-0.00003047,-0.00007733,-0.00001157,-0.00002975,-0.00013555,-0
 .00010071,0.00001717,-0.00012920,0.00000810,-0.00000159,0.00002522,-0.
 00668293,0.00445153,-0.00775281,0.00227043,0.00268117,0.00652078,-0.00
 042849,-0.00063827,-0.00301816,-0.00012851,-0.00011105,-0.00160188,-0.
 00016761,-0.00050568,-0.00111588,0.02088570,-0.07075034,0.02598160,-0.
 00014040,-0.00022857,0.00012572,-0.00029724,-0.00124419,-0.00107193,-0
 .00485786,0.00120075,-0.00099957,0.00005972,-0.00006859,-0.00002988,0.
 00022039,-0.00008132,0.00002484,-0.00008068,-0.00001946,-0.00005675,-0
 .00005189,0.00007393,-0.00001669,-0.00007489,0.00002084,0.00004075,0.0
 0001153,0.00000148,-0.00000455,-0.01031915,-0.00915783,0.03483892,0.00
 197542,-0.00064130,-0.00395944,-0.06896707,-0.01593092,0.07860052,-0.0
 0033072,0.00021893,0.00023799,-0.00018165,0.00009305,-0.00027526,-0.00
 003951,0.00038314,0.00046227,0.07598821,-0.00004254,0.00003559,0.00002
 181,-0.00001599,0.00020330,-0.00019102,-0.00051307,-0.00016918,-0.0001
 0148,-0.00006844,-0.00002685,-0.00002028,-0.00000526,0.00001845,0.0000
 3940,0.00000695,-0.00000904,-0.00001286,-0.00000068,-0.00000956,-0.000
 00567,-0.00000477,-0.00000255,-0.00000770,0.00000036,0.00000001,0.0000
 0170,-0.00035643,-0.00000806,-0.00583263,0.00092362,-0.00044394,0.0009
 1890,-0.01658870,-0.06165801,0.06043838,0.00003821,0.00001910,-0.00004
 160,-0.00004741,-0.00005407,0.00002202,0.00041367,0.00045877,0.0003960
 5,0.01954462,0.06201471,0.00006432,0.00009333,-0.00005387,-0.00015343,
 0.00005832,-0.00016805,0.00036838,-0.00072912,-0.00001927,0.00000322,0
 .00003639,0.00001663,-0.00012160,0.00004970,-0.00001423,0.00004660,0.0
 0000606,0.00002686,0.00002914,-0.00004356,0.00000911,0.00004598,-0.000
 01061,-0.00002107,-0.00000778,-0.00000076,0.00000228,-0.00061494,0.001
 29615,-0.00091241,-0.00025508,-0.00042607,0.00117831,0.07753276,0.0598
 1794,-0.28763061,0.00011351,-0.00011972,0.00001217,-0.00001691,-0.0000
 3235,0.00006325,-0.00016533,-0.00017998,0.00000560,-0.08379485,-0.0655
 2938,0.30952628,-0.00016874,-0.00026876,0.00003594,0.00002417,-0.00061
 396,0.00148722,-0.00435622,0.00187831,0.00135784,0.00007974,-0.0000513
 8,0.00004788,0.00024986,-0.00011515,-0.00004767,-0.00009549,0.00000557
 ,-0.00002801,-0.00005792,0.00008685,-0.00000001,-0.00007151,0.00000830
 ,0.00007825,0.00000871,0.00000328,-0.00000837,-0.01705210,-0.02277797,
 -0.02352127,0.00280723,0.00133463,0.00341774,-0.11241453,-0.08007207,-
 0.09038145,-0.00041349,0.00014106,-0.00021453,-0.00008611,0.00022428,0
 .00023214,-0.00015042,0.00014668,-0.00054454,0.00534445,0.00709530,0.0
 0660512,0.12226054,-0.00006960,-0.00001056,-0.00001885,0.00006673,0.00
 021116,-0.00006824,-0.00036434,0.00013192,0.00006761,-0.00005904,-0.00
 001810,0.00004967,0.00003682,-0.00001571,-0.00004661,-0.00002066,0.000
 00166,0.00000588,-0.00001053,0.00000896,0.00000867,-0.00000633,-0.0000
 0133,0.00002311,0.00000049,0.00000026,-0.00000322,0.00207304,0.0028995
 2,0.00578460,0.00069011,-0.00046240,-0.00058521,-0.08017465,-0.1471483
 9,-0.10706464,0.00001668,0.00007251,0.00003039,-0.00002893,-0.00003733
 ,0.00000925,0.00031914,0.00023467,-0.00061034,0.00488277,0.00481227,0.
 00564134,0.08815471,0.15538136,0.00000124,-0.00003400,0.00002469,0.000
 06302,-0.00009881,-0.00054661,0.00090620,0.00019486,-0.00070988,0.0000
 1382,-0.00000779,-0.00000165,0.00005321,-0.00002524,0.00000725,-0.0000
 1870,-0.00000040,-0.00000950,-0.00001216,0.00002236,-0.00000463,-0.000
 02429,0.00000762,0.00000698,0.00000412,0.00000032,-0.00000082,0.003979
 10,0.00283921,0.00296416,-0.00055309,0.00089139,0.00028847,-0.08898557
 ,-0.10658437,-0.15840279,-0.00002335,0.00005369,0.00002638,0.00006891,
 0.00002533,-0.00002651,0.00004983,0.00001715,0.00032478,-0.01591120,-0
 .01920560,-0.01868277,0.09489186,0.11682595,0.16958714,0.00024585,-0.0
 0002159,-0.00001164,0.00009860,0.00000162,-0.00002494,0.00084588,-0.00
 189785,0.00027811,0.00025946,0.00017309,-0.00007416,0.00004696,0.00002
 498,-0.00001010,-0.00001633,-0.00001348,-0.00000805,-0.00002073,-0.000
 02417,0.00000624,-0.00001247,-0.00000610,0.00001434,-0.00000124,-0.000
 00046,-0.00000130,0.00359131,0.03227210,-0.00854551,-0.01011214,0.0035
 6321,0.00069465,-0.06551171,0.05594273,-0.01097282,-0.00011435,-0.0001
 3737,0.00003943,0.00016663,-0.00000078,-0.00002477,-0.00255438,-0.0005
 9951,0.00060946,0.00174133,-0.01037943,0.00032089,0.00409181,-0.015506
 41,0.00549703,0.06725551,-0.00005662,-0.00002454,0.00000252,0.00023120
 ,0.00051621,-0.00014736,-0.00102073,0.00068225,-0.00017180,-0.00012281
 ,0.00005976,0.00000746,-0.00019441,0.00005112,0.00002733,0.00007503,0.
 00002012,0.00002777,0.00003920,-0.00001995,-0.00000358,0.00006151,0.00
 000209,-0.00006022,-0.00000518,-0.00000101,0.00000692,-0.00426784,-0.0
 0694390,0.00127818,0.00264485,0.00172698,-0.00014543,0.06040511,-0.300
 40044,0.05179842,0.00022022,0.00004740,-0.00004401,-0.00005224,-0.0000
 2264,0.00000358,-0.00033973,0.00107831,0.00002810,0.00095268,-0.005180
 94,0.00007230,0.00482032,-0.01606048,0.00507834,-0.06339057,0.32446963
 ,-0.00001766,0.00000888,-0.00000232,-0.00007045,-0.00012387,0.00003038
 ,0.00007198,-0.00006134,-0.00056897,0.00000025,-0.00002884,0.00003010,
 0.00004021,-0.00000876,0.00003466,-0.00001654,-0.00001052,-0.00002321,
 -0.00000679,0.00000609,-0.00000921,-0.00001560,0.00000074,-0.00000620,
 0.00000356,0.00000020,0.00000148,0.00003481,-0.00328632,-0.00320258,0.
 00092675,-0.00022857,0.00253529,-0.01204437,0.05236214,-0.05935145,-0.
 00004066,0.00000533,0.00000242,-0.00001461,-0.00000498,-0.00004563,0.0
 0055502,0.00006778,0.00095545,-0.00821091,0.02910996,-0.00333819,0.006
 59186,-0.02004937,0.00515533,0.01221317,-0.05775855,0.05780266\\0.0000
 1594,0.00001223,-0.00000307,-0.00000480,0.00000701,0.00000948,0.000004
 94,-0.00001052,-0.00002450,-0.00000958,-0.00000746,-0.00000174,-0.0000
 1130,0.00000572,-0.00001633,0.00000674,0.00000465,0.00000758,-0.000003
 35,-0.00001467,0.00000159,0.00000129,-0.00000195,0.00000620,-0.0000023
 8,-0.00000169,0.00000135,0.00001312,-0.00001349,0.00001633,-0.00000711
 ,0.00001911,-0.00000545,0.00000709,0.00000141,-0.00000178,0.00000131,-
 0.00000406,0.00000062,-0.00000240,-0.00000189,0.00000510,0.00000220,-0
 .00000123,0.00000434,-0.00000285,0.00000063,0.00000073,-0.00000292,0.0
 0000237,-0.00000098,-0.00000593,0.00000383,0.00000053\\\@
 The archive entry for this job was punched.


 THE SECRET OF SUCCESS IN LIFE IS TO EAT WHAT YOU LIKE, AND LET THE FOOD
 FIGHT IT OUT INSIDE YOU. -- FROM A FORTUNE COOKIE
 Job cpu time:       0 days  0 hours 49 minutes 25.4 seconds.
 Elapsed time:       0 days  0 hours  3 minutes 12.0 seconds.
 File lengths (MBytes):  RWF=    158 Int=      0 D2E=      0 Chk=      7 Scr=      1
 Normal termination of Gaussian 16 at Fri May 20 23:25:48 2022.
