 Entering Gaussian System, Link 0=g16
 AtFile(1): /home/561/yj5695/Basis/6-31pGd.gbs
 Initial command:
 /apps/gaussian/g16c01/g16/l1.exe "/jobfs/40839089.gadi-pbs/Gau-3712180.inp" -scrdir="/jobfs/40839089.gadi-pbs/"
 Entering Link 1 = /apps/gaussian/g16c01/g16/l1.exe PID=   3712181.
  
 Copyright (c) 1988-2019, Gaussian, Inc.  All Rights Reserved.
  
 This is part of the Gaussian(R) 16 program.  It is based on
 the Gaussian(R) 09 system (copyright 2009, Gaussian, Inc.),
 the Gaussian(R) 03 system (copyright 2003, Gaussian, Inc.),
 the Gaussian(R) 98 system (copyright 1998, Gaussian, Inc.),
 the Gaussian(R) 94 system (copyright 1995, Gaussian, Inc.),
 the Gaussian 92(TM) system (copyright 1992, Gaussian, Inc.),
 the Gaussian 90(TM) system (copyright 1990, Gaussian, Inc.),
 the Gaussian 88(TM) system (copyright 1988, Gaussian, Inc.),
 the Gaussian 86(TM) system (copyright 1986, Carnegie Mellon
 University), and the Gaussian 82(TM) system (copyright 1983,
 Carnegie Mellon University). Gaussian is a federally registered
 trademark of Gaussian, Inc.
  
 This software contains proprietary and confidential information,
 including trade secrets, belonging to Gaussian, Inc.
  
 This software is provided under written license and may be
 used, copied, transmitted, or stored only in accord with that
 written license.
  
 The following legend is applicable only to US Government
 contracts under FAR:
  
                    RESTRICTED RIGHTS LEGEND
  
 Use, reproduction and disclosure by the US Government is
 subject to restrictions as set forth in subparagraphs (a)
 and (c) of the Commercial Computer Software - Restricted
 Rights clause in FAR 52.227-19.
  
 Gaussian, Inc.
 340 Quinnipiac St., Bldg. 40, Wallingford CT 06492
  
  
 ---------------------------------------------------------------
 Warning -- This program may not be used in any manner that
 competes with the business of Gaussian, Inc. or will provide
 assistance to any competitor of Gaussian, Inc.  The licensee
 of this program is prohibited from giving any competitor of
 Gaussian, Inc. access to this program.  By using this program,
 the user acknowledges that Gaussian, Inc. is engaged in the
 business of creating and licensing software in the field of
 computational chemistry and represents and warrants to the
 licensee that it is not a competitor of Gaussian, Inc. and that
 it will not use this program in any manner prohibited above.
 ---------------------------------------------------------------
  

 Cite this work as:
 Gaussian 16, Revision C.01,
 M. J. Frisch, G. W. Trucks, H. B. Schlegel, G. E. Scuseria, 
 M. A. Robb, J. R. Cheeseman, G. Scalmani, V. Barone, 
 G. A. Petersson, H. Nakatsuji, X. Li, M. Caricato, A. V. Marenich, 
 J. Bloino, B. G. Janesko, R. Gomperts, B. Mennucci, H. P. Hratchian, 
 J. V. Ortiz, A. F. Izmaylov, J. L. Sonnenberg, D. Williams-Young, 
 F. Ding, F. Lipparini, F. Egidi, J. Goings, B. Peng, A. Petrone, 
 T. Henderson, D. Ranasinghe, V. G. Zakrzewski, J. Gao, N. Rega, 
 G. Zheng, W. Liang, M. Hada, M. Ehara, K. Toyota, R. Fukuda, 
 J. Hasegawa, M. Ishida, T. Nakajima, Y. Honda, O. Kitao, H. Nakai, 
 T. Vreven, K. Throssell, J. A. Montgomery, Jr., J. E. Peralta, 
 F. Ogliaro, M. J. Bearpark, J. J. Heyd, E. N. Brothers, K. N. Kudin, 
 V. N. Staroverov, T. A. Keith, R. Kobayashi, J. Normand, 
 K. Raghavachari, A. P. Rendell, J. C. Burant, S. S. Iyengar, 
 J. Tomasi, M. Cossi, J. M. Millam, M. Klene, C. Adamo, R. Cammi, 
 J. W. Ochterski, R. L. Martin, K. Morokuma, O. Farkas, 
 J. B. Foresman, and D. J. Fox, Gaussian, Inc., Wallingford CT, 2019.
 
 ******************************************
 Gaussian 16:  ES64L-G16RevC.01  3-Jul-2019
                21-May-2022 
 ******************************************
 %nproc=16
 Will use up to   16 processors via shared memory.
 %mem=20gb
 --------------------------------------------------
 #M062X/gen 6D INT(grid=ultrafine) OPT Freq=noraman
 --------------------------------------------------
 1/18=20,19=15,26=4,38=1/1,3;
 2/9=110,12=2,17=6,18=5,40=1/2;
 3/5=7,8=2,11=2,25=1,30=1,71=1,74=-55,75=-5/1,2,3;
 4//1;
 5/5=2,38=5/2;
 6/7=2,8=2,9=2,10=2,28=1/1;
 7//1,2,3,16;
 1/18=20,19=15,26=4/3(2);
 2/9=110/2;
 99//99;
 2/9=110/2;
 3/5=7,6=1,8=2,11=2,25=1,30=1,71=1,74=-55,75=-5,82=7/1,2,3;
 4/5=5,16=3,69=1/1;
 5/5=2,38=5/2;
 7//1,2,3,16;
 1/18=20,19=15,26=4/3(-5);
 2/9=110/2;
 6/7=2,8=2,9=2,10=2,19=2,28=1/1;
 99/9=1/99;
 ----------------
 A.26.a1c2d2.freq
 ----------------
 Symbolic Z-matrix:
 Charge = -1 Multiplicity = 1
 C                    -0.78315   0.38808  -0.69415 
 N                    -1.60051   1.12415  -1.35713 
 N                    -1.03336   1.53401  -2.51996 
 C                     0.22887   1.12477  -2.77321 
 N                     0.85825   1.47902  -3.86692 
 S                     0.77589   0.12803  -1.42903 
 S                    -1.27356  -0.40734   0.862 
 O                    -1.63955  -1.76958   0.38956 
 O                    -0.01398  -0.34843   1.64019 
 N                    -2.38969   0.41204   1.54665 
 H                    -3.28297   0.19997   1.09611 
 C                    -1.78626   2.39814  -3.42296 
 H                    -2.76459   2.55802  -2.97403 
 H                    -1.89239   1.91062  -4.39316 
 H                    -1.26559   3.34982  -3.54088 
 C                     2.13774   1.00873  -4.03677 
 C                     2.80132   1.43909  -5.31278 
 O                     2.71798   0.28476  -3.21486 
 H                     2.83646   2.53195  -5.36004 
 H                     2.21346   1.09143  -6.16815 
 H                     3.81196   1.03386  -5.37055 
 

 GradGradGradGradGradGradGradGradGradGradGradGradGradGradGradGradGradGrad
 Berny optimization.
 Initialization pass.
                           ----------------------------
                           !    Initial Parameters    !
                           ! (Angstroms and Degrees)  !
 --------------------------                            --------------------------
 ! Name  Definition              Value          Derivative Info.                !
 --------------------------------------------------------------------------------
 ! R1    R(1,2)                  1.2843         estimate D2E/DX2                !
 ! R2    R(1,6)                  1.7431         estimate D2E/DX2                !
 ! R3    R(1,7)                  1.8152         estimate D2E/DX2                !
 ! R4    R(2,3)                  1.3571         estimate D2E/DX2                !
 ! R5    R(3,4)                  1.3509         estimate D2E/DX2                !
 ! R6    R(3,12)                 1.4591         estimate D2E/DX2                !
 ! R7    R(4,5)                  1.3106         estimate D2E/DX2                !
 ! R8    R(4,6)                  1.7605         estimate D2E/DX2                !
 ! R9    R(5,16)                 1.3737         estimate D2E/DX2                !
 ! R10   R(7,8)                  1.4876         estimate D2E/DX2                !
 ! R11   R(7,9)                  1.4818         estimate D2E/DX2                !
 ! R12   R(7,10)                 1.5446         estimate D2E/DX2                !
 ! R13   R(10,11)                1.0227         estimate D2E/DX2                !
 ! R14   R(12,13)                1.0882         estimate D2E/DX2                !
 ! R15   R(12,14)                1.091          estimate D2E/DX2                !
 ! R16   R(12,15)                1.0912         estimate D2E/DX2                !
 ! R17   R(16,17)                1.5013         estimate D2E/DX2                !
 ! R18   R(16,18)                1.2395         estimate D2E/DX2                !
 ! R19   R(17,19)                1.0944         estimate D2E/DX2                !
 ! R20   R(17,20)                1.0946         estimate D2E/DX2                !
 ! R21   R(17,21)                1.0904         estimate D2E/DX2                !
 ! A1    A(2,1,6)              115.9192         estimate D2E/DX2                !
 ! A2    A(2,1,7)              121.4504         estimate D2E/DX2                !
 ! A3    A(6,1,7)              122.5285         estimate D2E/DX2                !
 ! A4    A(1,2,3)              110.4524         estimate D2E/DX2                !
 ! A5    A(2,3,4)              117.3631         estimate D2E/DX2                !
 ! A6    A(2,3,12)             119.5697         estimate D2E/DX2                !
 ! A7    A(4,3,12)             123.0613         estimate D2E/DX2                !
 ! A8    A(3,4,5)              121.5509         estimate D2E/DX2                !
 ! A9    A(3,4,6)              108.5842         estimate D2E/DX2                !
 ! A10   A(5,4,6)              129.8621         estimate D2E/DX2                !
 ! A11   A(4,5,16)             117.2522         estimate D2E/DX2                !
 ! A12   A(1,6,4)               87.6802         estimate D2E/DX2                !
 ! A13   A(1,7,8)              101.2732         estimate D2E/DX2                !
 ! A14   A(1,7,9)              101.7215         estimate D2E/DX2                !
 ! A15   A(1,7,10)             110.0457         estimate D2E/DX2                !
 ! A16   A(8,7,9)              114.3522         estimate D2E/DX2                !
 ! A17   A(8,7,10)             116.6648         estimate D2E/DX2                !
 ! A18   A(9,7,10)             111.1229         estimate D2E/DX2                !
 ! A19   A(7,10,11)            109.0193         estimate D2E/DX2                !
 ! A20   A(3,12,13)            107.1939         estimate D2E/DX2                !
 ! A21   A(3,12,14)            109.6281         estimate D2E/DX2                !
 ! A22   A(3,12,15)            109.7053         estimate D2E/DX2                !
 ! A23   A(13,12,14)           110.1851         estimate D2E/DX2                !
 ! A24   A(13,12,15)           110.2072         estimate D2E/DX2                !
 ! A25   A(14,12,15)           109.8795         estimate D2E/DX2                !
 ! A26   A(5,16,17)            114.749          estimate D2E/DX2                !
 ! A27   A(5,16,18)            123.6406         estimate D2E/DX2                !
 ! A28   A(17,16,18)           121.6104         estimate D2E/DX2                !
 ! A29   A(16,17,19)           109.7033         estimate D2E/DX2                !
 ! A30   A(16,17,20)           109.6196         estimate D2E/DX2                !
 ! A31   A(16,17,21)           110.3759         estimate D2E/DX2                !
 ! A32   A(19,17,20)           107.498          estimate D2E/DX2                !
 ! A33   A(19,17,21)           109.8192         estimate D2E/DX2                !
 ! A34   A(20,17,21)           109.7754         estimate D2E/DX2                !
 ! D1    D(6,1,2,3)              0.2876         estimate D2E/DX2                !
 ! D2    D(7,1,2,3)           -176.131          estimate D2E/DX2                !
 ! D3    D(2,1,6,4)             -0.2923         estimate D2E/DX2                !
 ! D4    D(7,1,6,4)            176.0839         estimate D2E/DX2                !
 ! D5    D(2,1,7,8)             97.0247         estimate D2E/DX2                !
 ! D6    D(2,1,7,9)           -144.8911         estimate D2E/DX2                !
 ! D7    D(2,1,7,10)           -27.02           estimate D2E/DX2                !
 ! D8    D(6,1,7,8)            -79.1545         estimate D2E/DX2                !
 ! D9    D(6,1,7,9)             38.9298         estimate D2E/DX2                !
 ! D10   D(6,1,7,10)           156.8008         estimate D2E/DX2                !
 ! D11   D(1,2,3,4)             -0.1163         estimate D2E/DX2                !
 ! D12   D(1,2,3,12)          -179.2557         estimate D2E/DX2                !
 ! D13   D(2,3,4,5)           -179.5512         estimate D2E/DX2                !
 ! D14   D(2,3,4,6)             -0.0984         estimate D2E/DX2                !
 ! D15   D(12,3,4,5)            -0.4443         estimate D2E/DX2                !
 ! D16   D(12,3,4,6)           179.0085         estimate D2E/DX2                !
 ! D17   D(2,3,12,13)           -1.2985         estimate D2E/DX2                !
 ! D18   D(2,3,12,14)         -120.8915         estimate D2E/DX2                !
 ! D19   D(2,3,12,15)          118.3641         estimate D2E/DX2                !
 ! D20   D(4,3,12,13)          179.6134         estimate D2E/DX2                !
 ! D21   D(4,3,12,14)           60.0204         estimate D2E/DX2                !
 ! D22   D(4,3,12,15)          -60.724          estimate D2E/DX2                !
 ! D23   D(3,4,5,16)          -179.7979         estimate D2E/DX2                !
 ! D24   D(6,4,5,16)             0.8778         estimate D2E/DX2                !
 ! D25   D(3,4,6,1)              0.2023         estimate D2E/DX2                !
 ! D26   D(5,4,6,1)            179.5947         estimate D2E/DX2                !
 ! D27   D(4,5,16,17)          179.5123         estimate D2E/DX2                !
 ! D28   D(4,5,16,18)           -0.467          estimate D2E/DX2                !
 ! D29   D(1,7,10,11)           79.456          estimate D2E/DX2                !
 ! D30   D(8,7,10,11)          -35.132          estimate D2E/DX2                !
 ! D31   D(9,7,10,11)         -168.656          estimate D2E/DX2                !
 ! D32   D(5,16,17,19)          58.4196         estimate D2E/DX2                !
 ! D33   D(5,16,17,20)         -59.4014         estimate D2E/DX2                !
 ! D34   D(5,16,17,21)         179.5635         estimate D2E/DX2                !
 ! D35   D(18,16,17,19)       -121.6005         estimate D2E/DX2                !
 ! D36   D(18,16,17,20)        120.5784         estimate D2E/DX2                !
 ! D37   D(18,16,17,21)         -0.4567         estimate D2E/DX2                !
 --------------------------------------------------------------------------------
 Trust Radius=3.00D-01 FncErr=1.00D-07 GrdErr=1.00D-06 EigMax=2.50D+02 EigMin=1.00D-04
 Number of steps in this run=    102 maximum allowed number of steps=    126.
 GradGradGradGradGradGradGradGradGradGradGradGradGradGradGradGradGradGrad

                          Input orientation:                          
 ---------------------------------------------------------------------
 Center     Atomic      Atomic             Coordinates (Angstroms)
 Number     Number       Type             X           Y           Z
 ---------------------------------------------------------------------
      1          6           0       -0.783145    0.388081   -0.694152
      2          7           0       -1.600512    1.124153   -1.357134
      3          7           0       -1.033361    1.534009   -2.519955
      4          6           0        0.228868    1.124767   -2.773210
      5          7           0        0.858246    1.479019   -3.866915
      6         16           0        0.775886    0.128028   -1.429032
      7         16           0       -1.273560   -0.407336    0.862000
      8          8           0       -1.639551   -1.769578    0.389559
      9          8           0       -0.013978   -0.348426    1.640192
     10          7           0       -2.389689    0.412040    1.546647
     11          1           0       -3.282973    0.199968    1.096114
     12          6           0       -1.786261    2.398139   -3.422955
     13          1           0       -2.764592    2.558025   -2.974035
     14          1           0       -1.892395    1.910624   -4.393159
     15          1           0       -1.265589    3.349824   -3.540879
     16          6           0        2.137744    1.008726   -4.036769
     17          6           0        2.801316    1.439093   -5.312783
     18          8           0        2.717976    0.284759   -3.214861
     19          1           0        2.836462    2.531945   -5.360035
     20          1           0        2.213461    1.091428   -6.168151
     21          1           0        3.811959    1.033855   -5.370555
 ---------------------------------------------------------------------
                    Distance matrix (angstroms):
                    1          2          3          4          5
     1  C    0.000000
     2  N    1.284304   0.000000
     3  N    2.170096   1.357128   0.000000
     4  C    2.426800   2.313419   1.350866   0.000000
     5  N    3.735069   3.531349   2.322822   1.310650   0.000000
     6  S    1.743059   2.577732   2.537769   1.760549   2.788411
     7  S    1.815159   2.716046   3.906934   4.221301   5.519563
     8  O    2.561904   3.380257   4.443695   4.676680   5.908464
     9  O    2.565779   3.697234   4.678624   4.659119   5.867586
    10  N    2.757306   3.092223   4.431218   5.101567   6.402670
    11  H    3.080516   3.114998   4.462777   5.306595   6.589183
    12  C    3.534536   2.434166   1.459106   2.470707   2.834661
    13  H    3.719228   2.454677   2.062028   3.324961   3.884128
    14  H    4.151052   3.149791   2.094916   2.782367   2.833591
    15  H    4.136246   3.136006   2.096044   2.788117   2.849015
    16  C    4.482174   4.600906   3.554231   2.292129   1.373733
    17  C    5.940096   5.926419   4.744855   3.628460   2.422323
    18  O    4.315379   4.775466   4.014480   2.663894   2.304350
    19  H    6.282370   6.139369   4.902802   3.933365   2.692842
    20  H    6.280048   6.139491   4.903781   3.932600   2.698614
    21  H    6.587924   6.738735   5.643863   4.426398   3.344177
                    6          7          8          9         10
     6  S    0.000000
     7  S    3.120203   0.000000
     8  O    3.569666   1.487566   0.000000
     9  O    3.204845   1.481756   2.495244   0.000000
    10  N    4.353870   1.544623   2.580894   2.496209   0.000000
    11  H    4.780782   2.112195   2.660671   3.359030   1.022698
    12  C    3.961532   5.147270   5.650368   6.026613   5.385691
    13  H    4.563651   5.072642   5.595322   6.107735   5.018204
    14  H    4.368458   5.776902   6.040051   6.710670   6.146085
    15  H    4.359758   5.788062   6.465020   6.487456   5.981396
    16  C    3.070925   6.135158   6.448202   6.220905   7.213059
    17  C    4.572175   7.625081   7.907817   7.711353   8.663322
    18  O    2.643003   5.747360   6.016659   5.606785   6.984010
    19  H    5.047532   8.015321   8.461420   8.088556   8.916777
    20  H    5.045197   7.989282   8.126169   8.246507   9.009365
    21  H    5.057061   8.172164   8.411724   8.105496   9.311002
                   11         12         13         14         15
    11  H    0.000000
    12  C    5.243481   0.000000
    13  H    4.732363   1.088221   0.000000
    14  H    5.915419   1.090977   1.787112   0.000000
    15  H    5.957612   1.091197   1.787532   1.786215   0.000000
    16  C    7.508978   4.207738   5.250013   4.145173   4.160448
    17  C    8.923450   5.053423   6.140121   4.806139   4.830140
    18  O    7.389390   4.979743   5.940058   5.028653   5.036835
    19  H    9.196057   5.013956   6.088143   4.866516   4.561258
    20  H    9.152870   5.024079   6.093792   4.547497   4.909857
    21  H    9.635934   6.082309   7.163618   5.853518   5.873067
                   16         17         18         19         20
    16  C    0.000000
    17  C    1.501251   0.000000
    18  O    1.239488   2.395977   0.000000
    19  H    2.135284   1.094438   3.108964   0.000000
    20  H    2.134329   1.094577   3.102768   1.765296   0.000000
    21  H    2.140703   1.090391   2.530802   1.787730   1.787363
                   21
    21  H    0.000000
 Stoichiometry    C5H7N4O3S2(1-)
 Framework group  C1[X(C5H7N4O3S2)]
 Deg. of freedom    57
 Full point group                 C1      NOp   1
 Largest Abelian subgroup         C1      NOp   1
 Largest concise Abelian subgroup C1      NOp   1
                         Standard orientation:                         
 ---------------------------------------------------------------------
 Center     Atomic      Atomic             Coordinates (Angstroms)
 Number     Number       Type             X           Y           Z
 ---------------------------------------------------------------------
      1          6           0        1.070466    0.185497   -0.054470
      2          7           0        0.752595    1.429735   -0.038145
      3          7           0       -0.596580    1.574211   -0.012661
      4          6           0       -1.341766    0.447475   -0.011311
      5          7           0       -2.651589    0.491542    0.003664
      6         16           0       -0.259772   -0.940860   -0.048036
      7         16           0        2.803393   -0.350261    0.014319
      8          8           0        2.959923   -0.643016    1.464369
      9          8           0        2.781683   -1.551682   -0.852697
     10          7           0        3.719880    0.744737   -0.574656
     11          1           0        3.862825    1.473452    0.128516
     12          6           0       -1.177432    2.912707   -0.007293
     13          1           0       -0.351829    3.621639   -0.002824
     14          1           0       -1.790117    3.042742    0.885982
     15          1           0       -1.788999    3.051979   -0.900209
     16          6           0       -3.321332   -0.707861    0.008022
     17          6           0       -4.817823   -0.591959    0.036912
     18          8           0       -2.755337   -1.810432   -0.009786
     19          1           0       -5.160397   -0.019490   -0.830680
     20          1           0       -5.126950   -0.046427    0.934094
     21          1           0       -5.275448   -1.581654    0.030936
 ---------------------------------------------------------------------
 Rotational constants (GHZ):           1.2348166           0.3234024           0.2711052
 General basis read from cards:  (6D, 7F)
 There are   288 symmetry adapted cartesian basis functions of A   symmetry.
 There are   288 symmetry adapted basis functions of A   symmetry.
   288 basis functions,   524 primitive gaussians,   288 cartesian basis functions
    61 alpha electrons       61 beta electrons
       nuclear repulsion energy      1176.9900458558 Hartrees.
 NAtoms=   21 NActive=   21 NUniq=   21 SFac= 1.00D+00 NAtFMM=   60 NAOKFM=F Big=F
 Integral buffers will be    131072 words long.
 Raffenetti 2 integral format.
 Two-electron integral symmetry is turned on.
 One-electron integrals computed using PRISM.
 NBasis=   288 RedAO= T EigKep=  1.42D-05  NBF=   288
 NBsUse=   288 1.00D-06 EigRej= -1.00D+00 NBFU=   288
 ExpMin= 4.05D-02 ExpMax= 2.19D+04 ExpMxC= 3.30D+03 IAcc=3 IRadAn=         5 AccDes= 0.00D+00
 Harris functional with IExCor= 1009 and IRadAn=       5 diagonalized for initial guess.
 HarFok:  IExCor= 1009 AccDes= 0.00D+00 IRadAn=         5 IDoV= 1 UseB2=F ITyADJ=14
 ICtDFT=  3500011 ScaDFX=  1.000000  1.000000  1.000000  1.000000
 FoFCou: FMM=F IPFlag=           0 FMFlag=      100000 FMFlg1=           0
         NFxFlg=           0 DoJE=T BraDBF=F KetDBF=T FulRan=T
         wScrn=  0.000000 ICntrl=       500 IOpCl=  0 I1Cent=   200000004 NGrid=           0
         NMat0=    1 NMatS0=      1 NMatT0=    0 NMatD0=    1 NMtDS0=    0 NMtDT0=    0
 Petite list used in FoFCou.
 Requested convergence on RMS density matrix=1.00D-08 within 128 cycles.
 Requested convergence on MAX density matrix=1.00D-06.
 Requested convergence on             energy=1.00D-06.
 No special actions if energy rises.
 SCF Done:  E(RM062X) =  -1435.47694580     A.U. after   17 cycles
            NFock= 17  Conv=0.39D-08     -V/T= 2.0055

 **********************************************************************

            Population analysis using the SCF Density.

 **********************************************************************

 Orbital symmetries:
       Occupied  (A) (A) (A) (A) (A) (A) (A) (A) (A) (A) (A) (A)
                 (A) (A) (A) (A) (A) (A) (A) (A) (A) (A) (A) (A)
                 (A) (A) (A) (A) (A) (A) (A) (A) (A) (A) (A) (A)
                 (A) (A) (A) (A) (A) (A) (A) (A) (A) (A) (A) (A)
                 (A) (A) (A) (A) (A) (A) (A) (A) (A) (A) (A) (A)
                 (A)
       Virtual   (A) (A) (A) (A) (A) (A) (A) (A) (A) (A) (A) (A)
                 (A) (A) (A) (A) (A) (A) (A) (A) (A) (A) (A) (A)
                 (A) (A) (A) (A) (A) (A) (A) (A) (A) (A) (A) (A)
                 (A) (A) (A) (A) (A) (A) (A) (A) (A) (A) (A) (A)
                 (A) (A) (A) (A) (A) (A) (A) (A) (A) (A) (A) (A)
                 (A) (A) (A) (A) (A) (A) (A) (A) (A) (A) (A) (A)
                 (A) (A) (A) (A) (A) (A) (A) (A) (A) (A) (A) (A)
                 (A) (A) (A) (A) (A) (A) (A) (A) (A) (A) (A) (A)
                 (A) (A) (A) (A) (A) (A) (A) (A) (A) (A) (A) (A)
                 (A) (A) (A) (A) (A) (A) (A) (A) (A) (A) (A) (A)
                 (A) (A) (A) (A) (A) (A) (A) (A) (A) (A) (A) (A)
                 (A) (A) (A) (A) (A) (A) (A) (A) (A) (A) (A) (A)
                 (A) (A) (A) (A) (A) (A) (A) (A) (A) (A) (A) (A)
                 (A) (A) (A) (A) (A) (A) (A) (A) (A) (A) (A) (A)
                 (A) (A) (A) (A) (A) (A) (A) (A) (A) (A) (A) (A)
                 (A) (A) (A) (A) (A) (A) (A) (A) (A) (A) (A) (A)
                 (A) (A) (A) (A) (A) (A) (A) (A) (A) (A) (A) (A)
                 (A) (A) (A) (A) (A) (A) (A) (A) (A) (A) (A) (A)
                 (A) (A) (A) (A) (A) (A) (A) (A) (A) (A) (A)
 The electronic state is 1-A.
 Alpha  occ. eigenvalues --  -89.98994 -89.86612 -19.52682 -19.46597 -19.46310
 Alpha  occ. eigenvalues --  -14.76231 -14.71033 -14.65196 -14.57475 -10.57060
 Alpha  occ. eigenvalues --  -10.55744 -10.50938 -10.50892 -10.46158  -8.29773
 Alpha  occ. eigenvalues --   -8.20934  -6.21987  -6.21959  -6.21865  -6.12901
 Alpha  occ. eigenvalues --   -6.12677  -6.12415  -1.09290  -1.06193  -1.05605
 Alpha  occ. eigenvalues --   -0.93646  -0.93428  -0.87198  -0.81843  -0.80046
 Alpha  occ. eigenvalues --   -0.74496  -0.72504  -0.64617  -0.58702  -0.55466
 Alpha  occ. eigenvalues --   -0.50568  -0.48289  -0.46211  -0.45973  -0.44213
 Alpha  occ. eigenvalues --   -0.42938  -0.41663  -0.40594  -0.39737  -0.38929
 Alpha  occ. eigenvalues --   -0.37761  -0.36278  -0.35423  -0.34766  -0.29197
 Alpha  occ. eigenvalues --   -0.28469  -0.26858  -0.26505  -0.25324  -0.23114
 Alpha  occ. eigenvalues --   -0.22322  -0.21441  -0.20562  -0.18213  -0.17438
 Alpha  occ. eigenvalues --   -0.15396
 Alpha virt. eigenvalues --    0.09086   0.09432   0.10147   0.11948   0.12227
 Alpha virt. eigenvalues --    0.12676   0.14052   0.14260   0.14651   0.15680
 Alpha virt. eigenvalues --    0.16030   0.16694   0.17291   0.17354   0.17894
 Alpha virt. eigenvalues --    0.18490   0.19270   0.20246   0.20344   0.20897
 Alpha virt. eigenvalues --    0.22144   0.22881   0.23518   0.23770   0.24145
 Alpha virt. eigenvalues --    0.24737   0.25156   0.25651   0.26837   0.27206
 Alpha virt. eigenvalues --    0.28579   0.29019   0.30061   0.30370   0.30616
 Alpha virt. eigenvalues --    0.30866   0.32083   0.32333   0.33127   0.34048
 Alpha virt. eigenvalues --    0.34450   0.34651   0.35279   0.35986   0.36832
 Alpha virt. eigenvalues --    0.37256   0.37869   0.38164   0.38388   0.38997
 Alpha virt. eigenvalues --    0.39347   0.40586   0.40825   0.41187   0.41910
 Alpha virt. eigenvalues --    0.42467   0.42861   0.43228   0.43746   0.44575
 Alpha virt. eigenvalues --    0.44867   0.45862   0.46352   0.47466   0.47909
 Alpha virt. eigenvalues --    0.48665   0.49274   0.49625   0.50868   0.51055
 Alpha virt. eigenvalues --    0.52228   0.52564   0.54524   0.55346   0.55504
 Alpha virt. eigenvalues --    0.57360   0.58596   0.61849   0.62505   0.65209
 Alpha virt. eigenvalues --    0.67300   0.71048   0.71989   0.76592   0.76775
 Alpha virt. eigenvalues --    0.78223   0.79910   0.80665   0.80961   0.82446
 Alpha virt. eigenvalues --    0.83380   0.84749   0.85977   0.86546   0.87937
 Alpha virt. eigenvalues --    0.89102   0.89471   0.90565   0.95247   0.96504
 Alpha virt. eigenvalues --    1.00294   1.00685   1.01771   1.05053   1.07931
 Alpha virt. eigenvalues --    1.08380   1.09067   1.10083   1.13250   1.13447
 Alpha virt. eigenvalues --    1.14786   1.14868   1.16290   1.17549   1.18235
 Alpha virt. eigenvalues --    1.18873   1.19609   1.19869   1.22102   1.23139
 Alpha virt. eigenvalues --    1.25119   1.25727   1.27261   1.27540   1.28840
 Alpha virt. eigenvalues --    1.30706   1.32186   1.35664   1.36276   1.37776
 Alpha virt. eigenvalues --    1.39784   1.40545   1.43506   1.43759   1.45961
 Alpha virt. eigenvalues --    1.47856   1.48575   1.50372   1.52283   1.52614
 Alpha virt. eigenvalues --    1.53418   1.54174   1.56085   1.57346   1.57665
 Alpha virt. eigenvalues --    1.59061   1.59464   1.60334   1.63741   1.65726
 Alpha virt. eigenvalues --    1.66243   1.69660   1.72846   1.76963   1.77275
 Alpha virt. eigenvalues --    1.79583   1.83987   1.88410   1.90908   1.94579
 Alpha virt. eigenvalues --    1.95353   1.96363   1.96744   1.98128   1.99225
 Alpha virt. eigenvalues --    2.01498   2.03365   2.04638   2.05716   2.06816
 Alpha virt. eigenvalues --    2.07974   2.09358   2.09926   2.12279   2.13635
 Alpha virt. eigenvalues --    2.14810   2.19299   2.20996   2.23987   2.26062
 Alpha virt. eigenvalues --    2.27969   2.30208   2.34300   2.36830   2.37664
 Alpha virt. eigenvalues --    2.40081   2.41922   2.42628   2.46908   2.48328
 Alpha virt. eigenvalues --    2.50047   2.51926   2.54122   2.56406   2.58212
 Alpha virt. eigenvalues --    2.60089   2.60766   2.61382   2.69152   2.72286
 Alpha virt. eigenvalues --    2.74517   2.79929   2.82293   2.93484   2.94195
 Alpha virt. eigenvalues --    3.02607   3.05212   3.08773   3.09985   3.18778
 Alpha virt. eigenvalues --    3.23383   3.31749   3.38075   4.12318   4.15660
 Alpha virt. eigenvalues --    4.21250   4.22784   4.28987   4.38429   4.40431
 Alpha virt. eigenvalues --    4.44366   4.47184   4.49153   4.52981   4.57742
 Alpha virt. eigenvalues --    4.59355   4.74581
          Condensed to atoms (all electrons):
               1          2          3          4          5          6
     1  C   11.098102   0.043315  -0.049319  -0.506787   0.151580  -1.133632
     2  N    0.043315  15.934888  -8.346845   2.546579  -0.758701  -1.549404
     3  N   -0.049319  -8.346845  14.913190  -2.019715   0.493986   1.159542
     4  C   -0.506787   2.546579  -2.019715   8.932542   0.359011  -0.799693
     5  N    0.151580  -0.758701   0.493986   0.359011   7.397931   0.014521
     6  S   -1.133632  -1.549404   1.159542  -0.799693   0.014521  17.383733
     7  S   -2.279805  -1.542430   1.523806  -1.072850   0.086368   0.240504
     8  O   -0.265634  -0.002940   0.039027  -0.075213   0.000635  -0.016755
     9  O   -0.151232   0.004205  -0.026547   0.013890  -0.001039   0.037125
    10  N    0.224312  -0.004156   0.004728   0.031506  -0.001184   0.102447
    11  H   -0.099000   0.003864   0.004818  -0.006667   0.000003  -0.006436
    12  C   -0.036914   0.473317  -0.233845  -0.054344  -0.072438  -0.073064
    13  H    0.000680   0.021947  -0.062929   0.004577   0.002430   0.000288
    14  H   -0.001072  -0.015241  -0.021527  -0.002690  -0.001549  -0.002903
    15  H    0.014498  -0.024465  -0.006843  -0.018705  -0.002466  -0.001835
    16  C   -0.001124  -0.043971  -0.056095  -0.337148  -0.057142  -0.056188
    17  C    0.070345   0.173084  -0.050410  -0.272464  -0.185945  -0.262874
    18  O    0.043496  -0.018514   0.021104  -0.188104  -0.141884   0.031450
    19  H    0.000127  -0.000225  -0.000894   0.001068  -0.003721   0.001752
    20  H   -0.000133  -0.000190  -0.001019  -0.000268  -0.003637   0.002295
    21  H    0.000188  -0.000025   0.000185   0.003772   0.013427  -0.004335
               7          8          9         10         11         12
     1  C   -2.279805  -0.265634  -0.151232   0.224312  -0.099000  -0.036914
     2  N   -1.542430  -0.002940   0.004205  -0.004156   0.003864   0.473317
     3  N    1.523806   0.039027  -0.026547   0.004728   0.004818  -0.233845
     4  C   -1.072850  -0.075213   0.013890   0.031506  -0.006667  -0.054344
     5  N    0.086368   0.000635  -0.001039  -0.001184   0.000003  -0.072438
     6  S    0.240504  -0.016755   0.037125   0.102447  -0.006436  -0.073064
     7  S   17.044412   0.428291   0.226589  -0.292565   0.163259  -0.051164
     8  O    0.428291   8.896391  -0.165565  -0.239930  -0.012156  -0.000195
     9  O    0.226589  -0.165565   8.880358  -0.215086   0.018411  -0.000677
    10  N   -0.292565  -0.239930  -0.215086   8.001562   0.160029  -0.003040
    11  H    0.163259  -0.012156   0.018411   0.160029   0.430046   0.000108
    12  C   -0.051164  -0.000195  -0.000677  -0.003040   0.000108   5.391297
    13  H    0.002249   0.000006   0.000009   0.000161  -0.000001   0.381922
    14  H   -0.000570  -0.000017  -0.000002  -0.000010   0.000000   0.390964
    15  H    0.001254   0.000002   0.000001  -0.000028   0.000000   0.388819
    16  C   -0.026294  -0.000288   0.000531   0.004594  -0.000017  -0.003428
    17  C   -0.018098   0.000035   0.000154   0.000686  -0.000003  -0.009967
    18  O    0.004955  -0.000050   0.000039   0.000019  -0.000000  -0.005409
    19  H    0.000027   0.000000  -0.000000  -0.000000   0.000000   0.000017
    20  H    0.000014   0.000000  -0.000000  -0.000000  -0.000000   0.000015
    21  H   -0.000005  -0.000000  -0.000000   0.000000   0.000000  -0.000025
              13         14         15         16         17         18
     1  C    0.000680  -0.001072   0.014498  -0.001124   0.070345   0.043496
     2  N    0.021947  -0.015241  -0.024465  -0.043971   0.173084  -0.018514
     3  N   -0.062929  -0.021527  -0.006843  -0.056095  -0.050410   0.021104
     4  C    0.004577  -0.002690  -0.018705  -0.337148  -0.272464  -0.188104
     5  N    0.002430  -0.001549  -0.002466  -0.057142  -0.185945  -0.141884
     6  S    0.000288  -0.002903  -0.001835  -0.056188  -0.262874   0.031450
     7  S    0.002249  -0.000570   0.001254  -0.026294  -0.018098   0.004955
     8  O    0.000006  -0.000017   0.000002  -0.000288   0.000035  -0.000050
     9  O    0.000009  -0.000002   0.000001   0.000531   0.000154   0.000039
    10  N    0.000161  -0.000010  -0.000028   0.004594   0.000686   0.000019
    11  H   -0.000001   0.000000   0.000000  -0.000017  -0.000003  -0.000000
    12  C    0.381922   0.390964   0.388819  -0.003428  -0.009967  -0.005409
    13  H    0.453111  -0.024262  -0.024188   0.001138   0.000245   0.000028
    14  H   -0.024262   0.475645  -0.032332  -0.001593  -0.001558  -0.000074
    15  H   -0.024188  -0.032332   0.474814  -0.004694  -0.002857  -0.000067
    16  C    0.001138  -0.001593  -0.004694   7.250944  -1.792787   0.386044
    17  C    0.000245  -0.001558  -0.002857  -1.792787   8.175435   0.030195
    18  O    0.000028  -0.000074  -0.000067   0.386044   0.030195   8.334997
    19  H   -0.000000   0.000002  -0.000002  -0.009264   0.353030   0.002304
    20  H   -0.000000  -0.000002   0.000002  -0.004898   0.349856   0.002251
    21  H    0.000000  -0.000000  -0.000000  -0.181867   0.521246  -0.001905
              19         20         21
     1  C    0.000127  -0.000133   0.000188
     2  N   -0.000225  -0.000190  -0.000025
     3  N   -0.000894  -0.001019   0.000185
     4  C    0.001068  -0.000268   0.003772
     5  N   -0.003721  -0.003637   0.013427
     6  S    0.001752   0.002295  -0.004335
     7  S    0.000027   0.000014  -0.000005
     8  O    0.000000   0.000000  -0.000000
     9  O   -0.000000  -0.000000  -0.000000
    10  N   -0.000000  -0.000000   0.000000
    11  H    0.000000  -0.000000   0.000000
    12  C    0.000017   0.000015  -0.000025
    13  H   -0.000000  -0.000000   0.000000
    14  H    0.000002  -0.000002  -0.000000
    15  H   -0.000002   0.000002  -0.000000
    16  C   -0.009264  -0.004898  -0.181867
    17  C    0.353030   0.349856   0.521246
    18  O    0.002304   0.002251  -0.001905
    19  H    0.480370  -0.024946  -0.023909
    20  H   -0.024946   0.480143  -0.023831
    21  H   -0.023909  -0.023831   0.468991
 Mulliken charges:
               1
     1  C   -1.121990
     2  N    0.105908
     3  N   -0.284397
     4  C   -0.538297
     5  N   -0.290183
     6  S    0.933463
     7  S    1.562052
     8  O   -0.585644
     9  O   -0.621165
    10  N   -0.774044
    11  H    0.343743
    12  C   -0.481950
    13  H    0.242591
    14  H    0.238789
    15  H    0.239093
    16  C    0.933546
    17  C   -1.077347
    18  O   -0.500873
    19  H    0.224263
    20  H    0.224348
    21  H    0.228094
 Sum of Mulliken charges =  -1.00000
 Mulliken charges with hydrogens summed into heavy atoms:
               1
     1  C   -1.121990
     2  N    0.105908
     3  N   -0.284397
     4  C   -0.538297
     5  N   -0.290183
     6  S    0.933463
     7  S    1.562052
     8  O   -0.585644
     9  O   -0.621165
    10  N   -0.430302
    12  C    0.238523
    16  C    0.933546
    17  C   -0.400642
    18  O   -0.500873
 Electronic spatial extent (au):  <R**2>=           3949.3725
 Charge=             -1.0000 electrons
 Dipole moment (field-independent basis, Debye):
    X=            -11.0792    Y=              6.0953    Z=              0.7697  Tot=             12.6686
 Quadrupole moment (field-independent basis, Debye-Ang):
   XX=           -150.5032   YY=           -106.1101   ZZ=           -107.1551
   XY=              2.0588   XZ=              3.9371   YZ=              1.3515
 Traceless Quadrupole moment (field-independent basis, Debye-Ang):
   XX=            -29.2470   YY=             15.1460   ZZ=             14.1010
   XY=              2.0588   XZ=              3.9371   YZ=              1.3515
 Octapole moment (field-independent basis, Debye-Ang**2):
  XXX=           -148.8281  YYY=             36.2387  ZZZ=             -2.7981  XYY=             -2.5867
  XXY=             30.5034  XXZ=             20.2453  XZZ=            -31.9433  YZZ=              3.3510
  YYZ=              7.3072  XYZ=              6.8919
 Hexadecapole moment (field-independent basis, Debye-Ang**3):
 XXXX=          -4585.8381 YYYY=          -1008.6480 ZZZZ=           -259.9356 XXXY=             69.4879
 XXXZ=             95.8341 YYYX=            -33.0267 YYYZ=             -1.6478 ZZZX=             -4.4556
 ZZZY=              7.3646 XXYY=           -937.6308 XXZZ=           -803.5235 YYZZ=           -222.2153
 XXYZ=             27.9020 YYXZ=             22.9702 ZZXY=              5.4181
 N-N= 1.176990045856D+03 E-N=-5.754537775404D+03  KE= 1.427674050952D+03
 Calling FoFJK, ICntrl=      2127 FMM=F ISym2X=0 I1Cent= 0 IOpClX= 0 NMat=1 NMatS=1 NMatT=0.
 ***** Axes restored to original set *****
 -------------------------------------------------------------------
 Center     Atomic                   Forces (Hartrees/Bohr)
 Number     Number              X              Y              Z
 -------------------------------------------------------------------
      1        6          -0.001976957    0.002256183   -0.002077872
      2        7          -0.005293846    0.000839777    0.002302235
      3        7           0.002032052    0.003073495   -0.007415490
      4        6           0.002793069   -0.003758662    0.003992780
      5        7           0.000691728    0.004747486   -0.008788000
      6       16          -0.000961903    0.001854322   -0.001398794
      7       16           0.005962189   -0.021372851    0.024881536
      8        8          -0.000087646    0.009307089   -0.004468393
      9        8          -0.006115561    0.003899090   -0.010176147
     10        7          -0.003318369    0.005592253   -0.002664187
     11        1           0.002508882   -0.001322839   -0.000476207
     12        6           0.002612125   -0.003873975    0.004555545
     13        1          -0.000144860   -0.000787607    0.001678595
     14        1           0.001228885    0.000560265   -0.001381990
     15        1           0.000940140    0.000253631   -0.001561821
     16        6          -0.000357470   -0.010968720    0.019696901
     17        6           0.001603683    0.002128147   -0.005032249
     18        8          -0.001608339    0.007433433   -0.011834677
     19        1          -0.000398348    0.000040735   -0.000449185
     20        1          -0.000137604    0.000562592   -0.000172378
     21        1           0.000028152   -0.000463845    0.000789796
 -------------------------------------------------------------------
 Cartesian Forces:  Max     0.024881536 RMS     0.006281315

 GradGradGradGradGradGradGradGradGradGradGradGradGradGradGradGradGradGrad
 Berny optimization.
 FormGI is forming the generalized inverse of G from B-inverse, IUseBI=4.
 Internal  Forces:  Max     0.012940015 RMS     0.003800086
 Search for a local minimum.
 Step number   1 out of a maximum of  102
 All quantities printed in internal units (Hartrees-Bohrs-Radians)
 Mixed Optimization -- RFO/linear search
 Second derivative matrix not updated -- first step.
 ITU=  0
     Eigenvalues ---    0.00230   0.00749   0.00910   0.01003   0.01083
     Eigenvalues ---    0.01435   0.01895   0.02039   0.02052   0.02340
     Eigenvalues ---    0.02874   0.03351   0.07341   0.07541   0.07600
     Eigenvalues ---    0.07868   0.10506   0.12085   0.16000   0.16000
     Eigenvalues ---    0.16000   0.16000   0.16000   0.16000   0.16000
     Eigenvalues ---    0.16800   0.21564   0.24958   0.24966   0.24985
     Eigenvalues ---    0.24997   0.24999   0.24999   0.25000   0.25000
     Eigenvalues ---    0.25000   0.25000   0.29150   0.30604   0.32246
     Eigenvalues ---    0.34289   0.34305   0.34675   0.34700   0.34767
     Eigenvalues ---    0.35019   0.37076   0.43910   0.50266   0.51056
     Eigenvalues ---    0.52873   0.63612   0.64320   0.68614   0.80946
     Eigenvalues ---    0.83050   0.87245
 RFO step:  Lambda=-5.14646385D-03 EMin= 2.30000000D-03
 Linear search not attempted -- first point.
 Iteration  1 RMS(Cart)=  0.07089329 RMS(Int)=  0.00145772
 Iteration  2 RMS(Cart)=  0.00214054 RMS(Int)=  0.00040525
 Iteration  3 RMS(Cart)=  0.00000096 RMS(Int)=  0.00040524
 Variable       Old X    -DE/DX   Delta X   Delta X   Delta X     New X
                                 (Linear)    (Quad)   (Total)
    R1        2.42698   0.00216   0.00000   0.00337   0.00338   2.43036
    R2        3.29390   0.00405   0.00000   0.01293   0.01293   3.30683
    R3        3.43015   0.00807   0.00000   0.03169   0.03169   3.46185
    R4        2.56460   0.00624   0.00000   0.01186   0.01187   2.57647
    R5        2.55277  -0.00183   0.00000  -0.00354  -0.00355   2.54922
    R6        2.75731  -0.00671   0.00000  -0.01784  -0.01784   2.73947
    R7        2.47677   0.00568   0.00000   0.00876   0.00876   2.48553
    R8        3.32696  -0.00125   0.00000  -0.00512  -0.00514   3.32182
    R9        2.59598  -0.00073   0.00000  -0.00145  -0.00145   2.59453
   R10        2.81109  -0.00708   0.00000  -0.00869  -0.00869   2.80240
   R11        2.80011  -0.01039   0.00000  -0.01243  -0.01243   2.78768
   R12        2.91891   0.00146   0.00000   0.00228   0.00228   2.92120
   R13        1.93262  -0.00170   0.00000  -0.00384  -0.00384   1.92878
   R14        2.05644   0.00071   0.00000   0.00198   0.00198   2.05842
   R15        2.06165   0.00086   0.00000   0.00244   0.00244   2.06409
   R16        2.06206   0.00084   0.00000   0.00239   0.00239   2.06445
   R17        2.83695   0.00526   0.00000   0.01607   0.01607   2.85302
   R18        2.34229  -0.01294   0.00000  -0.01474  -0.01474   2.32755
   R19        2.06819   0.00005   0.00000   0.00013   0.00013   2.06832
   R20        2.06845   0.00003   0.00000   0.00008   0.00008   2.06853
   R21        2.06054   0.00016   0.00000   0.00045   0.00045   2.06099
    A1        2.02317  -0.00246   0.00000  -0.00848  -0.00846   2.01471
    A2        2.11971   0.00379   0.00000   0.01434   0.01434   2.13405
    A3        2.13853  -0.00134   0.00000  -0.00578  -0.00579   2.13274
    A4        1.92776  -0.00231   0.00000  -0.00660  -0.00658   1.92118
    A5        2.04837   0.00398   0.00000   0.01566   0.01565   2.06403
    A6        2.08688  -0.00107   0.00000  -0.00423  -0.00423   2.08266
    A7        2.14782  -0.00291   0.00000  -0.01147  -0.01147   2.13635
    A8        2.12146  -0.00664   0.00000  -0.02520  -0.02519   2.09627
    A9        1.89515  -0.00257   0.00000  -0.01175  -0.01177   1.88338
   A10        2.26652   0.00920   0.00000   0.03690   0.03690   2.30342
   A11        2.04644   0.00685   0.00000   0.02685   0.02685   2.07329
   A12        1.53031   0.00335   0.00000   0.01114   0.01112   1.54143
   A13        1.76755  -0.00629   0.00000  -0.04141  -0.04174   1.72581
   A14        1.77537  -0.00690   0.00000  -0.03843  -0.03834   1.73703
   A15        1.92066  -0.00498   0.00000  -0.03565  -0.03588   1.88478
   A16        1.99582   0.00533   0.00000   0.04506   0.04302   2.03884
   A17        2.03618   0.00351   0.00000   0.01507   0.01292   2.04911
   A18        1.93946   0.00559   0.00000   0.03268   0.03099   1.97045
   A19        1.90275  -0.00443   0.00000  -0.02684  -0.02684   1.87591
   A20        1.87089  -0.00228   0.00000  -0.01169  -0.01168   1.85921
   A21        1.91337   0.00050   0.00000   0.00208   0.00209   1.91546
   A22        1.91472   0.00061   0.00000   0.00251   0.00251   1.91723
   A23        1.92309   0.00136   0.00000   0.01064   0.01065   1.93374
   A24        1.92348   0.00120   0.00000   0.00911   0.00912   1.93260
   A25        1.91776  -0.00139   0.00000  -0.01251  -0.01250   1.90525
   A26        2.00275  -0.00597   0.00000  -0.02341  -0.02341   1.97934
   A27        2.15794   0.00944   0.00000   0.03701   0.03701   2.19494
   A28        2.12250  -0.00347   0.00000  -0.01360  -0.01360   2.10890
   A29        1.91468   0.00043   0.00000   0.00242   0.00242   1.91711
   A30        1.91322   0.00049   0.00000   0.00282   0.00282   1.91605
   A31        1.92642  -0.00133   0.00000  -0.00772  -0.00772   1.91870
   A32        1.87619  -0.00059   0.00000  -0.00432  -0.00432   1.87187
   A33        1.91671   0.00053   0.00000   0.00354   0.00354   1.92025
   A34        1.91594   0.00050   0.00000   0.00341   0.00341   1.91936
    D1        0.00502   0.00013   0.00000   0.00403   0.00403   0.00905
    D2       -3.07407   0.00014   0.00000   0.00283   0.00281  -3.07125
    D3       -0.00510  -0.00014   0.00000  -0.00401  -0.00403  -0.00913
    D4        3.07324   0.00006   0.00000  -0.00200  -0.00202   3.07122
    D5        1.69340  -0.00144   0.00000  -0.06320  -0.06294   1.63046
    D6       -2.52883  -0.00019   0.00000  -0.04183  -0.04191  -2.57073
    D7       -0.47159   0.00049   0.00000  -0.03967  -0.03984  -0.51143
    D8       -1.38151  -0.00141   0.00000  -0.06446  -0.06421  -1.44571
    D9        0.67945  -0.00015   0.00000  -0.04309  -0.04317   0.63628
   D10        2.73669   0.00052   0.00000  -0.04093  -0.04111   2.69558
   D11       -0.00203  -0.00007   0.00000  -0.00185  -0.00189  -0.00392
   D12       -3.12860   0.00002   0.00000   0.00109   0.00106  -3.12754
   D13       -3.13376   0.00005   0.00000   0.00350   0.00341  -3.13035
   D14       -0.00172  -0.00003   0.00000  -0.00110  -0.00107  -0.00279
   D15       -0.00775  -0.00002   0.00000   0.00053   0.00043  -0.00732
   D16        3.12429  -0.00010   0.00000  -0.00407  -0.00404   3.12024
   D17       -0.02266   0.00003   0.00000  -0.00076  -0.00074  -0.02340
   D18       -2.10996  -0.00055   0.00000  -0.00784  -0.00782  -2.11777
   D19        2.06584   0.00047   0.00000   0.00471   0.00472   2.07056
   D20        3.13485   0.00006   0.00000   0.00211   0.00210   3.13694
   D21        1.04755  -0.00051   0.00000  -0.00497  -0.00498   1.04257
   D22       -1.05983   0.00050   0.00000   0.00758   0.00756  -1.05227
   D23       -3.13807  -0.00012   0.00000  -0.00373  -0.00377   3.14135
   D24        0.01532   0.00007   0.00000   0.00236   0.00239   0.01771
   D25        0.00353   0.00008   0.00000   0.00263   0.00262   0.00615
   D26        3.13452  -0.00013   0.00000  -0.00297  -0.00310   3.13142
   D27        3.13308   0.00003   0.00000   0.00136   0.00137   3.13445
   D28       -0.00815   0.00002   0.00000   0.00053   0.00052  -0.00763
   D29        1.38677  -0.00028   0.00000  -0.00225  -0.00207   1.38470
   D30       -0.61317   0.00916   0.00000   0.06708   0.06821  -0.54495
   D31       -2.94360  -0.00833   0.00000  -0.05067  -0.05199  -2.99560
   D32        1.01961  -0.00009   0.00000  -0.00159  -0.00159   1.01803
   D33       -1.03675   0.00008   0.00000   0.00055   0.00055  -1.03620
   D34        3.13397  -0.00001   0.00000  -0.00058  -0.00057   3.13340
   D35       -2.12233  -0.00008   0.00000  -0.00077  -0.00077  -2.12310
   D36        2.10449   0.00009   0.00000   0.00137   0.00136   2.10585
   D37       -0.00797   0.00000   0.00000   0.00024   0.00024  -0.00773
         Item               Value     Threshold  Converged?
 Maximum Force            0.012940     0.000450     NO 
 RMS     Force            0.003800     0.000300     NO 
 Maximum Displacement     0.218845     0.001800     NO 
 RMS     Displacement     0.070784     0.001200     NO 
 Predicted change in Energy=-2.704825D-03
 GradGradGradGradGradGradGradGradGradGradGradGradGradGradGradGradGradGrad

                          Input orientation:                          
 ---------------------------------------------------------------------
 Center     Atomic      Atomic             Coordinates (Angstroms)
 Number     Number       Type             X           Y           Z
 ---------------------------------------------------------------------
      1          6           0       -0.812673    0.372032   -0.656451
      2          7           0       -1.610569    1.107949   -1.346251
      3          7           0       -1.005178    1.496634   -2.504399
      4          6           0        0.257739    1.082433   -2.735163
      5          7           0        0.880899    1.446336   -3.834809
      6         16           0        0.764004    0.102820   -1.366213
      7         16           0       -1.325234   -0.422219    0.912758
      8          8           0       -1.755358   -1.735538    0.374826
      9          8           0       -0.039504   -0.387715    1.635153
     10          7           0       -2.406871    0.467430    1.567109
     11          1           0       -3.289843    0.275894    1.092306
     12          6           0       -1.723419    2.351766   -3.428743
     13          1           0       -2.708177    2.519393   -2.994387
     14          1           0       -1.806697    1.858110   -4.399527
     15          1           0       -1.189037    3.296654   -3.551587
     16          6           0        2.165874    1.009413   -4.042119
     17          6           0        2.760158    1.490199   -5.344051
     18          8           0        2.815952    0.296229   -3.276733
     19          1           0        2.755161    2.584309   -5.373103
     20          1           0        2.148718    1.140432   -6.181903
     21          1           0        3.780365    1.118583   -5.446779
 ---------------------------------------------------------------------
                    Distance matrix (angstroms):
                    1          2          3          4          5
     1  C    0.000000
     2  N    1.286093   0.000000
     3  N    2.171796   1.363407   0.000000
     4  C    2.443665   2.328154   1.348989   0.000000
     5  N    3.758228   3.537631   2.308638   1.315285   0.000000
     6  S    1.749900   2.578620   2.523527   1.757832   2.812946
     7  S    1.831930   2.743347   3.932098   4.251718   5.558589
     8  O    2.528643   3.326934   4.393135   4.654627   5.898746
     9  O    2.535045   3.687008   4.649643   4.620536   5.842205
    10  N    2.737661   3.087399   4.427322   5.097835   6.399094
    11  H    3.033770   3.075523   4.432402   5.280659   6.560601
    12  C    3.526246   2.428289   1.449667   2.453007   2.786964
    13  H    3.697302   2.431721   2.046052   3.305859   3.839170
    14  H    4.148148   3.150190   2.089164   2.762911   2.776984
    15  H    4.132418   3.135542   2.090569   2.768119   2.790793
    16  C    4.554201   4.641005   3.557743   2.313968   1.372967
    17  C    5.999085   5.935636   4.716081   3.637949   2.410674
    18  O    4.476444   4.896911   4.079033   2.730544   2.319186
    19  H    6.314303   6.120030   4.853108   3.930837   2.678468
    20  H    6.315924   6.125097   4.857774   3.931816   2.685105
    21  H    6.678368   6.773228   5.630449   4.445567   3.333583
                    6          7          8          9         10
     6  S    0.000000
     7  S    3.135967   0.000000
     8  O    3.571829   1.482965   0.000000
     9  O    3.145544   1.475176   2.519763   0.000000
    10  N    4.334948   1.545830   2.588257   2.518001   0.000000
    11  H    4.744254   2.092675   2.629692   3.361512   1.020668
    12  C    3.936886   5.167415   5.583387   5.998614   5.382970
    13  H    4.532860   5.082459   5.510345   6.083233   5.010846
    14  H    4.346325   5.801041   5.975900   6.677130   6.155887
    15  H    4.334837   5.811965   6.407839   6.465159   5.974000
    16  C    3.153985   6.228018   6.513081   6.248766   7.257216
    17  C    4.661829   7.713328   7.968740   7.750739   8.689556
    18  O    2.810335   5.934427   6.193451   5.722590   7.125307
    19  H    5.116411   8.074706   8.487906   8.109176   8.904735
    20  H    5.117122   8.052603   8.154980   8.260139   9.014072
    21  H    5.175059   8.299694   8.525335   8.186214   9.375528
                   11         12         13         14         15
    11  H    0.000000
    12  C    5.215632   0.000000
    13  H    4.698157   1.089271   0.000000
    14  H    5.904520   1.092269   1.795656   0.000000
    15  H    5.924873   1.092460   1.795102   1.780425   0.000000
    16  C    7.527630   4.159897   5.209045   4.077910   4.089929
    17  C    8.916487   4.951077   6.040104   4.677997   4.698122
    18  O    7.507972   4.985402   5.961391   5.006897   5.011789
    19  H    9.147260   4.887974   5.959074   4.720780   4.402505
    20  H    9.123567   4.903128   5.970864   4.397412   4.765339
    21  H    9.667348   5.990397   7.076558   5.732269   5.747234
                   16         17         18         19         20
    16  C    0.000000
    17  C    1.509754   0.000000
    18  O    1.231685   2.387987   0.000000
    19  H    2.144545   1.094507   3.103832   0.000000
    20  H    2.143860   1.094619   3.098046   1.762587   0.000000
    21  H    2.142795   1.090630   2.513058   1.790202   1.789737
                   21
    21  H    0.000000
 Stoichiometry    C5H7N4O3S2(1-)
 Framework group  C1[X(C5H7N4O3S2)]
 Deg. of freedom    57
 Full point group                 C1      NOp   1
 Largest Abelian subgroup         C1      NOp   1
 Largest concise Abelian subgroup C1      NOp   1
                         Standard orientation:                         
 ---------------------------------------------------------------------
 Center     Atomic      Atomic             Coordinates (Angstroms)
 Number     Number       Type             X           Y           Z
 ---------------------------------------------------------------------
      1          6           0        1.104141    0.182541   -0.054665
      2          7           0        0.764027    1.422785   -0.042257
      3          7           0       -0.594446    1.535271   -0.014375
      4          6           0       -1.329058    0.403860   -0.009298
      5          7           0       -2.642600    0.470134    0.004512
      6         16           0       -0.221040   -0.960259   -0.047373
      7         16           0        2.854784   -0.352385    0.016547
      8          8           0        2.978472   -0.536509    1.482830
      9          8           0        2.769666   -1.575996   -0.803012
     10          7           0        3.718036    0.750694   -0.637367
     11          1           0        3.837293    1.494989    0.050794
     12          6           0       -1.197927    2.853355   -0.014076
     13          1           0       -0.377411    3.569780   -0.013947
     14          1           0       -1.818873    2.974755    0.876284
     15          1           0       -1.819171    2.977093   -0.904139
     16          6           0       -3.363618   -0.698263    0.009076
     17          6           0       -4.857448   -0.481112    0.035033
     18          8           0       -2.891240   -1.835660   -0.006304
     19          1           0       -5.161670    0.112720   -0.832583
     20          1           0       -5.133873    0.085955    0.929581
     21          1           0       -5.373046   -1.442152    0.029112
 ---------------------------------------------------------------------
 Rotational constants (GHZ):           1.2575382           0.3169527           0.2677704
 Basis read from rwf:  (6D, 7F)
 There are   288 symmetry adapted cartesian basis functions of A   symmetry.
 There are   288 symmetry adapted basis functions of A   symmetry.
   288 basis functions,   524 primitive gaussians,   288 cartesian basis functions
    61 alpha electrons       61 beta electrons
       nuclear repulsion energy      1173.6369973032 Hartrees.
 NAtoms=   21 NActive=   21 NUniq=   21 SFac= 1.00D+00 NAtFMM=   60 NAOKFM=F Big=F
 Integral buffers will be    131072 words long.
 Raffenetti 2 integral format.
 Two-electron integral symmetry is turned on.
 One-electron integrals computed using PRISM.
 NBasis=   288 RedAO= T EigKep=  1.41D-05  NBF=   288
 NBsUse=   288 1.00D-06 EigRej= -1.00D+00 NBFU=   288
 Initial guess from the checkpoint file:  "/jobfs/40839089.gadi-pbs/Gau-3712181.chk"
 B after Tr=     0.000000    0.000000    0.000000
         Rot=    0.999977    0.006628   -0.000315    0.001178 Ang=   0.77 deg.
 ExpMin= 4.05D-02 ExpMax= 2.19D+04 ExpMxC= 3.30D+03 IAcc=3 IRadAn=         5 AccDes= 0.00D+00
 Harris functional with IExCor= 1009 and IRadAn=       5 diagonalized for initial guess.
 HarFok:  IExCor= 1009 AccDes= 0.00D+00 IRadAn=         5 IDoV= 1 UseB2=F ITyADJ=14
 ICtDFT=  3500011 ScaDFX=  1.000000  1.000000  1.000000  1.000000
 FoFCou: FMM=F IPFlag=           0 FMFlag=      100000 FMFlg1=           0
         NFxFlg=           0 DoJE=T BraDBF=F KetDBF=T FulRan=T
         wScrn=  0.000000 ICntrl=       500 IOpCl=  0 I1Cent=   200000004 NGrid=           0
         NMat0=    1 NMatS0=      1 NMatT0=    0 NMatD0=    1 NMtDS0=    0 NMtDT0=    0
 Petite list used in FoFCou.
 Requested convergence on RMS density matrix=1.00D-08 within 128 cycles.
 Requested convergence on MAX density matrix=1.00D-06.
 Requested convergence on             energy=1.00D-06.
 No special actions if energy rises.
 SCF Done:  E(RM062X) =  -1435.47887340     A.U. after   14 cycles
            NFock= 14  Conv=0.80D-08     -V/T= 2.0055
 Calling FoFJK, ICntrl=      2127 FMM=F ISym2X=0 I1Cent= 0 IOpClX= 0 NMat=1 NMatS=1 NMatT=0.
 ***** Axes restored to original set *****
 -------------------------------------------------------------------
 Center     Atomic                   Forces (Hartrees/Bohr)
 Number     Number              X              Y              Z
 -------------------------------------------------------------------
      1        6          -0.001422362    0.003916577   -0.003629610
      2        7           0.001211246   -0.000932281    0.000337262
      3        7          -0.000240283    0.001525159   -0.003306191
      4        6           0.002600312   -0.001922898    0.001786550
      5        7          -0.000404323    0.001164462   -0.001900113
      6       16           0.001811485    0.000792761   -0.002113754
      7       16           0.004868673   -0.003606935   -0.001081378
      8        8           0.000087144    0.002695041    0.004338911
      9        8          -0.006106451   -0.001915110    0.000288050
     10        7           0.001020689   -0.000030970    0.002034868
     11        1          -0.000241995   -0.001318718    0.000076250
     12        6          -0.000799611   -0.000711539    0.001708350
     13        1          -0.000086907    0.000252570   -0.000320542
     14        1           0.000267995    0.000574861   -0.000502539
     15        1           0.000071173    0.000112882   -0.000791389
     16        6           0.000896608   -0.004192332    0.006832425
     17        6           0.000732478    0.001297983   -0.002893118
     18        8          -0.004215142    0.002298744   -0.000919762
     19        1          -0.000099968   -0.000004274   -0.000050221
     20        1          -0.000048906    0.000105723   -0.000001566
     21        1           0.000098143   -0.000101706    0.000107519
 -------------------------------------------------------------------
 Cartesian Forces:  Max     0.006832425 RMS     0.002147764

 GradGradGradGradGradGradGradGradGradGradGradGradGradGradGradGradGradGrad
 Berny optimization.
 Using GEDIIS/GDIIS optimizer.
 FormGI is forming the generalized inverse of G from B-inverse, IUseBI=4.
 Internal  Forces:  Max     0.012325707 RMS     0.002204853
 Search for a local minimum.
 Step number   2 out of a maximum of  102
 All quantities printed in internal units (Hartrees-Bohrs-Radians)
 Mixed Optimization -- RFO/linear search
 Update second derivatives using D2CorX and points    1    2
 DE= -1.93D-03 DEPred=-2.70D-03 R= 7.13D-01
 TightC=F SS=  1.41D+00  RLast= 1.99D-01 DXNew= 5.0454D-01 5.9836D-01
 Trust test= 7.13D-01 RLast= 1.99D-01 DXMaxT set to 5.05D-01
 ITU=  1  0
 Use linear search instead of GDIIS.
     Eigenvalues ---    0.00228   0.00749   0.00910   0.01003   0.01100
     Eigenvalues ---    0.01440   0.01896   0.02035   0.02039   0.02332
     Eigenvalues ---    0.02874   0.03338   0.07374   0.07524   0.07558
     Eigenvalues ---    0.07906   0.11193   0.12491   0.15446   0.16000
     Eigenvalues ---    0.16000   0.16000   0.16000   0.16000   0.16002
     Eigenvalues ---    0.17916   0.21095   0.21681   0.24965   0.24983
     Eigenvalues ---    0.24988   0.24996   0.24998   0.24999   0.25000
     Eigenvalues ---    0.25000   0.29044   0.30464   0.31853   0.34289
     Eigenvalues ---    0.34305   0.34664   0.34693   0.34767   0.35006
     Eigenvalues ---    0.35946   0.39216   0.43981   0.50458   0.50774
     Eigenvalues ---    0.52717   0.63625   0.64917   0.68588   0.79013
     Eigenvalues ---    0.81940   0.86128
 RFO step:  Lambda=-1.07884333D-03 EMin= 2.27937178D-03
 Quartic linear search produced a step of -0.19464.
 Iteration  1 RMS(Cart)=  0.05498093 RMS(Int)=  0.00121384
 Iteration  2 RMS(Cart)=  0.00162934 RMS(Int)=  0.00005916
 Iteration  3 RMS(Cart)=  0.00000116 RMS(Int)=  0.00005916
 Iteration  4 RMS(Cart)=  0.00000000 RMS(Int)=  0.00005916
 Variable       Old X    -DE/DX   Delta X   Delta X   Delta X     New X
                                 (Linear)    (Quad)   (Total)
    R1        2.43036   0.00065  -0.00066   0.00213   0.00147   2.43183
    R2        3.30683   0.00085  -0.00252   0.00716   0.00464   3.31147
    R3        3.46185   0.00676  -0.00617   0.03397   0.02781   3.48965
    R4        2.57647   0.00214  -0.00231   0.00799   0.00568   2.58215
    R5        2.54922   0.00044   0.00069  -0.00073  -0.00004   2.54918
    R6        2.73947   0.00035   0.00347  -0.00626  -0.00279   2.73668
    R7        2.48553  -0.00227  -0.00170   0.00063  -0.00107   2.48446
    R8        3.32182  -0.00177   0.00100  -0.00705  -0.00604   3.31578
    R9        2.59453  -0.00274   0.00028  -0.00492  -0.00464   2.58990
   R10        2.80240  -0.00398   0.00169  -0.00735  -0.00566   2.79674
   R11        2.78768  -0.00523   0.00242  -0.00992  -0.00750   2.78018
   R12        2.92120  -0.00043  -0.00044   0.00036  -0.00008   2.92111
   R13        1.92878   0.00042   0.00075  -0.00074   0.00000   1.92879
   R14        2.05842  -0.00001  -0.00039   0.00076   0.00037   2.05879
   R15        2.06409   0.00017  -0.00048   0.00134   0.00086   2.06495
   R16        2.06445   0.00022  -0.00046   0.00145   0.00098   2.06543
   R17        2.85302   0.00313  -0.00313   0.01403   0.01091   2.86393
   R18        2.32755  -0.00413   0.00287  -0.00958  -0.00671   2.32084
   R19        2.06832  -0.00000  -0.00003   0.00005   0.00002   2.06834
   R20        2.06853  -0.00001  -0.00002   0.00002   0.00000   2.06853
   R21        2.06099   0.00012  -0.00009   0.00044   0.00036   2.06135
    A1        2.01471  -0.00096   0.00165  -0.00635  -0.00470   2.01000
    A2        2.13405   0.00282  -0.00279   0.01446   0.01166   2.14571
    A3        2.13274  -0.00187   0.00113  -0.00836  -0.00724   2.12550
    A4        1.92118   0.00105   0.00128   0.00151   0.00279   1.92397
    A5        2.06403  -0.00208  -0.00305  -0.00021  -0.00326   2.06077
    A6        2.08266   0.00065   0.00082   0.00027   0.00109   2.08375
    A7        2.13635   0.00142   0.00223  -0.00012   0.00211   2.13847
    A8        2.09627   0.00236   0.00490  -0.00222   0.00268   2.09895
    A9        1.88338   0.00161   0.00229   0.00026   0.00256   1.88594
   A10        2.30342  -0.00397  -0.00718   0.00195  -0.00523   2.29819
   A11        2.07329  -0.01233  -0.00523  -0.02871  -0.03393   2.03936
   A12        1.54143   0.00038  -0.00217   0.00476   0.00260   1.54403
   A13        1.72581   0.00368   0.00812   0.00221   0.01041   1.73622
   A14        1.73703   0.00393   0.00746   0.00373   0.01118   1.74821
   A15        1.88478   0.00181   0.00698  -0.00235   0.00470   1.88948
   A16        2.03884  -0.00111  -0.00837   0.00663  -0.00150   2.03734
   A17        2.04911  -0.00257  -0.00252  -0.00703  -0.00920   2.03991
   A18        1.97045  -0.00271  -0.00603  -0.00153  -0.00732   1.96313
   A19        1.87591  -0.00138   0.00522  -0.01734  -0.01212   1.86379
   A20        1.85921   0.00062   0.00227  -0.00041   0.00185   1.86106
   A21        1.91546   0.00045  -0.00041   0.00252   0.00211   1.91757
   A22        1.91723   0.00042  -0.00049   0.00247   0.00198   1.91921
   A23        1.93374  -0.00023  -0.00207   0.00416   0.00208   1.93582
   A24        1.93260  -0.00025  -0.00178   0.00333   0.00155   1.93415
   A25        1.90525  -0.00094   0.00243  -0.01164  -0.00920   1.89605
   A26        1.97934   0.00092   0.00456  -0.00624  -0.00168   1.97766
   A27        2.19494  -0.00351  -0.00720   0.00333  -0.00387   2.19107
   A28        2.10890   0.00259   0.00265   0.00290   0.00555   2.11446
   A29        1.91711   0.00002  -0.00047   0.00097   0.00049   1.91760
   A30        1.91605   0.00005  -0.00055   0.00129   0.00074   1.91678
   A31        1.91870  -0.00017   0.00150  -0.00376  -0.00226   1.91645
   A32        1.87187  -0.00009   0.00084  -0.00236  -0.00152   1.87036
   A33        1.92025   0.00010  -0.00069   0.00199   0.00130   1.92155
   A34        1.91936   0.00010  -0.00066   0.00195   0.00129   1.92064
    D1        0.00905   0.00007  -0.00078   0.00297   0.00219   0.01124
    D2       -3.07125   0.00022  -0.00055   0.00790   0.00738  -3.06387
    D3       -0.00913  -0.00005   0.00078  -0.00206  -0.00128  -0.01041
    D4        3.07122  -0.00002   0.00039  -0.00611  -0.00567   3.06555
    D5        1.63046  -0.00081   0.01225  -0.09354  -0.08137   1.54909
    D6       -2.57073   0.00013   0.00816  -0.08495  -0.07676  -2.64749
    D7       -0.51143  -0.00043   0.00776  -0.08580  -0.07802  -0.58945
    D8       -1.44571  -0.00071   0.01250  -0.08843  -0.07600  -1.52171
    D9        0.63628   0.00024   0.00840  -0.07983  -0.07139   0.56489
   D10        2.69558  -0.00032   0.00800  -0.08069  -0.07265   2.62293
   D11       -0.00392  -0.00006   0.00037  -0.00273  -0.00235  -0.00628
   D12       -3.12754  -0.00003  -0.00021   0.00061   0.00041  -3.12713
   D13       -3.13035   0.00004  -0.00066   0.00161   0.00096  -3.12940
   D14       -0.00279   0.00002   0.00021   0.00115   0.00134  -0.00145
   D15       -0.00732  -0.00001  -0.00008  -0.00184  -0.00191  -0.00923
   D16        3.12024  -0.00003   0.00079  -0.00230  -0.00153   3.11872
   D17       -0.02340  -0.00003   0.00014  -0.00129  -0.00115  -0.02456
   D18       -2.11777  -0.00035   0.00152  -0.00741  -0.00590  -2.12367
   D19        2.07056   0.00026  -0.00092   0.00382   0.00290   2.07346
   D20        3.13694   0.00005  -0.00041   0.00220   0.00179   3.13874
   D21        1.04257  -0.00027   0.00097  -0.00392  -0.00295   1.03962
   D22       -1.05227   0.00034  -0.00147   0.00731   0.00584  -1.04643
   D23        3.14135   0.00002   0.00073  -0.00082  -0.00008   3.14127
   D24        0.01771  -0.00003  -0.00047  -0.00020  -0.00067   0.01705
   D25        0.00615   0.00002  -0.00051   0.00047  -0.00004   0.00611
   D26        3.13142   0.00008   0.00060  -0.00012   0.00051   3.13193
   D27        3.13445   0.00002  -0.00027   0.00112   0.00085   3.13530
   D28       -0.00763   0.00004  -0.00010   0.00199   0.00188  -0.00574
   D29        1.38470   0.00067   0.00040   0.01505   0.01540   1.40011
   D30       -0.54495  -0.00376  -0.01328   0.01767   0.00425  -0.54070
   D31       -2.99560   0.00504   0.01012   0.01742   0.02772  -2.96787
   D32        1.01803  -0.00002   0.00031  -0.00024   0.00007   1.01810
   D33       -1.03620   0.00005  -0.00011   0.00129   0.00118  -1.03501
   D34        3.13340   0.00001   0.00011   0.00045   0.00056   3.13396
   D35       -2.12310  -0.00004   0.00015  -0.00106  -0.00091  -2.12401
   D36        2.10585   0.00003  -0.00027   0.00047   0.00021   2.10606
   D37       -0.00773  -0.00001  -0.00005  -0.00037  -0.00042  -0.00815
         Item               Value     Threshold  Converged?
 Maximum Force            0.012326     0.000450     NO 
 RMS     Force            0.002205     0.000300     NO 
 Maximum Displacement     0.195411     0.001800     NO 
 RMS     Displacement     0.055257     0.001200     NO 
 Predicted change in Energy=-7.122634D-04
 GradGradGradGradGradGradGradGradGradGradGradGradGradGradGradGradGradGrad

                          Input orientation:                          
 ---------------------------------------------------------------------
 Center     Atomic      Atomic             Coordinates (Angstroms)
 Number     Number       Type             X           Y           Z
 ---------------------------------------------------------------------
      1          6           0       -0.817069    0.379606   -0.678164
      2          7           0       -1.623709    1.106234   -1.369086
      3          7           0       -1.025447    1.501306   -2.532307
      4          6           0        0.242336    1.101563   -2.761754
      5          7           0        0.864012    1.468168   -3.860664
      6         16           0        0.762691    0.132072   -1.394986
      7         16           0       -1.307403   -0.440474    0.902069
      8          8           0       -1.826849   -1.717197    0.363119
      9          8           0       -0.004496   -0.491122    1.583482
     10          7           0       -2.319328    0.474510    1.628889
     11          1           0       -3.227119    0.317587    1.189505
     12          6           0       -1.754445    2.346531   -3.455029
     13          1           0       -2.740896    2.504462   -3.020393
     14          1           0       -1.830998    1.854799   -4.427854
     15          1           0       -1.230243    3.296848   -3.584323
     16          6           0        2.149963    1.022615   -4.022288
     17          6           0        2.786332    1.484489   -5.317866
     18          8           0        2.766721    0.318459   -3.227250
     19          1           0        2.787610    2.578093   -5.362546
     20          1           0        2.197599    1.127123   -6.168676
     21          1           0        3.807050    1.105473   -5.383945
 ---------------------------------------------------------------------
                    Distance matrix (angstroms):
                    1          2          3          4          5
     1  C    0.000000
     2  N    1.286869   0.000000
     3  N    2.177035   1.366412   0.000000
     4  C    2.446407   2.328448   1.348967   0.000000
     5  N    3.760228   3.539451   2.309910   1.314719   0.000000
     6  S    1.752355   2.577706   2.523041   1.754633   2.806241
     7  S    1.846645   2.765955   3.955370   4.266517   5.571498
     8  O    2.549610   3.318669   4.402783   4.689538   5.935287
     9  O    2.556068   3.727071   4.685278   4.634506   5.850799
    10  N    2.754683   3.141785   4.477051   5.121821   6.423099
    11  H    3.049652   3.120782   4.483352   5.316407   6.600410
    12  C    3.529652   2.430346   1.448191   2.453102   2.791483
    13  H    3.701643   2.435151   2.046294   3.306765   3.843869
    14  H    4.155048   3.155848   2.089729   2.764411   2.781055
    15  H    4.138450   3.140203   2.091088   2.768462   2.793983
    16  C    4.516625   4.613791   3.540115   2.287842   1.370514
    17  C    5.977633   5.931644   4.721152   3.626604   2.412263
    18  O    4.398309   4.832105   4.032692   2.683739   2.311568
    19  H    6.306385   6.129749   4.869202   3.927172   2.681009
    20  H    6.308148   6.135055   4.873522   3.928210   2.687319
    21  H    6.637299   6.753684   5.625082   4.425279   3.333677
                    6          7          8          9         10
     6  S    0.000000
     7  S    3.144767   0.000000
     8  O    3.635443   1.479971   0.000000
     9  O    3.138187   1.471208   2.512671   0.000000
    10  N    4.331272   1.545786   2.578427   2.508576   0.000000
    11  H    4.757373   2.083887   2.604615   3.345822   1.020670
    12  C    3.934918   5.191488   5.576502   6.041621   5.446996
    13  H    4.532693   5.110114   5.486898   6.136536   5.090604
    14  H    4.346642   5.826707   5.976002   6.706386   6.231196
    15  H    4.333681   5.839627   6.409281   6.523602   6.027377
    16  C    3.101662   6.192197   6.523296   6.193364   7.225702
    17  C    4.616616   7.691017   7.987854   7.701971   8.680162
    18  O    2.721776   5.850277   6.175396   5.610544   7.033798
    19  H    5.081816   8.070086   8.516219   8.090936   8.909884
    20  H    5.083032   8.045983   8.182340   8.219726   9.034963
    21  H    5.111500   8.249943   8.528601   8.100744   9.333299
                   11         12         13         14         15
    11  H    0.000000
    12  C    5.277981   0.000000
    13  H    4.768866   1.089467   0.000000
    14  H    5.988899   1.092726   1.797478   0.000000
    15  H    5.971008   1.092980   1.796653   1.775375   0.000000
    16  C    7.521494   4.161602   5.207703   4.087182   4.097529
    17  C    8.936953   4.983165   6.071983   4.716883   4.735261
    18  O    7.445391   4.960433   5.929186   4.994077   4.997402
    19  H    9.176941   4.931785   6.004622   4.767425   4.452172
    20  H    9.177459   4.946665   6.016435   4.448547   4.810062
    21  H    9.659739   6.015910   7.100645   5.767425   5.780579
                   16         17         18         19         20
    16  C    0.000000
    17  C    1.515524   0.000000
    18  O    1.228134   2.393885   0.000000
    19  H    2.149977   1.094518   3.109000   0.000000
    20  H    2.149459   1.094621   3.103197   1.761611   0.000000
    21  H    2.146373   1.090819   2.520519   1.791181   1.790699
                   21
    21  H    0.000000
 Stoichiometry    C5H7N4O3S2(1-)
 Framework group  C1[X(C5H7N4O3S2)]
 Deg. of freedom    57
 Full point group                 C1      NOp   1
 Largest Abelian subgroup         C1      NOp   1
 Largest concise Abelian subgroup C1      NOp   1
                         Standard orientation:                         
 ---------------------------------------------------------------------
 Center     Atomic      Atomic             Coordinates (Angstroms)
 Number     Number       Type             X           Y           Z
 ---------------------------------------------------------------------
      1          6           0        1.090086    0.199380   -0.058804
      2          7           0        0.747316    1.439686   -0.045281
      3          7           0       -0.613984    1.553484   -0.013774
      4          6           0       -1.345833    0.420305   -0.009820
      5          7           0       -2.659107    0.479817    0.006174
      6         16           0       -0.240064   -0.941408   -0.051623
      7         16           0        2.849149   -0.357166    0.018954
      8          8           0        3.014719   -0.437332    1.487447
      9          8           0        2.750045   -1.633258   -0.706459
     10          7           0        3.718879    0.680592   -0.726755
     11          1           0        3.867825    1.457946   -0.082314
     12          6           0       -1.217268    2.870035   -0.012218
     13          1           0       -0.398159    3.588365   -0.013244
     14          1           0       -1.841469    2.991471    0.876421
     15          1           0       -1.844054    2.994331   -0.898950
     16          6           0       -3.332766   -0.713701    0.008783
     17          6           0       -4.839381   -0.551934    0.036312
     18          8           0       -2.813529   -1.826542   -0.008260
     19          1           0       -5.166754    0.031779   -0.829757
     20          1           0       -5.136788    0.003592    0.931373
     21          1           0       -5.316592   -1.532804    0.029287
 ---------------------------------------------------------------------
 Rotational constants (GHZ):           1.2492945           0.3187794           0.2685838
 Basis read from rwf:  (6D, 7F)
 There are   288 symmetry adapted cartesian basis functions of A   symmetry.
 There are   288 symmetry adapted basis functions of A   symmetry.
   288 basis functions,   524 primitive gaussians,   288 cartesian basis functions
    61 alpha electrons       61 beta electrons
       nuclear repulsion energy      1174.4624932594 Hartrees.
 NAtoms=   21 NActive=   21 NUniq=   21 SFac= 1.00D+00 NAtFMM=   60 NAOKFM=F Big=F
 Integral buffers will be    131072 words long.
 Raffenetti 2 integral format.
 Two-electron integral symmetry is turned on.
 One-electron integrals computed using PRISM.
 NBasis=   288 RedAO= T EigKep=  1.45D-05  NBF=   288
 NBsUse=   288 1.00D-06 EigRej= -1.00D+00 NBFU=   288
 Initial guess from the checkpoint file:  "/jobfs/40839089.gadi-pbs/Gau-3712181.chk"
 B after Tr=    -0.000000   -0.000000   -0.000000
         Rot=    0.999965    0.008154   -0.000682   -0.001945 Ang=   0.96 deg.
 ExpMin= 4.05D-02 ExpMax= 2.19D+04 ExpMxC= 3.30D+03 IAcc=3 IRadAn=         5 AccDes= 0.00D+00
 Harris functional with IExCor= 1009 and IRadAn=       5 diagonalized for initial guess.
 HarFok:  IExCor= 1009 AccDes= 0.00D+00 IRadAn=         5 IDoV= 1 UseB2=F ITyADJ=14
 ICtDFT=  3500011 ScaDFX=  1.000000  1.000000  1.000000  1.000000
 FoFCou: FMM=F IPFlag=           0 FMFlag=      100000 FMFlg1=           0
         NFxFlg=           0 DoJE=T BraDBF=F KetDBF=T FulRan=T
         wScrn=  0.000000 ICntrl=       500 IOpCl=  0 I1Cent=   200000004 NGrid=           0
         NMat0=    1 NMatS0=      1 NMatT0=    0 NMatD0=    1 NMtDS0=    0 NMtDT0=    0
 Petite list used in FoFCou.
 Requested convergence on RMS density matrix=1.00D-08 within 128 cycles.
 Requested convergence on MAX density matrix=1.00D-06.
 Requested convergence on             energy=1.00D-06.
 No special actions if energy rises.
 SCF Done:  E(RM062X) =  -1435.47959217     A.U. after   13 cycles
            NFock= 13  Conv=0.95D-08     -V/T= 2.0054
 Calling FoFJK, ICntrl=      2127 FMM=F ISym2X=0 I1Cent= 0 IOpClX= 0 NMat=1 NMatS=1 NMatT=0.
 ***** Axes restored to original set *****
 -------------------------------------------------------------------
 Center     Atomic                   Forces (Hartrees/Bohr)
 Number     Number              X              Y              Z
 -------------------------------------------------------------------
      1        6          -0.000348344    0.002345635   -0.002709115
      2        7           0.000589994   -0.000998866    0.000541636
      3        7          -0.000018273   -0.000041698   -0.000152027
      4        6          -0.001807741   -0.001030495    0.003533151
[...]
 .00417850,-0.01617670,-0.02814078,0.01049678,-0.00779956,-0.01355977,-
 0.16115735,0.28311511,0.00989390,-0.01622929,-0.01005441,-0.00064560,-
 0.00107440,0.00141922,0.00407459,0.00129101,-0.00306873,-0.00143389,-0
 .00044293,0.00144311,0.00341573,0.00173591,-0.00359866,-0.00277115,0.0
 0252984,-0.00451087,0.02949824,-0.13434452,-0.17569482,0.00159474,-0.0
 1862129,0.00375852,-0.00592338,0.00423811,0.00897544,0.00928348,0.1628
 9543,0.20711781,0.00064939,-0.00025404,0.00040998,-0.00015138,-0.00003
 029,0.00016282,0.00031376,-0.00037247,0.00017787,-0.00001251,0.0000341
 3,-0.00006324,0.00028787,0.00008585,-0.00022062,-0.00000944,0.00026553
 ,-0.00049129,-0.01891311,-0.00693767,-0.01438915,0.00212412,-0.0042621
 5,-0.00111263,0.00230617,0.00275338,0.00173281,-0.39775666,0.10103036,
 -0.04665413,0.41121545,-0.00053649,-0.00006674,-0.00050720,0.00049008,
 -0.00024957,-0.00025299,-0.00043924,-0.00027358,0.00040034,0.00026496,
 -0.00006551,0.00001965,-0.00008304,-0.00000317,0.00008059,0.00002314,-
 0.00005622,0.00008759,0.03757699,-0.01460357,0.00210051,-0.00435055,0.
 00337360,0.00234396,0.00483644,-0.00313748,-0.00650354,0.05456942,-0.0
 3262980,-0.00188201,-0.09229350,0.04767827,-0.00135408,-0.00158644,-0.
 00172317,-0.00017008,0.00008424,-0.00043597,-0.00012785,0.00073438,-0.
 00057936,-0.00019738,0.00015950,-0.00006940,-0.00033390,-0.00005089,0.
 00034845,0.00010919,-0.00014848,0.00050069,0.02666189,-0.01674646,-0.0
 0779650,0.00056078,0.00340838,-0.00112826,0.00083659,-0.00401088,0.002
 63726,-0.08651311,0.01404064,-0.02614532,0.06038411,0.00407884,0.03449
 649,-0.00101161,-0.00244028,0.00749270,0.01388433,-0.00898712,0.002685
 96,-0.13625486,0.05155600,-0.04326742,-0.02418634,0.01849250,-0.017254
 54,0.00328864,0.00181666,-0.00755883,-0.00343678,0.00187874,0.00123698
 ,0.00201387,0.00147752,-0.00314221,-0.00097959,-0.00064560,0.00027941,
 0.00061070,-0.00085836,0.00095958,-0.00060166,0.00045738,0.00095778,0.
 00002115,-0.00010269,0.00006371,0.60243797,0.00073932,0.00357978,0.000
 81423,0.00091185,-0.01423798,0.00959844,0.04865033,-0.11639908,0.06873
 553,0.01300422,-0.00347012,-0.00026322,-0.00746190,-0.00371047,0.00328
 626,0.00116732,0.00289273,0.00159730,-0.00044045,0.00036371,0.00260133
 ,0.00080093,0.00053759,-0.00057484,-0.00031301,-0.00004880,-0.00066687
 ,0.00025088,-0.00042516,-0.00061399,-0.00004477,0.00006018,0.00006781,
 0.02769717,0.56031417,0.00220102,0.00269452,-0.00139698,-0.01495562,0.
 01594780,-0.02704417,-0.03741425,0.06664182,-0.15112358,-0.00872794,-0
 .00321594,0.01128357,0.00813463,-0.00187511,-0.00591368,0.00227627,0.0
 0118995,0.00090338,0.00049692,0.00119999,-0.00089479,-0.00045512,-0.00
 044508,0.00014616,-0.00020850,-0.00027870,0.00009713,-0.00039181,0.000
 19669,0.00075543,0.00003394,-0.00005058,-0.00004209,-0.05637022,0.0273
 6822,0.57150068,0.00016700,0.00006117,-0.00030098,0.00128403,-0.002218
 75,0.00327017,-0.02229762,0.00395904,0.00438625,0.00043559,0.00114937,
 -0.00217769,-0.00005824,0.00027350,-0.00013063,-0.00011127,0.00007854,
 0.00016655,-0.00027687,0.00002308,0.00022100,0.00009129,0.00002136,-0.
 00001403,0.00011467,-0.00000372,-0.00007230,0.00008460,-0.00013409,-0.
 00006689,0.00001573,0.00002911,-0.00002216,-0.29697348,0.02301753,0.09
 020264,0.32310282,0.00039983,-0.00034251,0.00007060,0.00031814,0.00108
 667,-0.00153564,0.02425018,-0.00616064,-0.00590103,-0.00052727,-0.0014
 9602,0.00339540,-0.00017991,0.00061083,-0.00002347,0.00045594,0.000023
 63,0.00034960,0.00018357,0.00000675,0.00016939,-0.00015699,-0.00004797
 ,-0.00011718,-0.00014610,0.00003040,-0.00003659,0.00000691,-0.00008021
 ,-0.00006105,-0.00000315,0.00003595,0.00000557,0.01532193,-0.05234989,
 -0.00690330,-0.02738116,0.05331061,-0.00090127,0.00027543,-0.00016440,
 -0.00111348,-0.00005241,0.00114982,-0.02945762,0.00489888,0.00542633,0
 .00093413,0.00234788,-0.00431180,0.00080303,-0.00035094,0.00066268,-0.
 00044136,0.00057796,-0.00031004,-0.00008680,0.00024417,-0.00019084,-0.
 00003330,-0.00012709,0.00002952,0.00018578,-0.00011105,0.00005536,0.00
 002497,-0.00011336,0.00006003,0.00002995,0.00003750,-0.00004992,0.1029
 9601,-0.01101605,-0.08729397,-0.09917759,0.00452409,0.09155940,-0.0006
 8252,0.00089722,-0.00095492,-0.00158143,-0.00180550,0.00087684,-0.0034
 5760,-0.00347731,-0.01998533,0.00324714,0.00018732,-0.00342167,-0.0001
 3983,-0.00115077,0.00156327,0.00091559,0.00049333,-0.00008895,-0.00017
 190,0.00016149,0.00043588,0.00009941,0.00001725,-0.00009091,-0.0000381
 3,0.00000373,-0.00014842,0.00004424,-0.00009594,-0.00004786,0.00000760
 ,0.00002583,-0.00001796,-0.04986523,0.00304654,0.00815532,0.00386613,0
 .01456162,0.02648605,0.04752673,-0.00002903,-0.00120605,0.00073681,0.0
 0197096,-0.00013107,0.00165764,0.00120917,0.01019021,0.02492864,-0.000
 84037,0.00103544,0.00075970,0.00070252,-0.00010303,-0.00033553,-0.0004
 0468,-0.00062089,0.00014000,0.00030818,-0.00003189,-0.00055445,-0.0001
 7567,-0.00010592,0.00006593,0.00003925,-0.00004967,0.00021621,-0.00006
 905,0.00011556,0.00010400,0.00000299,-0.00001795,0.00000673,0.00136140
 ,-0.11032941,-0.11813710,-0.00039656,-0.00135332,-0.00019468,-0.005073
 09,0.11593219,-0.00027310,0.00126128,-0.00124687,-0.00335870,-0.001635
 16,-0.00091629,-0.00498926,0.00060549,-0.02456148,0.00456545,-0.000166
 59,-0.00241000,-0.00181518,-0.00031706,0.00219573,0.00050389,0.0000347
 1,-0.00022161,-0.00050143,-0.00024418,0.00102654,0.00038694,0.00029407
 ,-0.00011401,-0.00009926,0.00016803,-0.00032646,0.00012682,-0.00006721
 ,-0.00024177,-0.00001872,0.00000238,0.00001960,0.00391375,-0.11302709,
 -0.26180299,-0.00020135,-0.00400162,-0.00615078,-0.00000912,0.11731422
 ,0.29131810,-0.00070395,0.00051643,-0.00106922,-0.00059873,0.00071684,
 0.00145924,0.00692544,0.02175048,-0.00415941,0.00253623,0.00138510,-0.
 00170388,0.00025127,-0.00047735,0.00116268,0.00039662,-0.00060104,-0.0
 0084441,-0.00032274,-0.00025236,0.00007987,0.00010920,0.00005474,0.000
 05545,0.00003095,0.00011535,-0.00005799,0.00005565,0.00001672,-0.00003
 474,0.00000823,-0.00001031,-0.00001874,-0.10602267,-0.11352283,0.00952
 877,-0.00955986,-0.02705895,-0.00030308,0.00026160,0.00132817,0.000758
 76,0.10714643,0.00069717,-0.00079701,0.00132388,0.00122886,-0.00180003
 ,-0.00265702,0.00114450,-0.01764889,0.01101404,-0.00500066,-0.00028103
 ,0.00326450,0.00150407,0.00098644,-0.00229974,-0.00062500,0.00019081,0
 .00032291,0.00048531,0.00037242,-0.00074555,-0.00017339,-0.00010896,0.
 00009652,0.00004439,-0.00017139,0.00023287,-0.00016615,0.00016282,0.00
 027477,0.00000009,-0.00003036,0.00001119,-0.10832019,-0.26618179,0.014
 74704,0.00150428,0.00656638,-0.00076344,-0.00785701,-0.01297368,0.0002
 4703,0.11637902,0.29120449,-0.00044006,0.00017619,-0.00167231,-0.00160
 888,0.00286221,0.00012574,0.00753430,0.02676021,-0.00742808,0.00271703
 ,0.00011113,-0.00034355,-0.00172115,-0.00011387,0.00084083,0.00015882,
 -0.00014169,-0.00055994,-0.00055309,-0.00035753,0.00072146,0.00018749,
 0.00013557,-0.00007291,-0.00001488,0.00019759,-0.00024828,0.00016682,-
 0.00019124,-0.00027270,0.00000453,0.00003705,-0.00000969,0.00738874,0.
 01195709,-0.04939841,0.00397964,0.01019257,-0.00082095,-0.01334905,-0.
 02674748,0.00328622,-0.00491769,-0.02473193,0.05607915,0.01373919,-0.0
 0429722,-0.00159301,-0.00622713,0.00993709,-0.01180230,0.02522700,-0.0
 0795975,0.00285271,-0.07185560,-0.01862889,0.06888185,-0.25557551,0.05
 305624,0.01411187,-0.00090984,0.00961519,-0.01561008,-0.00237287,-0.00
 422270,0.00891214,0.00203320,0.00242621,-0.00176236,-0.00152515,0.0021
 7044,-0.00302550,0.00115314,-0.00051176,-0.00353143,-0.00028357,0.0000
 4278,0.00035131,-0.00418924,0.00432920,-0.00484891,0.00052919,-0.00004
 698,-0.00015562,-0.00021324,-0.00013262,0.00137527,-0.00084790,-0.0010
 4289,0.00087673,0.65200142,-0.00924042,0.00245383,-0.00030147,0.004213
 18,-0.00239784,0.00856571,-0.00704511,0.00484043,0.00318602,-0.0036922
 7,0.00720472,-0.02093842,0.04188255,-0.09574983,0.01391446,-0.00201686
 ,-0.00419738,0.00943503,0.00004372,0.00078148,-0.00241138,-0.00039761,
 -0.00066930,0.00061929,0.00093915,-0.00070832,0.00078021,-0.00004719,-
 0.00017068,0.00060682,0.00009330,-0.00000297,-0.00011656,0.00217710,-0
 .00132528,0.00171653,-0.00008864,0.00021159,-0.00003316,0.00055098,-0.
 00042816,-0.00073129,-0.00038210,0.00055984,-0.00041846,-0.16625176,0.
 45173651,0.00735149,-0.00319210,0.00053121,-0.00143127,0.00505288,-0.0
 0399077,0.00015055,0.00415729,-0.00244821,0.04378991,-0.01247563,-0.01
 021990,0.03301417,0.00762995,-0.10521509,0.00426164,0.00265125,-0.0064
 4646,0.00107352,0.00013929,-0.00153670,-0.00086381,-0.00053588,0.00017
 887,-0.00072699,-0.00001894,0.00047443,-0.00040460,0.00042968,0.000608
 54,0.00000607,-0.00001256,-0.00006916,-0.00117389,0.00038001,0.0002752
 7,-0.00007229,-0.00005152,0.00032872,0.00045550,-0.00007647,0.00023425
 ,-0.00033885,-0.00031458,-0.00006795,0.04453303,-0.26870240,0.66711345
 ,-0.00028938,-0.00035927,0.00014625,-0.00010950,-0.00015806,-0.0000562
 0,-0.00083531,-0.00060860,0.00142490,-0.00425326,0.00213966,0.00206048
 ,-0.02567183,-0.00809123,0.03448714,-0.00048495,0.00041771,0.00047575,
 0.00015307,0.00016616,-0.00042154,-0.00011843,-0.00013247,0.00008208,0
 .00003204,-0.00009773,0.00013760,-0.00007052,0.00004381,0.00014245,0.0
 0001164,-0.00000310,-0.00001374,0.00012977,-0.00006170,0.00020755,-0.0
 0005028,0.00001288,-0.00000267,-0.00000424,0.00002043,-0.00001601,0.00
 002204,-0.00000926,-0.00002944,-0.11551785,-0.02047925,0.04979676,0.60
 018962,-0.00035704,-0.00059279,-0.00070857,-0.00029974,-0.00072514,-0.
 00000338,-0.00031154,0.00047095,-0.00067303,0.00462634,0.00448617,-0.0
 0065197,0.00465706,0.01005584,-0.00168923,0.00115870,0.00075873,0.0007
 3603,0.00015692,0.00011384,-0.00034668,-0.00011842,-0.00013485,0.00007
 270,-0.00003682,-0.00006621,0.00008894,-0.00006037,0.00004593,0.000098
 69,0.00000292,0.00000033,-0.00000511,0.00018589,0.00010132,0.00026056,
 -0.00000715,-0.00001150,-0.00001026,-0.00007319,-0.00000219,-0.0000568
 5,0.00004835,0.00001442,-0.00002371,-0.02182969,-0.09720693,0.02613096
 ,-0.03588749,0.55224339,0.00014563,-0.00076826,0.00000579,0.00009789,-
 0.00004814,-0.00078748,0.00098926,-0.00052601,0.00031201,-0.00224107,0
 .00077442,0.00565283,0.01288532,0.00557452,-0.00618114,-0.00076071,0.0
 0119421,0.00002093,-0.00037509,-0.00030328,0.00078230,0.00023673,0.000
 18520,-0.00012423,0.00002203,0.00011963,-0.00026862,0.00013914,-0.0000
 9054,-0.00034233,-0.00002080,0.00000298,0.00003795,-0.00021195,0.00039
 894,-0.00024913,0.00003269,-0.00002171,-0.00000421,-0.00001543,0.00000
 625,0.00007947,0.00002243,-0.00010270,0.00003586,0.05202364,0.02535581
 ,-0.16194534,0.03077589,0.01230720,0.50866090,-0.00253617,0.00118142,0
 .00222529,0.00036411,-0.00218129,0.00261496,-0.00639094,0.00201233,-0.
 00012868,0.01300579,0.01098479,-0.02746593,-0.07082482,0.04517959,-0.0
 1956039,-0.00359717,-0.00305203,0.00418436,0.00066502,0.00275310,-0.00
 551574,-0.00117433,-0.00148387,0.00101702,0.00096499,-0.00113082,0.001
 62573,-0.00055718,0.00035607,0.00205285,0.00015099,-0.00003381,-0.0001
 7665,0.00086566,-0.00146157,0.00178152,-0.00033858,-0.00004175,0.00023
 658,0.00022815,0.00019502,-0.00027000,0.00034814,0.00009024,-0.0003647
 5,-0.23075214,0.15956447,-0.18174811,0.01522946,0.00065359,0.00383827,
 0.28081952,0.00662982,0.00146458,0.00056939,-0.00375480,0.00218641,-0.
 00480526,0.00557067,-0.00168994,-0.00044620,-0.01263682,-0.01114686,0.
 02202337,0.06323716,0.00447183,0.00536761,-0.00162683,-0.00169026,-0.0
 0528507,-0.00003146,-0.00110740,0.00162677,0.00029582,0.00061640,-0.00
 035606,-0.00072760,0.00070687,-0.00052897,0.00009114,0.00019367,-0.000
 52888,-0.00007066,-0.00000838,0.00007072,-0.00105907,0.00068678,-0.001
 08215,0.00011321,-0.00006029,-0.00014223,-0.00046317,0.00006845,0.0003
 1232,0.00003487,-0.00010440,0.00030397,0.14446459,-0.26025118,0.229849
 87,0.01223940,0.00182861,0.03044350,-0.21022817,0.26639084,-0.00750709
 ,0.00375638,0.00181269,0.00513869,-0.00556507,0.00488627,-0.00589371,0
 .00133413,0.00058743,0.01258861,0.00851612,-0.02404332,-0.05015369,0.0
 1566622,0.03103745,0.00177555,-0.00439521,0.00129835,-0.00047097,-0.00
 005619,0.00015206,0.00039079,0.00017875,0.00015864,0.00081839,-0.00022
 772,0.00014438,0.00017697,-0.00024082,-0.00004077,0.00003958,0.0000131
 2,-0.00000934,0.00116482,-0.00084138,0.00048684,-0.00004986,-0.0000437
 9,0.00000200,0.00009160,0.00012224,-0.00023867,0.00038407,0.00012322,-
 0.00023179,-0.15615446,0.22124954,-0.36138045,-0.01582679,0.03711544,-
 0.02988477,0.21293657,-0.27996507,0.38287660,-0.00028365,0.00012843,-0
 .00015945,-0.00008159,-0.00028779,0.00030104,-0.00016445,0.00016393,-0
 .00019284,0.00061717,0.00071008,-0.00086401,-0.00125588,0.00117961,0.0
 0171131,0.00024949,-0.00002092,0.00010011,0.00004092,0.00003283,-0.000
 07045,-0.00002210,-0.00002459,0.00001304,-0.00000147,-0.00001821,0.000
 01887,-0.00001624,0.00000691,0.00002808,0.00000137,-0.00000306,-0.0000
 0209,0.00010750,-0.00016130,0.00014850,-0.00000174,0.00002364,-0.00001
 745,-0.00003492,-0.00001377,-0.00003830,-0.00002581,0.00007103,0.00002
 635,0.00124471,-0.01515252,-0.00386288,-0.04923118,0.01273208,0.001721
 25,0.00037808,0.00038124,0.00152407,0.04647133,0.00000061,-0.00003518,
 -0.00008005,-0.00015016,0.00001725,0.00007185,0.00009161,-0.00002212,-
 0.00003667,-0.00032987,0.00045725,0.00051957,0.00023792,0.00163210,-0.
 00019736,0.00016926,0.00006586,-0.00022260,0.00003662,-0.00001500,-0.0
 0013096,-0.00003259,-0.00001933,0.00003325,-0.00001309,0.00000274,0.00
 003415,-0.00001821,0.00003376,0.00003874,0.00000133,-0.00000372,-0.000
 00455,0.00001984,-0.00006010,0.00007595,-0.00000370,0.00001103,-0.0000
 0165,0.00000625,-0.00001718,-0.00000127,-0.00000993,0.00004087,0.00000
 754,0.00361896,-0.01118654,-0.00170850,0.01202468,-0.32155152,0.004277
 49,-0.00183692,0.00041331,0.00264177,-0.01415831,0.34761706,0.00015494
 ,0.00006565,0.00018541,0.00015008,0.00018862,-0.00013757,-0.00003064,-
 0.00001042,0.00010221,-0.00035591,-0.00090881,0.00001652,-0.00019536,-
 0.00188419,-0.00059442,-0.00039381,-0.00013432,-0.00007802,-0.00003644
 ,-0.00001893,0.00012835,0.00002599,0.00003068,-0.00002855,0.00000407,0
 .00001836,-0.00003673,0.00001707,-0.00002763,-0.00003566,-0.00000128,0
 .00000309,0.00000225,-0.00003801,0.00003004,-0.00005544,0.00000137,-0.
 00000719,0.00000097,-0.00000050,-0.00002698,0.00001646,0.00000734,-0.0
 0001330,0.00002448,-0.00327188,0.03120790,0.00251050,0.00226660,0.0069
 2075,-0.04196426,0.00097537,-0.00092705,-0.00676540,-0.00105332,-0.005
 52972,0.04688703,-0.00024709,0.00020902,-0.00008504,0.00003883,-0.0000
 6082,0.00039269,-0.00017923,0.00014200,-0.00017581,0.00062937,0.000195
 81,-0.00124785,-0.00176555,-0.00113055,0.00057654,0.00014884,-0.000274
 70,0.00006393,0.00001732,-0.00000457,-0.00006242,-0.00001137,-0.000002
 33,0.00001707,0.00001176,-0.00000104,0.00002138,-0.00000252,0.00000813
 ,0.00002064,0.00000186,-0.00000211,-0.00000356,0.00010190,-0.00008174,
 0.00012817,-0.00000424,0.00000568,-0.00002063,-0.00003855,-0.00001768,
 -0.00002442,-0.00001945,0.00004179,-0.00001465,0.00846423,0.00843202,0
 .01128040,-0.11468658,-0.04516671,-0.10724377,0.00006689,-0.00206882,0
 .00041497,0.00011695,0.00092079,0.00180762,0.11950749,0.00006133,0.000
 07118,0.00004991,0.00000142,0.00006809,-0.00000136,0.00008097,-0.00002
 407,0.00003918,-0.00005223,-0.00029874,-0.00012501,0.00043870,-0.00024
 975,-0.00060428,0.00004517,-0.00018166,-0.00005580,0.00000109,0.000016
 81,-0.00001107,-0.00000144,-0.00000458,-0.00000522,0.00000406,-0.00000
 491,0.00000827,0.00000288,-0.00000221,0.00000685,0.00000017,0.00000095
 ,-0.00000045,-0.00004261,0.00002382,-0.00008134,0.00000289,-0.00000284
 ,0.00001196,0.00003557,0.00003872,0.00000919,-0.00000496,-0.00002240,-
 0.00002661,0.00694867,0.00464080,0.01136694,-0.04453347,-0.07349753,-0
 .07568543,-0.00144613,-0.00308534,0.00167388,-0.01691844,-0.01070292,-
 0.02824001,0.05114957,0.07989282,0.00005912,-0.00026335,0.00003672,0.0
 0016714,-0.00000692,-0.00030936,-0.00005894,-0.00006145,0.00011898,0.0
 0045239,0.00057472,0.00076879,0.00142149,0.00145676,0.00177687,-0.0003
 1658,0.00014619,0.00026062,-0.00008952,-0.00010928,0.00011836,0.000056
 11,0.00004932,-0.00000296,0.00001682,0.00002969,-0.00003987,0.00002905
 ,-0.00000300,-0.00006836,-0.00000409,0.00000018,0.00000904,-0.00006705
 ,0.00009414,-0.00013909,0.00001041,-0.00000109,0.00001683,0.00004314,0
 .00001228,0.00004124,-0.00000300,-0.00001852,0.00000844,-0.01871347,-0
 .01177077,-0.02056907,-0.10776098,-0.07840523,-0.22425583,0.00367192,0
 .00438999,-0.00290120,0.00092722,0.00056402,0.00130749,0.11854263,0.08
 167839,0.24128449,-0.00019935,-0.00000536,0.00015060,0.00000671,-0.000
 11523,0.00017172,-0.00035704,-0.00003224,0.00022627,0.00018002,0.00042
 217,-0.00037436,-0.00237708,-0.00122122,0.00430090,-0.00015130,-0.0000
 9513,0.00020089,0.00009068,0.00017080,-0.00037555,-0.00009553,-0.00011
 107,0.00006962,0.00004314,-0.00008057,0.00012014,-0.00004818,0.0000293
 9,0.00014657,0.00001135,-0.00000087,-0.00001628,0.00005998,-0.00006605
 ,0.00007711,-0.00001886,0.00000197,0.00001437,0.00003098,0.00001443,-0
 .00001604,0.00000931,0.00000381,-0.00002682,-0.01412203,0.00689724,-0.
 00509035,-0.30444433,0.07992632,0.00793868,0.00308452,-0.00039054,-0.0
 0138810,0.00189151,-0.00057509,-0.00003329,-0.01215086,0.00422677,0.00
 161619,0.32855634,-0.00001919,0.00000709,-0.00001462,-0.00005789,-0.00
 004163,0.00000148,-0.00001846,-0.00008400,0.00010238,-0.00053690,0.000
 63350,0.00054757,-0.00094114,0.00060644,0.00214366,-0.00005805,-0.0000
 3069,-0.00005082,-0.00001741,-0.00000945,0.00003232,0.00000698,0.00000
 013,-0.00000537,0.00000492,0.00000049,-0.00001092,0.00000804,-0.000008
 18,-0.00002181,-0.00000134,-0.00000024,0.00000182,0.00001383,-0.000022
 01,0.00003022,0.00000067,0.00001136,-0.00000155,0.00000886,-0.00001018
 ,-0.00000037,-0.00002625,0.00002145,0.00001138,-0.01168511,0.00186520,
 -0.00069955,0.08335686,-0.07633089,-0.00309408,-0.00007426,0.00011629,
 -0.00105558,0.03132914,-0.00667763,-0.00073654,-0.01229377,0.00332377,
 0.00164391,-0.08899952,0.07662918,0.00013886,-0.00001761,-0.00006715,0
 .00006218,0.00003406,-0.00015482,0.00021492,0.00010819,-0.00033982,0.0
 0126025,0.00000158,0.00003987,0.00383966,0.00229953,-0.00454791,0.0001
 4075,-0.00003545,-0.00010412,-0.00002062,-0.00007904,0.00015733,0.0000
 3001,0.00004148,-0.00002875,-0.00003511,0.00003883,-0.00005324,0.00001
 514,-0.00001182,-0.00006371,-0.00000571,0.00000111,0.00000646,-0.00005
 532,0.00007410,-0.00009415,0.00001505,-0.00000205,0.00000524,0.0000225
 1,0.00000203,0.00001332,-0.00000762,-0.00001117,0.00000436,0.02655047,
 -0.01121342,0.00163386,0.00212395,-0.00115725,-0.04958068,-0.00193017,
 -0.00089056,0.00205299,-0.00025907,-0.00035101,-0.00148564,-0.02438788
 ,0.00999200,0.00253786,-0.00771226,0.00117646,0.05006871\\0.00000632,0
 .00000608,-0.00002796,0.00000112,-0.00000697,0.00001471,0.00000694,0.0
 0000832,-0.00000698,-0.00001537,-0.00002056,0.00000815,0.00000360,0.00
 001180,-0.00000291,-0.00000451,0.00000747,0.00000330,0.00000320,-0.000
 00470,0.00000865,-0.00000486,0.00000303,0.00000316,-0.00000601,0.00000
 633,0.00000144,-0.00000417,-0.00000260,0.00000380,-0.00000119,0.000003
 04,-0.00000088,0.00000382,0.00000137,-0.00000308,-0.00000088,-0.000001
 03,-0.00000158,0.00000095,-0.00000298,0.00000156,-0.00000194,-0.000000
 13,0.00000106,0.00000625,0.00000739,-0.00002221,-0.00000112,0.00000441
 ,0.00000683,0.00000594,-0.00000923,0.00000962,-0.00000151,-0.00000380,
 0.00000046,0.00000240,-0.00000674,0.00000279,0.00000103,-0.00000050,0.
 00000008\\\@
 The archive entry for this job was punched.


 THERE IS MORE TO LIFE THAN INCREASING ITS SPEED.

                                       -- GANDHI
 Job cpu time:       0 days  1 hours  8 minutes 50.0 seconds.
 Elapsed time:       0 days  0 hours  4 minutes 32.2 seconds.
 File lengths (MBytes):  RWF=    211 Int=      0 D2E=      0 Chk=      8 Scr=      1
 Normal termination of Gaussian 16 at Sat May 21 13:05:09 2022.
