 Entering Gaussian System, Link 0=g16
 AtFile(1): /home/561/yj5695/Basis/6-31pGd.gbs
 Initial command:
 /apps/gaussian/g16c01/g16/l1.exe "/jobfs/41232413.gadi-pbs/Gau-1268077.inp" -scrdir="/jobfs/41232413.gadi-pbs/"
 Entering Link 1 = /apps/gaussian/g16c01/g16/l1.exe PID=   1268107.
  
 Copyright (c) 1988-2019, Gaussian, Inc.  All Rights Reserved.
  
 This is part of the Gaussian(R) 16 program.  It is based on
 the Gaussian(R) 09 system (copyright 2009, Gaussian, Inc.),
 the Gaussian(R) 03 system (copyright 2003, Gaussian, Inc.),
 the Gaussian(R) 98 system (copyright 1998, Gaussian, Inc.),
 the Gaussian(R) 94 system (copyright 1995, Gaussian, Inc.),
 the Gaussian 92(TM) system (copyright 1992, Gaussian, Inc.),
 the Gaussian 90(TM) system (copyright 1990, Gaussian, Inc.),
 the Gaussian 88(TM) system (copyright 1988, Gaussian, Inc.),
 the Gaussian 86(TM) system (copyright 1986, Carnegie Mellon
 University), and the Gaussian 82(TM) system (copyright 1983,
 Carnegie Mellon University). Gaussian is a federally registered
 trademark of Gaussian, Inc.
  
 This software contains proprietary and confidential information,
 including trade secrets, belonging to Gaussian, Inc.
  
 This software is provided under written license and may be
 used, copied, transmitted, or stored only in accord with that
 written license.
  
 The following legend is applicable only to US Government
 contracts under FAR:
  
                    RESTRICTED RIGHTS LEGEND
  
 Use, reproduction and disclosure by the US Government is
 subject to restrictions as set forth in subparagraphs (a)
 and (c) of the Commercial Computer Software - Restricted
 Rights clause in FAR 52.227-19.
  
 Gaussian, Inc.
 340 Quinnipiac St., Bldg. 40, Wallingford CT 06492
  
  
 ---------------------------------------------------------------
 Warning -- This program may not be used in any manner that
 competes with the business of Gaussian, Inc. or will provide
 assistance to any competitor of Gaussian, Inc.  The licensee
 of this program is prohibited from giving any competitor of
 Gaussian, Inc. access to this program.  By using this program,
 the user acknowledges that Gaussian, Inc. is engaged in the
 business of creating and licensing software in the field of
 computational chemistry and represents and warrants to the
 licensee that it is not a competitor of Gaussian, Inc. and that
 it will not use this program in any manner prohibited above.
 ---------------------------------------------------------------
  

 Cite this work as:
 Gaussian 16, Revision C.01,
 M. J. Frisch, G. W. Trucks, H. B. Schlegel, G. E. Scuseria, 
 M. A. Robb, J. R. Cheeseman, G. Scalmani, V. Barone, 
 G. A. Petersson, H. Nakatsuji, X. Li, M. Caricato, A. V. Marenich, 
 J. Bloino, B. G. Janesko, R. Gomperts, B. Mennucci, H. P. Hratchian, 
 J. V. Ortiz, A. F. Izmaylov, J. L. Sonnenberg, D. Williams-Young, 
 F. Ding, F. Lipparini, F. Egidi, J. Goings, B. Peng, A. Petrone, 
 T. Henderson, D. Ranasinghe, V. G. Zakrzewski, J. Gao, N. Rega, 
 G. Zheng, W. Liang, M. Hada, M. Ehara, K. Toyota, R. Fukuda, 
 J. Hasegawa, M. Ishida, T. Nakajima, Y. Honda, O. Kitao, H. Nakai, 
 T. Vreven, K. Throssell, J. A. Montgomery, Jr., J. E. Peralta, 
 F. Ogliaro, M. J. Bearpark, J. J. Heyd, E. N. Brothers, K. N. Kudin, 
 V. N. Staroverov, T. A. Keith, R. Kobayashi, J. Normand, 
 K. Raghavachari, A. P. Rendell, J. C. Burant, S. S. Iyengar, 
 J. Tomasi, M. Cossi, J. M. Millam, M. Klene, C. Adamo, R. Cammi, 
 J. W. Ochterski, R. L. Martin, K. Morokuma, O. Farkas, 
 J. B. Foresman, and D. J. Fox, Gaussian, Inc., Wallingford CT, 2019.
 
 ******************************************
 Gaussian 16:  ES64L-G16RevC.01  3-Jul-2019
                25-May-2022 
 ******************************************
 %nproc=16
 Will use up to   16 processors via shared memory.
 %mem=20gb
 --------------------------------------------------
 #M062X/gen 6D INT(grid=ultrafine) OPT Freq=noraman
 --------------------------------------------------
 1/18=20,19=15,26=4,38=1/1,3;
 2/9=110,12=2,17=6,18=5,40=1/2;
 3/5=7,8=2,11=2,25=1,30=1,71=1,74=-55,75=-5/1,2,3;
 4//1;
 5/5=2,38=5/2;
 6/7=2,8=2,9=2,10=2,28=1/1;
 7//1,2,3,16;
 1/18=20,19=15,26=4/3(2);
 2/9=110/2;
 99//99;
 2/9=110/2;
 3/5=7,6=1,8=2,11=2,25=1,30=1,71=1,74=-55,75=-5,82=7/1,2,3;
 4/5=5,16=3,69=1/1;
 5/5=2,38=5/2;
 7//1,2,3,16;
 1/18=20,19=15,26=4/3(-5);
 2/9=110/2;
 6/7=2,8=2,9=2,10=2,19=2,28=1/1;
 99/9=1/99;
 --------------
 A.27.a2d3.freq
 --------------
 Symbolic Z-matrix:
 Charge = -1 Multiplicity = 1
 C                    -1.10415   0.6329   -1.45024 
 S                    -1.35801   0.58262   0.34327 
 O                    -2.05197  -0.71813   0.54272 
 O                     0.03209   0.63153   0.85845 
 N                    -2.14067   1.84686   0.78956 
 H                    -3.12815   1.71501   0.55618 
 N                    -2.07395   0.56616  -2.29224 
 C                    -1.59354   0.69096  -3.5898 
 C                    -0.20242   0.8609   -3.69534 
 S                     0.5034    0.85705  -2.10223 
 C                    -2.37337   0.6601   -4.7571 
 C                    -1.75178   0.80007  -5.97991 
 C                    -0.35089   0.97075  -6.06878 
 C                     0.44561   1.0025   -4.9289 
 O                     0.1354    1.09875  -7.3352 
 C                     1.54657   1.27843  -7.49922 
 C                     1.81914   1.39728  -8.98098 
 H                    -3.44899   0.52905  -4.68872 
 H                    -2.32572   0.78232  -6.90133 
 H                     1.52031   1.13189  -4.97915 
 H                     2.06983   0.41744  -7.06672 
 H                     1.8567    2.18401  -6.96449 
 H                     1.50343   0.49156  -9.50719 
 H                     2.89172   1.53666  -9.14415 
 H                     1.28982   2.25599  -9.40451 
 

 GradGradGradGradGradGradGradGradGradGradGradGradGradGradGradGradGradGrad
 Berny optimization.
 Initialization pass.
                           ----------------------------
                           !    Initial Parameters    !
                           ! (Angstroms and Degrees)  !
 --------------------------                            --------------------------
 ! Name  Definition              Value          Derivative Info.                !
 --------------------------------------------------------------------------------
 ! R1    R(1,2)                  1.8121         estimate D2E/DX2                !
 ! R2    R(1,7)                  1.2861         estimate D2E/DX2                !
 ! R3    R(1,10)                 1.7492         estimate D2E/DX2                !
 ! R4    R(2,3)                  1.4877         estimate D2E/DX2                !
 ! R5    R(2,4)                  1.4833         estimate D2E/DX2                !
 ! R6    R(2,5)                  1.5524         estimate D2E/DX2                !
 ! R7    R(5,6)                  1.0232         estimate D2E/DX2                !
 ! R8    R(7,8)                  1.3893         estimate D2E/DX2                !
 ! R9    R(8,9)                  1.4054         estimate D2E/DX2                !
 ! R10   R(8,11)                 1.4042         estimate D2E/DX2                !
 ! R11   R(9,10)                 1.7425         estimate D2E/DX2                !
 ! R12   R(9,14)                 1.4006         estimate D2E/DX2                !
 ! R13   R(11,12)                1.3788         estimate D2E/DX2                !
 ! R14   R(11,18)                1.0857         estimate D2E/DX2                !
 ! R15   R(12,13)                1.414          estimate D2E/DX2                !
 ! R16   R(12,19)                1.0857         estimate D2E/DX2                !
 ! R17   R(13,14)                1.391          estimate D2E/DX2                !
 ! R18   R(13,15)                1.3626         estimate D2E/DX2                !
 ! R19   R(14,20)                1.0836         estimate D2E/DX2                !
 ! R20   R(15,16)                1.432          estimate D2E/DX2                !
 ! R21   R(16,17)                1.5113         estimate D2E/DX2                !
 ! R22   R(16,21)                1.0964         estimate D2E/DX2                !
 ! R23   R(16,22)                1.0964         estimate D2E/DX2                !
 ! R24   R(17,23)                1.094          estimate D2E/DX2                !
 ! R25   R(17,24)                1.0938         estimate D2E/DX2                !
 ! R26   R(17,25)                1.094          estimate D2E/DX2                !
 ! A1    A(2,1,7)              122.7463         estimate D2E/DX2                !
 ! A2    A(2,1,10)             120.0814         estimate D2E/DX2                !
 ! A3    A(7,1,10)             117.1069         estimate D2E/DX2                !
 ! A4    A(1,2,3)              102.8439         estimate D2E/DX2                !
 ! A5    A(1,2,4)              102.2133         estimate D2E/DX2                !
 ! A6    A(1,2,5)              109.4247         estimate D2E/DX2                !
 ! A7    A(3,2,4)              114.7976         estimate D2E/DX2                !
 ! A8    A(3,2,5)              115.9961         estimate D2E/DX2                !
 ! A9    A(4,2,5)              110.2292         estimate D2E/DX2                !
 ! A10   A(2,5,6)              108.4239         estimate D2E/DX2                !
 ! A11   A(1,7,8)              110.2474         estimate D2E/DX2                !
 ! A12   A(7,8,9)              115.042          estimate D2E/DX2                !
 ! A13   A(7,8,11)             125.621          estimate D2E/DX2                !
 ! A14   A(9,8,11)             119.337          estimate D2E/DX2                !
 ! A15   A(8,9,10)             109.3914         estimate D2E/DX2                !
 ! A16   A(8,9,14)             122.4347         estimate D2E/DX2                !
 ! A17   A(10,9,14)            128.1737         estimate D2E/DX2                !
 ! A18   A(1,10,9)              88.2121         estimate D2E/DX2                !
 ! A19   A(8,11,12)            118.9893         estimate D2E/DX2                !
 ! A20   A(8,11,18)            120.0325         estimate D2E/DX2                !
 ! A21   A(12,11,18)           120.9782         estimate D2E/DX2                !
 ! A22   A(11,12,13)           120.9705         estimate D2E/DX2                !
 ! A23   A(11,12,19)           120.8428         estimate D2E/DX2                !
 ! A24   A(13,12,19)           118.1867         estimate D2E/DX2                !
 ! A25   A(12,13,14)           121.2354         estimate D2E/DX2                !
 ! A26   A(12,13,15)           115.0443         estimate D2E/DX2                !
 ! A27   A(14,13,15)           123.7202         estimate D2E/DX2                !
 ! A28   A(9,14,13)            117.0329         estimate D2E/DX2                !
 ! A29   A(9,14,20)            120.7832         estimate D2E/DX2                !
 ! A30   A(13,14,20)           122.1838         estimate D2E/DX2                !
 ! A31   A(13,15,16)           118.0304         estimate D2E/DX2                !
 ! A32   A(15,16,17)           107.4515         estimate D2E/DX2                !
 ! A33   A(15,16,21)           109.0613         estimate D2E/DX2                !
 ! A34   A(15,16,22)           109.0574         estimate D2E/DX2                !
 ! A35   A(17,16,21)           111.2497         estimate D2E/DX2                !
 ! A36   A(17,16,22)           111.2354         estimate D2E/DX2                !
 ! A37   A(21,16,22)           108.7359         estimate D2E/DX2                !
 ! A38   A(16,17,23)           110.7589         estimate D2E/DX2                !
 ! A39   A(16,17,24)           109.4584         estimate D2E/DX2                !
 ! A40   A(16,17,25)           110.7334         estimate D2E/DX2                !
 ! A41   A(23,17,24)           108.4643         estimate D2E/DX2                !
 ! A42   A(23,17,25)           108.9034         estimate D2E/DX2                !
 ! A43   A(24,17,25)           108.4605         estimate D2E/DX2                !
 ! D1    D(7,1,2,3)             58.4074         estimate D2E/DX2                !
 ! D2    D(7,1,2,4)            177.7145         estimate D2E/DX2                !
 ! D3    D(7,1,2,5)            -65.4477         estimate D2E/DX2                !
 ! D4    D(10,1,2,3)          -124.618          estimate D2E/DX2                !
 ! D5    D(10,1,2,4)            -5.3109         estimate D2E/DX2                !
 ! D6    D(10,1,2,5)           111.5269         estimate D2E/DX2                !
 ! D7    D(2,1,7,8)            177.204          estimate D2E/DX2                !
 ! D8    D(10,1,7,8)             0.1449         estimate D2E/DX2                !
 ! D9    D(2,1,10,9)          -177.2043         estimate D2E/DX2                !
 ! D10   D(7,1,10,9)            -0.0627         estimate D2E/DX2                !
 ! D11   D(1,2,5,6)             77.6033         estimate D2E/DX2                !
 ! D12   D(3,2,5,6)            -38.1318         estimate D2E/DX2                !
 ! D13   D(4,2,5,6)           -170.7417         estimate D2E/DX2                !
 ! D14   D(1,7,8,9)             -0.1762         estimate D2E/DX2                !
 ! D15   D(1,7,8,11)           179.8298         estimate D2E/DX2                !
 ! D16   D(7,8,9,10)             0.1301         estimate D2E/DX2                !
 ! D17   D(7,8,9,14)          -179.9835         estimate D2E/DX2                !
 ! D18   D(11,8,9,10)         -179.8756         estimate D2E/DX2                !
 ! D19   D(11,8,9,14)            0.0109         estimate D2E/DX2                !
 ! D20   D(7,8,11,12)          179.8861         estimate D2E/DX2                !
 ! D21   D(7,8,11,18)           -0.0267         estimate D2E/DX2                !
 ! D22   D(9,8,11,12)           -0.1077         estimate D2E/DX2                !
 ! D23   D(9,8,11,18)          179.9796         estimate D2E/DX2                !
 ! D24   D(8,9,10,1)            -0.04           estimate D2E/DX2                !
 ! D25   D(14,9,10,1)         -179.9181         estimate D2E/DX2                !
 ! D26   D(8,9,14,13)            0.1048         estimate D2E/DX2                !
 ! D27   D(8,9,14,20)         -179.9844         estimate D2E/DX2                !
 ! D28   D(10,9,14,13)         179.9687         estimate D2E/DX2                !
 ! D29   D(10,9,14,20)          -0.1206         estimate D2E/DX2                !
 ! D30   D(8,11,12,13)           0.0872         estimate D2E/DX2                !
 ! D31   D(8,11,12,19)        -179.9012         estimate D2E/DX2                !
 ! D32   D(18,11,12,13)        179.9991         estimate D2E/DX2                !
 ! D33   D(18,11,12,19)          0.0107         estimate D2E/DX2                !
 ! D34   D(11,12,13,14)          0.0327         estimate D2E/DX2                !
 ! D35   D(11,12,13,15)       -179.9226         estimate D2E/DX2                !
 ! D36   D(19,12,13,14)       -179.9787         estimate D2E/DX2                !
 ! D37   D(19,12,13,15)          0.066          estimate D2E/DX2                !
 ! D38   D(12,13,14,9)          -0.126          estimate D2E/DX2                !
 ! D39   D(12,13,14,20)        179.9645         estimate D2E/DX2                !
 ! D40   D(15,13,14,9)         179.8253         estimate D2E/DX2                !
 ! D41   D(15,13,14,20)         -0.0842         estimate D2E/DX2                !
 ! D42   D(12,13,15,16)        179.8382         estimate D2E/DX2                !
 ! D43   D(14,13,15,16)         -0.1158         estimate D2E/DX2                !
 ! D44   D(13,15,16,17)       -179.8053         estimate D2E/DX2                !
 ! D45   D(13,15,16,21)         59.4921         estimate D2E/DX2                !
 ! D46   D(13,15,16,22)        -59.1221         estimate D2E/DX2                !
 ! D47   D(15,16,17,23)        -60.4848         estimate D2E/DX2                !
 ! D48   D(15,16,17,24)        179.9682         estimate D2E/DX2                !
 ! D49   D(15,16,17,25)         60.4418         estimate D2E/DX2                !
 ! D50   D(21,16,17,23)         58.8269         estimate D2E/DX2                !
 ! D51   D(21,16,17,24)        -60.7201         estimate D2E/DX2                !
 ! D52   D(21,16,17,25)        179.7534         estimate D2E/DX2                !
 ! D53   D(22,16,17,23)       -179.7835         estimate D2E/DX2                !
 ! D54   D(22,16,17,24)         60.6696         estimate D2E/DX2                !
 ! D55   D(22,16,17,25)        -58.8569         estimate D2E/DX2                !
 --------------------------------------------------------------------------------
 Trust Radius=3.00D-01 FncErr=1.00D-07 GrdErr=1.00D-06 EigMax=2.50D+02 EigMin=1.00D-04
 Number of steps in this run=    134 maximum allowed number of steps=    150.
 GradGradGradGradGradGradGradGradGradGradGradGradGradGradGradGradGradGrad

                          Input orientation:                          
 ---------------------------------------------------------------------
 Center     Atomic      Atomic             Coordinates (Angstroms)
 Number     Number       Type             X           Y           Z
 ---------------------------------------------------------------------
      1          6           0       -1.104146    0.632896   -1.450245
      2         16           0       -1.358011    0.582619    0.343271
      3          8           0       -2.051967   -0.718133    0.542720
      4          8           0        0.032091    0.631531    0.858452
      5          7           0       -2.140674    1.846855    0.789561
      6          1           0       -3.128147    1.715015    0.556177
      7          7           0       -2.073948    0.566157   -2.292245
      8          6           0       -1.593539    0.690956   -3.589804
      9          6           0       -0.202423    0.860903   -3.695343
     10         16           0        0.503400    0.857048   -2.102228
     11          6           0       -2.373367    0.660101   -4.757103
     12          6           0       -1.751783    0.800067   -5.979912
     13          6           0       -0.350895    0.970753   -6.068784
     14          6           0        0.445614    1.002503   -4.928901
     15          8           0        0.135402    1.098751   -7.335204
     16          6           0        1.546570    1.278434   -7.499221
     17          6           0        1.819139    1.397277   -8.980978
     18          1           0       -3.448990    0.529053   -4.688720
     19          1           0       -2.325716    0.782320   -6.901335
     20          1           0        1.520315    1.131890   -4.979154
     21          1           0        2.069827    0.417436   -7.066717
     22          1           0        1.856700    2.184007   -6.964494
     23          1           0        1.503426    0.491560   -9.507188
     24          1           0        2.891725    1.536659   -9.144146
     25          1           0        1.289822    2.255988   -9.404511
 ---------------------------------------------------------------------
                    Distance matrix (angstroms):
                    1          2          3          4          5
     1  C    0.000000
     2  S    1.812091   0.000000
     3  O    2.587577   1.487720   0.000000
     4  O    2.573153   1.483303   2.502914   0.000000
     5  N    2.750421   1.552427   2.578364   2.490515   0.000000
     6  H    3.048490   2.112115   2.660555   3.354462   1.023208
     7  N    1.286053   2.731076   3.112380   3.790325   3.337989
     8  C    2.195584   3.941610   4.390154   4.736369   4.562270
     9  C    2.430135   4.209896   4.886241   4.565595   4.984304
    10  S    1.749151   3.085551   4.000855   3.006428   4.041446
    11  C    3.542171   5.201035   5.485522   6.109133   5.676973
    12  C    4.578784   6.339162   6.703713   7.069217   6.860959
    13  C    4.691741   6.502259   7.032636   6.946103   7.141972
    14  C    3.826149   5.587948   6.255968   5.813955   6.332663
    15  O    6.032102   7.839366   8.375401   8.207616   8.470655
    16  C    6.635746   8.391986   9.033746   8.518382   9.089708
    17  C    8.114297   9.884309  10.495773  10.029671  10.552046
    18  H    3.999599   5.449403   5.556538   6.549774   5.784450
    19  H    5.588286   7.311679   7.598701   8.111491   7.766425
    20  H    4.426058   6.075744   6.831902   6.045065   6.869650
    21  H    6.454865   8.166105   8.728243   8.185749   9.027328
    22  H    6.448217   8.142619   8.947534   8.181556   8.730294
    23  H    8.469577  10.258053  10.728692  10.470478  11.006332
    24  H    8.716645  10.439422  11.106735  10.442640  11.140009
    25  H    8.463798  10.238674  10.906895  10.466574  10.763587
                    6          7          8          9         10
     6  H    0.000000
     7  N    3.247263   0.000000
     8  C    4.537938   1.389255   0.000000
     9  C    5.231136   2.357576   1.405426   0.000000
    10  S    4.581632   2.600662   2.576358   1.742474   0.000000
    11  C    5.469322   2.484755   1.404162   2.425006   3.919559
    12  C    6.741806   3.709096   2.397824   2.761063   4.486148
    13  C    7.221991   4.170714   2.787075   2.380616   4.059103
    14  C    6.585250   3.672948   2.459346   1.400596   2.831003
    15  O    8.561800   5.531394   4.145305   3.663235   5.251465
    16  C    9.323788   6.381857   5.048659   4.207469   5.513013
    17  C   10.748671   7.783704   6.419503   5.684395   7.024260
    18  H    5.386871   2.763188   2.162528   3.411322   4.734861
    19  H    7.558326   4.621020   3.392737   3.846158   5.571437
    20  H    7.251767   4.523081   3.438139   2.165509   3.063717
    21  H    9.317250   6.323651   5.058060   4.089736   5.224280
    22  H    9.034885   6.316434   5.051918   4.083863   5.218609
    23  H   11.145386   8.053482   6.681794   6.068268   7.481114
    24  H   11.417834   8.517531   7.189125   6.302369   7.466899
    25  H   10.909922   8.047038   6.676370   6.063634   7.476553
                   11         12         13         14         15
    11  C    0.000000
    12  C    1.378847   0.000000
    13  C    2.430516   1.414044   0.000000
    14  C    2.844892   2.444209   1.390959   0.000000
    15  O    3.623940   2.342541   1.362604   2.428125   0.000000
    16  C    4.823635   3.662823   2.396078   2.809766   1.431986
    17  C    5.996804   4.702610   3.656753   4.296714   2.373323
    18  H    1.085732   2.149683   3.420215   3.930621   4.491804
    19  H    2.148241   1.085696   2.151411   3.408701   2.519022
    20  H    3.928441   3.437767   2.171332   1.083627   2.733140
    21  H    5.013499   3.991522   2.676177   2.747840   2.068399
    22  H    5.008826   3.988213   2.673529   2.744222   2.068351
    23  H    6.133616   4.809703   3.935830   4.726599   2.637742
    24  H    6.909103   5.667196   4.504740   4.902762   3.325861
    25  H    6.128965   4.806137   3.933301   4.723876   2.637028
                   16         17         18         19         20
    16  C    0.000000
    17  C    1.511298   0.000000
    18  H    5.780667   6.850583   0.000000
    19  H    3.949456   4.677918   2.494305   0.000000
    20  H    2.524460   4.021731   5.014155   4.313807   0.000000
    21  H    1.096437   2.165024   6.010380   4.413761   2.273834
    22  H    1.096438   2.164848   6.005695   4.411499   2.271933
    23  H    2.157073   1.094026   6.909810   4.640834   4.573117
    24  H    2.140537   1.093842   7.814779   5.728955   4.403608
    25  H    2.156771   1.094049   6.904878   4.637856   4.571707
                   21         22         23         24         25
    21  H    0.000000
    22  H    1.782315   0.000000
    23  H    2.506433   3.074813   0.000000
    24  H    2.498778   2.498244   1.775220   0.000000
    25  H    3.074730   2.506036   1.780274   1.775195   0.000000
 Stoichiometry    C9H9N2O3S2(1-)
 Framework group  C1[X(C9H9N2O3S2)]
 Deg. of freedom    69
 Full point group                 C1      NOp   1
 Largest Abelian subgroup         C1      NOp   1
 Largest concise Abelian subgroup C1      NOp   1
                         Standard orientation:                         
 ---------------------------------------------------------------------
 Center     Atomic      Atomic             Coordinates (Angstroms)
 Number     Number       Type             X           Y           Z
 ---------------------------------------------------------------------
      1          6           0       -1.836121    0.062120   -0.047437
      2         16           0       -3.633930   -0.157446    0.010428
      3          8           0       -4.096712    0.585356   -1.192647
      4          8           0       -3.772990   -1.631628   -0.076958
      5          7           0       -4.172726    0.352659    1.374070
      6          1           0       -4.208779    1.374836    1.345603
      7          7           0       -1.276092    1.219810   -0.040049
      8          6           0        0.106551    1.084977   -0.027999
      9          6           0        0.575026   -0.240061   -0.022646
     10         16           0       -0.781656   -1.333416   -0.036983
     11          6           0        1.031258    2.141641   -0.020959
     12          6           0        2.378884    1.850229   -0.006675
     13          6           0        2.833830    0.511382   -0.000971
     14          6           0        1.939875   -0.554228   -0.010230
     15          8           0        4.188176    0.362449    0.014950
     16          6           0        4.718852   -0.967537    0.025109
     17          6           0        6.225731   -0.854109    0.046861
     18          1           0        0.681803    3.169589   -0.025325
     19          1           0        3.119899    2.643689    0.000692
     20          1           0        2.271492   -1.585860   -0.006611
     21          1           0        4.373144   -1.497852   -0.870115
     22          1           0        4.347415   -1.494430    0.912010
     23          1           0        6.587522   -0.324065   -0.839172
     24          1           0        6.666413   -1.855215    0.055680
     25          1           0        6.561079   -0.320091    0.940901
 ---------------------------------------------------------------------
 Rotational constants (GHZ):           1.4353481           0.1845132           0.1694659
 General basis read from cards:  (6D, 7F)
 There are   330 symmetry adapted cartesian basis functions of A   symmetry.
 There are   330 symmetry adapted basis functions of A   symmetry.
   330 basis functions,   596 primitive gaussians,   330 cartesian basis functions
    67 alpha electrons       67 beta electrons
       nuclear repulsion energy      1318.5343191259 Hartrees.
 NAtoms=   25 NActive=   25 NUniq=   25 SFac= 1.00D+00 NAtFMM=   60 NAOKFM=F Big=F
 Integral buffers will be    131072 words long.
 Raffenetti 2 integral format.
 Two-electron integral symmetry is turned on.
 One-electron integrals computed using PRISM.
 NBasis=   330 RedAO= T EigKep=  1.10D-06  NBF=   330
 NBsUse=   329 1.00D-06 EigRej=  1.45D-07 NBFU=   329
 ExpMin= 4.05D-02 ExpMax= 2.19D+04 ExpMxC= 3.30D+03 IAcc=3 IRadAn=         5 AccDes= 0.00D+00
 Harris functional with IExCor= 1009 and IRadAn=       5 diagonalized for initial guess.
 HarFok:  IExCor= 1009 AccDes= 0.00D+00 IRadAn=         5 IDoV= 1 UseB2=F ITyADJ=14
 ICtDFT=  3500011 ScaDFX=  1.000000  1.000000  1.000000  1.000000
 FoFCou: FMM=F IPFlag=           0 FMFlag=      100000 FMFlg1=           0
         NFxFlg=           0 DoJE=T BraDBF=F KetDBF=T FulRan=T
         wScrn=  0.000000 ICntrl=       500 IOpCl=  0 I1Cent=   200000004 NGrid=           0
         NMat0=    1 NMatS0=      1 NMatT0=    0 NMatD0=    1 NMtDS0=    0 NMtDT0=    0
 Petite list used in FoFCou.
 Requested convergence on RMS density matrix=1.00D-08 within 128 cycles.
 Requested convergence on MAX density matrix=1.00D-06.
 Requested convergence on             energy=1.00D-06.
 No special actions if energy rises.
 SCF Done:  E(RM062X) =  -1479.59070581     A.U. after   16 cycles
            NFock= 16  Conv=0.91D-08     -V/T= 2.0056

 **********************************************************************

            Population analysis using the SCF Density.

 **********************************************************************

 Orbital symmetries:
       Occupied  (A) (A) (A) (A) (A) (A) (A) (A) (A) (A) (A) (A)
                 (A) (A) (A) (A) (A) (A) (A) (A) (A) (A) (A) (A)
                 (A) (A) (A) (A) (A) (A) (A) (A) (A) (A) (A) (A)
                 (A) (A) (A) (A) (A) (A) (A) (A) (A) (A) (A) (A)
                 (A) (A) (A) (A) (A) (A) (A) (A) (A) (A) (A) (A)
                 (A) (A) (A) (A) (A) (A) (A)
       Virtual   (A) (A) (A) (A) (A) (A) (A) (A) (A) (A) (A) (A)
                 (A) (A) (A) (A) (A) (A) (A) (A) (A) (A) (A) (A)
                 (A) (A) (A) (A) (A) (A) (A) (A) (A) (A) (A) (A)
                 (A) (A) (A) (A) (A) (A) (A) (A) (A) (A) (A) (A)
                 (A) (A) (A) (A) (A) (A) (A) (A) (A) (A) (A) (A)
                 (A) (A) (A) (A) (A) (A) (A) (A) (A) (A) (A) (A)
                 (A) (A) (A) (A) (A) (A) (A) (A) (A) (A) (A) (A)
                 (A) (A) (A) (A) (A) (A) (A) (A) (A) (A) (A) (A)
                 (A) (A) (A) (A) (A) (A) (A) (A) (A) (A) (A) (A)
                 (A) (A) (A) (A) (A) (A) (A) (A) (A) (A) (A) (A)
                 (A) (A) (A) (A) (A) (A) (A) (A) (A) (A) (A) (A)
                 (A) (A) (A) (A) (A) (A) (A) (A) (A) (A) (A) (A)
                 (A) (A) (A) (A) (A) (A) (A) (A) (A) (A) (A) (A)
                 (A) (A) (A) (A) (A) (A) (A) (A) (A) (A) (A) (A)
                 (A) (A) (A) (A) (A) (A) (A) (A) (A) (A) (A) (A)
                 (A) (A) (A) (A) (A) (A) (A) (A) (A) (A) (A) (A)
                 (A) (A) (A) (A) (A) (A) (A) (A) (A) (A) (A) (A)
                 (A) (A) (A) (A) (A) (A) (A) (A) (A) (A) (A) (A)
                 (A) (A) (A) (A) (A) (A) (A) (A) (A) (A) (A) (A)
                 (A) (A) (A) (A) (A) (A) (A) (A) (A) (A) (A) (A)
                 (A) (A) (A) (A) (A) (A) (A) (A) (A) (A) (A) (A)
                 (A) (A) (A) (A) (A) (A) (A) (A) (A) (A)
 The electronic state is 1-A.
 Alpha  occ. eigenvalues --  -89.97990 -89.84906 -19.60147 -19.45623 -19.45602
 Alpha  occ. eigenvalues --  -14.65641 -14.56607 -10.54367 -10.53383 -10.50510
 Alpha  occ. eigenvalues --  -10.49226 -10.48904 -10.48575 -10.47617 -10.47102
 Alpha  occ. eigenvalues --  -10.46774  -8.28793  -8.19336  -6.21000  -6.20981
 Alpha  occ. eigenvalues --   -6.20883  -6.11332  -6.11116  -6.10849  -1.11726
 Alpha  occ. eigenvalues --   -1.04827  -0.96873  -0.92797  -0.86698  -0.81252
 Alpha  occ. eigenvalues --   -0.80622  -0.79626  -0.73895  -0.72966  -0.66741
 Alpha  occ. eigenvalues --   -0.61227  -0.59205  -0.57812  -0.52876  -0.50302
 Alpha  occ. eigenvalues --   -0.50120  -0.47942  -0.45697  -0.42823  -0.42337
 Alpha  occ. eigenvalues --   -0.41193  -0.40908  -0.39859  -0.38728  -0.37908
 Alpha  occ. eigenvalues --   -0.37261  -0.36747  -0.35110  -0.34416  -0.33854
 Alpha  occ. eigenvalues --   -0.29712  -0.28797  -0.26220  -0.25532  -0.24665
 Alpha  occ. eigenvalues --   -0.22355  -0.20857  -0.19878  -0.18775  -0.17748
 Alpha  occ. eigenvalues --   -0.16450  -0.13860
 Alpha virt. eigenvalues --    0.07900   0.08784   0.09937   0.10015   0.10661
 Alpha virt. eigenvalues --    0.11271   0.11721   0.11938   0.12736   0.14294
 Alpha virt. eigenvalues --    0.14386   0.15420   0.15763   0.16494   0.16875
 Alpha virt. eigenvalues --    0.17201   0.17368   0.17743   0.18677   0.19750
 Alpha virt. eigenvalues --    0.19971   0.20527   0.20586   0.20623   0.21624
 Alpha virt. eigenvalues --    0.21868   0.22900   0.23368   0.24001   0.24497
 Alpha virt. eigenvalues --    0.25008   0.25156   0.25741   0.26943   0.27391
 Alpha virt. eigenvalues --    0.27498   0.28051   0.28704   0.29387   0.29720
 Alpha virt. eigenvalues --    0.30195   0.30360   0.30797   0.31190   0.31487
 Alpha virt. eigenvalues --    0.31897   0.32523   0.32927   0.33495   0.33644
 Alpha virt. eigenvalues --    0.34206   0.34349   0.35157   0.35770   0.36007
 Alpha virt. eigenvalues --    0.36704   0.37082   0.37700   0.38200   0.38499
 Alpha virt. eigenvalues --    0.39488   0.40134   0.40215   0.40547   0.41095
 Alpha virt. eigenvalues --    0.41765   0.42254   0.42670   0.42912   0.43521
 Alpha virt. eigenvalues --    0.44038   0.44497   0.44892   0.45941   0.46630
 Alpha virt. eigenvalues --    0.47088   0.47725   0.48107   0.49110   0.49735
 Alpha virt. eigenvalues --    0.50680   0.51525   0.52063   0.52275   0.53739
 Alpha virt. eigenvalues --    0.54619   0.55799   0.58074   0.59214   0.59593
 Alpha virt. eigenvalues --    0.63019   0.66129   0.66583   0.72267   0.73260
 Alpha virt. eigenvalues --    0.75541   0.76025   0.77171   0.78627   0.79820
 Alpha virt. eigenvalues --    0.79965   0.80733   0.82145   0.83007   0.83338
 Alpha virt. eigenvalues --    0.83806   0.84729   0.85203   0.85895   0.86997
 Alpha virt. eigenvalues --    0.88358   0.88654   0.89409   0.90621   0.91558
 Alpha virt. eigenvalues --    0.92015   0.92664   0.95507   0.96640   1.00947
 Alpha virt. eigenvalues --    1.01586   1.03727   1.06082   1.06730   1.07624
 Alpha virt. eigenvalues --    1.09051   1.09899   1.10532   1.11399   1.11554
 Alpha virt. eigenvalues --    1.12141   1.14509   1.16621   1.18031   1.20042
 Alpha virt. eigenvalues --    1.20973   1.21563   1.22888   1.23770   1.24637
 Alpha virt. eigenvalues --    1.25266   1.26270   1.26897   1.28096   1.28882
 Alpha virt. eigenvalues --    1.30661   1.32272   1.34745   1.34994   1.36668
 Alpha virt. eigenvalues --    1.36821   1.37152   1.37705   1.38788   1.39354
 Alpha virt. eigenvalues --    1.40530   1.43727   1.45270   1.48463   1.48756
 Alpha virt. eigenvalues --    1.50176   1.50848   1.51689   1.54562   1.56138
 Alpha virt. eigenvalues --    1.56516   1.58157   1.58675   1.59316   1.59796
 Alpha virt. eigenvalues --    1.59830   1.60889   1.62606   1.64186   1.64833
 Alpha virt. eigenvalues --    1.67531   1.70295   1.70995   1.74007   1.77585
 Alpha virt. eigenvalues --    1.82618   1.87252   1.89826   1.91332   1.93607
 Alpha virt. eigenvalues --    1.96699   1.97727   1.99010   2.00214   2.02688
 Alpha virt. eigenvalues --    2.02702   2.03418   2.05224   2.06122   2.06513
 Alpha virt. eigenvalues --    2.07221   2.09357   2.09808   2.11745   2.12781
 Alpha virt. eigenvalues --    2.14312   2.17130   2.19102   2.20210   2.22413
 Alpha virt. eigenvalues --    2.24262   2.25315   2.26653   2.27505   2.28452
 Alpha virt. eigenvalues --    2.31213   2.34568   2.36071   2.38781   2.39022
 Alpha virt. eigenvalues --    2.40702   2.41247   2.42198   2.43045   2.48824
 Alpha virt. eigenvalues --    2.49340   2.54046   2.55922   2.56935   2.58470
 Alpha virt. eigenvalues --    2.60117   2.64679   2.66205   2.67398   2.74063
 Alpha virt. eigenvalues --    2.77236   2.77940   2.79675   2.84175   2.87640
 Alpha virt. eigenvalues --    2.93271   2.94393   2.97268   3.02981   3.05605
 Alpha virt. eigenvalues --    3.11492   3.12658   3.20771   3.23310   3.34407
 Alpha virt. eigenvalues --    3.52815   4.13918   4.15120   4.24416   4.33880
 Alpha virt. eigenvalues --    4.36263   4.39507   4.41418   4.44757   4.46686
 Alpha virt. eigenvalues --    4.47955   4.50112   4.54842   4.61453   4.67432
 Alpha virt. eigenvalues --    4.70225   4.94028
          Condensed to atoms (all electrons):
               1          2          3          4          5          6
     1  C   13.840266  -0.444503  -0.061394  -0.075006   0.076863  -0.083902
     2  S   -0.444503  17.158841   0.259212   0.078946  -0.112328   0.155353
     3  O   -0.061394   0.259212   8.895554  -0.153711  -0.230528  -0.013335
     4  O   -0.075006   0.078946  -0.153711   8.895478  -0.223784   0.020847
     5  N    0.076863  -0.112328  -0.230528  -0.223784   7.929943   0.171581
     6  H   -0.083902   0.155353  -0.013335   0.020847   0.171581   0.429443
     7  N    0.082299  -0.058763  -0.002670  -0.015926  -0.015085   0.000767
     8  C   -1.044477  -1.133090   0.017408  -0.125430   0.022477  -0.026871
     9  C   -0.257305  -0.206236  -0.126947   0.085894   0.038186   0.009337
    10  S   -1.209866  -0.659267   0.002530   0.117012   0.075518  -0.001790
    11  C   -4.825426  -1.001157  -0.030516  -0.012068   0.041179  -0.006659
    12  C    1.477593   0.063457   0.006823  -0.004492  -0.003855  -0.000823
    13  C   -1.211762  -0.116599  -0.007093   0.011249   0.005038   0.000186
    14  C    0.298117   0.207330   0.009574   0.053923   0.000154   0.000569
    15  O    0.004374   0.000159   0.000001  -0.000001  -0.000001  -0.000000
    16  C    0.040364   0.004364   0.000144   0.000158  -0.000076  -0.000001
    17  C    0.025098   0.000948   0.000009   0.000007  -0.000003  -0.000000
    18  H   -0.008477   0.000733   0.000013  -0.000002  -0.000008  -0.000000
    19  H    0.006069   0.000009  -0.000000   0.000000   0.000000   0.000000
    20  H    0.003506  -0.000061   0.000000   0.000003   0.000001  -0.000000
    21  H    0.000299   0.000005  -0.000000   0.000000   0.000000   0.000000
    22  H   -0.000632  -0.000007  -0.000000  -0.000000  -0.000000  -0.000000
    23  H   -0.000007  -0.000000   0.000000  -0.000000  -0.000000   0.000000
    24  H    0.000012   0.000000   0.000000   0.000000  -0.000000  -0.000000
    25  H   -0.000010  -0.000000  -0.000000  -0.000000   0.000000   0.000000
               7          8          9         10         11         12
     1  C    0.082299  -1.044477  -0.257305  -1.209866  -4.825426   1.477593
     2  S   -0.058763  -1.133090  -0.206236  -0.659267  -1.001157   0.063457
     3  O   -0.002670   0.017408  -0.126947   0.002530  -0.030516   0.006823
     4  O   -0.015926  -0.125430   0.085894   0.117012  -0.012068  -0.004492
     5  N   -0.015085   0.022477   0.038186   0.075518   0.041179  -0.003855
     6  H    0.000767  -0.026871   0.009337  -0.001790  -0.006659  -0.000823
     7  N    7.168939  -0.595959   0.941854  -0.150922  -0.552566   0.000635
     8  C   -0.595959  19.738575  -2.284727  -0.662789  -3.996523   1.805157
     9  C    0.941854  -2.284727  12.327604   0.624806  -4.600568  -0.120997
    10  S   -0.150922  -0.662789   0.624806  17.362513   0.527210  -0.063442
    11  C   -0.552566  -3.996523  -4.600568   0.527210  24.272995  -5.122149
    12  C    0.000635   1.805157  -0.120997  -0.063442  -5.122149  16.510378
    13  C    0.081347  -3.133132  -2.932314  -0.052007   3.467109  -2.612679
    14  C    0.183101  -2.226743   1.875670  -0.297007  -0.969981  -5.589783
    15  O    0.000446  -0.047560   0.007042  -0.003052   0.019455  -0.622160
    16  C   -0.000061  -0.071043   0.016990  -0.042288   0.144743  -0.437005
    17  C   -0.000056  -0.010003   0.013061  -0.013366   0.059175   0.567955
    18  H   -0.007956   0.056811   0.038436  -0.000262   0.306902  -0.111257
    19  H    0.000415   0.086871   0.006641  -0.000177  -0.140566   0.388088
    20  H   -0.000562   0.024892  -0.011001   0.010181  -0.033539   0.018909
    21  H   -0.000007   0.002959   0.020183   0.000119   0.000778  -0.022290
    22  H    0.000007   0.002791   0.022920   0.000549   0.003646  -0.032969
    23  H    0.000000  -0.000217   0.000759   0.000013  -0.000086  -0.005941
    24  H   -0.000000   0.000411   0.000582  -0.000015  -0.000315   0.002773
    25  H   -0.000000  -0.000242   0.000676   0.000013  -0.000068  -0.006457
              13         14         15         16         17         18
     1  C   -1.211762   0.298117   0.004374   0.040364   0.025098  -0.008477
     2  S   -0.116599   0.207330   0.000159   0.004364   0.000948   0.000733
     3  O   -0.007093   0.009574   0.000001   0.000144   0.000009   0.000013
     4  O    0.011249   0.053923  -0.000001   0.000158   0.000007  -0.000002
     5  N    0.005038   0.000154  -0.000001  -0.000076  -0.000003  -0.000008
     6  H    0.000186   0.000569  -0.000000  -0.000001  -0.000000  -0.000000
     7  N    0.081347   0.183101   0.000446  -0.000061  -0.000056  -0.007956
     8  C   -3.133132  -2.226743  -0.047560  -0.071043  -0.010003   0.056811
     9  C   -2.932314   1.875670   0.007042   0.016990   0.013061   0.038436
    10  S   -0.052007  -0.297007  -0.003052  -0.042288  -0.013366  -0.000262
    11  C    3.467109  -0.969981   0.019455   0.144743   0.059175   0.306902
    12  C   -2.612679  -5.589783  -0.622160  -0.437005   0.567955  -0.111257
    13  C   13.805660  -1.260615   0.537434  -0.376262   0.070933   0.019762
    14  C   -1.260615  13.413461   0.085278   0.434409  -0.961044   0.005483
    15  O    0.537434   0.085278   8.530023   0.043837  -0.028683  -0.000530
    16  C   -0.376262   0.434409   0.043837   6.572135  -0.923721   0.001131
    17  C    0.070933  -0.961044  -0.028683  -0.923721   6.836091   0.000092
    18  H    0.019762   0.005483  -0.000530   0.001131   0.000092   0.484286
    19  H   -0.033876   0.000589  -0.004742  -0.002954  -0.002193  -0.003226
    20  H   -0.092851   0.340550  -0.007834   0.023944   0.017708   0.000015
    21  H   -0.107934   0.069143  -0.042391   0.394490  -0.005266   0.000000
    22  H   -0.121880   0.085063  -0.042154   0.397208  -0.004225   0.000000
    23  H   -0.008397   0.004169  -0.002930  -0.076414   0.442248  -0.000000
    24  H    0.010987  -0.005838   0.009998  -0.141949   0.471366   0.000000
    25  H   -0.008372   0.004990  -0.002909  -0.073617   0.439205  -0.000000
              19         20         21         22         23         24
     1  C    0.006069   0.003506   0.000299  -0.000632  -0.000007   0.000012
     2  S    0.000009  -0.000061   0.000005  -0.000007  -0.000000   0.000000
     3  O   -0.000000   0.000000  -0.000000  -0.000000   0.000000   0.000000
     4  O    0.000000   0.000003   0.000000  -0.000000  -0.000000   0.000000
     5  N    0.000000   0.000001   0.000000  -0.000000  -0.000000  -0.000000
     6  H    0.000000  -0.000000   0.000000  -0.000000   0.000000  -0.000000
     7  N    0.000415  -0.000562  -0.000007   0.000007   0.000000  -0.000000
     8  C    0.086871   0.024892   0.002959   0.002791  -0.000217   0.000411
     9  C    0.006641  -0.011001   0.020183   0.022920   0.000759   0.000582
    10  S   -0.000177   0.010181   0.000119   0.000549   0.000013  -0.000015
    11  C   -0.140566  -0.033539   0.000778   0.003646  -0.000086  -0.000315
    12  C    0.388088   0.018909  -0.022290  -0.032969  -0.005941   0.002773
    13  C   -0.033876  -0.092851  -0.107934  -0.121880  -0.008397   0.010987
    14  C    0.000589   0.340550   0.069143   0.085063   0.004169  -0.005838
    15  O   -0.004742  -0.007834  -0.042391  -0.042154  -0.002930   0.009998
    16  C   -0.002954   0.023944   0.394490   0.397208  -0.076414  -0.141949
    17  C   -0.002193   0.017708  -0.005266  -0.004225   0.442248   0.471366
    18  H   -0.003226   0.000015   0.000000   0.000000  -0.000000   0.000000
    19  H    0.498315  -0.000125   0.000003   0.000003   0.000000   0.000000
    20  H   -0.000125   0.507339  -0.001200  -0.001144  -0.000003   0.000017
    21  H    0.000003  -0.001200   0.542873  -0.052495  -0.005979  -0.001501
    22  H    0.000003  -0.001144  -0.052495   0.542363   0.003978  -0.001526
    23  H    0.000000  -0.000003  -0.005979   0.003978   0.478781  -0.025794
    24  H    0.000000   0.000017  -0.001501  -0.001526  -0.025794   0.501226
    25  H    0.000000  -0.000003   0.003981  -0.005974  -0.026561  -0.025779
              25
     1  C   -0.000010
     2  S   -0.000000
     3  O   -0.000000
     4  O   -0.000000
     5  N    0.000000
     6  H    0.000000
     7  N   -0.000000
     8  C   -0.000242
     9  C    0.000676
    10  S    0.000013
    11  C   -0.000068
    12  C   -0.006457
    13  C   -0.008372
    14  C    0.004990
    15  O   -0.002909
    16  C   -0.073617
    17  C    0.439205
    18  H   -0.000000
    19  H    0.000000
    20  H   -0.000003
    21  H    0.003981
    22  H   -0.005974
    23  H   -0.026561
    24  H   -0.025779
    25  H    0.478622
 Mulliken charges:
               1
     1  C   -0.632092
     2  S    1.802653
     3  O   -0.565074
     4  O   -0.653097
     5  N   -0.775270
     6  H    0.345296
     7  N   -0.059278
     8  C   -0.399548
     9  C    0.509455
    10  S    0.435787
    11  C   -1.551005
    12  C   -0.085470
    13  C    0.066065
    14  C    0.239437
    15  O   -0.433100
    16  C    0.071472
    17  C   -0.995336
    18  H    0.218052
    19  H    0.200856
    20  H    0.201255
    21  H    0.204230
    22  H    0.204478
    23  H    0.222382
    24  H    0.205346
    25  H    0.222505
 Sum of Mulliken charges =  -1.00000
 Mulliken charges with hydrogens summed into heavy atoms:
               1
     1  C   -0.632092
     2  S    1.802653
     3  O   -0.565074
     4  O   -0.653097
     5  N   -0.429974
     7  N   -0.059278
     8  C   -0.399548
     9  C    0.509455
    10  S    0.435787
    11  C   -1.332952
    12  C    0.115386
    13  C    0.066065
    14  C    0.440692
    15  O   -0.433100
    16  C    0.480180
    17  C   -0.345102
 Electronic spatial extent (au):  <R**2>=           6161.6327
 Charge=             -1.0000 electrons
 Dipole moment (field-independent basis, Debye):
    X=             18.0243    Y=              0.0987    Z=              0.0535  Tot=             18.0246
 Quadrupole moment (field-independent basis, Debye-Ang):
   XX=           -184.8960   YY=           -113.9606   ZZ=           -122.3528
   XY=            -14.7005   XZ=              0.1780   YZ=              2.7180
 Traceless Quadrupole moment (field-independent basis, Debye-Ang):
   XX=            -44.4929   YY=             26.4426   ZZ=             18.0503
   XY=            -14.7005   XZ=              0.1780   YZ=              2.7180
 Octapole moment (field-independent basis, Debye-Ang**2):
  XXX=            324.9219  YYY=             13.3945  ZZZ=            -10.6388  XYY=             32.7880
  XXY=              0.7861  XXZ=             -3.8190  XZZ=             34.8254  YZZ=             -5.4053
  YYZ=              3.6282  XYZ=            -12.0958
 Hexadecapole moment (field-independent basis, Debye-Ang**3):
 XXXX=          -8435.1006 YYYY=           -903.4483 ZZZZ=           -310.9719 XXXY=           -267.1402
 XXXZ=             45.8516 YYYX=            -34.1171 YYYZ=              4.6056 ZZZX=             45.2543
 ZZZY=              4.1206 XXYY=          -1395.7460 XXZZ=          -1401.4547 YYZZ=           -211.0070
 XXYZ=             50.1671 YYXZ=            -14.5060 ZZXY=             -0.3157
 N-N= 1.318534319126D+03 E-N=-6.138362568381D+03  KE= 1.471360360372D+03
 Calling FoFJK, ICntrl=      2127 FMM=F ISym2X=0 I1Cent= 0 IOpClX= 0 NMat=1 NMatS=1 NMatT=0.
 ***** Axes restored to original set *****
 -------------------------------------------------------------------
 Center     Atomic                   Forces (Hartrees/Bohr)
 Number     Number              X              Y              Z
 -------------------------------------------------------------------
      1        6          -0.007545357   -0.000260612   -0.000639233
      2       16           0.002628005   -0.014530808    0.031245699
      3        8           0.003019044    0.009152877   -0.007817904
      4        8          -0.004623722    0.001836507   -0.010651147
      5        7          -0.001458185    0.004902654   -0.005519393
      6        1           0.001706676   -0.002259445   -0.000110181
      7        7           0.002003237    0.000780302   -0.006994756
      8        6          -0.003213379   -0.000471066    0.004249122
      9        6           0.004350262    0.000251715    0.003086780
     10       16           0.002809060    0.000328667   -0.002133785
     11        6           0.001796432    0.000137390    0.001554699
     12        6           0.002358408    0.000392736   -0.002305677
     13        6          -0.001470371   -0.000360655    0.003729258
     14        6          -0.004348941   -0.000360056   -0.002415849
     15        8           0.011466545    0.001812688   -0.008781546
     16        6          -0.014461873   -0.001863159    0.002719099
     17        6           0.001473609    0.000257296   -0.001222212
     18        1           0.000269270   -0.000062225    0.001173504
     19        1           0.001067029    0.000150300   -0.000636531
     20        1          -0.000071946   -0.000010603    0.000360835
     21        1           0.001344090   -0.000519390    0.000567349
     22        1           0.001170894    0.000741782    0.000639149
     23        1          -0.000579134    0.000557271    0.000391581
     24        1           0.000724443    0.000126764   -0.000799257
     25        1          -0.000414095   -0.000730929    0.000310395
 -------------------------------------------------------------------
 Cartesian Forces:  Max     0.031245699 RMS     0.005460037

 GradGradGradGradGradGradGradGradGradGradGradGradGradGradGradGradGradGrad
 Berny optimization.
 FormGI is forming the generalized inverse of G from B-inverse, IUseBI=4.
 Internal  Forces:  Max     0.011064579 RMS     0.002942021
 Search for a local minimum.
 Step number   1 out of a maximum of  134
 All quantities printed in internal units (Hartrees-Bohrs-Radians)
 Mixed Optimization -- RFO/linear search
 Second derivative matrix not updated -- first step.
 ITU=  0
     Eigenvalues ---    0.00230   0.00616   0.01018   0.01269   0.01670
     Eigenvalues ---    0.01863   0.01985   0.02043   0.02086   0.02129
     Eigenvalues ---    0.02152   0.02186   0.02188   0.02230   0.02323
     Eigenvalues ---    0.03248   0.05485   0.05731   0.05819   0.05896
     Eigenvalues ---    0.10520   0.11221   0.12122   0.13590   0.16000
     Eigenvalues ---    0.16000   0.16000   0.16000   0.16000   0.16000
     Eigenvalues ---    0.16000   0.16754   0.21525   0.21980   0.22439
     Eigenvalues ---    0.23530   0.24631   0.24979   0.24991   0.25000
     Eigenvalues ---    0.25000   0.25000   0.25000   0.25187   0.29941
     Eigenvalues ---    0.30772   0.31220   0.34079   0.34079   0.34349
     Eigenvalues ---    0.34351   0.34372   0.35311   0.35315   0.35560
     Eigenvalues ---    0.39254   0.40705   0.42172   0.43177   0.43830
     Eigenvalues ---    0.44955   0.46192   0.46513   0.48477   0.52425
     Eigenvalues ---    0.61639   0.67906   0.80892   0.82483
 RFO step:  Lambda=-4.58779777D-03 EMin= 2.30000000D-03
 Linear search not attempted -- first point.
 Iteration  1 RMS(Cart)=  0.02429923 RMS(Int)=  0.00103442
 Iteration  2 RMS(Cart)=  0.00092789 RMS(Int)=  0.00042559
 Iteration  3 RMS(Cart)=  0.00000071 RMS(Int)=  0.00042559
 Variable       Old X    -DE/DX   Delta X   Delta X   Delta X     New X
                                 (Linear)    (Quad)   (Total)
    R1        3.42436   0.00692   0.00000   0.02699   0.02699   3.45134
    R2        2.43029   0.00193   0.00000   0.00289   0.00290   2.43319
    R3        3.30542   0.00487   0.00000   0.01623   0.01624   3.32165
    R4        2.81138  -0.01046   0.00000  -0.01286  -0.01286   2.79853
    R5        2.80304  -0.00797   0.00000  -0.00961  -0.00961   2.79343
    R6        2.93366   0.00041   0.00000   0.00066   0.00066   2.93432
    R7        1.93358  -0.00133   0.00000  -0.00300  -0.00300   1.93058
    R8        2.62531  -0.00204   0.00000  -0.00439  -0.00439   2.62092
    R9        2.65587   0.00072   0.00000   0.00128   0.00127   2.65715
   R10        2.65348  -0.00044   0.00000  -0.00084  -0.00084   2.65264
   R11        3.29280  -0.00124   0.00000  -0.00415  -0.00416   3.28864
   R12        2.64674   0.00238   0.00000   0.00514   0.00514   2.65189
   R13        2.60564   0.00341   0.00000   0.00688   0.00688   2.61253
   R14        2.05174  -0.00019   0.00000  -0.00052  -0.00052   2.05122
   R15        2.67216  -0.00319   0.00000  -0.00737  -0.00737   2.66479
   R16        2.05167  -0.00003   0.00000  -0.00007  -0.00007   2.05159
   R17        2.62853  -0.00006   0.00000  -0.00025  -0.00025   2.62828
   R18        2.57495   0.00603   0.00000   0.01141   0.01141   2.58636
   R19        2.04776  -0.00009   0.00000  -0.00025  -0.00025   2.04751
   R20        2.70606  -0.01106   0.00000  -0.02688  -0.02688   2.67918
   R21        2.85594   0.00153   0.00000   0.00482   0.00482   2.86076
   R22        2.07197   0.00127   0.00000   0.00369   0.00369   2.07565
   R23        2.07197   0.00126   0.00000   0.00364   0.00364   2.07560
   R24        2.06741  -0.00048   0.00000  -0.00139  -0.00139   2.06603
   R25        2.06706   0.00085   0.00000   0.00243   0.00243   2.06949
   R26        2.06745  -0.00049   0.00000  -0.00142  -0.00142   2.06603
    A1        2.14233   0.00803   0.00000   0.03114   0.03113   2.17346
    A2        2.09582  -0.00505   0.00000  -0.02029  -0.02030   2.07552
    A3        2.04390  -0.00298   0.00000  -0.01075  -0.01074   2.03317
    A4        1.79497  -0.00440   0.00000  -0.03082  -0.03086   1.76411
    A5        1.78396  -0.00945   0.00000  -0.05437  -0.05446   1.72950
    A6        1.90982  -0.00690   0.00000  -0.04339  -0.04360   1.86622
    A7        2.00360   0.00554   0.00000   0.04650   0.04407   2.04767
    A8        2.02451   0.00469   0.00000   0.02521   0.02312   2.04764
    A9        1.92386   0.00653   0.00000   0.03299   0.03041   1.95427
   A10        1.89235  -0.00471   0.00000  -0.02862  -0.02862   1.86373
   A11        1.92418   0.00085   0.00000   0.00358   0.00359   1.92777
   A12        2.00786   0.00189   0.00000   0.00649   0.00648   2.01434
   A13        2.19250  -0.00005   0.00000   0.00039   0.00039   2.19289
   A14        2.08282  -0.00183   0.00000  -0.00688  -0.00688   2.07595
   A15        1.90924  -0.00093   0.00000  -0.00451  -0.00453   1.90471
   A16        2.13689  -0.00159   0.00000  -0.00618  -0.00617   2.13072
   A17        2.23705   0.00252   0.00000   0.01069   0.01070   2.24775
   A18        1.53959   0.00118   0.00000   0.00520   0.00519   1.54478
   A19        2.07675   0.00233   0.00000   0.01006   0.01006   2.08681
   A20        2.09496  -0.00239   0.00000  -0.01245  -0.01245   2.08251
   A21        2.11147   0.00006   0.00000   0.00240   0.00240   2.11386
   A22        2.11133  -0.00026   0.00000  -0.00193  -0.00193   2.10940
   A23        2.10910   0.00141   0.00000   0.00876   0.00876   2.11787
   A24        2.06275  -0.00115   0.00000  -0.00683  -0.00683   2.05592
   A25        2.11596  -0.00177   0.00000  -0.00796  -0.00796   2.10800
   A26        2.00790  -0.00004   0.00000   0.00033   0.00033   2.00823
   A27        2.15933   0.00182   0.00000   0.00763   0.00763   2.16696
   A28        2.04261   0.00312   0.00000   0.01289   0.01289   2.05550
   A29        2.10806  -0.00193   0.00000  -0.00866  -0.00866   2.09940
   A30        2.13251  -0.00120   0.00000  -0.00422  -0.00422   2.12829
   A31        2.06002  -0.00213   0.00000  -0.00836  -0.00836   2.05166
   A32        1.87538  -0.00078   0.00000  -0.00213  -0.00212   1.87326
   A33        1.90348   0.00066   0.00000   0.00585   0.00585   1.90933
   A34        1.90341   0.00064   0.00000   0.00582   0.00582   1.90923
   A35        1.94167  -0.00005   0.00000  -0.00185  -0.00186   1.93982
   A36        1.94142  -0.00001   0.00000  -0.00154  -0.00155   1.93988
   A37        1.89780  -0.00042   0.00000  -0.00569  -0.00571   1.89209
   A38        1.93311  -0.00064   0.00000  -0.00541  -0.00544   1.92767
   A39        1.91041   0.00138   0.00000   0.01131   0.01131   1.92172
   A40        1.93266  -0.00062   0.00000  -0.00522  -0.00525   1.92742
   A41        1.89306  -0.00003   0.00000   0.00264   0.00265   1.89570
   A42        1.90072  -0.00004   0.00000  -0.00577  -0.00583   1.89489
   A43        1.89299  -0.00003   0.00000   0.00270   0.00270   1.89570
    D1        1.01940  -0.00023   0.00000   0.01788   0.01802   1.03742
    D2        3.10170   0.00054   0.00000   0.03626   0.03589   3.13759
    D3       -1.14228   0.00032   0.00000   0.02818   0.02840  -1.11388
    D4       -2.17499  -0.00026   0.00000   0.01977   0.01991  -2.15508
    D5       -0.09269   0.00051   0.00000   0.03815   0.03779  -0.05491
    D6        1.94651   0.00029   0.00000   0.03007   0.03030   1.97681
    D7        3.09279  -0.00007   0.00000   0.00313   0.00315   3.09594
    D8        0.00253   0.00003   0.00000   0.00162   0.00161   0.00414
    D9       -3.09280  -0.00033   0.00000  -0.00489  -0.00487  -3.09767
   D10       -0.00109  -0.00002   0.00000  -0.00183  -0.00184  -0.00293
   D11        1.35443   0.00165   0.00000   0.01474   0.01485   1.36928
   D12       -0.66553   0.00924   0.00000   0.06917   0.07071  -0.59482
   D13       -2.98000  -0.00985   0.00000  -0.05581  -0.05745  -3.03745
   D14       -0.00308  -0.00003   0.00000  -0.00043  -0.00043  -0.00351
   D15        3.13862  -0.00007   0.00000  -0.00312  -0.00313   3.13549
   D16        0.00227   0.00001   0.00000  -0.00090  -0.00091   0.00136
   D17       -3.14130  -0.00001   0.00000  -0.00121  -0.00122   3.14066
   D18       -3.13942   0.00005   0.00000   0.00161   0.00159  -3.13783
   D19        0.00019   0.00003   0.00000   0.00130   0.00129   0.00148
   D20        3.13960   0.00005   0.00000   0.00274   0.00272  -3.14086
   D21       -0.00047   0.00001   0.00000   0.00108   0.00108   0.00061
   D22       -0.00188   0.00000   0.00000  -0.00006  -0.00006  -0.00194
   D23        3.14124  -0.00004   0.00000  -0.00171  -0.00171   3.13953
   D24       -0.00070   0.00001   0.00000   0.00142   0.00143   0.00073
   D25       -3.14016   0.00004   0.00000   0.00178   0.00178  -3.13838
   D26        0.00183  -0.00004   0.00000  -0.00174  -0.00174   0.00009
   D27       -3.14132   0.00000   0.00000  -0.00027  -0.00027  -3.14159
   D28        3.14105  -0.00007   0.00000  -0.00213  -0.00214   3.13891
   D29       -0.00210  -0.00003   0.00000  -0.00066  -0.00066  -0.00277
   D30        0.00152  -0.00002   0.00000  -0.00064  -0.00064   0.00088
   D31       -3.13987  -0.00003   0.00000  -0.00114  -0.00114  -3.14101
   D32        3.14158   0.00002   0.00000   0.00102   0.00102  -3.14059
   D33        0.00019   0.00001   0.00000   0.00051   0.00052   0.00070
   D34        0.00057   0.00000   0.00000   0.00015   0.00015   0.00072
   D35       -3.14024  -0.00003   0.00000  -0.00096  -0.00095  -3.14119
   D36       -3.14122   0.00002   0.00000   0.00064   0.00064  -3.14058
   D37        0.00115  -0.00001   0.00000  -0.00046  -0.00046   0.00069
   D38       -0.00220   0.00003   0.00000   0.00101   0.00101  -0.00119
   D39        3.14097  -0.00002   0.00000  -0.00048  -0.00048   3.14049
   D40        3.13854   0.00006   0.00000   0.00221   0.00221   3.14076
   D41       -0.00147   0.00001   0.00000   0.00072   0.00072  -0.00075
   D42        3.13877  -0.00001   0.00000  -0.00049  -0.00049   3.13828
   D43       -0.00202  -0.00004   0.00000  -0.00162  -0.00162  -0.00365
   D44       -3.13820  -0.00003   0.00000  -0.00125  -0.00125  -3.13945
   D45        1.03833   0.00011   0.00000  -0.00111  -0.00110   1.03723
   D46       -1.03187  -0.00014   0.00000  -0.00104  -0.00104  -1.03292
   D47       -1.05566   0.00045   0.00000   0.00732   0.00730  -1.04836
   D48        3.14104   0.00001   0.00000   0.00022   0.00022   3.14126
   D49        1.05491  -0.00044   0.00000  -0.00706  -0.00704   1.04787
   D50        1.02672   0.00073   0.00000   0.01205   0.01203   1.03876
   D51       -1.05977   0.00029   0.00000   0.00496   0.00496  -1.05481
   D52        3.13729  -0.00016   0.00000  -0.00232  -0.00231   3.13498
   D53       -3.13781   0.00015   0.00000   0.00244   0.00243  -3.13539
   D54        1.05888  -0.00029   0.00000  -0.00465  -0.00465   1.05423
   D55       -1.02725  -0.00074   0.00000  -0.01194  -0.01192  -1.03916
         Item               Value     Threshold  Converged?
 Maximum Force            0.011065     0.000450     NO 
 RMS     Force            0.002942     0.000300     NO 
 Maximum Displacement     0.138921     0.001800     NO 
 RMS     Displacement     0.024372     0.001200     NO 
 Predicted change in Energy=-2.404679D-03
 GradGradGradGradGradGradGradGradGradGradGradGradGradGradGradGradGradGrad

                          Input orientation:                          
 ---------------------------------------------------------------------
 Center     Atomic      Atomic             Coordinates (Angstroms)
 Number     Number       Type             X           Y           Z
 ---------------------------------------------------------------------
      1          6           0       -1.128372    0.634354   -1.437744
      2         16           0       -1.348406    0.578323    0.374458
      3          8           0       -2.015117   -0.733666    0.539667
      4          8           0        0.068316    0.675942    0.784938
      5          7           0       -2.156668    1.843446    0.771055
      6          1           0       -3.134239    1.652082    0.544252
      7          7           0       -2.090133    0.576367   -2.291871
      8          6           0       -1.599816    0.702211   -3.583124
      9          6           0       -0.207048    0.865409   -3.686487
     10         16           0        0.488402    0.854895   -2.091246
     11          6           0       -2.369662    0.676091   -4.756615
     12          6           0       -1.747663    0.812826   -5.983683
     13          6           0       -0.349896    0.977118   -6.071782
     14          6           0        0.437151    1.004697   -4.925400
     15          8           0        0.140214    1.101692   -7.343573
     16          6           0        1.539530    1.273675   -7.493193
     17          6           0        1.823799    1.388354   -8.975684
     18          1           0       -3.445146    0.548478   -4.684023
     19          1           0       -2.314920    0.797358   -6.909226
     20          1           0        1.512530    1.128883   -4.971226
     21          1           0        2.061810    0.412426   -7.055097
     22          1           0        1.854893    2.179511   -6.958023
     23          1           0        1.499993    0.483980   -9.497746
     24          1           0        2.897467    1.523582   -9.143776
     25          1           0        1.293410    2.244611   -9.400904
 ---------------------------------------------------------------------
                    Distance matrix (angstroms):
                    1          2          3          4          5
     1  C    0.000000
     2  S    1.826371   0.000000
     3  O    2.562801   1.480916   0.000000
     4  O    2.524700   1.478217   2.527418   0.000000
     5  N    2.719943   1.552776   2.591348   2.512730   0.000000
     6  H    2.997929   2.090690   2.635194   3.356655   1.021619
     7  N    1.287586   2.767575   3.120805   3.759730   3.315333
     8  C    2.197616   3.967494   4.385387   4.675823   4.535568
     9  C    2.441121   4.228048   4.866881   4.483901   4.962586
    10  S    1.757743   3.087078   3.963942   2.912204   4.020746
    11  C    3.543648   5.232631   5.492151   6.054134   5.653602
    12  C    4.591398   6.374979   6.709491   7.009333   6.845140
    13  C    4.711456   6.535294   7.029296   6.876061   7.130173
    14  C    3.840802   5.608788   6.237186   5.731674   6.315140
    15  O    6.058592   7.877685   8.376125   8.139971   8.465994
    16  C    6.647924   8.409733   9.010647   8.429069   9.071070
    17  C    8.130459   9.906775  10.477698   9.942786  10.538033
    18  H    3.989128   5.475896   5.565592   6.501553   5.752824
    19  H    5.601034   7.350794   7.610514   8.055726   7.752810
    20  H    4.438966   6.088055   6.803185   5.951835   6.851818
    21  H    6.463835   8.176514   8.695706   8.093801   9.005111
    22  H    6.462265   8.160283   8.926306   8.087400   8.714598
    23  H    8.479065  10.275344  10.704593  10.383647  10.984880
    24  H    8.739624  10.465072  11.090433  10.358665  11.133304
    25  H    8.477610  10.262233  10.891806  10.378485  10.748615
                    6          7          8          9         10
     6  H    0.000000
     7  N    3.207945   0.000000
     8  C    4.504657   1.386932   0.000000
     9  C    5.204464   2.361040   1.406101   0.000000
    10  S    4.550261   2.601282   2.570927   1.740275   0.000000
    11  C    5.443925   2.482548   1.403719   2.420313   3.912121
    12  C    6.726133   3.715195   2.407650   2.766472   4.489189
    13  C    7.209718   4.180520   2.798445   2.392178   4.069687
    14  C    6.564375   3.675065   2.458137   1.403317   2.838573
    15  O    8.558198   5.547081   4.162724   3.681128   5.269638
    16  C    9.305257   6.380787   5.046851   4.208114   5.519173
    17  C   10.736893   7.787910   6.424301   5.689764   7.033019
    18  H    5.352519   2.749405   2.154264   3.403057   4.721142
    19  H    7.546931   4.628103   3.403437   3.851467   5.574483
    20  H    7.230954   4.523649   3.434469   2.162619   3.068908
    21  H    9.289013   6.320904   5.054313   4.086618   5.226013
    22  H    9.025173   6.317142   5.050483   4.084289   5.225651
    23  H   11.121253   8.051222   6.681257   6.068789   7.484459
    24  H   11.412969   8.527718   7.198684   6.312939   7.482574
    25  H   10.902353   8.047966   6.678048   6.066971   7.484013
                   11         12         13         14         15
    11  C    0.000000
    12  C    1.382489   0.000000
    13  C    2.428937   1.410144   0.000000
    14  C    2.831019   2.435197   1.390825   0.000000
    15  O    3.629459   2.344531   1.368642   2.438266   0.000000
    16  C    4.809132   3.646456   2.382915   2.807338   1.417762
    17  C    5.991076   4.694534   3.650577   4.298231   2.362291
    18  H    1.085458   2.154169   3.419090   3.916455   4.498228
    19  H    2.156719   1.085657   2.143582   3.398889   2.511765
    20  H    3.914396   3.428385   2.168614   1.083496   2.740807
    21  H    4.999049   3.977478   2.664979   2.743339   2.061756
    22  H    4.995332   3.974366   2.663132   2.742579   2.061667
    23  H    6.122864   4.796254   3.924602   4.723042   2.621264
    24  H    6.907103   5.662914   4.503458   4.910915   3.319814
    25  H    6.119460   4.793281   3.923016   4.722362   2.620828
                   16         17         18         19         20
    16  C    0.000000
    17  C    1.513850   0.000000
    18  H    5.767524   6.847301   0.000000
    19  H    3.927427   4.663531   2.508163   0.000000
    20  H    2.526264   4.024910   4.999790   4.302921   0.000000
    21  H    1.098387   2.167427   5.997255   4.396046   2.271021
    22  H    1.098362   2.167453   5.993477   4.393185   2.273410
    23  H    2.154858   1.093293   6.901484   4.620844   4.572246
    24  H    2.151946   1.095127   7.814663   5.717482   4.414069
    25  H    2.154682   1.093298   6.897808   4.617689   4.573282
                   21         22         23         24         25
    21  H    0.000000
    22  H    1.781805   0.000000
    23  H    2.507447   3.074243   0.000000
    24  H    2.509097   2.508927   1.777358   0.000000
    25  H    3.074110   2.507422   1.775352   1.777356   0.000000
 Stoichiometry    C9H9N2O3S2(1-)
 Framework group  C1[X(C9H9N2O3S2)]
 Deg. of freedom    69
 Full point group                 C1      NOp   1
 Largest Abelian subgroup         C1      NOp   1
 Largest concise Abelian subgroup C1      NOp   1
                         Standard orientation:                         
 ---------------------------------------------------------------------
 Center     Atomic      Atomic             Coordinates (Angstroms)
 Number     Number       Type             X           Y           Z
 ---------------------------------------------------------------------
      1          6           0       -1.853730    0.084227   -0.046003
      2         16           0       -3.661543   -0.170605    0.004028
      3          8           0       -4.084501    0.550976   -1.218076
      4          8           0       -3.690415   -1.647995   -0.036101
      5          7           0       -4.158644    0.383381    1.366783
      6          1           0       -4.202057    1.399840    1.273882
      7          7           0       -1.278495    1.236135   -0.036422
      8          6           0        0.100559    1.089096   -0.023372
      9          6           0        0.565910   -0.237760   -0.018868
     10         16           0       -0.796726   -1.320144   -0.033897
     11          6           0        1.034880    2.136683   -0.017580
     12          6           0        2.386274    1.845377   -0.005284
     13          6           0        2.838251    0.509641    0.000444
     14          6           0        1.934554   -0.547557   -0.007007
     15          8           0        4.198391    0.357856    0.013131
     16          6           0        4.710651   -0.964086    0.023559
     17          6           0        6.220991   -0.862312    0.039540
     18          1           0        0.682393    3.163300   -0.022964
     19          1           0        3.133696    2.632766   -0.000003
     20          1           0        2.260952   -1.580716   -0.003809
     21          1           0        4.359006   -1.498610   -0.869237
     22          1           0        4.339649   -1.491938    0.912450
     23          1           0        6.577311   -0.329896   -0.846383
     24          1           0        6.665673   -1.863054    0.048390
     25          1           0        6.557799   -0.322875    0.928848
 ---------------------------------------------------------------------
 Rotational constants (GHZ):           1.4349811           0.1848415           0.1697828
 Basis read from rwf:  (6D, 7F)
 There are   330 symmetry adapted cartesian basis functions of A   symmetry.
 There are   330 symmetry adapted basis functions of A   symmetry.
   330 basis functions,   596 primitive gaussians,   330 cartesian basis functions
    67 alpha electrons       67 beta electrons
       nuclear repulsion energy      1319.5913225767 Hartrees.
 NAtoms=   25 NActive=   25 NUniq=   25 SFac= 1.00D+00 NAtFMM=   60 NAOKFM=F Big=F
 Integral buffers will be    131072 words long.
 Raffenetti 2 integral format.
 Two-electron integral symmetry is turned on.
 One-electron integrals computed using PRISM.
 NBasis=   330 RedAO= T EigKep=  1.09D-06  NBF=   330
 NBsUse=   329 1.00D-06 EigRej=  1.48D-07 NBFU=   329
 Initial guess from the checkpoint file:  "/jobfs/41232413.gadi-pbs/Gau-1268107.chk"
 B after Tr=     0.000000   -0.000000   -0.000000
         Rot=    0.999994    0.003357   -0.000007   -0.000180 Ang=   0.39 deg.
 ExpMin= 4.05D-02 ExpMax= 2.19D+04 ExpMxC= 3.30D+03 IAcc=3 IRadAn=         5 AccDes= 0.00D+00
 Harris functional with IExCor= 1009 and IRadAn=       5 diagonalized for initial guess.
 HarFok:  IExCor= 1009 AccDes= 0.00D+00 IRadAn=         5 IDoV= 1 UseB2=F ITyADJ=14
 ICtDFT=  3500011 ScaDFX=  1.000000  1.000000  1.000000  1.000000
 FoFCou: FMM=F IPFlag=           0 FMFlag=      100000 FMFlg1=           0
         NFxFlg=           0 DoJE=T BraDBF=F KetDBF=T FulRan=T
         wScrn=  0.000000 ICntrl=       500 IOpCl=  0 I1Cent=   200000004 NGrid=           0
         NMat0=    1 NMatS0=      1 NMatT0=    0 NMatD0=    1 NMtDS0=    0 NMtDT0=    0
 Petite list used in FoFCou.
 Requested convergence on RMS density matrix=1.00D-08 within 128 cycles.
 Requested convergence on MAX density matrix=1.00D-06.
 Requested convergence on             energy=1.00D-06.
 No special actions if energy rises.
 SCF Done:  E(RM062X) =  -1479.59264265     A.U. after   13 cycles
            NFock= 13  Conv=0.99D-08     -V/T= 2.0056
 Calling FoFJK, ICntrl=      2127 FMM=F ISym2X=0 I1Cent= 0 IOpClX= 0 NMat=1 NMatS=1 NMatT=0.
 ***** Axes restored to original set *****
 -------------------------------------------------------------------
 Center     Atomic                   Forces (Hartrees/Bohr)
 Number     Number              X              Y              Z
 -------------------------------------------------------------------
      1        6          -0.006303917   -0.000000716   -0.004248347
      2       16           0.003342558   -0.004353692   -0.002719386
      3        8           0.002232278    0.005246499    0.002937925
      4        8          -0.004485391   -0.000436884    0.003724296
      5        7           0.001145661    0.000034303    0.001883201
      6        1          -0.000508758   -0.000986360    0.000843000
      7        7           0.002522476    0.000363406   -0.002815243
      8        6          -0.002176455   -0.000210850    0.000223055
      9        6           0.002855174    0.000210778    0.000920454
     10       16           0.002542213    0.000273397   -0.001149076
     11        6           0.000658985    0.000080489   -0.000316296
     12        6          -0.000077035    0.000018177   -0.000035603
     13        6          -0.001418711   -0.000346230    0.002932640
     14        6          -0.001522537   -0.000129334   -0.000815292
     15        8           0.003723467    0.000543422   -0.002134379
     16        6          -0.005387134   -0.000668517    0.000704627
     17        6           0.001747978    0.000236386   -0.000473066
     18        1          -0.000234408   -0.000027577    0.000219310
     19        1          -0.000073454   -0.000009689   -0.000025457
     20        1           0.000320765    0.000041323    0.000272048
     21        1           0.000985416    0.000036062    0.000092664
     22        1           0.000959138    0.000183697    0.000119618
     23        1          -0.000284661   -0.000096945    0.000002953
     24        1          -0.000270626   -0.000026820   -0.000146615
     25        1          -0.000293019    0.000025673    0.000002970
 -------------------------------------------------------------------
 Cartesian Forces:  Max     0.006303917 RMS     0.001940419

 GradGradGradGradGradGradGradGradGradGradGradGradGradGradGradGradGradGrad
 Berny optimization.
 Using GEDIIS/GDIIS optimizer.
 FormGI is forming the generalized inverse of G from B-inverse, IUseBI=4.
 Internal  Forces:  Max     0.006425071 RMS     0.001469567
 Search for a local minimum.
 Step number   2 out of a maximum of  134
 All quantities printed in internal units (Hartrees-Bohrs-Radians)
 Mixed Optimization -- RFO/linear search
 Update second derivatives using D2CorX and points    1    2
 DE= -1.94D-03 DEPred=-2.40D-03 R= 8.05D-01
 TightC=F SS=  1.41D+00  RLast= 1.72D-01 DXNew= 5.0454D-01 5.1612D-01
 Trust test= 8.05D-01 RLast= 1.72D-01 DXMaxT set to 5.05D-01
 ITU=  1  0
 Use linear search instead of GDIIS.
     Eigenvalues ---    0.00231   0.00616   0.01023   0.01269   0.01671
     Eigenvalues ---    0.01861   0.01985   0.02044   0.02087   0.02130
     Eigenvalues ---    0.02152   0.02186   0.02189   0.02231   0.02321
     Eigenvalues ---    0.03216   0.05486   0.05738   0.05829   0.05830
     Eigenvalues ---    0.11150   0.11307   0.12935   0.13584   0.15377
     Eigenvalues ---    0.16000   0.16000   0.16000   0.16000   0.16000
     Eigenvalues ---    0.16000   0.20158   0.20869   0.21956   0.22435
     Eigenvalues ---    0.23221   0.24295   0.24780   0.24991   0.25000
     Eigenvalues ---    0.25000   0.25000   0.25037   0.28508   0.29714
     Eigenvalues ---    0.30783   0.31197   0.34040   0.34079   0.34350
     Eigenvalues ---    0.34357   0.34406   0.35314   0.35318   0.35567
     Eigenvalues ---    0.38987   0.39844   0.42136   0.43236   0.43873
     Eigenvalues ---    0.45002   0.46172   0.46511   0.48601   0.51999
     Eigenvalues ---    0.61652   0.67915   0.78700   0.82118
 RFO step:  Lambda=-8.91371701D-04 EMin= 2.30681326D-03
 Quartic linear search produced a step of -0.13512.
 Iteration  1 RMS(Cart)=  0.02259910 RMS(Int)=  0.00027536
 Iteration  2 RMS(Cart)=  0.00035316 RMS(Int)=  0.00002630
 Iteration  3 RMS(Cart)=  0.00000009 RMS(Int)=  0.00002630
 Variable       Old X    -DE/DX   Delta X   Delta X   Delta X     New X
                                 (Linear)    (Quad)   (Total)
    R1        3.45134   0.00643  -0.00365   0.03100   0.02736   3.47870
    R2        2.43319  -0.00012  -0.00039   0.00079   0.00041   2.43359
    R3        3.32165   0.00295  -0.00219   0.01382   0.01163   3.33328
    R4        2.79853  -0.00533   0.00174  -0.00999  -0.00826   2.79027
    R5        2.79343  -0.00329   0.00130  -0.00667  -0.00537   2.78805
    R6        2.93432  -0.00041  -0.00009  -0.00035  -0.00044   2.93388
    R7        1.93058   0.00048   0.00041  -0.00007   0.00034   1.93092
    R8        2.62092  -0.00133   0.00059  -0.00395  -0.00336   2.61756
    R9        2.65715   0.00127  -0.00017   0.00293   0.00276   2.65990
   R10        2.65264  -0.00025   0.00011  -0.00069  -0.00058   2.65207
   R11        3.28864  -0.00055   0.00056  -0.00282  -0.00226   3.28638
   R12        2.65189  -0.00066  -0.00069   0.00049  -0.00020   2.65169
   R13        2.61253  -0.00052  -0.00093   0.00140   0.00047   2.61300
   R14        2.05122   0.00025   0.00007   0.00043   0.00050   2.05172
   R15        2.66479  -0.00028   0.00100  -0.00313  -0.00213   2.66265
   R16        2.05159   0.00006   0.00001   0.00012   0.00013   2.05172
   R17        2.62828  -0.00055   0.00003  -0.00115  -0.00111   2.62717
   R18        2.58636   0.00215  -0.00154   0.00737   0.00583   2.59218
   R19        2.04751   0.00031   0.00003   0.00067   0.00070   2.04821
   R20        2.67918  -0.00258   0.00363  -0.01453  -0.01090   2.66828
   R21        2.86076   0.00078  -0.00065   0.00378   0.00313   2.86389
   R22        2.07565   0.00048  -0.00050   0.00245   0.00195   2.07760
   R23        2.07560   0.00048  -0.00049   0.00245   0.00196   2.07756
   R24        2.06603   0.00016   0.00019  -0.00006   0.00013   2.06615
   R25        2.06949  -0.00025  -0.00033   0.00020  -0.00012   2.06937
   R26        2.06603   0.00016   0.00019  -0.00008   0.00012   2.06615
    A1        2.17346   0.00360  -0.00421   0.02300   0.01878   2.19224
    A2        2.07552  -0.00247   0.00274  -0.01528  -0.01254   2.06298
    A3        2.03317  -0.00113   0.00145  -0.00744  -0.00599   2.02717
    A4        1.76411   0.00377   0.00417   0.01050   0.01468   1.77879
    A5        1.72950   0.00543   0.00736   0.00973   0.01710   1.74660
    A6        1.86622   0.00231   0.00589   0.00072   0.00667   1.87289
    A7        2.04767  -0.00166  -0.00595   0.00081  -0.00514   2.04252
    A8        2.04764  -0.00310  -0.00312  -0.00881  -0.01182   2.03582
    A9        1.95427  -0.00320  -0.00411  -0.00635  -0.01029   1.94398
   A10        1.86373  -0.00093   0.00387  -0.01472  -0.01085   1.85288
   A11        1.92777   0.00114  -0.00049   0.00484   0.00436   1.93213
   A12        2.01434  -0.00016  -0.00088   0.00142   0.00054   2.01488
   A13        2.19289  -0.00026  -0.00005  -0.00083  -0.00088   2.19202
   A14        2.07595   0.00041   0.00093  -0.00059   0.00034   2.07628
   A15        1.90471   0.00023   0.00061  -0.00066  -0.00005   1.90466
   A16        2.13072  -0.00101   0.00083  -0.00547  -0.00463   2.12608
   A17        2.24775   0.00078  -0.00145   0.00613   0.00469   2.25244
   A18        1.54478  -0.00009  -0.00070   0.00185   0.00115   1.54593
   A19        2.08681   0.00007  -0.00136   0.00379   0.00243   2.08924
   A20        2.08251  -0.00024   0.00168  -0.00553  -0.00385   2.07866
   A21        2.11386   0.00018  -0.00032   0.00174   0.00142   2.11528
   A22        2.10940  -0.00044   0.00026  -0.00252  -0.00226   2.10714
   A23        2.11787   0.00017  -0.00118   0.00363   0.00245   2.12032
   A24        2.05592   0.00027   0.00092  -0.00111  -0.00019   2.05573
   A25        2.10800   0.00057   0.00108  -0.00100   0.00007   2.10807
   A26        2.00823   0.00014  -0.00004   0.00073   0.00069   2.00892
   A27        2.16696  -0.00071  -0.00103   0.00027  -0.00076   2.16620
   A28        2.05550   0.00040  -0.00174   0.00579   0.00405   2.05955
   A29        2.09940  -0.00049   0.00117  -0.00521  -0.00404   2.09537
   A30        2.12829   0.00009   0.00057  -0.00059  -0.00002   2.12827
   A31        2.05166   0.00028   0.00113  -0.00188  -0.00075   2.05091
[...]
 0219,-0.00000143,-0.00000388,0.00001342,-0.00000388,0.00000422,0.00015
 597,0.00000834,0.00009893,-0.00006288,0.00000989,0.00007806,-0.0000259
 3,-0.00000403,-0.00000606,-0.00007266,0.00000651,-0.00023798,-0.000278
 20,-0.00004667,0.00040032,-0.00046913,-0.00003482,0.00006424,-0.000117
 40,0.00002700,-0.00008117,0.00890952,0.00142387,-0.00627853,0.02248903
 ,0.00974450,-0.22444496,0.01585024,0.00591641,0.51073256,-0.00021894,0
 .00000308,-0.00031593,-0.00035812,-0.00006184,0.00033565,0.00012942,0.
 00013353,-0.00006288,0.00012647,0.00002783,-0.00016578,0.00013906,-0.0
 0009574,-0.00006222,-0.00000016,0.00000891,-0.00001128,0.00111827,0.00
 045156,0.00100133,-0.01385624,-0.00228411,0.00399083,-0.00059409,-0.00
 050287,-0.00291942,-0.00022612,-0.00001763,0.00002023,-0.34408158,-0.0
 3437704,0.01677838,-0.00814334,-0.00120013,-0.00136263,0.00203720,-0.0
 0076309,0.00162718,0.00057357,0.00015904,-0.00040693,-0.00099139,-0.00
 016592,0.00033180,0.00030198,0.00005239,0.00007977,-0.00007702,-0.0000
 0372,-0.00002001,0.36366442,0.00006238,-0.00031920,-0.00002455,-0.0000
 7136,0.00031925,0.00006739,0.00001166,-0.00011051,-0.00002079,0.000004
 68,-0.00005242,-0.00001977,0.00003549,-0.00012171,-0.00001171,-0.00000
 427,0.00003637,-0.00001503,0.00042848,-0.00343303,-0.00021106,-0.00073
 982,0.00501658,0.00030844,-0.00051560,0.00536033,0.00017606,0.00002767
 ,-0.00005358,0.00001015,-0.03442614,-0.04140295,0.00296281,-0.00270486
 ,0.00318822,-0.00015406,-0.00072382,0.00808729,0.00081650,0.00012870,-
 0.00068211,-0.00001834,-0.00023986,0.00032195,0.00005789,0.00006659,-0
 .00018694,0.00001565,-0.00001180,-0.00003710,-0.00000516,0.03795776,0.
 02984604,-0.00064799,-0.00007568,-0.00003446,-0.00026862,-0.00000908,-
 0.00010026,0.00008725,0.00002595,0.00004164,0.00024316,0.00003012,-0.0
 0002007,0.00007340,-0.00002968,0.00005685,0.00001192,0.00000171,-0.000
 03637,0.00155772,-0.00015252,0.00252834,-0.02645270,-0.00300628,0.0075
 5960,-0.00244502,0.00018698,-0.00383864,-0.00074011,-0.00004606,-0.000
 53478,0.01727881,0.00301010,-0.05987456,0.02807754,0.00306374,0.003502
 97,0.00104619,0.00076884,-0.00418868,0.00010165,0.00004234,-0.00125160
 ,0.00180354,0.00022070,-0.00004594,-0.00021233,-0.00001847,-0.00033994
 ,0.00016131,0.00001435,0.00002305,-0.01917839,-0.00361181,0.05546174,0
 .00002887,0.00006146,0.00026761,0.00004332,0.00000817,0.00002735,0.000
 00378,0.00001984,-0.00002211,0.00003260,0.00000067,0.00000532,-0.00000
 208,-0.00000727,-0.00002470,-0.00000195,0.00000021,0.00000836,0.000639
 64,-0.00004645,0.00029126,-0.00091669,-0.00111689,0.00301999,-0.000614
 07,-0.00004414,0.00130247,0.00001569,0.00000449,0.00001717,0.01248839,
 0.00042965,0.01327136,-0.13908517,-0.00499367,-0.12905474,-0.01152600,
 -0.00018313,-0.02918938,-0.00562466,-0.00112882,0.00174813,0.00238456,
 0.00061416,-0.00037934,-0.00023441,0.00002744,0.00032753,0.00002812,-0
 .00000238,-0.00000605,0.00064702,0.00064248,-0.00057007,0.14202573,0.0
 0004702,-0.00061845,0.00001902,0.00001928,-0.00008406,-0.00002479,-0.0
 0003424,-0.00005560,0.00003019,0.00000992,0.00003525,0.00001116,0.0000
 3358,-0.00003409,-0.00001012,-0.00000080,0.00000478,-0.00001089,0.0000
 4183,0.00095727,0.00012709,-0.00115649,0.00760284,0.00084410,-0.000018
 90,-0.00079618,0.00011005,0.00000606,-0.00005936,-0.00001136,0.0019503
 0,0.00246623,0.00248357,-0.00489229,-0.03301944,-0.00209295,-0.0018092
 1,0.00388504,-0.00311507,-0.00106263,0.00375963,0.00033772,0.00059048,
 -0.00297761,-0.00024282,0.00004389,-0.00065732,-0.00000863,-0.00000042
 ,0.00005489,0.00000346,0.00060400,-0.00489787,-0.00037110,0.00570491,0
 .02417670,0.00049809,0.00002355,-0.00044939,-0.00018027,-0.00003128,0.
 00057237,0.00008927,0.00012562,-0.00014311,-0.00010743,-0.00000418,-0.
 00020467,0.00011018,-0.00010093,-0.00015088,-0.00001449,0.00000865,0.0
 0001121,-0.00124770,-0.00003381,-0.00116640,0.00422001,0.00095998,-0.0
 0181408,0.00063335,0.00003238,-0.00003266,-0.00012622,-0.00002543,0.00
 017418,-0.01642962,-0.00075175,-0.01796045,-0.13118759,-0.00232701,-0.
 26607705,0.00243975,0.00034800,0.00238464,0.00031255,0.00018195,0.0009
 9534,0.00013313,-0.00018709,0.00084455,0.00005243,-0.00003907,0.000221
 73,-0.00007615,-0.00000432,-0.00003321,0.00028573,-0.00027516,0.000980
 93,0.14035285,0.00206620,0.28173027,-0.00114105,-0.00005287,-0.0000689
 9,0.00018646,0.00000095,-0.00031527,-0.00004845,-0.00006828,0.00009731
 ,-0.00000505,-0.00000626,0.00017874,-0.00006669,0.00006779,0.00009993,
 0.00001118,-0.00000438,-0.00001656,0.00004632,-0.00004712,0.00063538,0
 .00154802,-0.00058632,0.00153940,-0.00958645,-0.00120364,0.00044287,0.
 00056755,0.00026991,-0.00008167,0.00067300,0.00014181,0.00010274,0.000
 26146,-0.00041169,-0.00356349,-0.01359745,-0.00203275,0.00309264,-0.34
 594896,-0.03486681,0.00788111,-0.00012495,0.00031677,0.00088186,-0.000
 89155,-0.00021343,0.00238659,0.00088243,0.00014772,0.00023912,-0.00010
 344,0.00008467,0.00000774,-0.00073852,-0.00012527,0.00022950,0.3680808
 9,-0.00014245,-0.00058504,-0.00005822,-0.00002484,0.00020643,-0.000007
 44,0.00001676,-0.00007364,-0.00001569,0.00001458,-0.00001970,0.0000092
 2,-0.00000379,-0.00005474,0.00002273,0.00000092,0.00000665,-0.00000037
 ,-0.00009385,0.00020331,0.00015147,-0.00055340,0.00607141,0.00067681,-
 0.00264280,0.00106801,-0.00006770,0.00029499,-0.00184342,-0.00017434,0
 .00015351,-0.00066254,0.00008436,-0.00046980,0.00564871,0.00012902,-0.
 00057516,0.00349156,0.00007754,-0.03500135,-0.03439312,0.00227871,0.00
 022975,-0.00338965,-0.00015443,-0.00003742,-0.00012809,0.00044187,0.00
 015625,-0.00055210,0.00000094,0.00008440,-0.00087537,-0.00005227,-0.00
 003887,0.00029449,0.00003555,0.03864310,0.02606089,0.00146671,0.000112
 73,0.00039279,0.00004110,0.00002213,-0.00002169,-0.00004961,-0.0000506
 4,0.00000995,-0.00013554,-0.00001281,0.00000377,-0.00003652,0.00002985
 ,0.00001690,-0.00000680,-0.00000090,0.00000959,0.00131327,0.00020526,-
 0.00121952,0.00038591,0.00056735,-0.00396916,0.02870145,0.00304387,0.0
 0356009,-0.00050477,-0.00021751,0.00109982,0.00007677,0.00005862,-0.00
 158282,-0.00221325,0.00027384,-0.00433090,-0.02537483,-0.00302633,0.00
 871543,0.01054103,0.00256155,-0.05801500,0.00247201,0.00001965,0.00149
 273,-0.00078213,0.00008989,-0.00350161,0.00006443,-0.00001853,-0.00010
 034,0.00003824,-0.00004949,0.00012822,-0.00141659,-0.00014496,0.000096
 03,-0.01578931,-0.00371345,0.05991166,-0.00019802,-0.00003651,0.000148
 80,0.00000947,0.00003647,-0.00033273,-0.00004114,-0.00008991,0.0001002
 0,0.00007659,-0.00000015,0.00010015,-0.00004315,0.00004143,0.00010930,
 0.00000987,-0.00000242,-0.00001102,0.00018646,0.00006582,0.00020374,0.
 00060377,0.00003801,0.00033146,-0.00039402,-0.00022820,0.00061172,-0.0
 0008916,0.00000857,-0.00008796,0.00017019,-0.00017319,-0.00078250,-0.0
 0140091,-0.00074217,0.00108617,0.00308685,0.00161164,-0.00740814,0.000
 79957,-0.00049768,0.00035487,-0.04096606,0.02526645,-0.00830135,-0.096
 14659,0.08551316,-0.04345466,0.00519577,-0.00638197,0.00258818,-0.0000
 5143,0.00003950,0.00003542,0.00021013,0.00023355,0.00001795,0.00000862
 ,0.00067505,0.00073578,0.12195724,0.00029372,0.00004704,-0.00003334,0.
 00006150,-0.00003905,0.00002562,-0.00001022,0.00001809,-0.00000841,-0.
 00005076,0.00000843,0.00000117,-0.00002020,0.00002431,-0.00000954,-0.0
 0000076,-0.00000246,0.00000029,-0.00024600,0.00000623,-0.00020462,0.00
 012757,-0.00004896,0.00027049,-0.00057061,-0.00008564,-0.00021844,-0.0
 0006537,-0.00000552,0.00002596,-0.00011142,-0.00004056,-0.00016406,-0.
 00005041,-0.00021260,-0.00025177,-0.00040419,0.00034778,0.00088664,0.0
 0126626,0.00013959,0.00071832,0.00089458,0.01090183,-0.00397640,0.0892
 8684,-0.21835912,0.07900531,-0.00043410,-0.00006369,-0.00022438,0.0000
 0533,0.00001075,-0.00001949,-0.00008387,0.00000468,0.00000469,-0.00057
 191,-0.00014455,-0.00029025,-0.10021165,0.22743031,-0.00020754,-0.0000
 0942,-0.00002218,0.00000506,0.00001427,-0.00015156,-0.00001659,-0.0000
 4156,0.00004729,0.00002679,-0.00000298,0.00004994,-0.00002118,0.000021
 06,0.00004650,0.00000393,-0.00000053,-0.00000503,0.00007221,-0.0000759
 3,0.00028774,-0.00058299,0.00004845,-0.00041751,0.00047274,0.00046391,
 -0.00042950,0.00011202,-0.00002941,0.00004815,0.00005521,-0.00001755,0
 .00079561,0.00067867,0.00029226,-0.00042250,-0.00015270,-0.00109933,0.
 00202713,-0.00074438,-0.00045738,-0.00015192,0.00125643,-0.00355390,0.
 00269930,-0.04532138,0.08005480,-0.09205717,-0.01430536,0.02671974,-0.
 01330346,-0.00000939,-0.00001085,0.00001978,-0.00003217,-0.00000718,-0
 .00000947,0.00101701,-0.00140400,-0.00158009,0.04955159,-0.08743865,0.
 10001583,-0.00013185,0.00000341,0.00014001,0.00002542,0.00000400,-0.00
 032634,-0.00003993,-0.00006498,0.00009632,0.00006275,0.00000744,0.0000
 9926,-0.00005388,0.00006162,0.00010475,0.00000967,-0.00000484,-0.00000
 767,0.00014125,-0.00004666,0.00015069,0.00060583,0.00005140,0.00038397
 ,-0.00054150,0.00006944,0.00056301,-0.00009797,-0.00002049,-0.00008179
 ,0.00009315,0.00028964,-0.00077259,-0.00149280,0.00034307,0.00105282,0
 .00314150,-0.00022886,-0.00710620,0.00093263,0.00061173,0.00055218,-0.
 03292888,-0.03402589,-0.01210204,-0.06505467,-0.04887897,-0.03047649,0
 .00341055,0.00657875,0.00297128,-0.00003837,-0.00005356,0.00002582,0.0
 0022983,-0.00018376,-0.00000273,0.00003384,-0.00067794,0.00056120,0.00
 652890,0.01173136,0.00684076,0.08462255,-0.00030997,-0.00002613,0.0000
 6568,-0.00004686,-0.00003703,-0.00009110,0.00000710,0.00001612,0.00002
 825,0.00005884,0.00002071,0.00001750,-0.00000330,0.00002235,0.00002843
 ,0.00000407,-0.00000182,0.00000102,0.00027174,0.00001850,0.00021673,0.
 00007852,-0.00001518,-0.00014765,0.00040476,0.00006437,0.00039764,0.00
 003054,0.00000463,-0.00004987,0.00013759,0.00003534,-0.00009596,-0.000
 31553,-0.00013601,0.00051903,0.00106107,0.00037556,-0.00267744,-0.0009
 9812,0.00004932,-0.00059054,-0.01074444,0.00211952,0.00208910,-0.05248
 629,-0.23061383,-0.10034989,0.00208604,0.00441568,0.00259067,-0.000014
 94,-0.00000535,0.00002444,0.00013738,-0.00001769,-0.00000290,0.0005450
 6,-0.00039018,0.00055922,-0.00574291,-0.02219004,-0.01315551,0.0655211
 1,0.24415917,-0.00023911,-0.00003455,-0.00002129,0.00000405,-0.0000076
 9,-0.00015540,-0.00001715,-0.00002498,0.00004517,0.00003073,0.00000753
 ,0.00005036,-0.00002184,0.00003552,0.00005337,0.00000539,-0.00000306,-
 0.00000584,0.00008326,0.00006423,0.00031689,-0.00056311,-0.00012899,-0
 .00045025,0.00060448,-0.00029827,-0.00044424,0.00010969,0.00004897,0.0
 0004988,0.00007186,-0.00005390,0.00080093,0.00070912,-0.00011058,-0.00
 040333,-0.00029643,0.00088189,0.00195824,-0.00094460,0.00029265,-0.000
 17004,-0.00023277,0.00406115,0.00341021,-0.03246537,-0.10183426,-0.110
 78899,-0.00809068,-0.02746123,-0.01597782,-0.00001265,0.00000593,0.000
 02261,-0.00002166,0.00000180,-0.00000981,0.00071600,0.00171787,-0.0013
 5944,0.00319899,0.01128155,0.00633270,0.03618191,0.11034565,0.12049805
 ,0.00001403,0.00000848,-0.00002509,-0.00001036,-0.00001326,0.00010034,
 0.00001351,0.00002793,-0.00003045,-0.00001620,0.00000193,-0.00003466,0
 .00001571,-0.00001363,-0.00003408,-0.00000290,0.00000062,0.00000455,-0
 .00002495,0.00000513,-0.00004853,-0.00008365,-0.00002032,-0.00002508,0
 .00005275,-0.00003204,-0.00006080,0.00001414,0.00000278,-0.00000687,-0
 .00001207,-0.00001181,0.00010377,0.00017860,-0.00000834,-0.00011611,-0
 .00030100,-0.00003336,0.00056596,-0.00006962,0.00000339,0.00000514,0.0
 0137425,0.00062366,-0.00066168,0.00076187,0.00570191,0.00378706,-0.073
 95958,-0.06864463,-0.04015399,0.00000738,0.00000414,-0.00000544,-0.000
 03896,0.00001399,0.00000828,-0.00002680,0.00002487,-0.00002424,-0.0001
 6401,-0.00017042,-0.00057388,0.00042471,0.00004987,0.00138277,0.074778
 81,-0.00001542,-0.00000173,0.00000029,-0.00002066,-0.00001463,0.000052
 28,0.00001378,0.00002224,-0.00001660,0.00000241,0.00000450,-0.00001781
 ,0.00001241,-0.00000543,-0.00001909,-0.00000137,0.00000034,0.00000308,
 0.00001793,0.00000571,-0.00001674,-0.00001206,0.00000129,0.00000234,0.
 00003600,-0.00003240,0.00004240,0.00001025,0.00000129,-0.00000163,0.00
 003834,0.00000086,0.00001561,-0.00000848,0.00002177,-0.00011739,0.0001
 6504,0.00005629,0.00022990,-0.00007649,-0.00002102,0.00009498,0.000941
 63,0.00031067,-0.00028562,0.00077139,0.00308142,0.00216997,-0.06846699
 ,-0.23945279,-0.10695456,0.00000604,-0.00000052,-0.00000930,0.00002698
 ,-0.00000852,-0.00000198,0.00000831,0.00001148,0.00003290,0.00044334,0
 .00087795,-0.00041540,-0.00055230,0.00139930,0.00093803,0.07567525,0.2
 5584669,-0.00004066,0.00000438,0.00001155,-0.00002226,-0.00002260,0.00
 005687,0.00001415,0.00002956,-0.00001687,0.00000423,0.00000738,-0.0000
 2212,0.00001175,-0.00000423,-0.00001903,-0.00000108,-0.00000003,0.0000
 0344,0.00005781,0.00000109,-0.00002156,0.00006219,-0.00003046,0.000008
 53,0.00009853,0.00004880,0.00020087,-0.00000194,-0.00000277,-0.0000147
 6,0.00004860,0.00002680,-0.00009590,-0.00011139,-0.00001266,0.00005218
 ,0.00014307,0.00031385,-0.00026286,-0.00020490,0.00012169,-0.00019247,
 -0.00125962,0.00082518,0.00308407,-0.01158891,-0.03131650,-0.01800860,
 -0.03836344,-0.10491243,-0.10725542,0.00000471,-0.00000633,-0.00000123
 ,0.00004173,-0.00001792,0.00000450,0.00022184,-0.00010903,0.00009819,-
 0.00035827,0.00029579,0.00146424,0.00202359,0.00153376,-0.00610851,0.0
 4285182,0.11638119,0.11852077,-0.00006839,-0.00000211,0.00004573,0.000
 02053,0.00000813,-0.00024485,-0.00002972,-0.00005408,0.00007468,0.0000
 4274,0.00000224,0.00008499,-0.00003782,0.00004082,0.00008215,0.0000074
 8,-0.00000209,-0.00001068,0.00005390,-0.00000126,0.00016012,0.00007376
 ,0.00000847,-0.00004241,-0.00003361,0.00000303,-0.00003623,-0.00001069
 ,-0.00000185,0.00002055,-0.00001220,0.00000655,-0.00007849,-0.00012152
 ,-0.00002511,0.00019359,0.00063449,0.00005730,-0.00116826,-0.00011841,
 -0.00001999,0.00023111,-0.00009245,-0.00025740,0.00316026,-0.00536108,
 -0.00018168,-0.00297259,-0.31066997,-0.03133357,0.04017845,-0.00001368
 ,-0.00000189,0.00001675,0.00003318,0.00000400,-0.00001698,-0.00000436,
 -0.00000463,-0.00004610,0.00024057,-0.00021975,0.00043263,0.00018138,0
 .00024677,0.00044120,-0.00810760,-0.00009192,0.00117426,0.33717737,-0.
 00001115,-0.00000698,0.00000713,0.00000025,0.00001500,-0.00003434,-0.0
 0000422,-0.00001382,0.00000967,0.00000716,-0.00000365,0.00001201,-0.00
 000398,0.00000125,0.00001261,0.00000096,0.00000009,-0.00000172,0.00000
 912,0.00000375,0.00002500,0.00001108,0.00000952,-0.00000730,0.00000254
 ,-0.00004976,-0.00000522,-0.00000096,-0.00000292,0.00000240,-0.0000068
 6,-0.00003540,-0.00001730,-0.00002309,0.00001085,0.00006333,-0.0000742
 5,0.00063235,-0.00016839,-0.00001628,-0.00005325,0.00002173,-0.0002490
 0,0.00070113,0.00089207,-0.00198998,-0.00252485,-0.00055234,-0.0311928
 2,-0.05196204,0.00486285,-0.00000273,-0.00000435,0.00000478,0.00000297
 ,0.00000591,-0.00000314,-0.00000007,0.00005738,-0.00000406,0.00005288,
 -0.00017485,-0.00007144,0.00008527,-0.00005218,0.00005984,-0.02707416,
 -0.00203208,0.00589993,0.03463226,0.05105164,0.00008726,0.00000646,-0.
 00004696,-0.00000951,-0.00000543,0.00017111,0.00002006,0.00003769,-0.0
 0005104,-0.00003506,-0.00000254,-0.00005708,0.00002491,-0.00002866,-0.
 00005484,-0.00000513,0.00000183,0.00000545,-0.00007018,-0.00000131,-0.
 00013568,-0.00006927,-0.00000905,0.00005469,-0.00001306,-0.00000162,-0
 .00002722,0.00000493,0.00000058,-0.00000903,0.00017593,0.00000944,0.00
 012960,0.00014483,0.00005764,-0.00077555,0.00141683,0.00012325,0.00137
 103,0.00016677,0.00001514,0.00001708,0.00295914,0.00086428,-0.00961418
 ,0.03175104,0.00331686,0.00195242,0.03755482,0.00457127,-0.05586141,0.
 00003099,0.00000626,-0.00005937,0.00000168,-0.00000077,0.00002854,-0.0
 0012705,-0.00001254,0.00003772,-0.00069372,0.00057295,0.00096367,-0.00
 053659,-0.00081871,0.00089654,-0.01595752,0.00003320,0.00224865,-0.044
 02633,-0.00543982,0.05735258,0.00001251,-0.00001245,-0.00002506,-0.000
 01918,0.00000630,0.00011241,0.00001579,0.00002053,-0.00003421,-0.00001
 408,-0.00000318,-0.00003842,0.00002198,-0.00002455,-0.00003791,-0.0000
 0351,0.00000180,0.00000446,-0.00001868,-0.00000667,-0.00005234,-0.0000
 8604,0.00000717,-0.00002230,0.00004991,0.00005587,-0.00004296,0.000016
 53,0.00000151,-0.00000739,-0.00000395,-0.00000104,0.00010365,0.0001643
 1,0.00005473,-0.00013550,-0.00024648,-0.00009874,0.00059422,-0.0000840
 4,-0.00002186,0.00002271,0.00163842,-0.00025930,-0.00072500,0.00209603
 ,-0.00594216,0.00335123,-0.11272344,0.10444769,-0.05217796,0.00000914,
 -0.00000122,-0.00000758,-0.00002836,-0.00001880,0.00000611,-0.00001604
 ,-0.00002787,-0.00001820,0.00041048,-0.00044553,0.00144252,-0.00006411
 ,0.00002193,-0.00063407,0.00518195,-0.00892343,0.00519420,-0.01378387,
 0.02584504,-0.01279580,0.11747476,0.00002118,0.00000929,-0.00000723,0.
 00002353,-0.00000922,-0.00003719,-0.00001037,-0.00000398,0.00001169,-0
 .00000753,0.00000187,0.00001249,-0.00001492,0.00001455,0.00001353,0.00
 000139,-0.00000191,-0.00000147,-0.00002894,-0.00000197,0.00000872,-0.0
 0001296,-0.00000339,-0.00000885,-0.00002919,-0.00001937,-0.00007671,-0
 .00000660,-0.00000120,0.00000156,-0.00004510,-0.00000351,0.00001769,0.
 00005381,0.00002347,0.00008524,-0.00025593,0.00004902,-0.00006421,0.00
 007958,0.00001411,-0.00007124,-0.00052695,0.00015271,-0.00016163,0.000
 91881,-0.00134213,0.00041315,0.10406398,-0.22021025,0.08268123,-0.0000
 0410,-0.00000378,0.00000768,-0.00003531,-0.00002153,0.00000148,-0.0000
 3529,-0.00000818,-0.00004793,0.00008088,0.00155004,0.00017650,-0.00061
 997,0.00078486,0.00021489,0.01387800,-0.02007269,0.01094557,-0.0028122
 1,0.00442727,-0.00329641,-0.11467577,0.23467591,-0.00003650,-0.0000178
 4,0.00001081,-0.00002483,0.00001630,0.00005672,0.00001053,0.00000465,-
 0.00001702,0.00000575,-0.00000432,-0.00002147,0.00001804,-0.00002196,-
 0.00001751,-0.00000187,0.00000204,0.00000209,0.00005433,0.00001174,-0.
 00002036,0.00005306,0.00004210,0.00001149,0.00010728,-0.00005154,0.000
 18851,-0.00000363,0.00000435,-0.00001456,0.00004859,-0.00000589,-0.000
 09609,-0.00010573,-0.00001699,0.00006154,0.00018130,-0.00023893,-0.000
 30609,-0.00017021,-0.00013985,-0.00021503,-0.00109005,-0.00138201,0.00
 297625,-0.01841146,0.02976538,-0.01490157,-0.05000312,0.08107201,-0.08
 784191,0.00000269,0.00000702,0.00000020,0.00003401,0.00002423,0.000006
 89,0.00019255,0.00014337,0.00010768,0.00225603,-0.00024945,-0.00624752
 ,-0.00033512,-0.00043756,0.00146003,0.00894873,-0.01214005,0.00626546,
 0.00234643,-0.00556829,0.00146326,0.05592320,-0.09081854,0.09708820\\-
 0.00027858,-0.00005290,0.00000738,0.00003552,0.00015873,-0.00008039,-0
 .00005218,-0.00012701,0.00000387,0.00002330,0.00002081,-0.00000267,0.0
 0000266,-0.00004420,0.00002719,0.00002976,0.00002133,-0.00002082,0.000
 11854,0.00001587,0.00017747,0.00003945,-0.00000281,-0.00017275,-0.0000
 5689,-0.00000027,0.00006616,0.00011990,0.00000585,-0.00002969,-0.00002
 071,-0.00000554,0.00007734,0.00003150,0.00000815,-0.00005931,-0.000024
 70,0.00000361,-0.00002436,0.00004712,0.00000728,0.00002197,-0.00004632
 ,-0.00001173,0.00004167,0.00008553,0.00001158,-0.00002896,-0.00004811,
 -0.00000586,0.00000568,0.00000609,0.00000379,0.00000043,0.00000134,0.0
 0000233,0.00000805,-0.00001467,-0.00000347,-0.00001970,-0.00001465,-0.
 00000321,-0.00000477,-0.00001362,-0.00000229,-0.00000494,0.00000760,0.
 00000386,0.00000057,0.00001209,-0.00000113,0.00001016,0.00001004,-0.00
 000274,0.00000045\\\@
 The archive entry for this job was punched.


 The earth never tires,
 The earth is rude, silent, incomprehensible at first,
 Nature is rude and incomprehensible at first,
 Be not discouraged, keep on,
 There are divine things well envelop'd,
 I swear to you there are divine things more beautiful than words can tell.
                                 -- Walt Whitman
 Job cpu time:       0 days  1 hours 46 minutes 55.2 seconds.
 Elapsed time:       0 days  0 hours  6 minutes 51.5 seconds.
 File lengths (MBytes):  RWF=    320 Int=      0 D2E=      0 Chk=     10 Scr=      1
 Normal termination of Gaussian 16 at Wed May 25 15:55:58 2022.
