 Entering Gaussian System, Link 0=g16
 AtFile(1): /home/561/yj5695/Basis/6-31pGd.gbs
 Initial command:
 /apps/gaussian/g16c01/g16/l1.exe "/jobfs/40738522.gadi-pbs/Gau-2187141.inp" -scrdir="/jobfs/40738522.gadi-pbs/"
 Entering Link 1 = /apps/gaussian/g16c01/g16/l1.exe PID=   2187152.
  
 Copyright (c) 1988-2019, Gaussian, Inc.  All Rights Reserved.
  
 This is part of the Gaussian(R) 16 program.  It is based on
 the Gaussian(R) 09 system (copyright 2009, Gaussian, Inc.),
 the Gaussian(R) 03 system (copyright 2003, Gaussian, Inc.),
 the Gaussian(R) 98 system (copyright 1998, Gaussian, Inc.),
 the Gaussian(R) 94 system (copyright 1995, Gaussian, Inc.),
 the Gaussian 92(TM) system (copyright 1992, Gaussian, Inc.),
 the Gaussian 90(TM) system (copyright 1990, Gaussian, Inc.),
 the Gaussian 88(TM) system (copyright 1988, Gaussian, Inc.),
 the Gaussian 86(TM) system (copyright 1986, Carnegie Mellon
 University), and the Gaussian 82(TM) system (copyright 1983,
 Carnegie Mellon University). Gaussian is a federally registered
 trademark of Gaussian, Inc.
  
 This software contains proprietary and confidential information,
 including trade secrets, belonging to Gaussian, Inc.
  
 This software is provided under written license and may be
 used, copied, transmitted, or stored only in accord with that
 written license.
  
 The following legend is applicable only to US Government
 contracts under FAR:
  
                    RESTRICTED RIGHTS LEGEND
  
 Use, reproduction and disclosure by the US Government is
 subject to restrictions as set forth in subparagraphs (a)
 and (c) of the Commercial Computer Software - Restricted
 Rights clause in FAR 52.227-19.
  
 Gaussian, Inc.
 340 Quinnipiac St., Bldg. 40, Wallingford CT 06492
  
  
 ---------------------------------------------------------------
 Warning -- This program may not be used in any manner that
 competes with the business of Gaussian, Inc. or will provide
 assistance to any competitor of Gaussian, Inc.  The licensee
 of this program is prohibited from giving any competitor of
 Gaussian, Inc. access to this program.  By using this program,
 the user acknowledges that Gaussian, Inc. is engaged in the
 business of creating and licensing software in the field of
 computational chemistry and represents and warrants to the
 licensee that it is not a competitor of Gaussian, Inc. and that
 it will not use this program in any manner prohibited above.
 ---------------------------------------------------------------
  

 Cite this work as:
 Gaussian 16, Revision C.01,
 M. J. Frisch, G. W. Trucks, H. B. Schlegel, G. E. Scuseria, 
 M. A. Robb, J. R. Cheeseman, G. Scalmani, V. Barone, 
 G. A. Petersson, H. Nakatsuji, X. Li, M. Caricato, A. V. Marenich, 
 J. Bloino, B. G. Janesko, R. Gomperts, B. Mennucci, H. P. Hratchian, 
 J. V. Ortiz, A. F. Izmaylov, J. L. Sonnenberg, D. Williams-Young, 
 F. Ding, F. Lipparini, F. Egidi, J. Goings, B. Peng, A. Petrone, 
 T. Henderson, D. Ranasinghe, V. G. Zakrzewski, J. Gao, N. Rega, 
 G. Zheng, W. Liang, M. Hada, M. Ehara, K. Toyota, R. Fukuda, 
 J. Hasegawa, M. Ishida, T. Nakajima, Y. Honda, O. Kitao, H. Nakai, 
 T. Vreven, K. Throssell, J. A. Montgomery, Jr., J. E. Peralta, 
 F. Ogliaro, M. J. Bearpark, J. J. Heyd, E. N. Brothers, K. N. Kudin, 
 V. N. Staroverov, T. A. Keith, R. Kobayashi, J. Normand, 
 K. Raghavachari, A. P. Rendell, J. C. Burant, S. S. Iyengar, 
 J. Tomasi, M. Cossi, J. M. Millam, M. Klene, C. Adamo, R. Cammi, 
 J. W. Ochterski, R. L. Martin, K. Morokuma, O. Farkas, 
 J. B. Foresman, and D. J. Fox, Gaussian, Inc., Wallingford CT, 2019.
 
 ******************************************
 Gaussian 16:  ES64L-G16RevC.01  3-Jul-2019
                20-May-2022 
 ******************************************
 %nproc=16
 Will use up to   16 processors via shared memory.
 %mem=20gb
 --------------------------------------------------
 #M062X/gen 6D INT(grid=ultrafine) OPT Freq=noraman
 --------------------------------------------------
 1/18=20,19=15,26=4,38=1/1,3;
 2/9=110,12=2,17=6,18=5,40=1/2;
 3/5=7,8=2,11=2,25=1,30=1,71=1,74=-55,75=-5/1,2,3;
 4//1;
 5/5=2,38=5/2;
 6/7=2,8=2,9=2,10=2,28=1/1;
 7//1,2,3,16;
 1/18=20,19=15,26=4/3(2);
 2/9=110/2;
 99//99;
 2/9=110/2;
 3/5=7,6=1,8=2,11=2,25=1,30=1,71=1,74=-55,75=-5,82=7/1,2,3;
 4/5=5,16=3,69=1/1;
 5/5=2,38=5/2;
 7//1,2,3,16;
 1/18=20,19=15,26=4/3(-5);
 2/9=110/2;
 6/7=2,8=2,9=2,10=2,19=2,28=1/1;
 99/9=1/99;
 -------------
 A.3.a1b2.freq
 -------------
 Symbolic Z-matrix:
 Charge = -1 Multiplicity = 1
 C                    -1.22247   0.61459  -0.92878 
 C                    -2.4162    0.61834  -1.67317 
 Cl                   -3.97422   0.33166  -0.93299 
 C                    -2.45821   0.82494  -3.04603 
 H                    -3.40584   0.8254   -3.57335 
 C                    -1.26142   1.02367  -3.71782 
 Cl                   -1.28099   1.2909   -5.4367 
 C                    -0.05168   1.00258  -3.04674 
 H                     0.88201   1.14479  -3.57979 
 C                    -0.04205   0.79372  -1.66677 
 Cl                    1.56021   0.76798  -0.97603 
 S                    -1.32559   0.35402   0.89828 
 O                     0.05023   0.4988    1.41109 
 O                    -2.22964   1.46282   1.30773 
 N                    -1.832    -1.09027   1.17719 
 H                    -2.83784  -1.13019   1.00563 
 

 GradGradGradGradGradGradGradGradGradGradGradGradGradGradGradGradGradGrad
 Berny optimization.
 Initialization pass.
                           ----------------------------
                           !    Initial Parameters    !
                           ! (Angstroms and Degrees)  !
 --------------------------                            --------------------------
 ! Name  Definition              Value          Derivative Info.                !
 --------------------------------------------------------------------------------
 ! R1    R(1,2)                  1.4068         estimate D2E/DX2                !
 ! R2    R(1,10)                 1.4036         estimate D2E/DX2                !
 ! R3    R(1,12)                 1.8484         estimate D2E/DX2                !
 ! R4    R(2,3)                  1.7486         estimate D2E/DX2                !
 ! R5    R(2,4)                  1.3889         estimate D2E/DX2                !
 ! R6    R(4,5)                  1.0845         estimate D2E/DX2                !
 ! R7    R(4,6)                  1.3868         estimate D2E/DX2                !
 ! R8    R(6,7)                  1.7396         estimate D2E/DX2                !
 ! R9    R(6,8)                  1.3836         estimate D2E/DX2                !
 ! R10   R(8,9)                  1.0845         estimate D2E/DX2                !
 ! R11   R(8,10)                 1.3957         estimate D2E/DX2                !
 ! R12   R(10,11)                1.745          estimate D2E/DX2                !
 ! R13   R(12,13)                1.4754         estimate D2E/DX2                !
 ! R14   R(12,14)                1.4881         estimate D2E/DX2                !
 ! R15   R(12,15)                1.5557         estimate D2E/DX2                !
 ! R16   R(15,16)                1.0212         estimate D2E/DX2                !
 ! A1    A(2,1,10)             115.7893         estimate D2E/DX2                !
 ! A2    A(2,1,12)             118.4283         estimate D2E/DX2                !
 ! A3    A(10,1,12)            125.7753         estimate D2E/DX2                !
 ! A4    A(1,2,3)              122.1164         estimate D2E/DX2                !
 ! A5    A(1,2,4)              123.303          estimate D2E/DX2                !
 ! A6    A(3,2,4)              114.5723         estimate D2E/DX2                !
 ! A7    A(2,4,5)              120.4717         estimate D2E/DX2                !
 ! A8    A(2,4,6)              118.296          estimate D2E/DX2                !
 ! A9    A(5,4,6)              121.2318         estimate D2E/DX2                !
 ! A10   A(4,6,7)              119.4032         estimate D2E/DX2                !
 ! A11   A(4,6,8)              121.1607         estimate D2E/DX2                !
 ! A12   A(7,6,8)              119.4341         estimate D2E/DX2                !
 ! A13   A(6,8,9)              120.8223         estimate D2E/DX2                !
 ! A14   A(6,8,10)             119.2009         estimate D2E/DX2                !
 ! A15   A(9,8,10)             119.9768         estimate D2E/DX2                !
 ! A16   A(1,10,8)             122.218          estimate D2E/DX2                !
 ! A17   A(1,10,11)            124.2079         estimate D2E/DX2                !
 ! A18   A(8,10,11)            113.5726         estimate D2E/DX2                !
 ! A19   A(1,12,13)            106.1228         estimate D2E/DX2                !
 ! A20   A(1,12,14)            101.5854         estimate D2E/DX2                !
 ! A21   A(1,12,15)            109.0404         estimate D2E/DX2                !
 ! A22   A(13,12,14)           113.439          estimate D2E/DX2                !
 ! A23   A(13,12,15)           109.4104         estimate D2E/DX2                !
 ! A24   A(14,12,15)           116.4022         estimate D2E/DX2                !
 ! A25   A(12,15,16)           109.0752         estimate D2E/DX2                !
 ! D1    D(10,1,2,3)           176.9637         estimate D2E/DX2                !
 ! D2    D(10,1,2,4)            -1.927          estimate D2E/DX2                !
 ! D3    D(12,1,2,3)            -2.1189         estimate D2E/DX2                !
 ! D4    D(12,1,2,4)           178.9904         estimate D2E/DX2                !
 ! D5    D(2,1,10,8)             1.8452         estimate D2E/DX2                !
 ! D6    D(2,1,10,11)         -177.6827         estimate D2E/DX2                !
 ! D7    D(12,1,10,8)         -179.1491         estimate D2E/DX2                !
 ! D8    D(12,1,10,11)           1.323          estimate D2E/DX2                !
 ! D9    D(2,1,12,13)         -175.9462         estimate D2E/DX2                !
 ! D10   D(2,1,12,14)          -57.1346         estimate D2E/DX2                !
 ! D11   D(2,1,12,15)           66.2969         estimate D2E/DX2                !
 ! D12   D(10,1,12,13)           5.0719         estimate D2E/DX2                !
 ! D13   D(10,1,12,14)         123.8834         estimate D2E/DX2                !
 ! D14   D(10,1,12,15)        -112.685          estimate D2E/DX2                !
 ! D15   D(1,2,4,5)           -179.5637         estimate D2E/DX2                !
 ! D16   D(1,2,4,6)              0.6895         estimate D2E/DX2                !
 ! D17   D(3,2,4,5)              1.4694         estimate D2E/DX2                !
 ! D18   D(3,2,4,6)           -178.2774         estimate D2E/DX2                !
 ! D19   D(2,4,6,7)           -179.7803         estimate D2E/DX2                !
 ! D20   D(2,4,6,8)              0.7384         estimate D2E/DX2                !
 ! D21   D(5,4,6,7)              0.475          estimate D2E/DX2                !
 ! D22   D(5,4,6,8)           -179.0063         estimate D2E/DX2                !
 ! D23   D(4,6,8,9)            179.134          estimate D2E/DX2                !
 ! D24   D(4,6,8,10)            -0.8012         estimate D2E/DX2                !
 ! D25   D(7,6,8,9)             -0.3472         estimate D2E/DX2                !
 ! D26   D(7,6,8,10)           179.7176         estimate D2E/DX2                !
 ! D27   D(6,8,10,1)            -0.559          estimate D2E/DX2                !
 ! D28   D(6,8,10,11)          179.015          estimate D2E/DX2                !
 ! D29   D(9,8,10,1)           179.5052         estimate D2E/DX2                !
 ! D30   D(9,8,10,11)           -0.9208         estimate D2E/DX2                !
 ! D31   D(1,12,15,16)         -76.2581         estimate D2E/DX2                !
 ! D32   D(13,12,15,16)        168.0789         estimate D2E/DX2                !
 ! D33   D(14,12,15,16)         37.8542         estimate D2E/DX2                !
 --------------------------------------------------------------------------------
 Trust Radius=3.00D-01 FncErr=1.00D-07 GrdErr=1.00D-06 EigMax=2.50D+02 EigMin=1.00D-04
 Number of steps in this run=     84 maximum allowed number of steps=    100.
 GradGradGradGradGradGradGradGradGradGradGradGradGradGradGradGradGradGrad

                          Input orientation:                          
 ---------------------------------------------------------------------
 Center     Atomic      Atomic             Coordinates (Angstroms)
 Number     Number       Type             X           Y           Z
 ---------------------------------------------------------------------
      1          6           0       -1.222475    0.614588   -0.928780
      2          6           0       -2.416202    0.618338   -1.673174
      3         17           0       -3.974219    0.331659   -0.932989
      4          6           0       -2.458214    0.824940   -3.046029
      5          1           0       -3.405835    0.825395   -3.573352
      6          6           0       -1.261418    1.023675   -3.717815
      7         17           0       -1.280987    1.290898   -5.436700
      8          6           0       -0.051678    1.002580   -3.046740
      9          1           0        0.882015    1.144793   -3.579786
     10          6           0       -0.042049    0.793715   -1.666767
     11         17           0        1.560212    0.767978   -0.976033
     12         16           0       -1.325592    0.354025    0.898284
     13          8           0        0.050230    0.498799    1.411085
     14          8           0       -2.229637    1.462820    1.307733
     15          7           0       -1.831997   -1.090270    1.177188
     16          1           0       -2.837842   -1.130190    1.005626
 ---------------------------------------------------------------------
                    Distance matrix (angstroms):
                    1          2          3          4          5
     1  C    0.000000
     2  C    1.406812   0.000000
     3  Cl   2.766254   1.748564   0.000000
     4  C    2.460497   1.388950   2.646986   0.000000
     5  H    3.435879   2.152423   2.745606   1.084461   0.000000
     6  C    2.819147   2.382936   3.948852   1.386764   2.158405
     7  Cl   4.558746   3.988130   5.334515   2.705233   2.864217
     8  C    2.450930   2.761395   4.506041   2.413084   3.399866
     9  H    3.426051   3.845849   5.590145   3.397695   4.299734
    10  C    1.403608   2.380630   4.026647   2.782300   3.866669
    11  Cl   2.787312   4.039835   5.551770   4.520606   5.604551
    12  S    1.848429   2.805653   3.220138   4.130642   4.954305
    13  O    2.666112   3.950978   4.660344   5.124893   6.074180
    14  O    2.595355   3.103831   3.056783   4.406176   5.061101
    15  N    2.777257   3.374196   3.326235   4.679288   5.358579
    16  H    3.065222   3.226623   2.680780   4.514705   5.011384
                    6          7          8          9         10
     6  C    0.000000
     7  Cl   1.739643   0.000000
     8  C    1.383567   2.703005   0.000000
     9  H    2.151285   2.854480   1.084502   0.000000
    10  C    2.397194   3.999319   1.395723   2.153321   0.000000
    11  Cl   3.942632   5.314453   2.634588   2.716886   1.744998
    12  S    4.664861   6.404042   4.196034   5.054894   2.901775
    13  O    5.319919   7.020807   4.487359   5.100781   3.093326
    14  O    5.136773   6.812993   4.890477   5.802704   3.752452
    15  N    5.362404   7.051034   5.038961   5.915249   3.852453
    16  H    5.425416   7.056134   5.360325   6.327629   4.319671
                   11         12         13         14         15
    11  Cl   0.000000
    12  S    3.465875   0.000000
    13  O    2.837400   1.475401   0.000000
    14  O    4.478990   1.488077   2.477461   0.000000
    15  N    4.426797   1.555706   2.474394   2.587165   0.000000
    16  H    5.183907   2.121631   3.340503   2.680463   1.021152
                   16
    16  H    0.000000
 Stoichiometry    C6H3Cl3NO2S(1-)
 Framework group  C1[X(C6H3Cl3NO2S)]
 Deg. of freedom    42
 Full point group                 C1      NOp   1
 Largest Abelian subgroup         C1      NOp   1
 Largest concise Abelian subgroup C1      NOp   1
                         Standard orientation:                         
 ---------------------------------------------------------------------
 Center     Atomic      Atomic             Coordinates (Angstroms)
 Number     Number       Type             X           Y           Z
 ---------------------------------------------------------------------
      1          6           0       -0.397077    0.068295   -0.015642
      2          6           0        0.292992   -1.157576   -0.002816
      3         17           0       -0.541276   -2.693514    0.045816
      4          6           0        1.678675   -1.252757   -0.004868
      5          1           0        2.163281   -2.222913   -0.001694
      6          6           0        2.418169   -0.079615   -0.005651
      7         17           0        4.155682   -0.165263   -0.014027
      8          6           0        1.798470    1.157300    0.010830
      9          1           0        2.382268    2.071162    0.024203
     10          6           0        0.404175    1.220413    0.011485
     11         17           0       -0.220644    2.848970    0.060707
     12         16           0       -2.245095    0.037599   -0.039698
     13          8           0       -2.676828    1.444108   -0.149918
     14          8           0       -2.514773   -0.762132   -1.265290
     15          7           0       -2.760309   -0.557736    1.302074
     16          1           0       -2.635421   -1.571114    1.287331
 ---------------------------------------------------------------------
 Rotational constants (GHZ):           0.7039643           0.3839597           0.2617343
 General basis read from cards:  (6D, 7F)
 There are   269 symmetry adapted cartesian basis functions of A   symmetry.
 There are   269 symmetry adapted basis functions of A   symmetry.
   269 basis functions,   524 primitive gaussians,   269 cartesian basis functions
    65 alpha electrons       65 beta electrons
       nuclear repulsion energy      1257.9468635528 Hartrees.
 NAtoms=   16 NActive=   16 NUniq=   16 SFac= 1.00D+00 NAtFMM=   60 NAOKFM=F Big=F
 Integral buffers will be    131072 words long.
 Raffenetti 2 integral format.
 Two-electron integral symmetry is turned on.
 One-electron integrals computed using PRISM.
 NBasis=   269 RedAO= T EigKep=  1.25D-06  NBF=   269
 NBsUse=   268 1.00D-06 EigRej=  8.26D-07 NBFU=   268
 ExpMin= 4.05D-02 ExpMax= 2.52D+04 ExpMxC= 3.78D+03 IAcc=3 IRadAn=         5 AccDes= 0.00D+00
 Harris functional with IExCor= 1009 and IRadAn=       5 diagonalized for initial guess.
 HarFok:  IExCor= 1009 AccDes= 0.00D+00 IRadAn=         5 IDoV= 1 UseB2=F ITyADJ=14
 ICtDFT=  3500011 ScaDFX=  1.000000  1.000000  1.000000  1.000000
 FoFCou: FMM=F IPFlag=           0 FMFlag=      100000 FMFlg1=           0
         NFxFlg=           0 DoJE=T BraDBF=F KetDBF=T FulRan=T
         wScrn=  0.000000 ICntrl=       500 IOpCl=  0 I1Cent=   200000004 NGrid=           0
         NMat0=    1 NMatS0=      1 NMatT0=    0 NMatD0=    1 NMtDS0=    0 NMtDT0=    0
 Petite list used in FoFCou.
 Requested convergence on RMS density matrix=1.00D-08 within 128 cycles.
 Requested convergence on MAX density matrix=1.00D-06.
 Requested convergence on             energy=1.00D-06.
 No special actions if energy rises.
 SCF Done:  E(RM062X) =  -2214.11222039     A.U. after   18 cycles
            NFock= 18  Conv=0.31D-08     -V/T= 2.0040

 **********************************************************************

            Population analysis using the SCF Density.

 **********************************************************************

 Orbital symmetries:
       Occupied  (A) (A) (A) (A) (A) (A) (A) (A) (A) (A) (A) (A)
                 (A) (A) (A) (A) (A) (A) (A) (A) (A) (A) (A) (A)
                 (A) (A) (A) (A) (A) (A) (A) (A) (A) (A) (A) (A)
                 (A) (A) (A) (A) (A) (A) (A) (A) (A) (A) (A) (A)
                 (A) (A) (A) (A) (A) (A) (A) (A) (A) (A) (A) (A)
                 (A) (A) (A) (A) (A)
       Virtual   (A) (A) (A) (A) (A) (A) (A) (A) (A) (A) (A) (A)
                 (A) (A) (A) (A) (A) (A) (A) (A) (A) (A) (A) (A)
                 (A) (A) (A) (A) (A) (A) (A) (A) (A) (A) (A) (A)
                 (A) (A) (A) (A) (A) (A) (A) (A) (A) (A) (A) (A)
                 (A) (A) (A) (A) (A) (A) (A) (A) (A) (A) (A) (A)
                 (A) (A) (A) (A) (A) (A) (A) (A) (A) (A) (A) (A)
                 (A) (A) (A) (A) (A) (A) (A) (A) (A) (A) (A) (A)
                 (A) (A) (A) (A) (A) (A) (A) (A) (A) (A) (A) (A)
                 (A) (A) (A) (A) (A) (A) (A) (A) (A) (A) (A) (A)
                 (A) (A) (A) (A) (A) (A) (A) (A) (A) (A) (A) (A)
                 (A) (A) (A) (A) (A) (A) (A) (A) (A) (A) (A) (A)
                 (A) (A) (A) (A) (A) (A) (A) (A) (A) (A) (A) (A)
                 (A) (A) (A) (A) (A) (A) (A) (A) (A) (A) (A) (A)
                 (A) (A) (A) (A) (A) (A) (A) (A) (A) (A) (A) (A)
                 (A) (A) (A) (A) (A) (A) (A) (A) (A) (A) (A) (A)
                 (A) (A) (A) (A) (A) (A) (A) (A) (A) (A) (A) (A)
                 (A) (A) (A) (A) (A) (A) (A) (A) (A) (A) (A)
 The electronic state is 1-A.
 Alpha  occ. eigenvalues -- -102.59638-102.57208-102.56218 -89.98588 -19.45944
 Alpha  occ. eigenvalues --  -19.45745 -14.56896 -10.53632 -10.53328 -10.53180
 Alpha  occ. eigenvalues --  -10.48401 -10.48317 -10.48237  -9.74330  -9.71851
 Alpha  occ. eigenvalues --   -9.70840  -8.29332  -7.46725  -7.46076  -7.46068
 Alpha  occ. eigenvalues --   -7.44263  -7.43596  -7.43557  -7.43265  -7.42588
 Alpha  occ. eigenvalues --   -7.42525  -6.21547  -6.21521  -6.21416  -1.05265
 Alpha  occ. eigenvalues --   -0.93254  -0.92988  -0.88694  -0.87252  -0.81079
 Alpha  occ. eigenvalues --   -0.80996  -0.74203  -0.73774  -0.60502  -0.59425
 Alpha  occ. eigenvalues --   -0.54672  -0.48382  -0.47789  -0.44392  -0.42509
 Alpha  occ. eigenvalues --   -0.40934  -0.40425  -0.39353  -0.36672  -0.36009
 Alpha  occ. eigenvalues --   -0.34751  -0.34429  -0.32706  -0.30533  -0.28980
 Alpha  occ. eigenvalues --   -0.27219  -0.27163  -0.25083  -0.23336  -0.21337
 Alpha  occ. eigenvalues --   -0.20485  -0.20331  -0.19441  -0.16948  -0.14342
 Alpha virt. eigenvalues --    0.09161   0.09402   0.09831   0.11405   0.11697
 Alpha virt. eigenvalues --    0.11931   0.13807   0.14742   0.15055   0.16659
 Alpha virt. eigenvalues --    0.17653   0.17899   0.18236   0.18659   0.19176
 Alpha virt. eigenvalues --    0.19541   0.19980   0.20306   0.20736   0.21424
 Alpha virt. eigenvalues --    0.22129   0.22189   0.22497   0.23982   0.24578
 Alpha virt. eigenvalues --    0.25237   0.25470   0.26993   0.27243   0.27758
 Alpha virt. eigenvalues --    0.28389   0.28444   0.29013   0.29090   0.29326
 Alpha virt. eigenvalues --    0.30358   0.30950   0.32038   0.32736   0.32927
 Alpha virt. eigenvalues --    0.33798   0.34302   0.34922   0.35786   0.36760
 Alpha virt. eigenvalues --    0.37182   0.37933   0.38349   0.38614   0.40272
 Alpha virt. eigenvalues --    0.41068   0.41393   0.42412   0.42688   0.43141
 Alpha virt. eigenvalues --    0.43873   0.44144   0.45105   0.46106   0.47023
 Alpha virt. eigenvalues --    0.47979   0.48595   0.48803   0.50598   0.51740
 Alpha virt. eigenvalues --    0.53329   0.57593   0.58212   0.61588   0.63524
 Alpha virt. eigenvalues --    0.70199   0.70752   0.71019   0.72561   0.74238
 Alpha virt. eigenvalues --    0.75442   0.76892   0.77582   0.78180   0.78613
 Alpha virt. eigenvalues --    0.79548   0.80769   0.81687   0.82541   0.83551
 Alpha virt. eigenvalues --    0.84457   0.85587   0.86694   0.86897   0.87325
 Alpha virt. eigenvalues --    0.88172   0.89563   0.89825   0.90889   0.93967
 Alpha virt. eigenvalues --    0.95593   0.97411   0.97961   1.00181   1.01583
 Alpha virt. eigenvalues --    1.04458   1.05854   1.06572   1.07841   1.07922
 Alpha virt. eigenvalues --    1.08417   1.08751   1.09775   1.10233   1.13148
 Alpha virt. eigenvalues --    1.15599   1.16638   1.17990   1.19556   1.20559
 Alpha virt. eigenvalues --    1.22806   1.23420   1.24422   1.26267   1.27829
 Alpha virt. eigenvalues --    1.28980   1.29697   1.34228   1.35650   1.35920
 Alpha virt. eigenvalues --    1.36757   1.37503   1.38689   1.39074   1.41526
 Alpha virt. eigenvalues --    1.43991   1.50450   1.52353   1.53371   1.55301
 Alpha virt. eigenvalues --    1.56742   1.57330   1.58184   1.59764   1.60592
 Alpha virt. eigenvalues --    1.61934   1.63708   1.63920   1.66661   1.69070
 Alpha virt. eigenvalues --    1.70146   1.72014   1.75160   1.86888   1.88408
 Alpha virt. eigenvalues --    1.93286   1.95802   1.96245   1.97483   2.00605
 Alpha virt. eigenvalues --    2.05166   2.06702   2.08461   2.10513   2.11876
 Alpha virt. eigenvalues --    2.15073   2.15845   2.17414   2.20122   2.23769
 Alpha virt. eigenvalues --    2.24852   2.26211   2.29418   2.30866   2.33735
 Alpha virt. eigenvalues --    2.37852   2.38717   2.40778   2.43953   2.45064
 Alpha virt. eigenvalues --    2.51746   2.58949   2.65101   2.70396   2.73154
 Alpha virt. eigenvalues --    2.77964   2.79202   2.80273   2.87380   2.91969
 Alpha virt. eigenvalues --    2.97054   3.05062   3.12465   3.18275   3.38648
 Alpha virt. eigenvalues --    4.16371   4.23485   4.34009   4.39338   4.40933
 Alpha virt. eigenvalues --    4.45449   4.46846   4.48943   4.51476   4.57678
 Alpha virt. eigenvalues --    4.58305   4.60641   4.79033
          Condensed to atoms (all electrons):
               1          2          3          4          5          6
     1  C   56.884829  -0.315690   0.289617 -11.448391   0.139344  -0.759722
     2  C   -0.315690  93.508044  -2.765813 -40.959295   0.032407  10.471602
     3  Cl   0.289617  -2.765813  17.258949   1.495931  -0.010563  -0.418229
     4  C  -11.448391 -40.959295   1.495931  46.451269   0.081679  -8.374181
     5  H    0.139344   0.032407  -0.010563   0.081679   0.466272  -0.001387
     6  C   -0.759722  10.471602  -0.418229  -8.374181  -0.001387  12.059747
     7  Cl   0.013259  -0.250294   0.006943   0.337363   0.003283  -0.441823
     8  C  -14.258863 -15.307696   0.243246   3.286570   0.083765  -2.189632
     9  H    0.050814  -0.041313   0.000368   0.088875  -0.000128   0.094152
    10  C  -19.586764 -37.619842   0.778726  14.488068  -0.027832  -4.455400
    11  Cl   0.236741   0.413703  -0.006006   0.085389   0.000117   0.115593
    12  S   -2.617194  -2.930618   0.067555   0.926110   0.001036  -0.209104
    13  O   -0.109628   0.198172   0.006310   0.078166   0.000018   0.046502
    14  O    0.221347   0.539726  -0.124822  -0.385019   0.000037   0.070135
    15  N   -0.040747   0.030410  -0.017292  -0.005246  -0.000034   0.001530
    16  H   -0.129559   0.062457   0.015879   0.033777  -0.000001   0.004282
               7          8          9         10         11         12
     1  C    0.013259 -14.258863   0.050814 -19.586764   0.236741  -2.617194
     2  C   -0.250294 -15.307696  -0.041313 -37.619842   0.413703  -2.930618
     3  Cl   0.006943   0.243246   0.000368   0.778726  -0.006006   0.067555
     4  C    0.337363   3.286570   0.088875  14.488068   0.085389   0.926110
     5  H    0.003283   0.083765  -0.000128  -0.027832   0.000117   0.001036
     6  C   -0.441823  -2.189632   0.094152  -4.455400   0.115593  -0.209104
     7  Cl  17.105195  -0.055945   0.000610   0.131193  -0.005312  -0.002440
     8  C   -0.055945  25.345940   0.060972   8.496940  -0.557703   1.104380
     9  H    0.000610   0.060972   0.468971   0.059784  -0.014269   0.001741
    10  C    0.131193   8.496940   0.059784  42.103789  -0.532274   2.728710
    11  Cl  -0.005312  -0.557703  -0.014269  -0.532274  17.098827  -0.037545
    12  S   -0.002440   1.104380   0.001741   2.728710  -0.037545  15.139899
    13  O    0.000015  -0.062576   0.000240  -0.407272  -0.021882   0.221399
    14  O   -0.000859  -0.077619   0.000009  -0.398272   0.012928   0.184262
    15  N   -0.000332   0.038847   0.000052  -0.059594  -0.003489   0.089656
    16  H    0.000003  -0.011533   0.000000  -0.022617   0.000427   0.094747
              13         14         15         16
     1  C   -0.109628   0.221347  -0.040747  -0.129559
     2  C    0.198172   0.539726   0.030410   0.062457
     3  Cl   0.006310  -0.124822  -0.017292   0.015879
     4  C    0.078166  -0.385019  -0.005246   0.033777
     5  H    0.000018   0.000037  -0.000034  -0.000001
     6  C    0.046502   0.070135   0.001530   0.004282
     7  Cl   0.000015  -0.000859  -0.000332   0.000003
     8  C   -0.062576  -0.077619   0.038847  -0.011533
     9  H    0.000240   0.000009   0.000052   0.000000
    10  C   -0.407272  -0.398272  -0.059594  -0.022617
    11  Cl  -0.021882   0.012928  -0.003489   0.000427
    12  S    0.221399   0.184262   0.089656   0.094747
    13  O    8.997435  -0.152765  -0.191381   0.020515
    14  O   -0.152765   8.912960  -0.208365  -0.017158
    15  N   -0.191381  -0.208365   7.951393   0.165836
    16  H    0.020515  -0.017158   0.165836   0.436604
 Mulliken charges:
               1
     1  C   -2.569394
     2  C    0.934040
     3  Cl   0.179203
     4  C   -0.181065
     5  H    0.231988
     6  C   -0.014064
     7  Cl   0.159141
     8  C   -0.139093
     9  H    0.229120
    10  C    0.322657
    11  Cl   0.214755
    12  S    1.237407
    13  O   -0.623269
    14  O   -0.576524
    15  N   -0.751243
    16  H    0.346342
 Sum of Mulliken charges =  -1.00000
 Mulliken charges with hydrogens summed into heavy atoms:
               1
     1  C   -2.569394
     2  C    0.934040
     3  Cl   0.179203
     4  C    0.050923
     6  C   -0.014064
     7  Cl   0.159141
     8  C    0.090027
    10  C    0.322657
    11  Cl   0.214755
    12  S    1.237407
    13  O   -0.623269
    14  O   -0.576524
    15  N   -0.404901
 Electronic spatial extent (au):  <R**2>=           3817.4293
 Charge=             -1.0000 electrons
 Dipole moment (field-independent basis, Debye):
    X=             10.4231    Y=             -1.4865    Z=              0.2281  Tot=             10.5311
 Quadrupole moment (field-independent basis, Debye-Ang):
   XX=           -148.3310   YY=           -112.0837   ZZ=           -116.1847
   XY=              4.2343   XZ=             -0.0115   YZ=             -2.1696
 Traceless Quadrupole moment (field-independent basis, Debye-Ang):
   XX=            -22.7979   YY=             13.4494   ZZ=              9.3484
   XY=              4.2343   XZ=             -0.0115   YZ=             -2.1696
 Octapole moment (field-independent basis, Debye-Ang**2):
  XXX=             65.2131  YYY=             -9.8699  ZZZ=             -9.0188  XYY=             12.5449
  XXY=             -9.5211  XXZ=             -5.0617  XZZ=             20.8456  YZZ=              3.9579
  YYZ=              3.7451  XYZ=              5.8474
 Hexadecapole moment (field-independent basis, Debye-Ang**3):
 XXXX=          -3559.6971 YYYY=          -1643.1298 ZZZZ=           -287.3945 XXXY=             32.8192
 XXXZ=             36.9036 YYYX=             18.0929 YYYZ=             -3.2850 ZZZX=             24.9851
 ZZZY=             -1.6570 XXYY=           -805.7722 XXZZ=           -646.1163 YYZZ=           -325.2610
 XXYZ=            -12.8332 YYXZ=            -12.0226 ZZXY=             -9.3023
 N-N= 1.257946863553D+03 E-N=-7.775359987616D+03  KE= 2.205393696097D+03
 Calling FoFJK, ICntrl=      2127 FMM=F ISym2X=0 I1Cent= 0 IOpClX= 0 NMat=1 NMatS=1 NMatT=0.
 ***** Axes restored to original set *****
 -------------------------------------------------------------------
 Center     Atomic                   Forces (Hartrees/Bohr)
 Number     Number              X              Y              Z
 -------------------------------------------------------------------
      1        6          -0.000458436    0.000061747   -0.003919166
      2        6           0.002161651   -0.000001348    0.000451825
      3       17           0.000053827    0.000896116   -0.000649142
      4        6           0.000274730    0.000249496   -0.001215630
      5        1           0.000458080    0.000025004    0.000015210
      6        6           0.000348312   -0.000579777    0.003474600
      7       17          -0.000214353    0.000742980   -0.005082775
      8        6          -0.000960399    0.000201748   -0.001785862
      9        1          -0.000422656   -0.000016603    0.000125499
     10        6          -0.000712803   -0.000213271    0.000779893
     11       17          -0.001283629    0.000030661    0.000810950
     12       16           0.005371709    0.007442237    0.037827736
     13        8          -0.006107605   -0.001119387   -0.012364431
     14        8           0.001680770   -0.006862152   -0.011655533
     15        7          -0.001123345   -0.002916831   -0.007918025
     16        1           0.000934147    0.002059379    0.001104852
 -------------------------------------------------------------------
 Cartesian Forces:  Max     0.037827736 RMS     0.006521538

 GradGradGradGradGradGradGradGradGradGradGradGradGradGradGradGradGradGrad
 Berny optimization.
 FormGI is forming the generalized inverse of G from B-inverse, IUseBI=4.
 Internal  Forces:  Max     0.012094625 RMS     0.003582821
 Search for a local minimum.
 Step number   1 out of a maximum of   84
 All quantities printed in internal units (Hartrees-Bohrs-Radians)
 Mixed Optimization -- RFO/linear search
 Second derivative matrix not updated -- first step.
 ITU=  0
     Eigenvalues ---    0.00230   0.01270   0.02045   0.02087   0.02112
     Eigenvalues ---    0.02171   0.02222   0.02249   0.02264   0.02287
     Eigenvalues ---    0.03205   0.10535   0.11869   0.16000   0.16000
     Eigenvalues ---    0.16000   0.16797   0.21505   0.22645   0.23495
     Eigenvalues ---    0.23500   0.24994   0.24995   0.24998   0.24999
     Eigenvalues ---    0.24999   0.25000   0.30627   0.30977   0.31513
     Eigenvalues ---    0.35456   0.35461   0.42033   0.42316   0.44155
     Eigenvalues ---    0.45338   0.46928   0.47001   0.48073   0.60835
     Eigenvalues ---    0.80765   0.85436
 RFO step:  Lambda=-4.96218980D-03 EMin= 2.30000000D-03
 Linear search not attempted -- first point.
 Iteration  1 RMS(Cart)=  0.05020577 RMS(Int)=  0.00184704
 Iteration  2 RMS(Cart)=  0.00184987 RMS(Int)=  0.00069186
 Iteration  3 RMS(Cart)=  0.00000172 RMS(Int)=  0.00069186
 Iteration  4 RMS(Cart)=  0.00000001 RMS(Int)=  0.00069186
 Variable       Old X    -DE/DX   Delta X   Delta X   Delta X     New X
                                 (Linear)    (Quad)   (Total)
    R1        2.65849  -0.00016   0.00000  -0.00030  -0.00029   2.65820
    R2        2.65244  -0.00120   0.00000  -0.00259  -0.00259   2.64984
    R3        3.49302   0.00707   0.00000   0.03055   0.03055   3.52357
    R4        3.30431  -0.00047   0.00000  -0.00150  -0.00150   3.30280
    R5        2.62473   0.00214   0.00000   0.00446   0.00447   2.62920
    R6        2.04933  -0.00041   0.00000  -0.00113  -0.00113   2.04821
    R7        2.62060  -0.00070   0.00000  -0.00149  -0.00149   2.61911
    R8        3.28745   0.00514   0.00000   0.01605   0.01605   3.30350
    R9        2.61456  -0.00092   0.00000  -0.00193  -0.00194   2.61263
   R10        2.04941  -0.00043   0.00000  -0.00120  -0.00120   2.04822
   R11        2.63753   0.00239   0.00000   0.00510   0.00510   2.64263
   R12        3.29757  -0.00086   0.00000  -0.00273  -0.00273   3.29484
   R13        2.78810  -0.01010   0.00000  -0.01175  -0.01175   2.77636
   R14        2.81206  -0.00935   0.00000  -0.01150  -0.01150   2.80055
   R15        2.93986  -0.00036   0.00000  -0.00059  -0.00059   2.93926
   R16        1.92970  -0.00119   0.00000  -0.00266  -0.00266   1.92703
    A1        2.02090  -0.00240   0.00000  -0.00924  -0.00926   2.01165
    A2        2.06696   0.00492   0.00000   0.01931   0.01928   2.08624
    A3        2.19519  -0.00252   0.00000  -0.00986  -0.00990   2.18529
    A4        2.13133   0.00055   0.00000   0.00223   0.00217   2.13350
    A5        2.15204   0.00102   0.00000   0.00409   0.00405   2.15610
    A6        1.99966  -0.00156   0.00000  -0.00601  -0.00608   1.99359
    A7        2.10263  -0.00025   0.00000  -0.00069  -0.00070   2.10193
    A8        2.06465   0.00092   0.00000   0.00390   0.00391   2.06856
    A9        2.11589  -0.00067   0.00000  -0.00320  -0.00320   2.11269
   A10        2.08398   0.00055   0.00000   0.00229   0.00228   2.08626
   A11        2.11465  -0.00165   0.00000  -0.00672  -0.00674   2.10792
   A12        2.08452   0.00111   0.00000   0.00449   0.00448   2.08900
   A13        2.10875  -0.00030   0.00000  -0.00143  -0.00143   2.10732
   A14        2.08045   0.00037   0.00000   0.00147   0.00146   2.08190
   A15        2.09399  -0.00007   0.00000  -0.00004  -0.00003   2.09396
   A16        2.13311   0.00176   0.00000   0.00691   0.00691   2.14001
   A17        2.16784  -0.00290   0.00000  -0.01138  -0.01138   2.15646
   A18        1.98222   0.00114   0.00000   0.00447   0.00447   1.98669
   A19        1.85219  -0.00997   0.00000  -0.05477  -0.05476   1.79744
   A20        1.77300  -0.00789   0.00000  -0.04967  -0.05000   1.72300
   A21        1.90311  -0.00606   0.00000  -0.04282  -0.04314   1.85997
   A22        1.97988   0.00770   0.00000   0.06030   0.05710   2.03698
   A23        1.90957   0.00756   0.00000   0.04114   0.03841   1.94798
   A24        2.03160   0.00489   0.00000   0.02340   0.02037   2.05198
   A25        1.90372  -0.00333   0.00000  -0.02019  -0.02019   1.88353
    D1        3.08860   0.00077   0.00000   0.03163   0.03167   3.12027
    D2       -0.03363   0.00024   0.00000   0.01097   0.01095  -0.02268
    D3       -0.03698   0.00055   0.00000   0.01811   0.01806  -0.01892
    D4        3.12397   0.00001   0.00000  -0.00255  -0.00266   3.12131
    D5        0.03221  -0.00029   0.00000  -0.01295  -0.01291   0.01929
    D6       -3.10115  -0.00034   0.00000  -0.01392  -0.01385  -3.11500
    D7       -3.12674   0.00003   0.00000   0.00201   0.00188  -3.12486
    D8        0.02309  -0.00002   0.00000   0.00105   0.00095   0.02404
    D9       -3.07084   0.00038   0.00000   0.06830   0.06849  -3.00235
   D10       -0.99719   0.00153   0.00000   0.09188   0.09160  -0.90558
   D11        1.15710  -0.00001   0.00000   0.07146   0.07162   1.22872
   D12        0.08852   0.00012   0.00000   0.05324   0.05338   0.14190
   D13        2.16217   0.00127   0.00000   0.07682   0.07649   2.23866
   D14       -1.96672  -0.00027   0.00000   0.05641   0.05651  -1.91021
   D15       -3.13398   0.00009   0.00000   0.00235   0.00233  -3.13165
   D16        0.01203   0.00002   0.00000  -0.00119  -0.00123   0.01080
   D17        0.02565  -0.00043   0.00000  -0.01697  -0.01696   0.00869
   D18       -3.11153  -0.00050   0.00000  -0.02051  -0.02052  -3.13205
   D19       -3.13776  -0.00002   0.00000  -0.00031  -0.00029  -3.13805
   D20        0.01289  -0.00017   0.00000  -0.00710  -0.00708   0.00581
   D21        0.00829  -0.00009   0.00000  -0.00388  -0.00388   0.00441
   D22       -3.12425  -0.00025   0.00000  -0.01067  -0.01067  -3.13492
   D23        3.12648   0.00017   0.00000   0.00740   0.00740   3.13388
   D24       -0.01398   0.00012   0.00000   0.00511   0.00513  -0.00885
   D25       -0.00606   0.00001   0.00000   0.00061   0.00061  -0.00545
   D26        3.13666  -0.00004   0.00000  -0.00167  -0.00166   3.13500
   D27       -0.00976   0.00010   0.00000   0.00534   0.00533  -0.00443
   D28        3.12440   0.00014   0.00000   0.00614   0.00611   3.13051
   D29        3.13296   0.00005   0.00000   0.00307   0.00308   3.13604
   D30       -0.01607   0.00008   0.00000   0.00387   0.00386  -0.01221
   D31       -1.33096  -0.00079   0.00000  -0.01891  -0.01910  -1.35005
   D32        2.93353   0.01033   0.00000   0.04768   0.04977   2.98330
   D33        0.66068  -0.01209   0.00000  -0.09773  -0.09962   0.56106
         Item               Value     Threshold  Converged?
 Maximum Force            0.012095     0.000450     NO 
 RMS     Force            0.003583     0.000300     NO 
 Maximum Displacement     0.163550     0.001800     NO 
 RMS     Displacement     0.050212     0.001200     NO 
 Predicted change in Energy=-2.695176D-03
 GradGradGradGradGradGradGradGradGradGradGradGradGradGradGradGradGradGrad

                          Input orientation:                          
 ---------------------------------------------------------------------
 Center     Atomic      Atomic             Coordinates (Angstroms)
 Number     Number       Type             X           Y           Z
 ---------------------------------------------------------------------
      1          6           0       -1.237535    0.608890   -0.913342
      2          6           0       -2.425738    0.637242   -1.665709
      3         17           0       -3.997798    0.416570   -0.934529
      4          6           0       -2.459693    0.842149   -3.041432
      5          1           0       -3.405633    0.863552   -3.570110
      6          6           0       -1.260598    1.016046   -3.714375
      7         17           0       -1.272692    1.280725   -5.442318
      8          6           0       -0.056734    0.979883   -3.035531
      9          1           0        0.881065    1.108847   -3.563427
     10          6           0       -0.057406    0.775535   -1.652122
     11         17           0        1.535803    0.738012   -0.944839
     12         16           0       -1.324070    0.357897    0.932253
     13          8           0        0.062409    0.585346    1.361725
     14          8           0       -2.304993    1.420044    1.257713
     15          7           0       -1.759284   -1.118013    1.159236
     16          1           0       -2.762792   -1.178983    0.988557
 ---------------------------------------------------------------------
                    Distance matrix (angstroms):
                    1          2          3          4          5
     1  C    0.000000
     2  C    1.406659   0.000000
     3  Cl   2.767036   1.747768   0.000000
     4  C    2.465126   1.391313   2.643090   0.000000
     5  H    3.438593   2.153637   2.738018   1.083864   0.000000
     6  C    2.830564   2.387064   3.947047   1.385973   2.155283
     7  Cl   4.578670   4.000795   5.337895   2.713959   2.868559
     8  C    2.456748   2.757897   4.501501   2.406910   3.393292
     9  H    3.429485   3.841704   5.585128   3.391794   4.293715
    10  C    1.402237   2.372405   4.021253   2.775896   3.859669
    11  Cl   2.776521   4.027856   5.542939   4.513373   5.596928
    12  S    1.864594   2.835686   3.261462   4.161047   4.985967
    13  O    2.620369   3.919047   4.667605   5.080820   6.035537
    14  O    2.551651   3.028821   2.945924   4.340570   4.982868
    15  N    2.747726   3.391961   3.427789   4.688115   5.385516
    16  H    3.023263   3.233791   2.787344   4.518590   5.036530
                    6          7          8          9         10
     6  C    0.000000
     7  Cl   1.748139   0.000000
     8  C    1.382543   2.713242   0.000000
     9  H    2.148980   2.863293   1.083869   0.000000
    10  C    2.399667   4.012196   1.398420   2.155205   0.000000
    11  Cl   3.945566   5.330056   2.639256   2.724555   1.743552
    12  S    4.693436   6.441227   4.211451   5.063367   2.908239
    13  O    5.263329   6.968575   4.416527   5.020096   3.022218
    14  O    5.096630   6.780522   4.866247   5.787158   3.732852
    15  N    5.343686   7.040684   4.989581   5.850974   3.792842
    16  H    5.402990   7.044622   5.308176   6.263578   4.255871
                   11         12         13         14         15
    11  Cl   0.000000
    12  S    3.441924   0.000000
    13  O    2.741247   1.469184   0.000000
    14  O    4.479746   1.481989   2.512396   0.000000
    15  N    4.327767   1.555392   2.502199   2.597928   0.000000
    16  H    5.088301   2.105965   3.351696   2.652728   1.019743
                   16
    16  H    0.000000
 Stoichiometry    C6H3Cl3NO2S(1-)
 Framework group  C1[X(C6H3Cl3NO2S)]
 Deg. of freedom    42
 Full point group                 C1      NOp   1
 Largest Abelian subgroup         C1      NOp   1
 Largest concise Abelian subgroup C1      NOp   1
                         Standard orientation:                         
 ---------------------------------------------------------------------
 Center     Atomic      Atomic             Coordinates (Angstroms)
 Number     Number       Type             X           Y           Z
 ---------------------------------------------------------------------
      1          6           0       -0.412012    0.056816   -0.006341
      2          6           0        0.297705   -1.157621    0.005075
      3         17           0       -0.508202   -2.708420    0.020158
      4          6           0        1.686801   -1.236136    0.003844
      5          1           0        2.182180   -2.200170    0.003710
      6          6           0        2.416219   -0.057632    0.003844
      7         17           0        4.163031   -0.125365   -0.003076
      8          6           0        1.778488    1.169013    0.011937
      9          1           0        2.349480    2.090257    0.019122
     10          6           0        0.380773    1.213325    0.009393
     11         17           0       -0.272805    2.829489    0.038114
     12         16           0       -2.276197    0.031680   -0.036249
     13          8           0       -2.622178    1.444852   -0.240565
     14          8           0       -2.470165   -0.875442   -1.192015
     15          7           0       -2.735429   -0.474295    1.361011
     16          1           0       -2.608004   -1.485740    1.385871
 ---------------------------------------------------------------------
 Rotational constants (GHZ):           0.7043489           0.3853346           0.2624234
 Basis read from rwf:  (6D, 7F)
 There are   269 symmetry adapted cartesian basis functions of A   symmetry.
 There are   269 symmetry adapted basis functions of A   symmetry.
   269 basis functions,   524 primitive gaussians,   269 cartesian basis functions
    65 alpha electrons       65 beta electrons
       nuclear repulsion energy      1259.5696572872 Hartrees.
 NAtoms=   16 NActive=   16 NUniq=   16 SFac= 1.00D+00 NAtFMM=   60 NAOKFM=F Big=F
 Integral buffers will be    131072 words long.
 Raffenetti 2 integral format.
 Two-electron integral symmetry is turned on.
 One-electron integrals computed using PRISM.
 NBasis=   269 RedAO= T EigKep=  1.28D-06  NBF=   269
 NBsUse=   268 1.00D-06 EigRej=  8.37D-07 NBFU=   268
 Initial guess from the checkpoint file:  "/jobfs/40738522.gadi-pbs/Gau-2187152.chk"
 B after Tr=     0.000000    0.000000    0.000000
         Rot=    0.999974    0.005529    0.000403   -0.004554 Ang=   0.82 deg.
 ExpMin= 4.05D-02 ExpMax= 2.52D+04 ExpMxC= 3.78D+03 IAcc=3 IRadAn=         5 AccDes= 0.00D+00
 Harris functional with IExCor= 1009 and IRadAn=       5 diagonalized for initial guess.
 HarFok:  IExCor= 1009 AccDes= 0.00D+00 IRadAn=         5 IDoV= 1 UseB2=F ITyADJ=14
 ICtDFT=  3500011 ScaDFX=  1.000000  1.000000  1.000000  1.000000
 FoFCou: FMM=F IPFlag=           0 FMFlag=      100000 FMFlg1=           0
         NFxFlg=           0 DoJE=T BraDBF=F KetDBF=T FulRan=T
         wScrn=  0.000000 ICntrl=       500 IOpCl=  0 I1Cent=   200000004 NGrid=           0
         NMat0=    1 NMatS0=      1 NMatT0=    0 NMatD0=    1 NMtDS0=    0 NMtDT0=    0
 Petite list used in FoFCou.
 Requested convergence on RMS density matrix=1.00D-08 within 128 cycles.
 Requested convergence on MAX density matrix=1.00D-06.
 Requested convergence on             energy=1.00D-06.
 No special actions if energy rises.
 SCF Done:  E(RM062X) =  -2214.11368014     A.U. after   15 cycles
            NFock= 15  Conv=0.63D-08     -V/T= 2.0039
 Calling FoFJK, ICntrl=      2127 FMM=F ISym2X=0 I1Cent= 0 IOpClX= 0 NMat=1 NMatS=1 NMatT=0.
 ***** Axes restored to original set *****
 -------------------------------------------------------------------
 Center     Atomic                   Forces (Hartrees/Bohr)
 Number     Number              X              Y              Z
 -------------------------------------------------------------------
      1        6          -0.000431259    0.001148186   -0.005057949
      2        6           0.002534179    0.000963738   -0.000807660
      3       17          -0.000780728   -0.001519082    0.000107472
      4        6          -0.000388040   -0.000166028   -0.000660405
      5        1          -0.000117414   -0.000039104    0.000014630
      6        6           0.000185024   -0.000358896    0.002082968
      7       17          -0.000043035    0.000112261   -0.001151110
      8        6           0.000652890    0.000211216   -0.000533757
      9        1           0.000217200    0.000021412    0.000085676
     10        6          -0.001375615   -0.000624962   -0.001205101
     11       17           0.002369587   -0.000113662   -0.002658742
     12       16           0.001234651    0.004666061   -0.000374673
     13        8          -0.009193980   -0.001532063    0.004204478
     14        8           0.004420498   -0.004879373    0.003969764
     15        7           0.002189606    0.000706225    0.000715576
     16        1          -0.001473564    0.001404070    0.001268833
 -------------------------------------------------------------------
 Cartesian Forces:  Max     0.009193980 RMS     0.002329118

 GradGradGradGradGradGradGradGradGradGradGradGradGradGradGradGradGradGrad
 Berny optimization.
 Using GEDIIS/GDIIS optimizer.
 FormGI is forming the generalized inverse of G from B-inverse, IUseBI=4.
 Internal  Forces:  Max     0.009769265 RMS     0.002913950
 Search for a local minimum.
 Step number   2 out of a maximum of   84
 All quantities printed in internal units (Hartrees-Bohrs-Radians)
 Mixed Optimization -- RFO/linear search
 Update second derivatives using D2CorX and points    1    2
 DE= -1.46D-03 DEPred=-2.70D-03 R= 5.42D-01
 TightC=F SS=  1.41D+00  RLast= 2.47D-01 DXNew= 5.0454D-01 7.4174D-01
 Trust test= 5.42D-01 RLast= 2.47D-01 DXMaxT set to 5.05D-01
 ITU=  1  0
 Use linear search instead of GDIIS.
     Eigenvalues ---    0.00248   0.01276   0.02057   0.02086   0.02157
     Eigenvalues ---    0.02171   0.02222   0.02249   0.02264   0.02286
     Eigenvalues ---    0.03113   0.11196   0.12192   0.15496   0.16000
     Eigenvalues ---    0.16000   0.17853   0.20904   0.22747   0.23492
     Eigenvalues ---    0.23554   0.24745   0.24999   0.25000   0.25000
     Eigenvalues ---    0.25000   0.30580   0.30910   0.31223   0.35316
     Eigenvalues ---    0.35459   0.35682   0.42049   0.43188   0.44322
     Eigenvalues ---    0.45934   0.46918   0.46984   0.48074   0.60920
     Eigenvalues ---    0.78677   0.84190
 RFO step:  Lambda=-1.20810734D-03 EMin= 2.48225199D-03
 Quartic linear search produced a step of -0.29138.
 Iteration  1 RMS(Cart)=  0.03841880 RMS(Int)=  0.00067026
 Iteration  2 RMS(Cart)=  0.00073141 RMS(Int)=  0.00020572
 Iteration  3 RMS(Cart)=  0.00000040 RMS(Int)=  0.00020572
 Variable       Old X    -DE/DX   Delta X   Delta X   Delta X     New X
                                 (Linear)    (Quad)   (Total)
    R1        2.65820  -0.00003   0.00008  -0.00007   0.00004   2.65824
    R2        2.64984   0.00446   0.00075   0.00578   0.00655   2.65639
    R3        3.52357   0.00977  -0.00890   0.04749   0.03859   3.56216
    R4        3.30280   0.00094   0.00044   0.00132   0.00176   3.30456
    R5        2.62920  -0.00011  -0.00130   0.00225   0.00096   2.63017
    R6        2.04821   0.00010   0.00033  -0.00043  -0.00011   2.04810
    R7        2.61911  -0.00109   0.00044  -0.00268  -0.00226   2.61685
    R8        3.30350   0.00116  -0.00468   0.01158   0.00690   3.31040
    R9        2.61263  -0.00093   0.00056  -0.00258  -0.00204   2.61058
   R10        2.04822   0.00014   0.00035  -0.00038  -0.00003   2.04818
   R11        2.64263   0.00027  -0.00148   0.00336   0.00186   2.64449
   R12        3.29484   0.00109   0.00080   0.00094   0.00173   3.29657
   R13        2.77636  -0.00767   0.00342  -0.01290  -0.00947   2.76688
   R14        2.80055  -0.00556   0.00335  -0.01128  -0.00793   2.79263
   R15        2.93926  -0.00192   0.00017  -0.00256  -0.00238   2.93688
   R16        1.92703   0.00114   0.00078   0.00033   0.00111   1.92814
    A1        2.01165  -0.00290   0.00270  -0.01268  -0.01006   2.00159
    A2        2.08624  -0.00456  -0.00562  -0.00241  -0.00821   2.07803
    A3        2.18529   0.00746   0.00288   0.01503   0.01771   2.20300
    A4        2.13350  -0.00100  -0.00063  -0.00164  -0.00239   2.13111
    A5        2.15610   0.00223  -0.00118   0.00857   0.00737   2.16347
    A6        1.99359  -0.00123   0.00177  -0.00691  -0.00526   1.98833
    A7        2.10193  -0.00000   0.00020  -0.00010   0.00008   2.10201
    A8        2.06856  -0.00018  -0.00114   0.00081  -0.00031   2.06825
    A9        2.11269   0.00018   0.00093  -0.00071   0.00020   2.11290
   A10        2.08626  -0.00013  -0.00067   0.00130   0.00063   2.08690
   A11        2.10792   0.00007   0.00196  -0.00441  -0.00248   2.10544
   A12        2.08900   0.00006  -0.00131   0.00309   0.00178   2.09078
   A13        2.10732  -0.00012   0.00042  -0.00089  -0.00047   2.10685
   A14        2.08190   0.00059  -0.00042   0.00249   0.00203   2.08394
   A15        2.09396  -0.00046   0.00001  -0.00159  -0.00158   2.09238
   A16        2.14001   0.00018  -0.00201   0.00495   0.00295   2.14297
   A17        2.15646   0.00543   0.00331   0.00859   0.01189   2.16835
   A18        1.98669  -0.00561  -0.00130  -0.01359  -0.01491   1.97178
   A19        1.79744   0.00820   0.01595   0.00117   0.01711   1.81455
   A20        1.72300   0.00663   0.01457  -0.00241   0.01223   1.73523
   A21        1.85997  -0.00075   0.01257  -0.01935  -0.00664   1.85333
   A22        2.03698  -0.00343  -0.01664   0.01261  -0.00326   2.03372
   A23        1.94798  -0.00313  -0.01119   0.00768  -0.00272   1.94526
   A24        2.05198  -0.00347  -0.00594  -0.00535  -0.01041   2.04157
   A25        1.88353  -0.00220   0.00588  -0.02105  -0.01517   1.86836
    D1        3.12027  -0.00148  -0.00923  -0.03357  -0.04267   3.07760
    D2       -0.02268  -0.00036  -0.00319  -0.01143  -0.01451  -0.03719
    D3       -0.01892  -0.00077  -0.00526  -0.00567  -0.01120  -0.03012
    D4        3.12131   0.00035   0.00077   0.01648   0.01696   3.13827
    D5        0.01929   0.00050   0.00376   0.01517   0.01885   0.03814
    D6       -3.11500   0.00083   0.00404   0.02328   0.02733  -3.08767
    D7       -3.12486  -0.00027  -0.00055  -0.01457  -0.01530  -3.14015
    D8        0.02404   0.00005  -0.00028  -0.00647  -0.00682   0.01722
    D9       -3.00235  -0.00122  -0.01996  -0.03503  -0.05519  -3.05754
   D10       -0.90558   0.00000  -0.02669  -0.02199  -0.04860  -0.95419
   D11        1.22872  -0.00114  -0.02087  -0.03614  -0.05713   1.17159
   D12        0.14190  -0.00042  -0.01555  -0.00410  -0.01969   0.12221
   D13        2.23866   0.00081  -0.02229   0.00894  -0.01311   2.22556
   D14       -1.91021  -0.00033  -0.01647  -0.00521  -0.02164  -1.93185
   D15       -3.13165  -0.00022  -0.00068  -0.00388  -0.00454  -3.13619
   D16        0.01080  -0.00001   0.00036   0.00129   0.00163   0.01243
   D17        0.00869   0.00083   0.00494   0.01666   0.02155   0.03024
   D18       -3.13205   0.00103   0.00598   0.02184   0.02772  -3.10433
   D19       -3.13805  -0.00007   0.00009  -0.00280  -0.00269  -3.14074
   D20        0.00581   0.00030   0.00206   0.00612   0.00820   0.01401
   D21        0.00441   0.00014   0.00113   0.00240   0.00351   0.00792
   D22       -3.13492   0.00051   0.00311   0.01132   0.01441  -3.12051
   D23        3.13388  -0.00037  -0.00216  -0.00906  -0.01123   3.12264
   D24       -0.00885  -0.00014  -0.00149  -0.00243  -0.00391  -0.01276
   D25       -0.00545   0.00000  -0.00018  -0.00012  -0.00031  -0.00576
   D26        3.13500   0.00024   0.00048   0.00651   0.00701  -3.14117
   D27       -0.00443  -0.00031  -0.00155  -0.00892  -0.01053  -0.01496
   D28        3.13051  -0.00056  -0.00178  -0.01622  -0.01805   3.11246
   D29        3.13604  -0.00008  -0.00090  -0.00234  -0.00327   3.13277
   D30       -0.01221  -0.00033  -0.00113  -0.00965  -0.01079  -0.02300
   D31       -1.35005  -0.00048   0.00556  -0.03226  -0.02665  -1.37670
   D32        2.98330  -0.00823  -0.01450  -0.02677  -0.04185   2.94145
   D33        0.56106   0.00547   0.02903  -0.05067  -0.02110   0.53995
         Item               Value     Threshold  Converged?
 Maximum Force            0.009769     0.000450     NO 
 RMS     Force            0.002914     0.000300     NO 
 Maximum Displacement     0.123891     0.001800     NO 
 RMS     Displacement     0.038402     0.001200     NO 
 Predicted change in Energy=-9.231008D-04
 GradGradGradGradGradGradGradGradGradGradGradGradGradGradGradGradGradGrad

                          Input orientation:                          
 ---------------------------------------------------------------------
 Center     Atomic      Atomic             Coordinates (Angstroms)
 Number     Number       Type             X           Y           Z
 ---------------------------------------------------------------------
      1          6           0       -1.223414    0.629693   -0.910229
      2          6           0       -2.409822    0.635652   -1.665977
      3         17           0       -3.975271    0.351010   -0.940512
      4          6           0       -2.453458    0.833424   -3.042986
      5          1           0       -3.401543    0.831772   -3.568126
      6          6           0       -1.261224    1.022640   -3.721505
      7         17           0       -1.283683    1.275353   -5.454825
      8          6           0       -0.055897    0.998395   -3.046944
      9          1           0        0.879133    1.128909   -3.579315
     10          6           0       -0.047477    0.795413   -1.662366
     11         17           0        1.561851    0.749327   -0.990716
     12         16           0       -1.325171    0.353636    0.951684
     13          8           0        0.054234    0.527910    1.410670
     14          8           0       -2.278335    1.426720    1.303600
     15          7           0       -1.808521   -1.110471    1.146842
     16          1           0       -2.817090   -1.115639    0.992455
 ---------------------------------------------------------------------
                    Distance matrix (angstroms):
                    1          2          3          4          5
     1  C    0.000000
     2  C    1.406682   0.000000
     3  Cl   2.766098   1.748700   0.000000
     4  C    2.470459   1.391823   2.639893   0.000000
     5  H    3.442310   2.154100   2.732152   1.083808   0.000000
     6  C    2.838857   2.386259   3.943483   1.384779   2.154280
     7  Cl   4.590628   4.004095   5.336486   2.716734   2.870841
     8  C    2.462638   2.753110   4.496405   2.403233   3.390094
     9  H    3.434231   3.836847   5.579754   3.388381   4.290991
    10  C    1.405703   2.367744   4.018225   2.774221   3.857850
    11  Cl   2.788994   4.030271   5.551657   4.510166   5.593310
    12  S    1.885015   2.847481   3.256293   4.178591   4.996861
    13  O    2.651286   3.943214   4.668646   5.120245   6.068207
    14  O    2.578595   3.075950   3.012106   4.390386   5.034807
    15  N    2.757184   3.364886   3.344814   4.663618   5.342374
    16  H    3.034171   3.209384   2.688644   4.496205   4.993285
                    6          7          8          9         10
     6  C    0.000000
     7  Cl   1.751790   0.000000
     8  C    1.381461   2.716994   0.000000
     9  H    2.147706   2.866489   1.083852   0.000000
    10  C    2.401014   4.017624   1.399403   2.155115   0.000000
    11  Cl   3.937215   5.319966   2.628159   2.703892   1.744469
    12  S    4.721266   6.472607   4.244502   5.098035   2.942945
    13  O    5.321128   7.034466   4.483726   5.093290   3.086333
    14  O    5.142906   6.832903   4.904072   5.822470   3.764602
    15  N    5.343267   7.039149   5.010673   5.880040   3.824306
    16  H    5.405032   7.045254   5.330110   6.292944   4.286134
                   11         12         13         14         15
    11  Cl   0.000000
    12  S    3.502054   0.000000
    13  O    2.844044   1.464171   0.000000
    14  O    4.524353   1.477794   2.502039   0.000000
    15  N    4.403113   1.554130   2.494745   2.585079   0.000000
    16  H    5.156179   2.094338   3.334765   2.617376   1.020330
                   16
    16  H    0.000000
 Stoichiometry    C6H3Cl3NO2S(1-)
 Framework group  C1[X(C6H3Cl3NO2S)]
 Deg. of freedom    42
 Full point group                 C1      NOp   1
 Largest Abelian subgroup         C1      NOp   1
 Largest concise Abelian subgroup C1      NOp   1
                         Standard orientation:                         
 ---------------------------------------------------------------------
 Center     Atomic      Atomic             Coordinates (Angstroms)
 Number     Number       Type             X           Y           Z
 ---------------------------------------------------------------------
      1          6           0       -0.412211    0.070731   -0.034379
      2          6           0        0.289767   -1.148119   -0.014741
      3         17           0       -0.529757   -2.691696    0.046108
      4          6           0        1.678160   -1.245680   -0.010268
      5          1           0        2.160321   -2.216273    0.000152
      6          6           0        2.422647   -0.078053   -0.010867
      7         17           0        4.172108   -0.168251   -0.006605
      8          6           0        1.798852    1.154495    0.000853
      9          1           0        2.380270    2.069040    0.018058
     10          6           0        0.400848    1.216984   -0.002140
     11         17           0       -0.207851    2.850601    0.060752
     12         16           0       -2.296983    0.041858   -0.043521
     13          8           0       -2.671304    1.450453   -0.183315
     14          8           0       -2.519991   -0.820414   -1.222771
     15          7           0       -2.728302   -0.526627    1.337098
     16          1           0       -2.615259   -1.539674    1.292034
 ---------------------------------------------------------------------
 Rotational constants (GHZ):           0.7036211           0.3812913           0.2603939
 Basis read from rwf:  (6D, 7F)
 There are   269 symmetry adapted cartesian basis functions of A   symmetry.
 There are   269 symmetry adapted basis functions of A   symmetry.
   269 basis functions,   524 primitive gaussians,   269 cartesian basis functions
    65 alpha electrons       65 beta electrons
       nuclear repulsion energy      1255.9203945262 Hartrees.
 NAtoms=   16 NActive=   16 NUniq=   16 SFac= 1.00D+00 NAtFMM=   60 NAOKFM=F Big=F
 Integral buffers will be    131072 words long.
 Raffenetti 2 integral format.
 Two-electron integral symmetry is turned on.
 One-electron integrals computed using PRISM.
 NBasis=   269 RedAO= T EigKep=  1.29D-06  NBF=   269
 NBsUse=   268 1.00D-06 EigRej=  8.46D-07 NBFU=   268
 Initial guess from the checkpoint file:  "/jobfs/40738522.gadi-pbs/Gau-2187152.chk"
 B after Tr=     0.000000   -0.000000   -0.000000
         Rot=    0.999985   -0.003032   -0.001029    0.004522 Ang=  -0.63 deg.
 ExpMin= 4.05D-02 ExpMax= 2.52D+04 ExpMxC= 3.78D+03 IAcc=3 IRadAn=         5 AccDes= 0.00D+00
 Harris functional with IExCor= 1009 and IRadAn=       5 diagonalized for initial guess.
 HarFok:  IExCor= 1009 AccDes= 0.00D+00 IRadAn=         5 IDoV= 1 UseB2=F ITyADJ=14
 ICtDFT=  3500011 ScaDFX=  1.000000  1.000000  1.000000  1.000000
 FoFCou: FMM=F IPFlag=           0 FMFlag=      100000 FMFlg1=           0
         NFxFlg=           0 DoJE=T BraDBF=F KetDBF=T FulRan=T
         wScrn=  0.000000 ICntrl=       500 IOpCl=  0 I1Cent=   200000004 NGrid=           0
         NMat0=    1 NMatS0=      1 NMatT0=    0 NMatD0=    1 NMtDS0=    0 NMtDT0=    0
 Petite list used in FoFCou.
 Requested convergence on RMS density matrix=1.00D-08 within 128 cycles.
 Requested convergence on MAX density matrix=1.00D-06.
 Requested convergence on             energy=1.00D-06.
 No special actions if energy rises.
 SCF Done:  E(RM062X) =  -2214.11440260     A.U. after   14 cycles
            NFock= 14  Conv=0.78D-08     -V/T= 2.0039
 Calling FoFJK, ICntrl=      2127 FMM=F ISym2X=0 I1Cent= 0 IOpClX= 0 NMat=1 NMatS=1 NMatT=0.
 ***** Axes restored to original set *****
 -------------------------------------------------------------------
 Center     Atomic                   Forces (Hartrees/Bohr)
 Number     Number              X              Y              Z
 -------------------------------------------------------------------
      1        6           0.001882457   -0.000244278   -0.003444884
      2        6           0.001886198    0.000029283   -0.000456620
      3       17          -0.001158173    0.000385701    0.000713674
      4        6          -0.000789828    0.000166105   -0.000246298
      5        1          -0.000179961   -0.000030324    0.000105476
      6        6          -0.000092983   -0.000095461    0.000341715
      7       17           0.000056363    0.000008557    0.000610265
      8        6           0.000736652   -0.000001701   -0.000157180
      9        1           0.000170850    0.000031103    0.000068779
     10        6          -0.002671843    0.000006816   -0.001242365
     11       17           0.000021788    0.000081473    0.002713100
     12       16          -0.000169304    0.000607586   -0.001000570
     13        8          -0.001243621    0.000464850   -0.000232081
     14        8           0.001344839   -0.001260058    0.000832515
     15        7           0.000547923   -0.000048380   -0.000044644
     16        1          -0.000341357   -0.000101272    0.001439119
 -------------------------------------------------------------------
 Cartesian Forces:  Max     0.003444884 RMS     0.001009988

 GradGradGradGradGradGradGradGradGradGradGradGradGradGradGradGradGradGrad
 Berny optimization.
 Using GEDIIS/GDIIS optimizer.
 FormGI is forming the generalized inverse of G from B-inverse, IUseBI=4.
 Internal  Forces:  Max     0.004451255 RMS     0.001284588
 Search for a local minimum.
 Step number   3 out of a maximum of   84
 All quantities printed in internal units (Hartrees-Bohrs-Radians)
 Mixed Optimization -- RFO/linear search
 Update second derivatives using D2CorX and points    1    2    3
 DE= -7.22D-04 DEPred=-9.23D-04 R= 7.83D-01
 TightC=F SS=  1.41D+00  RLast= 1.49D-01 DXNew= 8.4853D-01 4.4801D-01
 Trust test= 7.83D-01 RLast= 1.49D-01 DXMaxT set to 5.05D-01
 ITU=  1  1  0
 Use linear search instead of GDIIS.
     Eigenvalues ---    0.00255   0.01322   0.02062   0.02088   0.02171
     Eigenvalues ---    0.02218   0.02249   0.02263   0.02282   0.02332
     Eigenvalues ---    0.02627   0.11560   0.12806   0.14874   0.16000
     Eigenvalues ---    0.16007   0.17432   0.21183   0.22405   0.23531
     Eigenvalues ---    0.23852   0.24897   0.24989   0.24997   0.24998
     Eigenvalues ---    0.25276   0.30627   0.30968   0.31577   0.35458
     Eigenvalues ---    0.35465   0.37716   0.42041   0.44171   0.44951
     Eigenvalues ---    0.46874   0.46926   0.48071   0.53763   0.61205
     Eigenvalues ---    0.75390   0.83724
 RFO step:  Lambda=-4.59810876D-04 EMin= 2.54595662D-03
 Quartic linear search produced a step of -0.15446.
 Iteration  1 RMS(Cart)=  0.04026244 RMS(Int)=  0.00068991
 Iteration  2 RMS(Cart)=  0.00083368 RMS(Int)=  0.00002047
 Iteration  3 RMS(Cart)=  0.00000024 RMS(Int)=  0.00002047
 Variable       Old X    -DE/DX   Delta X   Delta X   Delta X     New X
                                 (Linear)    (Quad)   (Total)
    R1        2.65824  -0.00095  -0.00001  -0.00186  -0.00186   2.65638
    R2        2.65639  -0.00357  -0.00101  -0.00314  -0.00415   2.65225
    R3        3.56216   0.00103  -0.00596   0.02419   0.01822   3.58039
    R4        3.30456   0.00127  -0.00027   0.00410   0.00383   3.30839
    R5        2.63017  -0.00009  -0.00015   0.00053   0.00038   2.63055
    R6        2.04810   0.00011   0.00002   0.00015   0.00017   2.04827
    R7        2.61685   0.00087   0.00035   0.00048   0.00083   2.61768
    R8        3.31040  -0.00060  -0.00107   0.00248   0.00142   3.31182
    R9        2.61058   0.00069   0.00032   0.00021   0.00052   2.61111
   R10        2.04818   0.00012   0.00001   0.00021   0.00021   2.04839
   R11        2.64449  -0.00062  -0.00029  -0.00002  -0.00030   2.64419
   R12        3.29657   0.00106  -0.00027   0.00349   0.00322   3.29979
   R13        2.76688  -0.00118   0.00146  -0.00629  -0.00483   2.76205
   R14        2.79263  -0.00159   0.00122  -0.00594  -0.00472   2.78791
   R15        2.93688   0.00025   0.00037  -0.00093  -0.00057   2.93631
   R16        1.92814   0.00012  -0.00017   0.00072   0.00055   1.92869
    A1        2.00159   0.00138   0.00155  -0.00180  -0.00024   2.00134
    A2        2.07803   0.00294   0.00127   0.00600   0.00727   2.08530
    A3        2.20300  -0.00431  -0.00274  -0.00395  -0.00668   2.19632
    A4        2.13111   0.00020   0.00037  -0.00041  -0.00004   2.13107
    A5        2.16347  -0.00074  -0.00114   0.00152   0.00038   2.16385
    A6        1.98833   0.00055   0.00081  -0.00098  -0.00017   1.98816
    A7        2.10201   0.00015  -0.00001  -0.00015  -0.00016   2.10186
    A8        2.06825  -0.00069   0.00005  -0.00159  -0.00155   2.06670
    A9        2.11290   0.00054  -0.00003   0.00175   0.00172   2.11462
   A10        2.08690  -0.00022  -0.00010  -0.00080  -0.00090   2.08599
   A11        2.10544   0.00059   0.00038   0.00146   0.00184   2.10728
   A12        2.09078  -0.00036  -0.00027  -0.00061  -0.00089   2.08989
   A13        2.10685   0.00083   0.00007   0.00262   0.00269   2.10953
   A14        2.08394  -0.00139  -0.00031  -0.00335  -0.00366   2.08028
   A15        2.09238   0.00056   0.00024   0.00075   0.00099   2.09337
   A16        2.14297   0.00086  -0.00046   0.00389   0.00343   2.14640
   A17        2.16835  -0.00445  -0.00184  -0.00771  -0.00956   2.15879
   A18        1.97178   0.00359   0.00230   0.00391   0.00620   1.97798
   A19        1.81455  -0.00186  -0.00264   0.00100  -0.00163   1.81293
   A20        1.73523   0.00151  -0.00189   0.01400   0.01211   1.74734
   A21        1.85333   0.00327   0.00103   0.00833   0.00934   1.86267
   A22        2.03372  -0.00067   0.00050  -0.00674  -0.00625   2.02748
   A23        1.94526  -0.00055   0.00042  -0.00434  -0.00395   1.94131
   A24        2.04157  -0.00096   0.00161  -0.00628  -0.00478   2.03678
   A25        1.86836   0.00069   0.00234  -0.00494  -0.00260   1.86577
    D1        3.07760   0.00063   0.00659   0.00887   0.01546   3.09306
    D2       -0.03719   0.00011   0.00224   0.00271   0.00495  -0.03225
    D3       -0.03012   0.00039   0.00173   0.00125   0.00298  -0.02714
    D4        3.13827  -0.00014  -0.00262  -0.00491  -0.00753   3.13074
    D5        0.03814  -0.00018  -0.00291  -0.00353  -0.00643   0.03171
    D6       -3.08767  -0.00057  -0.00422  -0.01124  -0.01541  -3.10308
    D7       -3.14015   0.00026   0.00236   0.00496   0.00730  -3.13286
    D8        0.01722  -0.00013   0.00105  -0.00274  -0.00169   0.01553
    D9       -3.05754   0.00064   0.00852   0.05800   0.06654  -2.99099
   D10       -0.95419  -0.00013   0.00751   0.05644   0.06390  -0.89029
   D11        1.17159   0.00070   0.00882   0.05883   0.06770   1.23929
   D12        0.12221   0.00022   0.00304   0.04933   0.05238   0.17459
   D13        2.22556  -0.00055   0.00202   0.04777   0.04973   2.27529
   D14       -1.93185   0.00028   0.00334   0.05016   0.05353  -1.87832
   D15       -3.13619   0.00013   0.00070   0.00159   0.00229  -3.13390
   D16        0.01243   0.00004  -0.00025   0.00001  -0.00025   0.01218
   D17        0.03024  -0.00035  -0.00333  -0.00412  -0.00745   0.02279
   D18       -3.10433  -0.00044  -0.00428  -0.00570  -0.00999  -3.11432
   D19       -3.14074   0.00009   0.00042   0.00251   0.00294  -3.13781
   D20        0.01401  -0.00015  -0.00127  -0.00202  -0.00328   0.01073
   D21        0.00792  -0.00000  -0.00054   0.00093   0.00039   0.00831
   D22       -3.12051  -0.00024  -0.00223  -0.00360  -0.00583  -3.12635
   D23        3.12264   0.00023   0.00174   0.00468   0.00643   3.12907
   D24       -0.01276   0.00004   0.00060   0.00118   0.00179  -0.01097
   D25       -0.00576  -0.00000   0.00005   0.00014   0.00020  -0.00556
   D26       -3.14117  -0.00019  -0.00108  -0.00336  -0.00444   3.13758
   D27       -0.01496   0.00014   0.00163   0.00172   0.00334  -0.01162
   D28        3.11246   0.00043   0.00279   0.00854   0.01136   3.12382
   D29        3.13277  -0.00004   0.00050  -0.00176  -0.00125   3.13151
   D30       -0.02300   0.00024   0.00167   0.00507   0.00676  -0.01624
   D31       -1.37670  -0.00227   0.00412  -0.04145  -0.03733  -1.41403
   D32        2.94145  -0.00160   0.00646  -0.04511  -0.03861   2.90283
   D33        0.53995   0.00122   0.00326  -0.02202  -0.01880   0.52115
         Item               Value     Threshold  Converged?
 Maximum Force            0.004451     0.000450     NO 
 RMS     Force            0.001285     0.000300     NO 
 Maximum Displacement     0.128696     0.001800     NO 
 RMS     Displacement     0.040333     0.001200     NO 
 Predicted change in Energy=-2.450679D-04
 GradGradGradGradGradGradGradGradGradGradGradGradGradGradGradGradGradGrad

                          Input orientation:                          
 ---------------------------------------------------------------------
 Center     Atomic      Atomic             Coordinates (Angstroms)
 Number     Number       Type             X           Y           Z
 ---------------------------------------------------------------------
      1          6           0       -1.233953    0.622862   -0.921884
      2          6           0       -2.417767    0.651248   -1.679353
      3         17           0       -3.992401    0.407073   -0.954128
      4          6           0       -2.455807    0.853102   -3.056139
      5          1           0       -3.403246    0.871214   -3.582319
      6          6           0       -1.257977    1.023438   -3.730684
      7         17           0       -1.272455    1.285295   -5.463492
      8          6           0       -0.054092    0.980916   -3.053889
      9          1           0        0.885034    1.102438   -3.581386
     10          6           0       -0.056199    0.776026   -1.669730
     11         17           0        1.545467    0.721239   -0.976339
     12         16           0       -1.331800    0.355730    0.951295
     13          8           0        0.034539    0.596013    1.411403
     14          8           0       -2.328506    1.383324    1.307846
     15          7           0       -1.747039   -1.125440    1.170615
     16          1           0       -2.759485   -1.170737    1.049933
 ---------------------------------------------------------------------
                    Distance matrix (angstroms):
                    1          2          3          4          5
     1  C    0.000000
     2  C    1.405695   0.000000
     3  Cl   2.767063   1.750727   0.000000
     4  C    2.470016   1.392025   2.641687   0.000000
     5  H    3.441719   2.154260   2.733116   1.083898   0.000000
     6  C    2.837322   2.385708   3.945408   1.385216   2.155775
     7  Cl   4.589826   4.004181   5.338889   2.717068   2.872376
     8  C    2.462868   2.754086   4.499841   2.405114   3.392360
     9  H    3.434101   3.837942   5.583492   3.391058   4.294510
    10  C    1.403509   2.364881   4.017698   2.772397   3.856136
    11  Cl   2.781694   4.025711   5.546817   4.511447   5.594943
    12  S    1.894659   2.861287   3.272930   4.191694   5.011015
    13  O    2.655941   3.945836   4.674150   5.121216   6.068885
    14  O    2.597700   3.076891   2.972900   4.397920   5.032995
    15  N    2.774594   3.424736   3.450331   4.720427   5.414798
    16  H    3.071206   3.299303   2.832989   4.587807   5.103112
                    6          7          8          9         10
     6  C    0.000000
     7  Cl   1.752541   0.000000
     8  C    1.381737   2.717211   0.000000
     9  H    2.149658   2.868888   1.083964   0.000000
    10  C    2.398544   4.016374   1.399243   2.155665   0.000000
    11  Cl   3.941706   5.328544   2.634813   2.714361   1.746175
    12  S    4.729928   6.482060   4.250282   5.100698   2.945094
    13  O    5.319244   7.031893   4.482727   5.089965   3.087721
    14  O    5.163558   6.853894   4.935547   5.857501   3.794489
    15  N    5.373974   7.074478   5.014902   5.871351   3.813407
    16  H    5.470213   7.118149   5.365642   6.316562   4.300490
                   11         12         13         14         15
    11  Cl   0.000000
    12  S    3.482533   0.000000
    13  O    2.828408   1.461615   0.000000
    14  O    4.545715   1.475298   2.492903   0.000000
    15  N    4.342837   1.553831   2.489056   2.578922   0.000000
    16  H    5.120348   2.092395   3.325453   2.602977   1.020619
                   16
    16  H    0.000000
 Stoichiometry    C6H3Cl3NO2S(1-)
 Framework group  C1[X(C6H3Cl3NO2S)]
 Deg. of freedom    42
 Full point group                 C1      NOp   1
 Largest Abelian subgroup         C1      NOp   1
 Largest concise Abelian subgroup C1      NOp   1
                         Standard orientation:                         
 ---------------------------------------------------------------------
 Center     Atomic      Atomic             Coordinates (Angstroms)
 Number     Number       Type             X           Y           Z
 ---------------------------------------------------------------------
      1          6           0       -0.404823    0.063465   -0.022287
      2          6           0        0.304079   -1.150292   -0.007103
      3         17           0       -0.507238   -2.701106    0.035159
      4          6           0        1.693211   -1.239967   -0.004969
      5          1           0        2.180794   -2.207993   -0.000108
      6          6           0        2.429455   -0.066610   -0.003732
      7         17           0        4.180206   -0.145748   -0.006811
      8          6           0        1.798874    1.162790    0.008140
      9          1           0        2.372953    2.082165    0.020780
     10          6           0        0.400519    1.212588    0.005579
     11         17           0       -0.233612    2.838937    0.050231
     12         16           0       -2.299197    0.036614   -0.041291
     13          8           0       -2.667227    1.432990   -0.267136
     14          8           0       -2.533938   -0.888202   -1.166508
     15          7           0       -2.753656   -0.444714    1.364476
     16          1           0       -2.678616   -1.462564    1.368184
 ---------------------------------------------------------------------
 Rotational constants (GHZ):           0.7051167           0.3795662           0.2596852
 Basis read from rwf:  (6D, 7F)
 There are   269 symmetry adapted cartesian basis functions of A   symmetry.
 There are   269 symmetry adapted basis functions of A   symmetry.
   269 basis functions,   524 primitive gaussians,   269 cartesian basis functions
    65 alpha electrons       65 beta electrons
       nuclear repulsion energy      1254.9408021154 Hartrees.
 NAtoms=   16 NActive=   16 NUniq=   16 SFac= 1.00D+00 NAtFMM=   60 NAOKFM=F Big=F
 Integral buffers will be    131072 words long.
 Raffenetti 2 integral format.
 Two-electron integral symmetry is turned on.
 One-electron integrals computed using PRISM.
[...]
     6         -4.18387562         -0.70318291          3.77230959
    17         -7.28149638         -0.38452727          2.65269239
     6         -3.98591263         -0.70811767          6.39477700
     1         -5.66143647         -0.56164404          7.56368157
     6         -1.60110771         -0.89248964          7.45914466
    17         -1.28561262         -0.90920473         10.75317384
     6          0.52988560         -1.04857635          5.95642326
     1          2.39709853         -1.17348100          6.78919984
     6          0.25296756         -1.04167601          3.32825057
    17          3.12321869         -1.20851689          1.70613911
    16         -2.67482430         -0.87201066         -1.39657697
     8         -0.16704973         -1.34632888         -2.46032317
     8         -4.51968416         -2.95419613         -1.60880825
     7         -3.64115358          1.82031400         -2.06314512
     1         -5.54103763          1.83944353         -1.73245891

 Electric dipole moment (dipole orientation):
 (Debye = 10**-18 statcoulomb cm , SI units = C m)
                  (au)            (Debye)         (10**-30 SI)
   Tot        0.379561D+01      0.964749D+01      0.321805D+02
   x          0.000000D+00      0.000000D+00      0.000000D+00
   y          0.000000D+00      0.000000D+00      0.000000D+00
   z          0.379561D+01      0.964749D+01      0.321805D+02

 Dipole polarizability, Alpha (dipole orientation).
 (esu units = cm**3 , SI units = C**2 m**2 J**-1)
 Alpha(0;0):
               (au)            (10**-24 esu)      (10**-40 SI)
   iso        0.148082D+03      0.219435D+02      0.244155D+02
   aniso      0.860325D+02      0.127487D+02      0.141848D+02
   xx         0.162836D+03      0.241297D+02      0.268479D+02
   yx        -0.762994D+01     -0.113064D+01     -0.125801D+01
   yy         0.939329D+02      0.139194D+02      0.154874D+02
   zx         0.583955D+01      0.865333D+00      0.962812D+00
   zy        -0.489364D+01     -0.725162D+00     -0.806852D+00
   zz         0.187478D+03      0.277814D+02      0.309110D+02

 ----------------------------------------------------------------------
 Unable to Open any file for archive entry.
 1\1\GINC-GADI-CPU-CLX-1752\Freq\RM062X\Gen\C6H3Cl3N1O2S1(1-)\YJ5695\20
 -May-2022\0\\#N Geom=AllCheck Guess=TCheck SCRF=Check GenChk RM062X/Ch
 kBas Freq\\A.3.a1b2.freq\\-1,1\C,-1.2249286714,0.6228370278,-0.9237261
 105\C,-2.4104239013,0.634556617,-1.6770217636\Cl,-3.9787330842,0.37121
 91639,-0.9439005115\C,-2.4534773281,0.8346745795,-3.0535864023\H,-3.40
 13111005,0.8389197978,-3.5792869632\C,-1.25767083,1.0206676849,-3.7279
 863998\Cl,-1.276538854,1.2778087852,-5.4600254609\C,-0.051399903,0.998
 2419295,-3.0532798306\H,0.8848265219,1.1336346681,-3.5824651855\C,-0.0
 495782284,0.7963496303,-1.6694583898\Cl,1.55241797,0.7735658659,-0.973
 2699629\S,-1.3255182354,0.3412722526,0.9429529039\O,0.0556362508,0.519
 9851894,1.3917544155\O,-2.2759694849,1.4086343587,1.3132710695\N,-1.80
 73527741,-1.1228960914,1.1423857524\H,-2.8256673473,-1.1157294593,1.07
 53918393\\Version=ES64L-G16RevC.01\State=1-A\HF=-2214.1146675\RMSD=5.7
 98e-10\RMSF=3.753e-05\ZeroPoint=0.086412\Thermal=0.098539\ETot=-2214.0
 161285\HTot=-2214.0151843\GTot=-2214.0682871\Dipole=-0.402704,0.538097
 5,-3.7356334\DipoleDeriv=-0.7387426,-0.0725774,0.0213064,-0.0902293,-0
 .2447889,0.1372804,-0.0285574,0.031335,-0.4393605,1.0177191,0.1058931,
 -0.1661861,0.147673,0.0205896,-0.0483454,-0.315081,-0.0343162,0.128932
 1,-0.7214918,-0.0786731,0.2266533,-0.0985126,-0.0748014,0.0703798,0.23
 13194,0.0533437,-0.1464262,-0.1949436,-0.0055321,0.0058144,-0.0229498,
 -0.1091768,0.0416482,0.1295585,0.0442789,-0.355667,0.0123244,-0.000485
 8,-0.052073,-0.0063396,0.1336645,0.0144746,-0.0437368,0.0129648,0.0351
 053,0.1633536,0.0067571,0.016637,0.0146009,0.0033246,-0.1903345,0.0125
 459,-0.1848099,1.192318,-0.1323051,-0.0009991,-0.0088417,-0.0031241,-0
 .1111575,0.1273838,-0.0034313,0.1379788,-0.9437532,-0.2216548,-0.01237
 6,-0.0130855,0.0191431,-0.0986606,0.0247187,-0.157251,0.0332865,-0.370
 6923,0.0157798,-0.0153798,0.0487991,-0.0127341,0.1314725,0.0230076,0.0
 462198,0.0212613,0.0293265,1.1050689,0.0504595,0.1520031,0.0024248,0.0
 076529,-0.0171357,0.3871401,0.0341149,0.0890133,-0.7667881,-0.0184907,
 -0.2244625,-0.0013402,-0.0796183,-0.0038521,-0.239362,-0.0083632,-0.07
 41083,1.9673398,0.1278209,-0.0094388,0.1028909,2.1833785,-0.1283105,-0
 .0012143,-0.1933502,2.5575527,-1.1008213,-0.096674,-0.428464,-0.088971
 2,-0.608934,-0.0277777,-0.1681591,0.0370525,-0.9781536,-0.8322655,0.29
 10251,0.3094791,0.2818543,-1.0960733,-0.3712474,0.1266389,-0.1018517,-
 0.9844823,-0.5774265,-0.3085516,0.1661433,-0.3159283,-1.2571317,0.3761
 353,0.0767499,0.1357569,-1.0223222,0.0048539,0.0277839,-0.0442842,0.07
 15423,0.2002599,-0.0280252,-0.0533797,-0.0186819,0.2827177\Polar=161.9
 840093,6.9323523,97.3174499,-2.190468,-18.7013202,184.9452861\Quadrupo
 le=9.0018296,6.3659153,-15.367745,2.0122388,-1.8388169,3.5700847\PG=C0
 1 [X(C6H3Cl3N1O2S1)]\NImag=0\\0.60247076,0.03019427,0.15615628,-0.0037
 8976,-0.04453038,0.48222873,-0.22945095,0.00001994,-0.10341309,0.50422
 765,-0.00529311,-0.06370343,0.00760330,0.02392993,0.13423811,-0.064995
 56,0.01026370,-0.17143597,0.05934677,-0.06863592,0.61582195,-0.0359791
 0,-0.00482511,0.00941518,-0.12784326,-0.01740937,0.04792523,0.19307523
 ,-0.00306662,0.00198895,-0.00042137,-0.01576233,-0.02623605,0.01014804
 ,0.02795138,0.01877123,-0.00208280,-0.00131184,0.00995356,0.04425670,0
 .01003514,-0.06358896,-0.07004488,-0.01746998,0.09247694,0.03599469,0.
 00625731,-0.02590731,-0.10884545,0.00496123,-0.05984758,-0.02265537,-0
 .00917221,0.04036808,0.76909917,0.01272184,0.00820633,0.00204712,-0.00
 625195,-0.06466979,0.03666939,-0.00512751,0.00331739,0.00789943,0.0441
 4144,0.13498470,-0.07885123,-0.00089889,-0.02165477,0.01860696,0.04251
 502,-0.33529753,0.01731822,0.00606051,-0.02242816,0.03594439,-0.081555
 46,0.68803394,0.00099934,-0.00033573,0.00003520,0.00171939,-0.00053488
 ,0.00259588,0.00096069,-0.00007192,0.00220431,-0.28392522,-0.00054461,
 -0.12756578,0.29982897,-0.00012822,0.00520033,0.00172089,0.00356188,0.
 00281487,0.00158918,0.00056143,-0.00266462,-0.00017493,-0.00101403,-0.
 03413263,0.00389010,0.00163993,0.02439908,0.00092795,0.00177798,-0.005
 62129,-0.02650978,-0.00001641,-0.01082733,-0.00070138,-0.00051137,-0.0
 0010487,-0.12684509,0.00359316,-0.12398825,0.13394840,-0.00543137,0.13
 050417,-0.08306297,-0.00522402,-0.00147783,0.04051096,-0.01115614,0.09
 775023,0.00430465,0.00079895,-0.00405838,-0.30852938,-0.02730659,0.055
 91611,-0.01785845,-0.00338173,0.01488389,0.70015053,-0.00541199,-0.003
 66968,-0.00103215,-0.00066357,0.00350727,0.01225567,-0.00019859,0.0048
 8054,0.00080505,-0.03789198,-0.06333493,0.01855295,0.00065030,0.002555
 89,0.00012435,0.03866872,0.12711204,-0.00022037,-0.00117107,0.00304288
 ,0.02209667,0.00699092,-0.02995322,-0.00068756,0.00091205,-0.00184880,
 0.13440593,0.02418548,-0.15749357,-0.01514465,-0.00224793,0.00965365,0
 .00661326,-0.06112419,0.52430528,0.00212999,0.00019828,-0.00000470,-0.
 00338474,-0.00043762,-0.00190494,-0.00046398,-0.00017492,0.00084515,0.
 00391769,-0.00384006,0.02647854,0.00079423,0.00018374,0.00053141,-0.03
 987196,-0.00096053,-0.00122874,0.03616605,0.00023568,-0.00082736,0.000
 14052,-0.00098691,0.00472371,0.00014878,-0.00028990,-0.00001361,0.0002
 7524,0.00030620,0.00212581,0.00786361,0.00030909,-0.00269678,-0.000542
 62,-0.00104524,-0.02483025,0.02126130,0.00130680,0.01693717,-0.0001705
 5,0.00026263,-0.00213274,0.00266327,0.00050929,0.00272267,0.00144608,0
 .00041663,-0.00147166,-0.00231172,0.00577603,-0.03671112,-0.00020618,-
 0.00059825,0.00113667,-0.00111418,0.02132211,-0.16474309,0.00212191,-0
 .03322049,0.23486177,0.03676299,-0.00241587,0.02752839,-0.02265263,0.0
 0421452,-0.03782527,-0.00215436,-0.00054692,0.00183489,-0.05702270,-0.
 00869443,0.02951077,-0.00246297,-0.00114956,0.00305390,-0.31707026,0.0
 0418374,-0.13937544,0.00337173,-0.00009963,0.00126750,0.77352702,-0.00
 925032,0.00773186,0.00576243,0.00306898,-0.00264650,0.00558666,-0.0001
 4594,-0.00110830,-0.00014940,-0.00058325,0.00914863,-0.00604387,-0.001
 18780,0.00527300,0.00121565,-0.00673048,-0.06042174,0.00592007,0.00400
 175,0.00290890,0.00608956,0.04308328,0.13653725,0.07904135,0.01000959,
 -0.01975405,-0.03163806,0.00542431,-0.05920773,0.00117971,-0.00023946,
 0.00044677,-0.02779071,-0.00970395,0.06522432,0.00397635,0.00113629,-0
 .00124113,-0.06091553,0.01111750,-0.16038841,-0.02738570,0.00428098,-0
 .03691458,-0.01820772,-0.08292860,0.67733512,0.00093912,-0.00022547,-0
 .00020689,0.00046398,0.00021582,-0.00077861,0.00003706,-0.00000325,0.0
 0010676,-0.00264617,0.00007666,-0.00405899,-0.00071986,-0.00020799,0.0
 0071632,-0.01800858,-0.00351000,0.01528315,0.00093069,0.00019507,0.000
 22102,-0.27824488,-0.03370026,0.12663534,0.29413744,-0.00044253,0.0048
 2291,0.00150076,0.00042246,-0.00106150,0.00018943,0.00001505,-0.000287
 82,-0.00006570,-0.00003159,0.00558578,0.00073436,0.00003173,0.00058715
 ,0.00001347,0.00076837,0.00281830,-0.00006539,0.00031726,-0.00284640,-
 0.00057312,-0.03339956,-0.03888404,0.02133900,0.03611967,0.02928180,-0
 .00080700,0.00159039,-0.00582280,-0.00096432,-0.00006136,-0.00104996,0
 .00000355,-0.00007417,0.00013250,-0.00319605,0.00078959,-0.00119285,-0
 .00071473,-0.00007857,0.00063430,-0.01483468,-0.00186686,0.00958131,-0
 .00053262,-0.00064498,0.00112154,0.12581680,0.02109188,-0.12438503,-0.
 13217714,-0.02397201,0.13132748,-0.23176105,-0.02321897,0.10341801,-0.
 05907018,-0.00020817,-0.02926060,-0.00047306,-0.00025905,-0.00091064,-
 0.01980475,-0.00534931,0.03092927,0.00046946,-0.00022262,0.00102030,0.
 03769297,0.00540145,-0.02295470,-0.00339552,-0.00014899,-0.00252154,-0
 .10740855,0.00093856,-0.02788489,0.00213745,-0.00369063,0.02598708,0.5
 1960474,-0.01741710,-0.06668417,0.02305077,-0.00909104,0.00549298,-0.0
 1198339,0.00000345,0.00464795,0.00098791,-0.00658379,-0.00450384,0.010
 33780,-0.00001603,-0.00093963,0.00009562,0.01604842,0.00751793,0.00371
 003,-0.00077797,0.00481382,0.00008348,-0.01029546,-0.06908315,0.035873
 43,0.00041279,0.00239924,0.00369290,0.02844391,0.13969530,0.06631814,0
 .02011824,-0.17774448,0.03175340,-0.00752515,0.07157283,-0.00496899,0.
 00059458,-0.00195223,0.03690205,0.01064545,-0.06032551,0.00070326,0.00
 035673,-0.00105618,-0.09895884,-0.00136603,-0.02881178,0.00194684,0.00
 039047,0.00283281,0.05054011,0.04101054,-0.31939785,-0.00291502,0.0014
 0967,-0.01108074,-0.04489890,-0.07005810,0.59228233,-0.03589408,-0.000
 67456,-0.00930412,0.00064482,-0.00084865,0.00536856,-0.00174051,-0.000
 16646,-0.00048788,-0.00219557,0.00015327,-0.00208328,0.00005472,-0.000
 00422,-0.00003341,0.00345098,-0.00004905,0.00070159,-0.00047496,0.0001
 7860,-0.00152564,-0.02515710,0.00120542,-0.01814973,0.00082866,0.00004
 377,0.00082726,-0.13920870,0.00192329,-0.05313690,0.20529657,-0.002922
 82,0.00332580,-0.00125596,-0.00042037,0.00449154,0.00133696,-0.0000835
 4,-0.00014628,-0.00008618,0.00032189,-0.00066587,-0.00053550,0.0000545
 9,-0.00040196,-0.00007824,-0.00089857,0.00420431,0.00093746,0.00010674
 ,0.00003578,0.00013659,0.00452360,0.00608955,0.00353158,0.00059942,-0.
 00255087,-0.00029254,0.00131091,-0.02511894,0.00262308,-0.00167182,0.0
 1109607,0.00325563,-0.00066384,0.01013958,0.00073313,0.00108641,-0.002
 56974,0.00068312,0.00002434,0.00025422,-0.00193892,-0.00034379,0.00075
 955,-0.00009611,-0.00008529,0.00010289,0.00385533,0.00111948,-0.001890
 40,-0.00080736,0.00016835,-0.00136692,-0.04082810,0.00211470,-0.022612
 81,-0.00255514,-0.00044273,-0.00033678,-0.04834282,0.00299499,-0.06371
 634,0.07376827,-0.00753041,0.09619213,-0.06831074,-0.00320244,-0.00264
 072,0.01817601,0.00513722,-0.02376448,-0.00909642,-0.00092631,-0.00036
 979,-0.00601156,0.00027879,-0.00414101,-0.00004554,0.00021299,-0.00174
 529,-0.00256465,-0.00022253,0.00106201,-0.00019724,0.00000555,-0.00017
 964,-0.00410141,-0.00084571,0.00132586,-0.00007791,-0.00020387,0.00110
 637,0.01271427,-0.00236495,0.02265137,-0.00609116,0.00010954,-0.001157
 65,0.98199270,-0.00178873,-0.05212168,-0.00166248,0.00747578,0.0026769
 6,0.00086466,-0.00228224,-0.00363883,0.00016408,-0.00176707,0.00361953
 ,-0.00158778,-0.00005193,0.00028052,-0.00050605,-0.00049457,-0.0002352
 7,0.00161559,0.00005810,-0.00030179,-0.00061705,0.00038192,0.00534972,
 -0.00057315,0.00000287,0.00014140,-0.00030051,-0.00477388,0.00232927,0
 .00322936,0.00090480,-0.00211139,-0.00017923,-0.03785841,0.77102631,-0
 .00096854,0.00904250,-0.07791238,-0.03254822,-0.00159560,-0.00482461,0
 .00861403,0.00205833,-0.00809139,0.00469936,0.00026572,0.00433906,0.00
 045573,-0.00024061,0.00212993,0.00085936,0.00079401,-0.00443150,0.0000
 4795,-0.00070222,0.00422488,-0.00628013,-0.00051381,0.00246738,-0.0004
 0185,-0.00028688,0.00235071,0.03227167,0.00123490,0.00418599,-0.008984
 57,0.00008905,-0.00627216,0.06440388,0.05991677,0.37650235,-0.00474712
 ,-0.00327576,-0.00099900,0.00015313,0.00061585,-0.00396381,0.00092564,
 0.00010791,-0.00082550,-0.00047987,0.00009691,0.00051604,0.00008832,0.
 00008103,-0.00034232,0.00006252,-0.00012983,0.00034606,0.00022781,0.00
 012982,-0.00079609,0.00249395,0.00019985,0.00040958,0.00014299,0.00011
 249,-0.00075282,-0.01104740,0.00031960,-0.00665207,-0.00090189,-0.0012
 5611,0.01263095,-0.50365958,-0.04993299,-0.13216646,0.55996796,0.00131
 719,0.00677735,0.00332052,-0.00121182,0.00076375,-0.00002081,0.0004255
 5,0.00076076,-0.00016341,0.00022959,-0.00053276,0.00025366,0.00003347,
 -0.00013087,0.00003470,0.00016012,0.00007165,-0.00015996,0.00000949,0.
 00004543,0.00002506,0.00013943,-0.00064556,-0.00011059,0.00001093,0.00
 001437,-0.00003868,-0.00052224,-0.00038127,-0.00084433,-0.00053470,0.0
 0163707,0.00171075,-0.04978147,-0.08715597,-0.01814740,0.06549636,0.07
 934403,-0.02919046,-0.00401414,-0.00965352,0.00760111,0.00182386,-0.00
 833516,-0.00156870,-0.00046625,0.00130210,-0.00299983,0.00018236,-0.00
 098138,-0.00004887,0.00013093,-0.00087258,-0.00032192,-0.00034330,0.00
 139493,0.00003031,0.00018075,-0.00111391,0.00066752,0.00013103,0.00001
 378,0.00003860,0.00000025,-0.00013146,-0.00333229,-0.00023412,0.002483
 75,0.00941361,0.00129873,-0.01085113,-0.14632812,-0.01817363,-0.120615
 08,0.15420817,0.01863321,0.11631379,0.00043714,0.01316003,0.00583499,-
 0.00943196,-0.00209777,0.00534360,0.00130809,-0.00149873,-0.00667310,0
 .00210495,-0.00058140,0.00038617,0.00009051,-0.00009066,0.00065740,0.0
 0021984,-0.00001222,-0.00054066,0.00016763,0.00000167,0.00074105,-0.00
 021076,-0.00043144,-0.00027784,0.00004716,-0.00004470,0.00027291,0.000
 89780,-0.00075655,0.00174860,0.00038221,0.00011189,0.00045277,-0.26179
 466,0.19465185,0.06366445,-0.02366334,0.03112629,0.00915930,0.27521117
 ,0.00658621,0.00165711,0.00177923,0.00239542,0.00061321,-0.00138236,-0
 .00217220,-0.00023104,-0.00077938,-0.00065677,0.00011287,-0.00033890,-
 0.00004120,-0.00003401,-0.00023139,-0.00022811,-0.00016484,0.00026931,
 -0.00006391,0.00010439,-0.00056520,0.00121195,-0.00041651,0.00016817,-
 0.00003836,0.00002242,-0.00032492,-0.00146530,0.00021263,-0.00405637,0
 .00022009,0.00023986,-0.00013300,0.19955591,-0.30822188,-0.07474398,-0
 .00216429,0.01014924,-0.00414926,-0.23088181,0.32447251,0.02223797,-0.
 02040313,-0.01173721,0.00363557,0.00062827,-0.00058151,-0.00440516,-0.
 00284582,-0.00357893,-0.00077541,0.00047324,0.00079212,-0.00006350,-0.
 00003276,-0.00023728,0.00099476,-0.00038695,0.00105792,-0.00007313,0.0
 0016224,-0.00136849,0.00151365,0.00202801,-0.00092977,0.00003483,0.000
 22981,-0.00067449,-0.00785355,-0.00036033,-0.00543485,0.00209321,-0.00
 072981,0.00103667,0.07644550,-0.08563207,-0.10404174,-0.01149472,0.005
 10486,0.01661425,-0.08203009,0.09580405,0.09350527,0.00827339,-0.00693
 727,0.00120742,-0.00526432,-0.00057695,0.00338329,0.00194407,0.0006222
 8,-0.00141084,0.00114929,0.00030471,0.00088267,0.00000202,-0.00004634,
 0.00042224,0.00047101,0.00011233,-0.00038739,0.00009134,-0.00010280,0.
 00042977,0.00022101,0.00043792,-0.00028326,0.00003007,-0.00003914,0.00
 001256,-0.00088700,0.00024274,-0.00053932,0.00081327,0.00007787,0.0002
 8115,-0.13040708,-0.11817136,0.01036034,-0.02085001,-0.04329359,0.0022
 1624,0.01171609,0.02380705,-0.00026427,0.56006093,-0.00674787,-0.00710
 800,0.00152578,-0.00554079,-0.00069153,0.00206486,0.00272359,0.0004417
 5,-0.00068187,0.00114949,0.00072301,0.00081984,0.00007827,-0.00012658,
 0.00039447,0.00004427,-0.00001373,-0.00110761,0.00005617,-0.00020176,0
 .00108046,-0.00124130,0.00006632,0.00071051,0.00004384,-0.00005001,0.0
 0050862,0.00378810,-0.00048894,0.00364894,-0.00075778,-0.00009345,0.00
 009093,-0.06367690,-0.31528661,0.02440526,-0.00539846,-0.00486469,0.00
 424785,-0.00582721,-0.03285165,0.00510847,0.11014150,0.38422013,0.0111
 7815,0.01809594,-0.00050935,0.00215256,0.00045070,-0.00064944,-0.00209
 880,0.00126928,-0.00083599,-0.00031136,-0.00082296,0.00093648,-0.00008
 426,0.00001551,-0.00007166,0.00096601,-0.00005813,0.00078795,-0.000037
 05,0.00026330,-0.00117524,0.00089626,-0.00110578,-0.00102088,0.0000477
 3,-0.00003097,-0.00047084,-0.00584190,0.00050215,-0.00368333,0.0016605
 2,0.00055003,0.00099629,0.00928450,0.03951371,-0.06858369,-0.00782639,
 -0.00775169,0.00901579,-0.00043864,-0.01117318,0.01881599,0.01094587,-
 0.04342336,0.05512307,0.00119860,0.00050538,0.00030423,0.00004754,-0.0
 0051191,0.00062729,-0.00214934,0.00216820,-0.00275206,-0.00014974,-0.0
 0007776,0.00021116,0.00000441,0.00000436,0.00001545,0.00010281,0.00003
 375,0.00003085,-0.00000876,0.00000498,-0.00006507,0.00010892,-0.000060
 54,-0.00003475,0.00000278,0.00002123,-0.00004716,-0.00046048,-0.000091
 30,-0.00049373,0.00019275,0.00003678,0.00006575,-0.02052501,0.01364584
 ,-0.00402702,0.00128689,-0.00360460,0.00045534,0.00251813,0.00393534,0
 .00000434,-0.42736408,-0.02883493,-0.02049320,0.44519459,0.00141412,-0
 .00175257,0.00045101,-0.00094562,-0.00031359,0.00090514,0.00085392,-0.
 00048201,0.00071586,0.00033353,0.00001577,-0.00006746,-0.00001328,0.00
 001624,0.00006806,-0.00002338,0.00000249,0.00007394,0.00001669,0.00002
 291,-0.00012773,0.00010428,0.00010059,-0.00003561,0.00000826,0.0000072
 6,-0.00001877,-0.00002377,0.00009081,-0.00017710,0.00007801,-0.0000312
 0,0.00006834,-0.04621740,-0.01635029,-0.00157605,-0.00500239,-0.005852
 54,0.00075172,0.00317079,0.00433567,0.00085189,0.03342106,-0.02367426,
 0.00370546,0.01282517,0.04386471,-0.00188292,0.00183231,-0.00138619,0.
 00222733,0.00076720,-0.00179630,-0.00210964,0.00054465,-0.00066508,-0.
 00039583,-0.00010081,-0.00001235,0.00000496,0.00005007,-0.00014105,-0.
 00015760,0.00008650,-0.00026313,-0.00002788,-0.00002521,0.00009742,-0.
 00011313,-0.00020907,0.00036489,0.00000989,0.00002004,-0.00000289,0.00
 017550,0.00007196,-0.00015444,-0.00012748,0.00000516,0.00013496,0.0040
 4721,0.00392778,-0.00142776,-0.00229162,-0.00184588,0.00541582,0.00169
 910,-0.00014283,-0.00323793,-0.02725648,0.00060684,-0.00867515,0.02619
 858,-0.00558871,0.01174919\\0.00001454,0.00002705,-0.00009287,0.000069
 60,-0.00001000,0.00005404,-0.00004681,0.00000428,-0.00000301,-0.000035
 70,0.00000557,-0.00000875,-0.00000434,0.00000459,0.00000361,-0.0000417
 9,-0.00000687,0.00001353,-0.00001031,0.00000083,0.00000146,0.00004101,
 -0.00000555,0.00004182,-0.00001463,-0.00000426,-0.00002419,-0.00003419
 ,0.00001845,-0.00003503,0.00001039,-0.00001254,-0.00001036,-0.00007507
 ,-0.00011701,0.00001796,0.00010786,0.00002750,0.00002471,0.00000650,0.
 00004148,-0.00000547,-0.00000644,0.00004085,0.00000631,0.00001938,-0.0
 0001438,0.00001623\\\@
 The archive entry for this job was punched.


 THERE ARE PEOPLE SO ADDICTED TO EXAGERATING THEY
 CAN'T TELL THE TRUTH WITHOUT LYING. -- FORTUNE COOKIE
 Job cpu time:       0 days  0 hours 54 minutes 30.4 seconds.
 Elapsed time:       0 days  0 hours  4 minutes 57.5 seconds.
 File lengths (MBytes):  RWF=    156 Int=      0 D2E=      0 Chk=      7 Scr=      1
 Normal termination of Gaussian 16 at Fri May 20 15:17:48 2022.
