 Entering Gaussian System, Link 0=g16
 AtFile(1): /home/561/yj5695/Basis/6-31pGd.gbs
 Initial command:
 /apps/gaussian/g16c01/g16/l1.exe "/jobfs/49768861.gadi-pbs/Gau-468939.inp" -scrdir="/jobfs/49768861.gadi-pbs/"
 Entering Link 1 = /apps/gaussian/g16c01/g16/l1.exe PID=    468940.
  
 Copyright (c) 1988-2019, Gaussian, Inc.  All Rights Reserved.
  
 This is part of the Gaussian(R) 16 program.  It is based on
 the Gaussian(R) 09 system (copyright 2009, Gaussian, Inc.),
 the Gaussian(R) 03 system (copyright 2003, Gaussian, Inc.),
 the Gaussian(R) 98 system (copyright 1998, Gaussian, Inc.),
 the Gaussian(R) 94 system (copyright 1995, Gaussian, Inc.),
 the Gaussian 92(TM) system (copyright 1992, Gaussian, Inc.),
 the Gaussian 90(TM) system (copyright 1990, Gaussian, Inc.),
 the Gaussian 88(TM) system (copyright 1988, Gaussian, Inc.),
 the Gaussian 86(TM) system (copyright 1986, Carnegie Mellon
 University), and the Gaussian 82(TM) system (copyright 1983,
 Carnegie Mellon University). Gaussian is a federally registered
 trademark of Gaussian, Inc.
  
 This software contains proprietary and confidential information,
 including trade secrets, belonging to Gaussian, Inc.
  
 This software is provided under written license and may be
 used, copied, transmitted, or stored only in accord with that
 written license.
  
 The following legend is applicable only to US Government
 contracts under FAR:
  
                    RESTRICTED RIGHTS LEGEND
  
 Use, reproduction and disclosure by the US Government is
 subject to restrictions as set forth in subparagraphs (a)
 and (c) of the Commercial Computer Software - Restricted
 Rights clause in FAR 52.227-19.
  
 Gaussian, Inc.
 340 Quinnipiac St., Bldg. 40, Wallingford CT 06492
  
  
 ---------------------------------------------------------------
 Warning -- This program may not be used in any manner that
 competes with the business of Gaussian, Inc. or will provide
 assistance to any competitor of Gaussian, Inc.  The licensee
 of this program is prohibited from giving any competitor of
 Gaussian, Inc. access to this program.  By using this program,
 the user acknowledges that Gaussian, Inc. is engaged in the
 business of creating and licensing software in the field of
 computational chemistry and represents and warrants to the
 licensee that it is not a competitor of Gaussian, Inc. and that
 it will not use this program in any manner prohibited above.
 ---------------------------------------------------------------
  

 Cite this work as:
 Gaussian 16, Revision C.01,
 M. J. Frisch, G. W. Trucks, H. B. Schlegel, G. E. Scuseria, 
 M. A. Robb, J. R. Cheeseman, G. Scalmani, V. Barone, 
 G. A. Petersson, H. Nakatsuji, X. Li, M. Caricato, A. V. Marenich, 
 J. Bloino, B. G. Janesko, R. Gomperts, B. Mennucci, H. P. Hratchian, 
 J. V. Ortiz, A. F. Izmaylov, J. L. Sonnenberg, D. Williams-Young, 
 F. Ding, F. Lipparini, F. Egidi, J. Goings, B. Peng, A. Petrone, 
 T. Henderson, D. Ranasinghe, V. G. Zakrzewski, J. Gao, N. Rega, 
 G. Zheng, W. Liang, M. Hada, M. Ehara, K. Toyota, R. Fukuda, 
 J. Hasegawa, M. Ishida, T. Nakajima, Y. Honda, O. Kitao, H. Nakai, 
 T. Vreven, K. Throssell, J. A. Montgomery, Jr., J. E. Peralta, 
 F. Ogliaro, M. J. Bearpark, J. J. Heyd, E. N. Brothers, K. N. Kudin, 
 V. N. Staroverov, T. A. Keith, R. Kobayashi, J. Normand, 
 K. Raghavachari, A. P. Rendell, J. C. Burant, S. S. Iyengar, 
 J. Tomasi, M. Cossi, J. M. Millam, M. Klene, C. Adamo, R. Cammi, 
 J. W. Ochterski, R. L. Martin, K. Morokuma, O. Farkas, 
 J. B. Foresman, and D. J. Fox, Gaussian, Inc., Wallingford CT, 2019.
 
 ******************************************
 Gaussian 16:  ES64L-G16RevC.01  3-Jul-2019
                 1-Jul-2022 
 ******************************************
 %nproc=16
 Will use up to   16 processors via shared memory.
 %mem=50gb
 --------------------------------------------------
 #M062X/gen 6D INT(grid=ultrafine) OPT Freq=noraman
 --------------------------------------------------
 1/18=20,19=15,26=4,38=1/1,3;
 2/9=110,12=2,17=6,18=5,40=1/2;
 3/5=7,8=2,11=2,25=1,30=1,71=1,74=-55,75=-5/1,2,3;
 4//1;
 5/5=2,38=5/2;
 6/7=2,8=2,9=2,10=2,28=1/1;
 7//1,2,3,16;
 1/18=20,19=15,26=4/3(2);
 2/9=110/2;
 99//99;
 2/9=110/2;
 3/5=7,6=1,8=2,11=2,25=1,30=1,71=1,74=-55,75=-5,82=7/1,2,3;
 4/5=5,16=3,69=1/1;
 5/5=2,38=5/2;
 7//1,2,3,16;
 1/18=20,19=15,26=4/3(-5);
 2/9=110/2;
 6/7=2,8=2,9=2,10=2,19=2,28=1/1;
 99/9=1/99;
 ---------
 A.31.freq
 ---------
 Symbolic Z-matrix:
 Charge = -1 Multiplicity = 1
 C                    -1.43747   0.61036  -0.85326 
 C                    -2.5431    0.52827  -1.71406 
 Cl                   -4.16991   0.5541   -1.09198 
 C                    -2.39555   0.4329   -3.08733 
 H                    -3.26516   0.38902  -3.73481 
 C                    -1.11968   0.40607  -3.66575 
 C                    -0.02387   0.4639   -2.78982 
 S                     1.58267   0.24219  -3.44739 
 C                    -0.16762   0.56943  -1.40858 
 H                     0.70339   0.6177   -0.76163 
 S                    -1.59251   0.77807   0.95303 
 O                    -2.27457  -0.48657   1.34641 
 O                    -0.18133   0.87261   1.39987 
 N                    -2.34143   2.0936    1.3124 
 H                    -3.34352   1.94351   1.18057 
 N                    -1.03741   0.36974  -5.05828 
 C                     0.09466   0.60213  -5.61989 
 N                     1.29051   0.84454  -4.97775 
 O                     2.57172   1.10083  -2.80573 
 O                     1.89297  -1.18361  -3.52901 
 H                     0.15644   0.67008  -6.70218 
 H                     2.12024   0.99591  -5.55614 
 

 GradGradGradGradGradGradGradGradGradGradGradGradGradGradGradGradGradGrad
 Berny optimization.
 Initialization pass.
                           ----------------------------
                           !    Initial Parameters    !
                           ! (Angstroms and Degrees)  !
 --------------------------                            --------------------------
 ! Name  Definition              Value          Derivative Info.                !
 --------------------------------------------------------------------------------
 ! R1    R(1,2)                  1.4036         estimate D2E/DX2                !
 ! R2    R(1,9)                  1.3866         estimate D2E/DX2                !
 ! R3    R(1,11)                 1.8207         estimate D2E/DX2                !
 ! R4    R(2,3)                  1.7419         estimate D2E/DX2                !
 ! R5    R(2,4)                  1.3845         estimate D2E/DX2                !
 ! R6    R(4,5)                  1.0851         estimate D2E/DX2                !
 ! R7    R(4,6)                  1.4011         estimate D2E/DX2                !
 ! R8    R(6,7)                  1.4041         estimate D2E/DX2                !
 ! R9    R(6,16)                 1.3954         estimate D2E/DX2                !
 ! R10   R(7,8)                  1.75           estimate D2E/DX2                !
 ! R11   R(7,9)                  1.3927         estimate D2E/DX2                !
 ! R12   R(8,18)                 1.6704         estimate D2E/DX2                !
 ! R13   R(8,19)                 1.4585         estimate D2E/DX2                !
 ! R14   R(8,20)                 1.4615         estimate D2E/DX2                !
 ! R15   R(9,10)                 1.0861         estimate D2E/DX2                !
 ! R16   R(11,12)                1.4897         estimate D2E/DX2                !
 ! R17   R(11,13)                1.4833         estimate D2E/DX2                !
 ! R18   R(11,14)                1.5558         estimate D2E/DX2                !
 ! R19   R(14,15)                1.0218         estimate D2E/DX2                !
 ! R20   R(16,17)                1.2849         estimate D2E/DX2                !
 ! R21   R(17,18)                1.3788         estimate D2E/DX2                !
 ! R22   R(17,21)                1.0862         estimate D2E/DX2                !
 ! R23   R(18,22)                1.0227         estimate D2E/DX2                !
 ! A1    A(2,1,9)              118.2975         estimate D2E/DX2                !
 ! A2    A(2,1,11)             123.1434         estimate D2E/DX2                !
 ! A3    A(9,1,11)             118.558          estimate D2E/DX2                !
 ! A4    A(1,2,3)              121.0495         estimate D2E/DX2                !
 ! A5    A(1,2,4)              121.8967         estimate D2E/DX2                !
 ! A6    A(3,2,4)              117.0524         estimate D2E/DX2                !
 ! A7    A(2,4,5)              120.6147         estimate D2E/DX2                !
 ! A8    A(2,4,6)              120.5216         estimate D2E/DX2                !
 ! A9    A(5,4,6)              118.8601         estimate D2E/DX2                !
 ! A10   A(4,6,7)              116.8949         estimate D2E/DX2                !
 ! A11   A(4,6,16)             117.7851         estimate D2E/DX2                !
 ! A12   A(7,6,16)             125.283          estimate D2E/DX2                !
 ! A13   A(6,7,8)              118.4794         estimate D2E/DX2                !
 ! A14   A(6,7,9)              122.7709         estimate D2E/DX2                !
 ! A15   A(8,7,9)              118.4906         estimate D2E/DX2                !
 ! A16   A(7,8,18)              97.9324         estimate D2E/DX2                !
 ! A17   A(7,8,19)             112.4977         estimate D2E/DX2                !
 ! A18   A(7,8,20)             109.8465         estimate D2E/DX2                !
 ! A19   A(18,8,19)            108.0219         estimate D2E/DX2                !
 ! A20   A(18,8,20)            109.7411         estimate D2E/DX2                !
 ! A21   A(19,8,20)            117.0611         estimate D2E/DX2                !
 ! A22   A(1,9,7)              119.6021         estimate D2E/DX2                !
 ! A23   A(1,9,10)             119.6428         estimate D2E/DX2                !
 ! A24   A(7,9,10)             120.755          estimate D2E/DX2                !
 ! A25   A(1,11,12)            102.8718         estimate D2E/DX2                !
 ! A26   A(1,11,13)            102.9282         estimate D2E/DX2                !
 ! A27   A(1,11,14)            110.3672         estimate D2E/DX2                !
 ! A28   A(12,11,13)           114.2149         estimate D2E/DX2                !
 ! A29   A(12,11,14)           115.8748         estimate D2E/DX2                !
 ! A30   A(13,11,14)           109.5413         estimate D2E/DX2                !
 ! A31   A(11,14,15)           108.5459         estimate D2E/DX2                !
 ! A32   A(6,16,17)            118.9083         estimate D2E/DX2                !
 ! A33   A(16,17,18)           126.3254         estimate D2E/DX2                !
 ! A34   A(16,17,21)           119.7983         estimate D2E/DX2                !
 ! A35   A(18,17,21)           113.8107         estimate D2E/DX2                !
 ! A36   A(8,18,17)            120.9957         estimate D2E/DX2                !
 ! A37   A(8,18,22)            115.4432         estimate D2E/DX2                !
 ! A38   A(17,18,22)           117.7936         estimate D2E/DX2                !
 ! D1    D(9,1,2,3)            179.2819         estimate D2E/DX2                !
 ! D2    D(9,1,2,4)             -1.1655         estimate D2E/DX2                !
 ! D3    D(11,1,2,3)            -1.1099         estimate D2E/DX2                !
 ! D4    D(11,1,2,4)           178.4427         estimate D2E/DX2                !
 ! D5    D(2,1,9,7)              0.6858         estimate D2E/DX2                !
 ! D6    D(2,1,9,10)          -179.173          estimate D2E/DX2                !
 ! D7    D(11,1,9,7)          -178.9407         estimate D2E/DX2                !
 ! D8    D(11,1,9,10)            1.2005         estimate D2E/DX2                !
 ! D9    D(2,1,11,12)           63.0336         estimate D2E/DX2                !
 ! D10   D(2,1,11,13)         -178.0109         estimate D2E/DX2                !
 ! D11   D(2,1,11,14)          -61.1844         estimate D2E/DX2                !
 ! D12   D(9,1,11,12)         -117.3592         estimate D2E/DX2                !
 ! D13   D(9,1,11,13)            1.5963         estimate D2E/DX2                !
 ! D14   D(9,1,11,14)          118.4228         estimate D2E/DX2                !
 ! D15   D(1,2,4,5)           -178.8638         estimate D2E/DX2                !
 ! D16   D(1,2,4,6)              0.4388         estimate D2E/DX2                !
 ! D17   D(3,2,4,5)              0.7057         estimate D2E/DX2                !
 ! D18   D(3,2,4,6)           -179.9916         estimate D2E/DX2                !
 ! D19   D(2,4,6,7)              0.7337         estimate D2E/DX2                !
 ! D20   D(2,4,6,16)          -177.1698         estimate D2E/DX2                !
 ! D21   D(5,4,6,7)           -179.9515         estimate D2E/DX2                !
 ! D22   D(5,4,6,16)             2.1449         estimate D2E/DX2                !
 ! D23   D(4,6,7,8)            172.8392         estimate D2E/DX2                !
 ! D24   D(4,6,7,9)             -1.2202         estimate D2E/DX2                !
 ! D25   D(16,6,7,8)            -9.433          estimate D2E/DX2                !
 ! D26   D(16,6,7,9)           176.5077         estimate D2E/DX2                !
 ! D27   D(4,6,16,17)          166.7744         estimate D2E/DX2                !
 ! D28   D(7,6,16,17)          -10.935          estimate D2E/DX2                !
 ! D29   D(6,7,8,18)            29.3251         estimate D2E/DX2                !
 ! D30   D(6,7,8,19)           142.6416         estimate D2E/DX2                !
 ! D31   D(6,7,8,20)           -85.0596         estimate D2E/DX2                !
 ! D32   D(9,7,8,18)          -156.3575         estimate D2E/DX2                !
 ! D33   D(9,7,8,19)           -43.041          estimate D2E/DX2                !
 ! D34   D(9,7,8,20)            89.2578         estimate D2E/DX2                !
 ! D35   D(6,7,9,1)              0.5117         estimate D2E/DX2                !
 ! D36   D(6,7,9,10)          -179.631          estimate D2E/DX2                !
 ! D37   D(8,7,9,1)           -173.5469         estimate D2E/DX2                !
 ! D38   D(8,7,9,10)             6.3103         estimate D2E/DX2                !
 ! D39   D(7,8,18,17)          -37.8934         estimate D2E/DX2                !
 ! D40   D(7,8,18,22)          169.4585         estimate D2E/DX2                !
 ! D41   D(19,8,18,17)        -154.7403         estimate D2E/DX2                !
 ! D42   D(19,8,18,22)          52.6115         estimate D2E/DX2                !
 ! D43   D(20,8,18,17)          76.5748         estimate D2E/DX2                !
 ! D44   D(20,8,18,22)         -76.0734         estimate D2E/DX2                !
 ! D45   D(1,11,14,15)          79.0575         estimate D2E/DX2                !
 ! D46   D(12,11,14,15)        -37.3126         estimate D2E/DX2                !
 ! D47   D(13,11,14,15)       -168.2986         estimate D2E/DX2                !
 ! D48   D(6,16,17,18)           2.6012         estimate D2E/DX2                !
 ! D49   D(6,16,17,21)        -174.2614         estimate D2E/DX2                !
 ! D50   D(16,17,18,8)          26.7672         estimate D2E/DX2                !
 ! D51   D(16,17,18,22)        178.7979         estimate D2E/DX2                !
 ! D52   D(21,17,18,8)        -156.2086         estimate D2E/DX2                !
 ! D53   D(21,17,18,22)         -4.1779         estimate D2E/DX2                !
 --------------------------------------------------------------------------------
 Trust Radius=3.00D-01 FncErr=1.00D-07 GrdErr=1.00D-06 EigMax=2.50D+02 EigMin=1.00D-04
 Number of steps in this run=    124 maximum allowed number of steps=    132.
 GradGradGradGradGradGradGradGradGradGradGradGradGradGradGradGradGradGrad

                          Input orientation:                          
 ---------------------------------------------------------------------
 Center     Atomic      Atomic             Coordinates (Angstroms)
 Number     Number       Type             X           Y           Z
 ---------------------------------------------------------------------
      1          6           0       -1.437466    0.610361   -0.853259
      2          6           0       -2.543102    0.528270   -1.714060
      3         17           0       -4.169914    0.554104   -1.091976
      4          6           0       -2.395547    0.432905   -3.087326
      5          1           0       -3.265162    0.389017   -3.734809
      6          6           0       -1.119678    0.406071   -3.665748
      7          6           0       -0.023871    0.463896   -2.789821
      8         16           0        1.582669    0.242193   -3.447388
      9          6           0       -0.167623    0.569434   -1.408584
     10          1           0        0.703385    0.617698   -0.761634
     11         16           0       -1.592509    0.778068    0.953026
     12          8           0       -2.274570   -0.486570    1.346406
     13          8           0       -0.181328    0.872615    1.399867
     14          7           0       -2.341430    2.093602    1.312400
     15          1           0       -3.343518    1.943506    1.180568
     16          7           0       -1.037407    0.369740   -5.058284
     17          6           0        0.094660    0.602129   -5.619894
     18          7           0        1.290511    0.844539   -4.977750
     19          8           0        2.571723    1.100832   -2.805730
     20          8           0        1.892973   -1.183614   -3.529014
     21          1           0        0.156444    0.670078   -6.702176
     22          1           0        2.120245    0.995909   -5.556140
 ---------------------------------------------------------------------
                    Distance matrix (angstroms):
                    1          2          3          4          5
     1  C    0.000000
     2  C    1.403619   0.000000
     3  Cl   2.743432   1.741888   0.000000
     4  C    2.437306   1.384459   2.672917   0.000000
     5  H    3.419473   2.150393   2.798285   1.085076   0.000000
     6  C    2.837749   2.418710   3.993765   1.401119   2.146663
     7  C    2.402076   2.740060   4.481125   2.390463   3.377066
     8  S    3.998282   4.484222   6.223942   3.999027   4.858562
     9  C    1.386564   2.395393   4.014823   2.792930   3.877965
    10  H    2.142824   3.384493   4.884897   3.878965   4.964013
    11  S    1.820668   2.842424   3.297758   4.133818   4.992487
    12  O    2.596638   3.235500   3.258993   4.529685   5.250398
    13  O    2.592921   3.923403   4.713761   5.023048   6.009060
    14  N    2.776191   3.413267   3.390344   4.703024   5.406775
    15  H    3.089783   3.320004   2.788875   4.625524   5.155919
    16  N    4.230860   3.670979   5.057488   2.394412   2.591303
    17  C    5.006823   4.713680   6.220204   3.555794   3.858414
    18  N    4.950568   5.044630   6.708192   4.162953   4.744108
    19  O    4.486234   5.261274   6.977502   5.019880   5.953074
    20  O    4.633555   5.089535   6.761465   4.604305   5.396468
    21  H    6.062503   5.673532   7.085560   4.431258   4.537802
    22  H    5.909572   6.060286   7.725933   5.177296   5.717357
                    6          7          8          9         10
     6  C    0.000000
     7  C    1.404060   0.000000
     8  S    2.716103   1.750005   0.000000
     9  C    2.455175   1.392701   2.706904   0.000000
    10  H    3.435436   2.160115   2.850862   1.086062   0.000000
    11  S    4.657792   4.070409   5.452757   2.766050   2.870002
    12  O    5.220372   4.803895   6.195954   3.625513   3.812016
    13  O    5.172874   4.212521   5.196633   2.824802   2.349424
    14  N    5.396518   4.985503   6.440640   3.801616   3.968730
    15  H    5.549410   5.382683   6.969917   4.321815   4.680528
    16  N    1.395437   2.486372   3.078319   3.757220   4.642525
    17  C    2.309056   2.835925   2.657726   4.219596   4.896271
    18  N    2.778959   2.580606   1.670385   3.865331   4.262840
    19  O    3.853409   2.672649   1.458497   3.120644   2.811126
    20  O    3.409084   2.633436   1.461464   3.437361   3.509734
    21  H    3.304252   3.921932   3.579225   5.304457   5.965897
    22  H    3.797182   3.540169   2.303022   4.755885   5.013763
                   11         12         13         14         15
    11  S    0.000000
    12  O    1.489720   0.000000
    13  O    1.483252   2.496378   0.000000
    14  N    1.555848   2.581262   2.482841   0.000000
    15  H    2.115668   2.659966   3.345795   1.021806   0.000000
    16  N    6.050679   6.579050   6.534024   6.727391   6.835068
    17  C    6.788282   7.438269   7.030390   7.497715   7.737353
    18  N    6.594720   7.380827   6.545312   7.370017   7.785039
    19  O    5.619008   6.576218   5.031742   6.487192   7.182669
    20  O    6.007118   6.451667   5.729282   7.218698   7.705833
    21  H    7.853192   8.486892   8.111610   8.514648   8.718314
    22  H    7.496749   8.316086   7.327924   8.263675   8.725472
                   16         17         18         19         20
    16  N    0.000000
    17  C    1.284907   0.000000
    18  N    2.377209   1.378830   0.000000
    19  O    4.316748   3.782071   2.534731   0.000000
    20  O    3.652218   3.285511   2.564215   2.490489   0.000000
    21  H    2.053744   1.086172   2.071277   4.604499   4.064561
    22  H    3.257409   2.064491   1.022695   2.789193   2.985165
                   21         22
    21  H    0.000000
    22  H    2.296972   0.000000
 Stoichiometry    C7H5ClN3O4S2(1-)
 Framework group  C1[X(C7H5ClN3O4S2)]
 Deg. of freedom    60
 Full point group                 C1      NOp   1
 Largest Abelian subgroup         C1      NOp   1
 Largest concise Abelian subgroup C1      NOp   1
                         Standard orientation:                         
 ---------------------------------------------------------------------
 Center     Atomic      Atomic             Coordinates (Angstroms)
 Number     Number       Type             X           Y           Z
 ---------------------------------------------------------------------
      1          6           0        1.200119   -0.108335   -0.005337
      2          6           0        1.181351    1.294063    0.050112
      3         17           0        2.661346    2.210750    0.109042
      4          6           0       -0.003423    2.010327    0.051378
      5          1           0        0.006670    3.095071    0.076297
      6          6           0       -1.236387    1.346357    0.005791
      7          6           0       -1.201334   -0.056945   -0.024196
      8         16           0       -2.710595   -0.932451    0.110477
      9          6           0       -0.011846   -0.781248   -0.035190
     10          1           0       -0.022907   -1.866856   -0.064547
     11         16           0        2.737734   -1.082274   -0.050222
     12          8           0        3.376068   -0.755057    1.255428
     13          8           0        2.244119   -2.477167   -0.153448
     14          7           0        3.566157   -0.728186   -1.318685
     15          1           0        4.058066    0.151489   -1.150497
     16          7           0       -2.392875    2.125150   -0.051324
     17          6           0       -3.507702    1.560666   -0.350494
     18          7           0       -3.705965    0.216052   -0.582608
     19          8           0       -2.741865   -2.123483   -0.730760
     20          8           0       -3.060768   -1.103903    1.518972
     21          1           0       -4.398639    2.165913   -0.490770
     22          1           0       -4.656594   -0.096311   -0.793885
 ---------------------------------------------------------------------
 Rotational constants (GHZ):           0.6684649           0.2422926           0.1919974
 General basis read from cards:  (6D, 7F)
 There are   345 symmetry adapted cartesian basis functions of A   symmetry.
 There are   345 symmetry adapted basis functions of A   symmetry.
   345 basis functions,   636 primitive gaussians,   345 cartesian basis functions
    75 alpha electrons       75 beta electrons
       nuclear repulsion energy      1680.6460284002 Hartrees.
 NAtoms=   22 NActive=   22 NUniq=   22 SFac= 1.00D+00 NAtFMM=   60 NAOKFM=F Big=F
 Integral buffers will be    131072 words long.
 Raffenetti 2 integral format.
 Two-electron integral symmetry is turned on.
 One-electron integrals computed using PRISM.
 NBasis=   345 RedAO= T EigKep=  2.13D-06  NBF=   345
 NBsUse=   343 1.00D-06 EigRej=  7.69D-07 NBFU=   343
 ExpMin= 4.05D-02 ExpMax= 2.52D+04 ExpMxC= 3.78D+03 IAcc=3 IRadAn=         5 AccDes= 0.00D+00
 Harris functional with IExCor= 1009 and IRadAn=       5 diagonalized for initial guess.
 HarFok:  IExCor= 1009 AccDes= 0.00D+00 IRadAn=         5 IDoV= 1 UseB2=F ITyADJ=14
 ICtDFT=  3500011 ScaDFX=  1.000000  1.000000  1.000000  1.000000
 FoFCou: FMM=F IPFlag=           0 FMFlag=      100000 FMFlg1=           0
         NFxFlg=           0 DoJE=T BraDBF=F KetDBF=T FulRan=T
         wScrn=  0.000000 ICntrl=       500 IOpCl=  0 I1Cent=   200000004 NGrid=           0
         NMat0=    1 NMatS0=      1 NMatT0=    0 NMatD0=    1 NMtDS0=    0 NMtDT0=    0
 Petite list used in FoFCou.
 Requested convergence on RMS density matrix=1.00D-08 within 128 cycles.
 Requested convergence on MAX density matrix=1.00D-06.
 Requested convergence on             energy=1.00D-06.
 No special actions if energy rises.
 SCF Done:  E(RM062X) =  -1991.03183446     A.U. after   17 cycles
            NFock= 17  Conv=0.58D-08     -V/T= 2.0051

 **********************************************************************

            Population analysis using the SCF Density.

 **********************************************************************

 Orbital symmetries:
       Occupied  (A) (A) (A) (A) (A) (A) (A) (A) (A) (A) (A) (A)
                 (A) (A) (A) (A) (A) (A) (A) (A) (A) (A) (A) (A)
                 (A) (A) (A) (A) (A) (A) (A) (A) (A) (A) (A) (A)
                 (A) (A) (A) (A) (A) (A) (A) (A) (A) (A) (A) (A)
                 (A) (A) (A) (A) (A) (A) (A) (A) (A) (A) (A) (A)
                 (A) (A) (A) (A) (A) (A) (A) (A) (A) (A) (A) (A)
                 (A) (A) (A)
       Virtual   (A) (A) (A) (A) (A) (A) (A) (A) (A) (A) (A) (A)
                 (A) (A) (A) (A) (A) (A) (A) (A) (A) (A) (A) (A)
                 (A) (A) (A) (A) (A) (A) (A) (A) (A) (A) (A) (A)
                 (A) (A) (A) (A) (A) (A) (A) (A) (A) (A) (A) (A)
                 (A) (A) (A) (A) (A) (A) (A) (A) (A) (A) (A) (A)
                 (A) (A) (A) (A) (A) (A) (A) (A) (A) (A) (A) (A)
                 (A) (A) (A) (A) (A) (A) (A) (A) (A) (A) (A) (A)
                 (A) (A) (A) (A) (A) (A) (A) (A) (A) (A) (A) (A)
                 (A) (A) (A) (A) (A) (A) (A) (A) (A) (A) (A) (A)
                 (A) (A) (A) (A) (A) (A) (A) (A) (A) (A) (A) (A)
                 (A) (A) (A) (A) (A) (A) (A) (A) (A) (A) (A) (A)
                 (A) (A) (A) (A) (A) (A) (A) (A) (A) (A) (A) (A)
                 (A) (A) (A) (A) (A) (A) (A) (A) (A) (A) (A) (A)
                 (A) (A) (A) (A) (A) (A) (A) (A) (A) (A) (A) (A)
                 (A) (A) (A) (A) (A) (A) (A) (A) (A) (A) (A) (A)
                 (A) (A) (A) (A) (A) (A) (A) (A) (A) (A) (A) (A)
                 (A) (A) (A) (A) (A) (A) (A) (A) (A) (A) (A) (A)
                 (A) (A) (A) (A) (A) (A) (A) (A) (A) (A) (A) (A)
                 (A) (A) (A) (A) (A) (A) (A) (A) (A) (A) (A) (A)
                 (A) (A) (A) (A) (A) (A) (A) (A) (A) (A) (A) (A)
                 (A) (A) (A) (A) (A) (A) (A) (A) (A) (A) (A) (A)
                 (A) (A) (A) (A) (A) (A) (A) (A) (A) (A) (A) (A)
                 (A) (A) (A) (A)
 The electronic state is 1-A.
 Alpha  occ. eigenvalues -- -102.57948 -90.09837 -89.98750 -19.57131 -19.56894
 Alpha  occ. eigenvalues --  -19.46319 -19.46228 -14.76334 -14.70469 -14.57210
 Alpha  occ. eigenvalues --  -10.58627 -10.53852 -10.53252 -10.51301 -10.48695
 Alpha  occ. eigenvalues --  -10.48624 -10.48264  -9.72585  -8.40850  -8.29531
 Alpha  occ. eigenvalues --   -7.44994  -7.44333  -7.44297  -6.33138  -6.32960
 Alpha  occ. eigenvalues --   -6.32879  -6.21741  -6.21719  -6.21621  -1.17459
 Alpha  occ. eigenvalues --   -1.05429  -1.05121  -1.04040  -0.95657  -0.93462
 Alpha  occ. eigenvalues --   -0.91084  -0.86317  -0.81377  -0.78644  -0.78146
 Alpha  occ. eigenvalues --   -0.70407  -0.68008  -0.62797  -0.59026  -0.57329
 Alpha  occ. eigenvalues --   -0.56190  -0.53259  -0.49244  -0.48226  -0.47279
 Alpha  occ. eigenvalues --   -0.46269  -0.44672  -0.42955  -0.42623  -0.40426
 Alpha  occ. eigenvalues --   -0.39230  -0.37943  -0.37243  -0.35548  -0.35145
 Alpha  occ. eigenvalues --   -0.34217  -0.31796  -0.30871  -0.30677  -0.29308
 Alpha  occ. eigenvalues --   -0.28856  -0.27667  -0.25716  -0.23421  -0.22366
 Alpha  occ. eigenvalues --   -0.22005  -0.21556  -0.19484  -0.17263  -0.14703
 Alpha virt. eigenvalues --    0.05348   0.06244   0.08268   0.09657   0.10504
 Alpha virt. eigenvalues --    0.11133   0.12007   0.13133   0.13205   0.13778
 Alpha virt. eigenvalues --    0.14554   0.15473   0.16360   0.16378   0.16892
 Alpha virt. eigenvalues --    0.17685   0.18461   0.18688   0.18985   0.19199
 Alpha virt. eigenvalues --    0.20087   0.20117   0.20763   0.21363   0.22303
 Alpha virt. eigenvalues --    0.22374   0.22750   0.23258   0.23709   0.24344
 Alpha virt. eigenvalues --    0.25097   0.25153   0.25748   0.26317   0.27330
 Alpha virt. eigenvalues --    0.27571   0.28926   0.29086   0.29478   0.29811
 Alpha virt. eigenvalues --    0.30361   0.30705   0.30981   0.31533   0.31981
 Alpha virt. eigenvalues --    0.32257   0.32690   0.33062   0.33687   0.33962
 Alpha virt. eigenvalues --    0.34181   0.35055   0.35613   0.36085   0.36385
 Alpha virt. eigenvalues --    0.37137   0.37285   0.37964   0.38365   0.38506
 Alpha virt. eigenvalues --    0.39258   0.39910   0.40229   0.40756   0.41053
 Alpha virt. eigenvalues --    0.41538   0.41922   0.42760   0.43055   0.43211
 Alpha virt. eigenvalues --    0.43841   0.44969   0.45211   0.45377   0.45578
 Alpha virt. eigenvalues --    0.46170   0.46859   0.47923   0.48763   0.49239
 Alpha virt. eigenvalues --    0.49652   0.51177   0.51502   0.51608   0.52137
 Alpha virt. eigenvalues --    0.53467   0.55045   0.56075   0.57749   0.60518
 Alpha virt. eigenvalues --    0.61521   0.63022   0.66048   0.69195   0.70405
 Alpha virt. eigenvalues --    0.74103   0.74969   0.75587   0.76276   0.77233
 Alpha virt. eigenvalues --    0.77805   0.79237   0.80117   0.81203   0.82044
 Alpha virt. eigenvalues --    0.83900   0.84002   0.84782   0.85712   0.87259
 Alpha virt. eigenvalues --    0.87991   0.88558   0.89484   0.91406   0.92151
 Alpha virt. eigenvalues --    0.93299   0.96307   0.97553   1.00932   1.01958
 Alpha virt. eigenvalues --    1.02353   1.02645   1.05232   1.05683   1.05977
 Alpha virt. eigenvalues --    1.07295   1.08624   1.10606   1.12221   1.13210
 Alpha virt. eigenvalues --    1.14878   1.15091   1.16246   1.16580   1.17547
 Alpha virt. eigenvalues --    1.18354   1.19013   1.20355   1.21313   1.22375
 Alpha virt. eigenvalues --    1.23639   1.24471   1.25226   1.26851   1.27602
 Alpha virt. eigenvalues --    1.27786   1.29945   1.32194   1.33071   1.35595
 Alpha virt. eigenvalues --    1.36080   1.36387   1.37560   1.38470   1.39365
 Alpha virt. eigenvalues --    1.40743   1.42301   1.44064   1.45047   1.46888
 Alpha virt. eigenvalues --    1.47344   1.49019   1.49665   1.50769   1.52510
 Alpha virt. eigenvalues --    1.52958   1.53352   1.55319   1.56779   1.57321
 Alpha virt. eigenvalues --    1.57750   1.58619   1.60336   1.60964   1.61966
 Alpha virt. eigenvalues --    1.62731   1.64448   1.65884   1.67436   1.68275
 Alpha virt. eigenvalues --    1.68871   1.70890   1.73660   1.75072   1.83742
 Alpha virt. eigenvalues --    1.86843   1.87534   1.90636   1.93045   1.93839
 Alpha virt. eigenvalues --    1.94244   1.95100   1.96267   1.96582   1.97774
 Alpha virt. eigenvalues --    1.98490   1.99766   2.00094   2.01621   2.03435
 Alpha virt. eigenvalues --    2.04588   2.05831   2.07558   2.09325   2.11902
 Alpha virt. eigenvalues --    2.13795   2.15084   2.16704   2.17123   2.19645
 Alpha virt. eigenvalues --    2.20213   2.21416   2.24311   2.26556   2.28037
 Alpha virt. eigenvalues --    2.28890   2.30848   2.31876   2.32809   2.35460
 Alpha virt. eigenvalues --    2.36468   2.38069   2.40587   2.41164   2.42936
 Alpha virt. eigenvalues --    2.44550   2.49058   2.51190   2.52064   2.53188
 Alpha virt. eigenvalues --    2.58353   2.62957   2.69509   2.72413   2.76290
 Alpha virt. eigenvalues --    2.77604   2.78192   2.79625   2.83430   2.87259
 Alpha virt. eigenvalues --    2.90066   2.91450   2.96609   3.00734   3.04623
 Alpha virt. eigenvalues --    3.07795   3.09535   3.12102   3.16515   3.36440
 Alpha virt. eigenvalues --    3.44016   4.10989   4.16725   4.20864   4.23339
 Alpha virt. eigenvalues --    4.29332   4.36103   4.38422   4.40532   4.42314
 Alpha virt. eigenvalues --    4.45333   4.48325   4.49306   4.50884   4.52837
 Alpha virt. eigenvalues --    4.58927   4.62811   4.84436
          Condensed to atoms (all electrons):
               1          2          3          4          5          6
     1  C   66.365344   2.172632   0.164868  -9.907158   0.024892   2.068874
     2  C    2.172632  58.209371  -1.130554 -23.153273  -0.047676  11.449611
     3  Cl   0.164868  -1.130554  17.167643   0.566793  -0.005823  -0.298405
     4  C   -9.907158 -23.153273   0.566793  40.903981   0.298735 -22.524312
     5  H    0.024892  -0.047676  -0.005823   0.298735   0.463768  -0.029168
     6  C    2.068874  11.449611  -0.298405 -22.524312  -0.029168  40.003184
     7  C  -18.278772  -9.311807   0.066885  -0.575507   0.068813  -9.160098
     8  S   -4.309670  -1.461342   0.006994   2.848857   0.001709  -1.667741
     9  C  -27.776264 -32.925516   0.291957  20.123470  -0.005365 -15.048551
    10  H   -0.130248   0.015168  -0.000739  -0.009559   0.000010  -0.020980
    11  S   -1.141125  -0.337072   0.044406   0.498164  -0.000523   0.553419
    12  O   -0.077610   0.559415  -0.070857  -0.116379   0.000010   0.238318
    13  O   -0.783633  -0.252840   0.007050   0.074664   0.000028   0.009788
    14  N    0.040124   0.276019  -0.026444  -0.092860  -0.000005   0.102543
    15  H   -0.110611  -0.069535   0.025294   0.026916  -0.000001   0.004862
    16  N    0.089979   0.165045  -0.003744  -0.380781  -0.005988  -0.243710
    17  C    0.496563   0.489945  -0.012460  -1.547623   0.001386   0.131654
    18  N   -0.479355   0.035012   0.000776  -0.033288   0.000010   0.013942
    19  O   -0.165295  -0.046281   0.000119   0.222118   0.000015   0.209524
    20  O   -0.102202   0.018271  -0.000505   0.072754   0.000010  -0.200407
    21  H    0.000105  -0.001615   0.000021   0.006075   0.000002   0.058945
    22  H    0.006084  -0.002121   0.000008  -0.000146  -0.000000  -0.018724
               7          8          9         10         11         12
     1  C  -18.278772  -4.309670 -27.776264  -0.130248  -1.141125  -0.077610
     2  C   -9.311807  -1.461342 -32.925516   0.015168  -0.337072   0.559415
     3  Cl   0.066885   0.006994   0.291957  -0.000739   0.044406  -0.070857
     4  C   -0.575507   2.848857  20.123470  -0.009559   0.498164  -0.116379
     5  H    0.068813   0.001709  -0.005365   0.000010  -0.000523   0.000010
     6  C   -9.160098  -1.667741 -15.048551  -0.020980   0.553419   0.238318
     7  C   34.773565  -1.006079  10.469785   0.037077  -1.625556  -0.331942
     8  S   -1.006079  17.817218   2.397763   0.032958  -0.136865  -0.021513
     9  C   10.469785   2.397763  49.660942   0.392718  -0.378991  -0.563789
    10  H    0.037077   0.032958   0.392718   0.389970  -0.019443  -0.000333
    11  S   -1.625556  -0.136865  -0.378991  -0.019443  16.112868   0.329844
    12  O   -0.331942  -0.021513  -0.563789  -0.000333   0.329844   8.877260
    13  O   -0.039705   0.000473   0.540409   0.002470   0.374479  -0.111798
    14  N   -0.040217  -0.002806  -0.435255  -0.000729   0.159261  -0.176097
    15  H   -0.014806  -0.000226   0.013781  -0.000019   0.146158  -0.012825
    16  N    0.565810  -0.153715  -0.113728  -0.000162  -0.006167  -0.000187
    17  C    0.889127  -0.715080  -0.534620  -0.000268  -0.012139   0.001186
    18  N    0.444114  -0.275387  -0.033961   0.001606  -0.012665  -0.000362
    19  O   -0.828142   0.326579   0.394466   0.004069   0.001623  -0.000282
    20  O   -0.056716   0.705236  -0.089161  -0.000015  -0.005724  -0.000132
    21  H   -0.024107  -0.014176   0.002632  -0.000000   0.000010   0.000000
    22  H    0.076425  -0.037192   0.006157  -0.000001   0.000082   0.000000
              13         14         15         16         17         18
     1  C   -0.783633   0.040124  -0.110611   0.089979   0.496563  -0.479355
     2  C   -0.252840   0.276019  -0.069535   0.165045   0.489945   0.035012
     3  Cl   0.007050  -0.026444   0.025294  -0.003744  -0.012460   0.000776
     4  C    0.074664  -0.092860   0.026916  -0.380781  -1.547623  -0.033288
     5  H    0.000028  -0.000005  -0.000001  -0.005988   0.001386   0.000010
     6  C    0.009788   0.102543   0.004862  -0.243710   0.131654   0.013942
     7  C   -0.039705  -0.040217  -0.014806   0.565810   0.889127   0.444114
     8  S    0.000473  -0.002806  -0.000226  -0.153715  -0.715080  -0.275387
     9  C    0.540409  -0.435255   0.013781  -0.113728  -0.534620  -0.033961
    10  H    0.002470  -0.000729  -0.000019  -0.000162  -0.000268   0.001606
    11  S    0.374479   0.159261   0.146158  -0.006167  -0.012139  -0.012665
    12  O   -0.111798  -0.176097  -0.012825  -0.000187   0.001186  -0.000362
    13  O    8.982804  -0.161323   0.022465  -0.000117  -0.000413  -0.000629
    14  N   -0.161323   7.876933   0.188787  -0.000056   0.000373  -0.000258
    15  H    0.022465   0.188787   0.433321  -0.000003  -0.000028  -0.000002
    16  N   -0.000117  -0.000056  -0.000003   6.907027   0.557931  -0.118891
    17  C   -0.000413   0.000373  -0.000028   0.557931   5.988989  -0.227195
    18  N   -0.000629  -0.000258  -0.000002  -0.118891  -0.227195   8.546413
    19  O   -0.000354  -0.000355  -0.000000  -0.019087  -0.016711  -0.059144
    20  O    0.000001   0.000070  -0.000000   0.031519  -0.057379  -0.195037
    21  H    0.000000   0.000000   0.000000  -0.075789   0.426525  -0.101596
    22  H    0.000000   0.000000   0.000000   0.005650  -0.001462   0.224453
              19         20         21         22
     1  C   -0.165295  -0.102202   0.000105   0.006084
     2  C   -0.046281   0.018271  -0.001615  -0.002121
     3  Cl   0.000119  -0.000505   0.000021   0.000008
     4  C    0.222118   0.072754   0.006075  -0.000146
     5  H    0.000015   0.000010   0.000002  -0.000000
     6  C    0.209524  -0.200407   0.058945  -0.018724
     7  C   -0.828142  -0.056716  -0.024107   0.076425
     8  S    0.326579   0.705236  -0.014176  -0.037192
     9  C    0.394466  -0.089161   0.002632   0.006157
    10  H    0.004069  -0.000015  -0.000000  -0.000001
    11  S    0.001623  -0.005724   0.000010   0.000082
    12  O   -0.000282  -0.000132   0.000000   0.000000
    13  O   -0.000354   0.000001   0.000000   0.000000
    14  N   -0.000355   0.000070   0.000000   0.000000
    15  H   -0.000000  -0.000000   0.000000   0.000000
    16  N   -0.019087   0.031519  -0.075789   0.005650
    17  C   -0.016711  -0.057379   0.426525  -0.001462
    18  N   -0.059144  -0.195037  -0.101596   0.224453
    19  O    8.713329  -0.200889  -0.000550  -0.007054
    20  O   -0.200889   8.522754  -0.000079  -0.001275
    21  H   -0.000550  -0.000079   0.521200  -0.000952
    22  H   -0.007054  -0.001275  -0.000952   0.278613
 Mulliken charges:
               1
     1  C   -2.167523
     2  C    1.349141
     3  Cl   0.206716
     4  C   -1.301642
     5  H    0.235161
     6  C    0.367432
     7  C   -0.098146
     8  S    1.664003
     9  C   -0.388880
    10  H    0.306449
    11  S    1.455956
    12  O   -0.521927
    13  O   -0.663820
    14  N   -0.707706
    15  H    0.346472
    16  N   -0.200834
    17  C    0.141697
    18  N   -0.728557
    19  O   -0.527697
    20  O   -0.441095
    21  H    0.203348
    22  H    0.471452
 Sum of Mulliken charges =  -1.00000
 Mulliken charges with hydrogens summed into heavy atoms:
               1
     1  C   -2.167523
     2  C    1.349141
     3  Cl   0.206716
     4  C   -1.066481
     6  C    0.367432
     7  C   -0.098146
     8  S    1.664003
     9  C   -0.082431
    11  S    1.455956
    12  O   -0.521927
    13  O   -0.663820
    14  N   -0.361233
    16  N   -0.200834
    17  C    0.345045
    18  N   -0.257105
    19  O   -0.527697
    20  O   -0.441095
 Electronic spatial extent (au):  <R**2>=           5330.3878
 Charge=             -1.0000 electrons
 Dipole moment (field-independent basis, Debye):
    X=            -12.4969    Y=              8.4011    Z=             -1.4146  Tot=             15.1245
 Quadrupole moment (field-independent basis, Debye-Ang):
   XX=           -153.8217   YY=           -145.9746   ZZ=           -137.7363
   XY=             10.1729   XZ=              8.9659   YZ=             -3.0145
 Traceless Quadrupole moment (field-independent basis, Debye-Ang):
   XX=             -7.9775   YY=             -0.1304   ZZ=              8.1079
   XY=             10.1729   XZ=              8.9659   YZ=             -3.0145
 Octapole moment (field-independent basis, Debye-Ang**2):
  XXX=           -235.8572  YYY=             23.2579  ZZZ=              6.2436  XYY=            -11.6395
  XXY=             95.2791  XXZ=            -34.6543  XZZ=            -20.8821  YZZ=             10.1564
  YYZ=              8.1277  XYZ=             -6.3241
 Hexadecapole moment (field-independent basis, Debye-Ang**3):
 XXXX=          -4776.1584 YYYY=          -1858.8607 ZZZZ=           -433.2612 XXXY=            110.1650
 XXXZ=            176.4218 YYYX=             97.3683 YYYZ=            -23.3271 ZZZX=             49.9074
 ZZZY=             -3.8228 XXYY=          -1261.0930 XXZZ=          -1050.9248 YYZZ=           -373.4929
 XXYZ=            -38.0477 YYXZ=             16.1890 ZZXY=             25.6855
 N-N= 1.680646028400D+03 E-N=-8.078438811025D+03  KE= 1.980961981561D+03
 Calling FoFJK, ICntrl=      2127 FMM=F ISym2X=0 I1Cent= 0 IOpClX= 0 NMat=1 NMatS=1 NMatT=0.
 ***** Axes restored to original set *****
 -------------------------------------------------------------------
 Center     Atomic                   Forces (Hartrees/Bohr)
 Number     Number              X              Y              Z
 -------------------------------------------------------------------
      1        6          -0.004232285    0.000036147   -0.002361496
      2        6           0.002250056    0.000123085    0.001561171
      3       17           0.000009042   -0.000468002   -0.000929784
      4        6           0.000431609   -0.000213310   -0.002679047
      5        1           0.000565348   -0.000065827   -0.000472034
      6        6          -0.002667085   -0.001055969    0.004568015
      7        6          -0.000292285    0.001678272   -0.002389503
      8       16           0.011810383   -0.011628706    0.024897253
      9        6           0.001945442   -0.000435588   -0.004038732
     10        1          -0.001017924    0.000645381    0.002712314
     11       16           0.007541253   -0.008754481    0.036980429
     12        8           0.000764821    0.007844954   -0.011460592
     13        8          -0.007041948    0.000010350   -0.012165173
     14        7          -0.001814224    0.003437196   -0.007757338
     15        1           0.001327432   -0.001904354    0.000891540
     16        7           0.009173493    0.003193156   -0.009446198
     17        6          -0.013175182   -0.003487195    0.003396250
     18        7           0.006202494    0.007183936   -0.012474339
     19        8          -0.004212691   -0.000451040   -0.007547324
     20        8          -0.002464626    0.006230677   -0.005450817
     21        1          -0.001565741   -0.000852444   -0.001746471
     22        1          -0.003537382   -0.001066240    0.005911879
 -------------------------------------------------------------------
 Cartesian Forces:  Max     0.036980429 RMS     0.007593770

 GradGradGradGradGradGradGradGradGradGradGradGradGradGradGradGradGradGrad
 Berny optimization.
 FormGI is forming the generalized inverse of G from B-inverse, IUseBI=4.
 Internal  Forces:  Max     0.011972388 RMS     0.003714001
 Search for a local minimum.
 Step number   1 out of a maximum of  124
 All quantities printed in internal units (Hartrees-Bohrs-Radians)
 Mixed Optimization -- RFO/linear search
 Second derivative matrix not updated -- first step.
 ITU=  0
     Eigenvalues ---    0.00230   0.01362   0.01548   0.01768   0.01970
     Eigenvalues ---    0.02026   0.02121   0.02157   0.02182   0.02200
     Eigenvalues ---    0.02222   0.02228   0.02370   0.02542   0.03203
     Eigenvalues ---    0.09770   0.10282   0.11433   0.12001   0.12447
     Eigenvalues ---    0.12542   0.15050   0.15989   0.15999   0.16000
     Eigenvalues ---    0.16000   0.17015   0.21623   0.21652   0.23030
     Eigenvalues ---    0.23773   0.24077   0.24554   0.24712   0.24958
     Eigenvalues ---    0.24999   0.25000   0.25000   0.29924   0.31287
     Eigenvalues ---    0.35259   0.35272   0.35388   0.37863   0.40218
     Eigenvalues ---    0.42569   0.43911   0.44051   0.44120   0.45398
     Eigenvalues ---    0.45935   0.47287   0.47859   0.48064   0.60800
     Eigenvalues ---    0.69026   0.80184   0.82501   0.90998   0.92243
 RFO step:  Lambda=-7.21624899D-03 EMin= 2.30000000D-03
 Linear search not attempted -- first point.
 Iteration  1 RMS(Cart)=  0.04407300 RMS(Int)=  0.00165375
 Iteration  2 RMS(Cart)=  0.00171101 RMS(Int)=  0.00061378
 Iteration  3 RMS(Cart)=  0.00000180 RMS(Int)=  0.00061378
 Iteration  4 RMS(Cart)=  0.00000001 RMS(Int)=  0.00061378
 Variable       Old X    -DE/DX   Delta X   Delta X   Delta X     New X
                                 (Linear)    (Quad)   (Total)
    R1        2.65246  -0.00020   0.00000  -0.00049  -0.00048   2.65197
    R2        2.62023   0.00257   0.00000   0.00543   0.00543   2.62566
    R3        3.44056   0.00643   0.00000   0.02545   0.02545   3.46601
    R4        3.29169  -0.00035   0.00000  -0.00108  -0.00108   3.29061
    R5        2.61625   0.00234   0.00000   0.00457   0.00457   2.62082
    R6        2.05050  -0.00017   0.00000  -0.00047  -0.00047   2.05003
    R7        2.64773  -0.00175   0.00000  -0.00395  -0.00396   2.64378
    R8        2.65329   0.00154   0.00000   0.00350   0.00350   2.65679
    R9        2.63699   0.00456   0.00000   0.00856   0.00858   2.64557
   R10        3.30703   0.00172   0.00000   0.00718   0.00718   3.31421
   R11        2.63182   0.00114   0.00000   0.00259   0.00259   2.63441
   R12        3.15657   0.01076   0.00000   0.02807   0.02804   3.18461
   R13        2.75616  -0.00645   0.00000  -0.00693  -0.00693   2.74923
   R14        2.76177  -0.00629   0.00000  -0.00686  -0.00686   2.75491
   R15        2.05236   0.00083   0.00000   0.00230   0.00230   2.05466
   R16        2.81516  -0.01004   0.00000  -0.01241  -0.01241   2.80275
   R17        2.80294  -0.01036   0.00000  -0.01245  -0.01245   2.79049
   R18        2.94013  -0.00005   0.00000  -0.00008  -0.00008   2.94004
   R19        1.93093  -0.00114   0.00000  -0.00255  -0.00255   1.92838
   R20        2.42812  -0.01077   0.00000  -0.01587  -0.01586   2.41226
   R21        2.60561   0.00651   0.00000   0.01256   0.01256   2.61817
   R22        2.05257   0.00160   0.00000   0.00444   0.00444   2.05701
   R23        1.93261  -0.00637   0.00000  -0.01428  -0.01428   1.91834
    A1        2.06468  -0.00188   0.00000  -0.00706  -0.00705   2.05763
    A2        2.14926   0.00524   0.00000   0.02025   0.02025   2.16951
    A3        2.06923  -0.00336   0.00000  -0.01318  -0.01318   2.05604
    A4        2.11271   0.00117   0.00000   0.00480   0.00478   2.11749
    A5        2.12750   0.00060   0.00000   0.00193   0.00192   2.12942
    A6        2.04295  -0.00177   0.00000  -0.00665  -0.00667   2.03627
    A7        2.10512   0.00043   0.00000   0.00341   0.00341   2.10853
    A8        2.10350   0.00060   0.00000   0.00194   0.00194   2.10544
    A9        2.07450  -0.00103   0.00000  -0.00536  -0.00536   2.06914
   A10        2.04020   0.00034   0.00000   0.00152   0.00151   2.04171
   A11        2.05574  -0.00143   0.00000  -0.00499  -0.00499   2.05075
   A12        2.18660   0.00108   0.00000   0.00322   0.00319   2.18979
   A13        2.06786   0.00014   0.00000   0.00335   0.00333   2.07118
   A14        2.14276  -0.00124   0.00000  -0.00610  -0.00610   2.13666
   A15        2.06805   0.00110   0.00000   0.00277   0.00279   2.07084
   A16        1.70924  -0.00271   0.00000  -0.01508  -0.01501   1.69423
   A17        1.96346   0.00290   0.00000   0.02170   0.02085   1.98431
   A18        1.91718   0.00306   0.00000   0.02230   0.02150   1.93869
   A19        1.88534  -0.00345   0.00000  -0.03487  -0.03479   1.85054
   A20        1.91534  -0.00433   0.00000  -0.03463  -0.03461   1.88074
   A21        2.04310   0.00302   0.00000   0.02866   0.02699   2.07009
   A22        2.08745   0.00158   0.00000   0.00776   0.00775   2.09520
   A23        2.08816  -0.00368   0.00000  -0.02114  -0.02117   2.06700
   A24        2.10757   0.00210   0.00000   0.01341   0.01338   2.12095
   A25        1.79545  -0.00766   0.00000  -0.04811  -0.04841   1.74704
   A26        1.79644  -0.01028   0.00000  -0.05568  -0.05565   1.74079
   A27        1.92627  -0.00650   0.00000  -0.04373  -0.04400   1.88227
   A28        1.99343   0.00720   0.00000   0.05705   0.05371   2.04714
   A29        2.02240   0.00552   0.00000   0.02572   0.02267   2.04507
   A30        1.91186   0.00773   0.00000   0.04187   0.03905   1.95090
   A31        1.89448  -0.00342   0.00000  -0.02042  -0.02042   1.87406
   A32        2.07534   0.00136   0.00000  -0.00038  -0.00040   2.07494
   A33        2.20479  -0.00011   0.00000  -0.00321  -0.00324   2.20155
   A34        2.09087  -0.00181   0.00000  -0.00957  -0.00955   2.08132
   A35        1.98637   0.00192   0.00000   0.01281   0.01283   1.99920
   A36        2.11177  -0.00010   0.00000   0.00205   0.00193   2.11370
   A37        2.01486  -0.00262   0.00000  -0.02049  -0.02043   1.99444
   A38        2.05589   0.00247   0.00000   0.01252   0.01248   2.06837
    D1        3.12906  -0.00033   0.00000  -0.01231  -0.01233   3.11673
    D2       -0.02034  -0.00009   0.00000  -0.00134  -0.00130  -0.02164
    D3       -0.01937  -0.00028   0.00000  -0.01014  -0.01014  -0.02951
    D4        3.11441  -0.00004   0.00000   0.00083   0.00089   3.11531
    D5        0.01197   0.00013   0.00000   0.00565   0.00563   0.01760
    D6       -3.12716  -0.00013   0.00000  -0.00621  -0.00612  -3.13328
    D7       -3.12310   0.00005   0.00000   0.00345   0.00344  -3.11966
    D8        0.02095  -0.00021   0.00000  -0.00841  -0.00830   0.01265
    D9        1.10014  -0.00146   0.00000  -0.08067  -0.08042   1.01972
   D10       -3.10688  -0.00053   0.00000  -0.05840  -0.05857   3.11774
   D11       -1.06787   0.00004   0.00000  -0.05909  -0.05919  -1.12706
   D12       -2.04830  -0.00140   0.00000  -0.07847  -0.07820  -2.12651
   D13        0.02786  -0.00047   0.00000  -0.05620  -0.05636  -0.02850
   D14        2.06687   0.00010   0.00000  -0.05689  -0.05698   2.00989
   D15       -3.12176   0.00008   0.00000  -0.00152  -0.00152  -3.12329
   D16        0.00766  -0.00007   0.00000  -0.00300  -0.00300   0.00466
   D17        0.01232   0.00033   0.00000   0.00908   0.00907   0.02139
   D18       -3.14145   0.00018   0.00000   0.00760   0.00759  -3.13385
   D19        0.01281   0.00021   0.00000   0.00301   0.00298   0.01579
   D20       -3.09220   0.00052   0.00000   0.01019   0.01017  -3.08203
   D21       -3.14075   0.00008   0.00000   0.00161   0.00160  -3.13915
   D22        0.03744   0.00039   0.00000   0.00879   0.00879   0.04622
   D23        3.01661  -0.00008   0.00000   0.00183   0.00188   3.01849
   D24       -0.02130  -0.00016   0.00000   0.00149   0.00151  -0.01979
   D25       -0.16464  -0.00047   0.00000  -0.00615  -0.00615  -0.17078
   D26        3.08064  -0.00055   0.00000  -0.00649  -0.00652   3.07412
   D27        2.91076  -0.00079   0.00000  -0.00637  -0.00637   2.90440
   D28       -0.19085  -0.00043   0.00000   0.00154   0.00156  -0.18929
   D29        0.51182  -0.00043   0.00000   0.00817   0.00813   0.51995
   D30        2.48957  -0.00476   0.00000  -0.03182  -0.03239   2.45717
   D31       -1.48457   0.00465   0.00000   0.04646   0.04696  -1.43761
   D32       -2.72895  -0.00050   0.00000   0.00796   0.00795  -2.72100
   D33       -0.75121  -0.00483   0.00000  -0.03204  -0.03257  -0.78378
   D34        1.55784   0.00458   0.00000   0.04624   0.04678   1.60462
   D35        0.00893  -0.00002   0.00000  -0.00592  -0.00593   0.00300
   D36       -3.13515   0.00023   0.00000   0.00603   0.00614  -3.12901
   D37       -3.02897  -0.00004   0.00000  -0.00629  -0.00633  -3.03530
   D38        0.11014   0.00021   0.00000   0.00565   0.00574   0.11587
   D39       -0.66136  -0.00028   0.00000  -0.01664  -0.01661  -0.67797
   D40        2.95761  -0.00035   0.00000  -0.00663  -0.00668   2.95092
   D41       -2.70073  -0.00118   0.00000  -0.02275  -0.02258  -2.72330
   D42        0.91824  -0.00125   0.00000  -0.01274  -0.01265   0.90559
   D43        1.33648   0.00050   0.00000  -0.00978  -0.00992   1.32657
   D44       -1.32773   0.00044   0.00000   0.00023   0.00001  -1.32772
   D45        1.37981   0.00099   0.00000   0.01724   0.01743   1.39724
   D46       -0.65123   0.01197   0.00000   0.09418   0.09616  -0.55507
   D47       -2.93736  -0.01055   0.00000  -0.04986  -0.05203  -2.98939
   D48        0.04540  -0.00060   0.00000  -0.01031  -0.01032   0.03508
   D49       -3.04143  -0.00066   0.00000  -0.01148  -0.01152  -3.05295
   D50        0.46718   0.00091   0.00000   0.02116   0.02117   0.48835
   D51        3.12061  -0.00038   0.00000   0.00221   0.00210   3.12272
   D52       -2.72635   0.00087   0.00000   0.02170   0.02174  -2.70462
   D53       -0.07292  -0.00042   0.00000   0.00274   0.00267  -0.07025
         Item               Value     Threshold  Converged?
 Maximum Force            0.011972     0.000450     NO 
 RMS     Force            0.003714     0.000300     NO 
 Maximum Displacement     0.170895     0.001800     NO 
 RMS     Displacement     0.044123     0.001200     NO 
 Predicted change in Energy=-3.946508D-03
 GradGradGradGradGradGradGradGradGradGradGradGradGradGradGradGradGradGrad

                          Input orientation:                          
 ---------------------------------------------------------------------
 Center     Atomic      Atomic             Coordinates (Angstroms)
 Number     Number       Type             X           Y           Z
 ---------------------------------------------------------------------
      1          6           0       -1.454950    0.599067   -0.838365
      2          6           0       -2.552574    0.508085   -1.708061
      3         17           0       -4.186724    0.510618   -1.106631
      4          6           0       -2.395201    0.408247   -3.082360
      5          1           0       -3.257850    0.355942   -3.738071
      6          6           0       -1.118502    0.389210   -3.654156
      7          6           0       -0.024285    0.455524   -2.773883
      8         16           0        1.591575    0.246631   -3.422879
      9          6           0       -0.181458    0.560239   -1.392664
     10          1           0        0.675317    0.622138   -0.726119
     11         16           0       -1.590490    0.772986    0.982469
     12          8           0       -2.363720   -0.451193    1.303788
     13          8           0       -0.157763    0.782181    1.339882
     14          7           0       -2.268826    2.140795    1.281601
     15          1           0       -3.273427    2.017688    1.151403
     16          7           0       -1.036365    0.360401   -5.051423
     17          6           0        0.085858    0.605261   -5.608328
     18          7           0        1.280585    0.868430   -4.958012
     19          8           0        2.580604    1.129956   -2.824481
     20          8           0        1.917636   -1.166305   -3.573125
     21          1           0        0.138786    0.666738   -6.693823
     22          1           0        2.111262    1.032143   -5.518086
 ---------------------------------------------------------------------
                    Distance matrix (angstroms):
                    1          2          3          4          5
     1  C    0.000000
     2  C    1.403363   0.000000
     3  Cl   2.746340   1.741314   0.000000
     4  C    2.440492   1.386878   2.668996   0.000000
     5  H    3.423134   2.154414   2.794854   1.084829   0.000000
     6  C    2.843574   2.420326   3.989813   1.399026   2.141251
     7  C    2.411149   2.744264   4.484269   2.391368   3.375725
     8  S    4.010641   4.492541   6.230846   4.004554   4.860886
     9  C    1.389438   2.392569   4.015774   2.789056   3.873868
    10  H    2.133347   3.375870   4.878183   3.876300   4.961100
    11  S    1.834136   2.869622   3.342694   4.159739   5.023694
    12  O    2.552985   3.166562   3.171521   4.469667   5.183751
    13  O    2.541847   3.885898   4.721409   4.970129   5.964715
    14  N    2.744736   3.418236   3.469793   4.697005   5.418577
    15  H    3.046067   3.312864   2.864278   4.613711   5.164164
    16  N    4.240523   3.674067   5.050615   2.392892   2.580679
    17  C    5.012652   4.709867   6.207189   3.546122   3.839323
    18  N    4.952494   5.038366   6.697211   4.152257   4.727397
    19  O    4.529039   5.289861   7.009374   5.034482   5.959974
    20  O    4.687194   5.124921   6.794032   4.617426   5.397230
    21  H    6.068852   5.668016   7.067611   4.419341   4.513336
    22  H    5.899594   6.045022   7.706981   5.160447   5.696759
                    6          7          8          9         10
     6  C    0.000000
     7  C    1.405912   0.000000
     8  S    2.723662   1.753806   0.000000
     9  C    2.453904   1.394071   2.713626   0.000000
    10  H    3.441720   2.170378   2.872812   1.087279   0.000000
    11  S    4.676360   4.082152   5.459824   2.769818   2.841815
    12  O    5.180546   4.787745   6.202637   3.613326   3.808978
    13  O    5.100770   4.128872   5.102048   2.741647   2.233383
    14  N    5.362182   4.932044   6.373594   3.742588   3.873660
    15  H    5.512625   5.329649   6.908614   4.261070   4.589688
    16  N    1.399976   2.494102   3.093730   3.762621   4.659036
    17  C    2.305635   2.840534   2.678056   4.224371   4.917694
    18  N    2.772239   2.577517   1.685224   3.865779   4.282046
    19  O    3.862700   2.691257   1.454828   3.162856   2.879430
    20  O    3.412378   2.653332   1.457833   3.484474   3.584317
    21  H    3.301117   3.929012   3.603632   5.311891   5.991940
    22  H    3.784042   3.524726   2.297171   4.743243   5.019261
                   11         12         13         14         15
    11  S    0.000000
    12  O    1.483154   0.000000
    13  O    1.476664   2.527600   0.000000
    14  N    1.555803   2.593820   2.511139   0.000000
    15  H    2.100024   2.635558   3.356988   1.020456   0.000000
    16  N    6.073313   6.542879   6.465185   6.692978   6.798977
    17  C    6.802712   7.409041   6.954731   7.441340   7.679435
    18  N    6.598597   7.364272   6.460631   7.290405   7.706151
    19  O    5.658473   6.632419   4.996151   6.434181   7.131999
    20  O    6.068050   6.528834   5.678162   7.213303   7.707536
    21  H    7.869380   8.454236   8.040006   8.460310   8.661168
    22  H    7.485141   8.292389   7.227910   8.163947   8.628340
                   16         17         18         19         20
    16  N    0.000000
    17  C    1.276513   0.000000
    18  N    2.373832   1.385475   0.000000
    19  O    4.316707   3.774768   2.512051   0.000000
    20  O    3.639000   3.261274   2.542418   2.504558   0.000000
    21  H    2.042621   1.088522   2.087445   4.598789   4.032755
    22  H    3.252164   2.071867   1.015140   2.735938   2.941689
                   21         22
    21  H    0.000000
    22  H    2.325197   0.000000
 Stoichiometry    C7H5ClN3O4S2(1-)
 Framework group  C1[X(C7H5ClN3O4S2)]
 Deg. of freedom    60
 Full point group                 C1      NOp   1
 Largest Abelian subgroup         C1      NOp   1
 Largest concise Abelian subgroup C1      NOp   1
                         Standard orientation:                         
 ---------------------------------------------------------------------
 Center     Atomic      Atomic             Coordinates (Angstroms)
 Number     Number       Type             X           Y           Z
 ---------------------------------------------------------------------
      1          6           0        1.221659   -0.113932   -0.001306
      2          6           0        1.200611    1.288470    0.046168
      3         17           0        2.674002    2.214251    0.111152
      4          6           0        0.013886    2.006183    0.047656
      5          1           0        0.020519    3.090806    0.067750
      6          6           0       -1.218718    1.345660    0.006810
      7          6           0       -1.188841   -0.059761   -0.015269
      8         16           0       -2.701915   -0.935801    0.122560
      9          6           0        0.003536   -0.782005   -0.021143
     10          1           0        0.009660   -1.868885   -0.049960
     11         16           0        2.752068   -1.123837   -0.045958
     12          8           0        3.398993   -0.671289    1.209602
     13          8           0        2.158908   -2.476113   -0.052761
     14          7           0        3.491063   -0.810955   -1.378818
     15          1           0        3.994418    0.067220   -1.249308
     16          7           0       -2.372985    2.134794   -0.062966
     17          6           0       -3.482367    1.579463   -0.363575
     18          7           0       -3.682590    0.229000   -0.599587
     19          8           0       -2.777276   -2.110480   -0.732410
     20          8           0       -3.111069   -1.059482    1.516322
     21          1           0       -4.367009    2.198601   -0.501256
     22          1           0       -4.621522   -0.091245   -0.814897
 ---------------------------------------------------------------------
 Rotational constants (GHZ):           0.6658720           0.2429158           0.1922906
 Basis read from rwf:  (6D, 7F)
 There are   345 symmetry adapted cartesian basis functions of A   symmetry.
 There are   345 symmetry adapted basis functions of A   symmetry.
   345 basis functions,   636 primitive gaussians,   345 cartesian basis functions
    75 alpha electrons       75 beta electrons
       nuclear repulsion energy      1680.7345134753 Hartrees.
 NAtoms=   22 NActive=   22 NUniq=   22 SFac= 1.00D+00 NAtFMM=   60 NAOKFM=F Big=F
 Integral buffers will be    131072 words long.
 Raffenetti 2 integral format.
 Two-electron integral symmetry is turned on.
 One-electron integrals computed using PRISM.
 NBasis=   345 RedAO= T EigKep=  2.24D-06  NBF=   345
 NBsUse=   343 1.00D-06 EigRej=  7.66D-07 NBFU=   343
 Initial guess from the checkpoint file:  "/jobfs/49768861.gadi-pbs/Gau-468940.chk"
 B after Tr=     0.000000   -0.000000    0.000000
         Rot=    0.999981    0.005390   -0.000478    0.003054 Ang=   0.71 deg.
 ExpMin= 4.05D-02 ExpMax= 2.52D+04 ExpMxC= 3.78D+03 IAcc=3 IRadAn=         5 AccDes= 0.00D+00
 Harris functional with IExCor= 1009 and IRadAn=       5 diagonalized for initial guess.
 HarFok:  IExCor= 1009 AccDes= 0.00D+00 IRadAn=         5 IDoV= 1 UseB2=F ITyADJ=14
 ICtDFT=  3500011 ScaDFX=  1.000000  1.000000  1.000000  1.000000
 FoFCou: FMM=F IPFlag=           0 FMFlag=      100000 FMFlg1=           0
         NFxFlg=           0 DoJE=T BraDBF=F KetDBF=T FulRan=T
         wScrn=  0.000000 ICntrl=       500 IOpCl=  0 I1Cent=   200000004 NGrid=           0
         NMat0=    1 NMatS0=      1 NMatT0=    0 NMatD0=    1 NMtDS0=    0 NMtDT0=    0
 Petite list used in FoFCou.
 Requested convergence on RMS density matrix=1.00D-08 within 128 cycles.
 Requested convergence on MAX density matrix=1.00D-06.
 Requested convergence on             energy=1.00D-06.
 No special actions if energy rises.
 SCF Done:  E(RM062X) =  -1991.03458403     A.U. after   15 cycles
            NFock= 15  Conv=0.79D-08     -V/T= 2.0051
 Calling FoFJK, ICntrl=      2127 FMM=F ISym2X=0 I1Cent= 0 IOpClX= 0 NMat=1 NMatS=1 NMatT=0.
 ***** Axes restored to original set *****
 -------------------------------------------------------------------
 Center     Atomic                   Forces (Hartrees/Bohr)
 Number     Number              X              Y              Z
 -------------------------------------------------------------------
      1        6          -0.002727288    0.000366610   -0.004821424
      2        6           0.003520447   -0.000720827    0.000561803
      3       17          -0.000537983    0.000686533    0.000680902
      4        6           0.000571084    0.000088570   -0.000859651
      5        1           0.000200470   -0.000032651   -0.000256489
      6        6          -0.000958217   -0.000216061    0.000769648
      7        6           0.000938572   -0.000249699    0.002292886
      8       16           0.004562380   -0.002957910    0.002332057
      9        6           0.000595392    0.000559086   -0.004216125
     10        1          -0.000717746   -0.000170421    0.000179615
     11       16           0.002177919   -0.005360770   -0.002640820
     12        8           0.002543254    0.005303679    0.003182949
     13        8          -0.006803285    0.000870790    0.005467548
     14        7           0.002354798    0.000113771    0.000998439
     15        1          -0.000632392   -0.001508856    0.001429290
     16        7          -0.000014302    0.000066882   -0.000818282
     17        6           0.001315476   -0.000615883    0.000152946
     18        7          -0.004126196    0.004123585   -0.007159712
     19        8          -0.001978769   -0.002233166    0.000282397
     20        8          -0.001148368    0.002194029    0.001819664
     21        1           0.000228710   -0.000151276   -0.000264284
     22        1           0.000636047   -0.000156014    0.000886642
 -------------------------------------------------------------------
 Cartesian Forces:  Max     0.007159712 RMS     0.002429338

 GradGradGradGradGradGradGradGradGradGradGradGradGradGradGradGradGradGrad
 Berny optimization.
 Using GEDIIS/GDIIS optimizer.
 FormGI is forming the generalized inverse of G from B-inverse, IUseBI=4.
 Internal  Forces:  Max     0.008807176 RMS     0.002083500
 Search for a local minimum.
 Step number   2 out of a maximum of  124
 All quantities printed in internal units (Hartrees-Bohrs-Radians)
 Mixed Optimization -- RFO/linear search
 Update second derivatives using D2CorX and points    1    2
 DE= -2.75D-03 DEPred=-3.95D-03 R= 6.97D-01
 TightC=F SS=  1.41D+00  RLast= 2.65D-01 DXNew= 5.0454D-01 7.9464D-01
 Trust test= 6.97D-01 RLast= 2.65D-01 DXMaxT set to 5.05D-01
 ITU=  1  0
 Use linear search instead of GDIIS.
     Eigenvalues ---    0.00240   0.01356   0.01547   0.01770   0.01976
     Eigenvalues ---    0.02027   0.02128   0.02158   0.02192   0.02204
     Eigenvalues ---    0.02221   0.02230   0.02369   0.02537   0.03147
     Eigenvalues ---    0.09827   0.10909   0.11081   0.12116   0.12693
     Eigenvalues ---    0.13110   0.14822   0.15668   0.15991   0.15999
     Eigenvalues ---    0.16000   0.20357   0.21501   0.21648   0.23025
     Eigenvalues ---    0.23733   0.24007   0.24236   0.24703   0.24949
     Eigenvalues ---    0.24986   0.25000   0.29762   0.30249   0.31395
     Eigenvalues ---    0.35218   0.35291   0.35388   0.36683   0.39986
     Eigenvalues ---    0.42515   0.43826   0.44070   0.44106   0.45275
     Eigenvalues ---    0.45970   0.47303   0.47763   0.48307   0.60836
     Eigenvalues ---    0.68693   0.78679   0.81795   0.90606   0.91989
 RFO step:  Lambda=-1.29851493D-03 EMin= 2.39706979D-03
 Quartic linear search produced a step of -0.19277.
 Iteration  1 RMS(Cart)=  0.02020512 RMS(Int)=  0.00025362
 Iteration  2 RMS(Cart)=  0.00027143 RMS(Int)=  0.00008019
 Iteration  3 RMS(Cart)=  0.00000007 RMS(Int)=  0.00008019
 Variable       Old X    -DE/DX   Delta X   Delta X   Delta X     New X
                                 (Linear)    (Quad)   (Total)
    R1        2.65197  -0.00203   0.00009  -0.00368  -0.00358   2.64839
    R2        2.62566   0.00199  -0.00105   0.00543   0.00438   2.63004
    R3        3.46601   0.00835  -0.00491   0.03671   0.03180   3.49782
    R4        3.29061   0.00074   0.00021   0.00148   0.00169   3.29230
    R5        2.62082   0.00107  -0.00088   0.00352   0.00265   2.62347
    R6        2.05003  -0.00000   0.00009  -0.00018  -0.00009   2.04994
    R7        2.64378  -0.00112   0.00076  -0.00352  -0.00276   2.64102
    R8        2.65679   0.00026  -0.00067   0.00173   0.00104   2.65783
    R9        2.64557   0.00158  -0.00165   0.00624   0.00458   2.65015
   R10        3.31421  -0.00007  -0.00138   0.00201   0.00063   3.31485
   R11        2.63441  -0.00021  -0.00050   0.00056   0.00006   2.63447
   R12        3.18461   0.00658  -0.00541   0.02371   0.01830   3.20291
   R13        2.74923  -0.00259   0.00134  -0.00483  -0.00349   2.74573
   R14        2.75491  -0.00257   0.00132  -0.00482  -0.00350   2.75141
   R15        2.05466  -0.00046  -0.00044  -0.00019  -0.00063   2.05403
   R16        2.80275  -0.00502   0.00239  -0.00964  -0.00725   2.79551
   R17        2.79049  -0.00527   0.00240  -0.00976  -0.00736   2.78313
   R18        2.94004  -0.00151   0.00002  -0.00202  -0.00200   2.93804
   R19        1.92838   0.00062   0.00049   0.00017   0.00066   1.92904
   R20        2.41226   0.00041   0.00306  -0.00535  -0.00229   2.40997
   R21        2.61817  -0.00141  -0.00242   0.00233  -0.00009   2.61808
   R22        2.05701   0.00027  -0.00086   0.00227   0.00141   2.05842
   R23        1.91834   0.00001   0.00275  -0.00534  -0.00258   1.91575
    A1        2.05763  -0.00223   0.00136  -0.00973  -0.00836   2.04926
    A2        2.16951  -0.00155  -0.00390   0.00265  -0.00126   2.16824
    A3        2.05604   0.00378   0.00254   0.00705   0.00958   2.06562
    A4        2.11749  -0.00163  -0.00092  -0.00339  -0.00435   2.11314
    A5        2.12942   0.00159  -0.00037   0.00579   0.00541   2.13483
    A6        2.03627   0.00004   0.00129  -0.00237  -0.00111   2.03516
    A7        2.10853   0.00022  -0.00066   0.00274   0.00208   2.11061
    A8        2.10544   0.00022  -0.00037   0.00114   0.00077   2.10621
    A9        2.06914  -0.00044   0.00103  -0.00391  -0.00289   2.06625
   A10        2.04171  -0.00071  -0.00029  -0.00201  -0.00230   2.03941
   A11        2.05075  -0.00000   0.00096  -0.00121  -0.00023   2.05052
   A12        2.18979   0.00071  -0.00062   0.00299   0.00236   2.19215
   A13        2.07118  -0.00071  -0.00064  -0.00277  -0.00340   2.06778
   A14        2.13666  -0.00001   0.00118  -0.00189  -0.00073   2.13593
   A15        2.07084   0.00072  -0.00054   0.00478   0.00425   2.07509
   A16        1.69423   0.00013   0.00289  -0.00643  -0.00360   1.69063
   A17        1.98431  -0.00110  -0.00402   0.00220  -0.00167   1.98263
   A18        1.93869  -0.00088  -0.00415   0.00108  -0.00287   1.93582
   A19        1.85054   0.00126   0.00671  -0.00502   0.00170   1.85224
   A20        1.88074   0.00126   0.00667  -0.00384   0.00282   1.88355
   A21        2.07009  -0.00021  -0.00520   0.00792   0.00303   2.07312
   A22        2.09520   0.00114  -0.00149   0.00682   0.00532   2.10052
   A23        2.06700  -0.00116   0.00408  -0.01288  -0.00879   2.05820
   A24        2.12095   0.00002  -0.00258   0.00606   0.00349   2.12444
   A25        1.74704   0.00523   0.00933   0.00667   0.01604   1.76308
   A26        1.74079   0.00881   0.01073   0.01856   0.02924   1.77003
   A27        1.88227   0.00047   0.00848  -0.00729   0.00130   1.88357
   A28        2.04714  -0.00212  -0.01035   0.00499  -0.00529   2.04185
   A29        2.04507  -0.00341  -0.00437  -0.01001  -0.01396   2.03111
   A30        1.95090  -0.00458  -0.00753  -0.00689  -0.01410   1.93681
   A31        1.87406  -0.00194   0.00394  -0.01737  -0.01344   1.86062
   A32        2.07494   0.00068   0.00008   0.00128   0.00133   2.07628
   A33        2.20155  -0.00048   0.00063  -0.00434  -0.00372   2.19783
   A34        2.08132   0.00042   0.00184  -0.00122   0.00063   2.08195
   A35        1.99920   0.00006  -0.00247   0.00552   0.00305   2.00225
   A36        2.11370  -0.00066  -0.00037  -0.00435  -0.00479   2.10891
   A37        1.99444  -0.00067   0.00394  -0.01388  -0.00995   1.98448
   A38        2.06837   0.00105  -0.00241   0.00900   0.00651   2.07488
    D1        3.11673   0.00059   0.00238   0.01669   0.01904   3.13576
    D2       -0.02164   0.00007   0.00025   0.00407   0.00430  -0.01734
    D3       -0.02951   0.00046   0.00195   0.00964   0.01161  -0.01790
    D4        3.11531  -0.00006  -0.00017  -0.00297  -0.00313   3.11218
    D5        0.01760  -0.00013  -0.00108  -0.00352  -0.00459   0.01301
    D6       -3.13328   0.00004   0.00118  -0.00376  -0.00260  -3.13588
    D7       -3.11966   0.00000  -0.00066   0.00307   0.00241  -3.11725
    D8        0.01265   0.00017   0.00160   0.00283   0.00441   0.01706
    D9        1.01972  -0.00089   0.01550  -0.03609  -0.02076   0.99896
   D10        3.11774   0.00114   0.01129  -0.02310  -0.01164   3.10609
   D11       -1.12706   0.00016   0.01141  -0.02502  -0.01355  -1.14061
   D12       -2.12651  -0.00103   0.01508  -0.04317  -0.02830  -2.15481
   D13       -0.02850   0.00099   0.01086  -0.03018  -0.01918  -0.04768
   D14        2.00989   0.00002   0.01098  -0.03210  -0.02109   1.98880
   D15       -3.12329   0.00014   0.00029   0.00246   0.00276  -3.12053
   D16        0.00466   0.00003   0.00058  -0.00098  -0.00040   0.00426
   D17        0.02139  -0.00035  -0.00175  -0.00959  -0.01135   0.01004
   D18       -3.13385  -0.00047  -0.00146  -0.01303  -0.01450   3.13483
   D19        0.01579  -0.00002  -0.00057  -0.00242  -0.00299   0.01279
   D20       -3.08203   0.00004  -0.00196   0.00295   0.00098  -3.08104
   D21       -3.13915  -0.00013  -0.00031  -0.00573  -0.00603   3.13800
   D22        0.04622  -0.00006  -0.00169  -0.00036  -0.00206   0.04417
   D23        3.01849   0.00004  -0.00036   0.00470   0.00433   3.02282
   D24       -0.01979  -0.00003  -0.00029   0.00300   0.00270  -0.01709
   D25       -0.17078  -0.00006   0.00118  -0.00128  -0.00010  -0.17088
   D26        3.07412  -0.00013   0.00126  -0.00298  -0.00173   3.07239
   D27        2.90440  -0.00048   0.00123  -0.01055  -0.00934   2.89506
   D28       -0.18929  -0.00036  -0.00030  -0.00453  -0.00484  -0.19413
   D29        0.51995  -0.00003  -0.00157   0.01016   0.00857   0.52853
   D30        2.45717   0.00114   0.00624   0.00181   0.00814   2.46531
   D31       -1.43761  -0.00123  -0.00905   0.01711   0.00795  -1.42966
   D32       -2.72100   0.00001  -0.00153   0.01141   0.00987  -2.71113
   D33       -0.78378   0.00117   0.00628   0.00306   0.00943  -0.77435
   D34        1.60462  -0.00120  -0.00902   0.01836   0.00924   1.61386
   D35        0.00300   0.00011   0.00114  -0.00003   0.00113   0.00414
   D36       -3.12901  -0.00006  -0.00118   0.00032  -0.00088  -3.12989
   D37       -3.03530   0.00012   0.00122  -0.00130  -0.00007  -3.03537
   D38        0.11587  -0.00005  -0.00111  -0.00095  -0.00208   0.11380
   D39       -0.67797  -0.00064   0.00320  -0.02197  -0.01877  -0.69675
   D40        2.95092  -0.00034   0.00129  -0.00475  -0.00352   2.94740
   D41       -2.72330   0.00013   0.00435  -0.02041  -0.01606  -2.73937
   D42        0.90559   0.00044   0.00244  -0.00319  -0.00081   0.90478
   D43        1.32657  -0.00119   0.00191  -0.02452  -0.02257   1.30399
   D44       -1.32772  -0.00088  -0.00000  -0.00730  -0.00732  -1.33505
   D45        1.39724  -0.00003  -0.00336   0.02963   0.02624   1.42349
   D46       -0.55507  -0.00502  -0.01854   0.03177   0.01306  -0.54201
   D47       -2.98939   0.00840   0.01003   0.04433   0.05457  -2.93483
   D48        0.03508  -0.00045   0.00199  -0.00857  -0.00662   0.02846
   D49       -3.05295  -0.00045   0.00222  -0.00786  -0.00569  -3.05864
   D50        0.48835   0.00034  -0.00408   0.02285   0.01876   0.50711
   D51        3.12272  -0.00046  -0.00041  -0.00140  -0.00187   3.12084
   D52       -2.70462   0.00036  -0.00419   0.02201   0.01781  -2.68680
   D53       -0.07025  -0.00045  -0.00051  -0.00225  -0.00282  -0.07307
         Item               Value     Threshold  Converged?
 Maximum Force            0.008807     0.000450     NO 
 RMS     Force            0.002084     0.000300     NO 
 Maximum Displacement     0.123445     0.001800     NO 
 RMS     Displacement     0.020189     0.001200     NO 
 Predicted change in Energy=-8.286199D-04
 GradGradGradGradGradGradGradGradGradGradGradGradGradGradGradGradGradGrad

                          Input orientation:                          
 ---------------------------------------------------------------------
 Center     Atomic      Atomic             Coordinates (Angstroms)
 Number     Number       Type             X           Y           Z
 ---------------------------------------------------------------------
      1          6           0       -1.451673    0.590766   -0.839313
      2          6           0       -2.543520    0.498641   -1.713094
      3         17           0       -4.179293    0.523340   -1.113985
      4          6           0       -2.386691    0.397415   -3.088767
      5          1           0       -3.248278    0.346844   -3.745927
      6          6           0       -1.112067    0.378374   -3.661619
      7          6           0       -0.018376    0.449949   -2.780223
      8         16           0        1.596905    0.247373   -3.433554
      9          6           0       -0.178050    0.556322   -1.399387
     10          1           0        0.674878    0.621698   -0.728800
     11         16           0       -1.599862    0.772445    0.996743
     12          8           0       -2.399857   -0.424860    1.335645
     13          8           0       -0.184873    0.768429    1.405206
     14          7           0       -2.259622    2.149483    1.289516
     15          1           0       -3.265726    2.021435    1.173754
     16          7           0       -1.031932    0.349367   -5.061427
     17          6           0        0.085218    0.603869   -5.621425
     18          7           0        1.275336    0.885465   -4.970479
     19          8           0        2.583109    1.127052   -2.829640
     20          8           0        1.919987   -1.163349   -3.592823
     21          1           0        0.136086    0.659666   -6.708074
     22          1           0        2.107785    1.055058   -5.523654
 ---------------------------------------------------------------------
                    Distance matrix (angstroms):
                    1          2          3          4          5
     1  C    0.000000
     2  C    1.401467   0.000000
     3  Cl   2.742244   1.742210   0.000000
     4  C    2.443703   1.388279   2.670026   0.000000
     5  H    3.425739   2.156881   2.797331   1.084780   0.000000
     6  C    2.850588   2.420800   3.989904   1.397566   2.138106
[...]
 042219,-0.00024370,-0.00259788,0.00112695,-0.00105758,-0.00084293,-0.0
 0091149,0.00076741,-0.00002215,0.00008463,-0.00027543,0.00081478,0.000
 12084,0.00052481,0.00157097,-0.00212163,-0.00137467,-0.00341468,0.0002
 7788,-0.00034841,-0.00227527,-0.00011676,-0.00418798,0.00013158,0.0010
 6766,-0.00077265,0.06178475,0.09436204,-0.10593914,-0.06983031,-0.1046
 9759,0.08947736,-0.01142799,0.00134883,-0.00159349,0.00069798,-0.00069
 839,-0.00541660,0.00111314,-0.00005434,-0.00066789,-0.00164134,-0.0000
 1587,0.00134577,0.00014674,-0.00002226,-0.00042174,0.00069749,-0.00018
 169,0.00052481,0.00372000,0.00020885,-0.00072734,-0.00366779,-0.000073
 88,-0.00291488,-0.00459762,0.00007356,0.00317410,0.00225168,-0.0002581
 7,-0.00326438,-0.49319816,-0.00613005,-0.11051739,-0.01781718,-0.00040
 247,-0.00897993,0.54743408,-0.00259905,0.00771618,-0.00321262,0.000981
 23,0.00112554,-0.00027518,-0.00027072,0.00060482,0.00006775,-0.0000599
 0,-0.00070017,-0.00030723,0.00000841,-0.00020482,-0.00006203,-0.000270
 36,-0.00009974,0.00008762,0.00008483,-0.00016863,0.00002479,-0.0003598
 9,-0.00087959,0.00011742,-0.00011142,0.00041324,-0.00067369,-0.0001700
 0,-0.00097494,-0.00037914,-0.00609168,-0.08186919,0.00068156,-0.033447
 08,0.00582953,-0.00582154,-0.00118399,0.07063850,-0.03369872,-0.000512
 17,-0.01459736,0.00871499,-0.00058835,-0.00653808,-0.00170385,0.000129
 18,0.00110451,-0.00245515,-0.00028673,-0.00198559,0.00011930,-0.000011
 85,-0.00086055,-0.00101125,-0.00019871,0.00028769,-0.00108987,-0.00001
 806,-0.00015173,-0.00342951,0.00064693,0.00046357,0.00152487,-0.000665
 06,-0.00503335,-0.00241334,-0.00029473,-0.00406990,-0.12063913,-0.0011
 9123,-0.11188991,0.00915066,0.00430725,0.01666796,0.13651377,0.0041716
 9,0.11324502,0.00727221,0.00863432,0.00211954,-0.00620018,-0.00008147,
 0.00267492,0.00242023,-0.00028627,-0.00115294,0.00099189,-0.00032788,0
 .00119898,-0.00007365,0.00003510,0.00045261,0.00055044,-0.00000630,-0.
 00013856,0.00060591,-0.00057518,-0.00039481,0.00024378,-0.00018006,-0.
 00071758,-0.00108753,-0.00005475,0.00129062,0.00054860,0.00045854,-0.0
 0115596,-0.15530956,0.13680714,0.02276832,0.01278482,-0.01728452,-0.00
 016347,-0.02712662,0.03853830,0.00619895,0.58183698,0.00616092,-0.0054
 1574,-0.00027013,0.00527836,0.00016394,-0.00126460,-0.00250839,0.00030
 102,0.00048727,-0.00087660,0.00037568,-0.00069509,0.00000387,-0.000066
 30,-0.00039433,-0.00010108,-0.00041445,0.00049563,0.00092140,0.0005128
 2,-0.00076887,-0.00195026,-0.00035333,0.00030026,0.00020149,-0.0006182
 5,-0.00449903,-0.00057526,-0.00048018,-0.00004474,0.08113425,-0.279513
 45,-0.03618310,0.01268482,-0.03479984,-0.00706292,0.00129624,0.0019622
 9,-0.00359826,-0.07479444,0.35028347,0.01216178,-0.01748134,0.00048904
 ,0.00213938,0.00024196,-0.00030632,-0.00160560,-0.00110376,-0.00090143
 ,-0.00049744,0.00067081,0.00108158,-0.00005407,-0.00004142,-0.00012392
 ,0.00067801,-0.00031514,0.00031579,0.00111907,0.00184015,-0.00108053,-
 0.00292159,0.00077235,-0.00060438,-0.00156546,-0.00070502,-0.00328283,
 0.00008825,-0.00088812,-0.00069291,0.02178673,-0.05127787,-0.07494731,
 -0.00155812,0.00951946,0.01972155,-0.00730794,0.00460204,0.00960991,-0
 .01826150,0.05889538,0.05889013,0.00095703,0.00008174,0.00063349,-0.00
 033583,0.00035294,0.00073459,-0.00089499,-0.00135470,-0.00192534,-0.00
 007590,0.00006281,0.00014277,-0.00000505,-0.00001080,0.00002371,0.0000
 7695,-0.00005773,-0.00002548,0.00015348,0.00009634,-0.00005591,-0.0002
 6853,-0.00001001,-0.00012211,0.00015301,-0.00004010,-0.00040298,0.0000
 3948,-0.00001684,-0.00025074,-0.02527113,-0.01581743,-0.00437667,0.004
 07425,-0.00425852,0.00005513,-0.00032090,0.00464620,0.00106803,-0.4172
 2968,-0.02862003,-0.00697294,0.43868422,-0.00085138,-0.00195674,-0.000
 60145,0.00064448,-0.00002681,-0.00050535,-0.00058293,-0.00055727,-0.00
 074060,-0.00025433,-0.00001304,-0.00002775,0.00001915,0.00001104,-0.00
 003565,0.00003123,0.00009174,0.00001381,-0.00012216,-0.00004016,-0.000
 01122,0.00016829,0.00001098,-0.00002143,-0.00021616,0.00028184,0.00007
 008,0.00001147,-0.00015236,0.00017164,0.04486472,-0.01207604,-0.001163
 44,-0.00340498,0.00325098,-0.00056596,0.00604904,-0.00434993,-0.001359
 23,-0.09111577,-0.03237943,-0.00397947,0.04494406,0.04791582,-0.001876
 99,-0.00175288,-0.00117920,0.00245250,-0.00055694,-0.00171490,-0.00171
 161,-0.00047551,-0.00028818,-0.00055428,0.00014185,0.00007355,0.000024
 35,-0.00004641,-0.00012864,0.00012628,0.00001505,-0.00020844,-0.000371
 59,-0.00004778,0.00044365,0.00052827,-0.00006820,-0.00016290,0.0002205
 2,0.00000311,-0.00006013,0.00006538,-0.00006454,0.00013007,0.00665564,
 -0.00412307,-0.00211453,0.00149631,0.00087358,-0.00305041,-0.00193951,
 0.00120879,0.00513310,-0.01604408,-0.00385766,-0.00764588,0.01140725,0
 .00865464,0.01059057,0.00473276,0.00023809,0.00291437,-0.00518331,-0.0
 0052656,-0.00632885,-0.00132682,0.00016663,0.00165347,-0.00650848,0.00
 206408,0.04994708,0.00229364,-0.00013499,-0.00022264,-0.08823231,-0.00
 062265,0.01279061,0.01384049,0.00034178,-0.02594535,-0.00606008,-0.010
 59968,0.03226665,-0.00662023,0.00036279,0.00240247,0.00038315,-0.00010
 721,-0.00065793,-0.00050467,-0.00043743,-0.00301912,-0.00006550,-0.000
 20297,0.00083722,0.00128507,0.00010070,0.00072517,-0.00011468,0.000436
 55,0.00075071,0.00006115,-0.00005320,-0.00010285,0.62397266,0.00193099
 ,-0.00107224,0.00037765,0.00026013,0.00712084,-0.00145193,0.00007241,0
 .00000193,-0.00004240,-0.00032402,0.00377555,0.00000895,-0.00006238,-0
 .00449881,0.00042747,0.00312246,-0.06439847,0.00138397,-0.00201995,0.0
 0600629,-0.00400841,-0.00472652,-0.00640232,0.00954235,-0.00148123,0.0
 0623434,0.00180976,-0.00002278,0.00040566,0.00010295,-0.00004653,-0.00
 082568,-0.00087557,-0.00026939,-0.00007287,0.00044526,0.00034483,0.000
 12349,0.00027708,0.00000467,0.00021208,0.00015895,0.00002686,-0.000041
 98,0.00001537,0.12657048,0.12279167,-0.00467301,-0.00052944,-0.0046839
 6,0.00366794,0.00003958,0.01204832,0.00153801,-0.00025605,-0.00114924,
 0.02444449,0.00074910,-0.04318191,-0.00187545,0.00040694,0.00095963,-0
 .01619147,-0.01169835,-0.26148530,-0.01557806,-0.00545847,-0.03547409,
 0.00932244,0.00336637,-0.01587774,-0.00487603,-0.00012732,-0.00074147,
 0.00082653,0.00003503,-0.00089781,-0.00121470,0.00106990,0.00397579,0.
 00054924,0.00036701,-0.00107353,-0.00023938,-0.00016612,-0.00127273,0.
 00057645,-0.00092305,-0.00078319,-0.00001615,0.00005728,0.00011782,-0.
 23371880,-0.04927480,0.55194033,-0.00782889,-0.00021499,-0.00309076,0.
 00055677,0.00102297,0.00884748,0.00035068,-0.00006044,-0.00055937,0.00
 876431,-0.00050309,-0.01022033,-0.00054752,0.00000239,0.00071071,-0.02
 512900,-0.00517194,0.04282606,-0.00482299,-0.00352135,-0.00119779,0.01
 093547,0.02620654,-0.08031089,-0.00017298,-0.00054813,-0.00792485,0.00
 063170,-0.00015756,-0.00117618,0.00041669,0.00036372,0.00480571,0.0003
 9600,0.00057780,-0.00142837,-0.00167236,-0.00017370,-0.00143213,0.0003
 6650,-0.00087026,-0.00136491,-0.00012866,0.00007760,0.00006918,-0.4461
 5377,-0.09124897,0.20660656,0.76592451,-0.00283674,-0.00001770,-0.0008
 9416,-0.00018129,0.00068694,0.00216964,0.00010631,-0.00023826,-0.00010
 827,0.00189110,0.00308715,-0.00304428,-0.00024009,-0.00036515,0.000216
 29,-0.00659314,0.00308219,0.00692645,-0.00211751,-0.00040083,0.0008305
 2,0.01897008,0.00783203,-0.01671198,0.00097010,-0.00057892,-0.00329953
 ,0.00019332,0.00000420,-0.00034959,0.00018172,0.00010141,0.00164070,0.
 00016043,0.00023603,-0.00053891,-0.00058817,-0.00007570,-0.00050183,0.
 00016501,-0.00034974,-0.00047685,-0.00005056,0.00004174,0.00000329,-0.
 09585938,-0.09104999,0.05639987,0.14978411,0.19444617,-0.00088094,0.00
 021551,0.00105680,-0.00026384,-0.00027456,-0.00270461,-0.00011706,0.00
 004624,-0.00015022,-0.00642703,-0.00104860,-0.00256636,0.00036122,0.00
 004151,-0.00003329,0.05111749,0.01014936,-0.04717636,0.00541832,0.0016
 4039,0.00710343,-0.02184318,-0.00804880,-0.03433710,0.00229931,-0.0008
 4734,-0.00304150,-0.00013090,-0.00008699,-0.00006311,0.00071081,-0.000
 30665,0.00069359,0.00009629,0.00025736,-0.00036435,-0.00070552,-0.0000
 0761,-0.00013131,0.00001258,-0.00010322,-0.00036852,-0.00006517,0.0000
 3321,-0.00006629,0.17972665,0.05114117,-0.22461104,-0.13963037,-0.0599
 7381,0.79750360,0.00544072,0.00124821,0.00343498,0.00021379,-0.0005614
 4,-0.00510471,-0.00093500,0.00000621,0.00052721,-0.00357739,0.00060375
 ,0.00735738,0.00082754,-0.00026613,-0.00041088,0.01002711,0.00296569,-
 0.02611973,0.01004023,-0.00488626,0.02707567,-0.11034078,-0.01139678,0
 .03095592,-0.00852584,-0.00256636,0.00504646,-0.00054756,-0.00006584,0
 .00050456,-0.00102406,0.00012088,-0.00459497,-0.00029778,-0.00075470,0
 .00126827,0.00164068,0.00011104,0.00136482,-0.00025938,0.00087022,0.00
 143451,0.00013329,-0.00006603,-0.00010943,-0.07705483,-0.02959377,0.00
 238924,-0.23514613,-0.05608489,-0.09610772,0.72475464,0.00426226,0.000
 17483,0.00108117,-0.00047134,-0.00047597,-0.00368497,-0.00039669,0.000
 12270,0.00017191,-0.00265770,-0.00013804,0.00360518,0.00026518,0.00022
 610,-0.00008438,0.00428895,-0.00755413,-0.00853200,0.00677091,0.002380
 68,-0.00023463,-0.00958890,-0.08216037,0.05239063,-0.00391066,0.003648
 24,0.00382686,-0.00019970,-0.00021256,0.00005470,0.00009600,-0.0011856
 7,-0.00163397,-0.00026129,-0.00004848,0.00073154,0.00035312,0.00029351
 ,0.00055781,-0.00021122,0.00057417,0.00024919,0.00004672,-0.00006335,-
 0.00002220,-0.02734286,0.01554385,0.00181107,-0.04747040,-0.05822616,-
 0.00554246,0.12690302,0.13286111,0.00338920,-0.00106032,-0.00044841,0.
 00054718,-0.00035515,-0.00067734,0.00087392,0.00005885,-0.00005909,0.0
 0084439,0.00009944,0.00242506,0.00065696,0.00003130,-0.00042702,0.0042
 1841,0.00128818,-0.00968250,-0.00223014,0.00968825,-0.01621903,-0.0244
 9689,0.05394553,-0.12457981,0.00280288,0.00063646,0.00646499,-0.000644
 56,0.00048373,0.00115892,-0.00117539,0.00073535,-0.00101065,0.00011256
 ,-0.00021624,0.00033678,0.00133183,-0.00005414,0.00025415,0.00013360,-
 0.00011641,0.00048732,0.00008501,-0.00001139,0.00007506,-0.01016206,-0
 .00702669,0.03154636,-0.03430103,0.00094202,-0.17629738,-0.06348414,-0
 .10614226,0.51435761,-0.00072919,0.00076418,0.00064708,0.00132755,-0.0
 0010574,-0.00051850,-0.00160785,0.00000866,0.00063296,-0.00176537,0.00
 111111,-0.00165491,-0.00076770,0.00016376,0.00045967,-0.00295794,-0.00
 136628,0.01068313,-0.01121984,-0.01698301,-0.01989515,-0.33226962,-0.2
 1573093,-0.15230910,0.00033724,0.00028831,-0.00276712,-0.00089198,-0.0
 0044274,0.00010055,-0.00091947,-0.00048630,-0.00402693,-0.00013210,-0.
 00048182,0.00127948,0.00139869,0.00018051,0.00143006,-0.00013086,0.000
 75293,0.00115124,0.00010999,-0.00007583,-0.00018016,0.00104517,0.00011
 561,-0.00151413,0.00216267,-0.00122829,-0.00363394,-0.00364859,-0.0045
 3319,-0.01036182,0.33997611,0.00001830,-0.00018103,0.00072435,0.000426
 14,-0.00006218,-0.00007181,-0.00034033,0.00008055,0.00017120,-0.000253
 02,-0.00037462,-0.00058872,-0.00018337,-0.00018174,0.00017483,-0.00180
 918,0.00100912,0.00177051,0.00420036,0.00611754,-0.00519361,-0.2065759
 3,-0.26027613,-0.12738652,-0.00063729,0.00017938,-0.00058119,-0.000209
 61,-0.00059060,0.00034317,-0.00072179,-0.00079037,-0.00123907,0.000119
 30,0.00023855,0.00036179,0.00068486,0.00037515,0.00036010,0.00001136,0
 .00048451,0.00029678,0.00005639,-0.00001894,-0.00002923,0.00087833,0.0
 0006310,0.00043691,-0.00076397,0.00150626,0.00035808,0.00711763,0.0111
 5931,0.00444062,0.22877772,0.26043974,0.00073759,0.00031742,0.00145475
 ,0.00039972,-0.00007572,0.00008124,0.00006962,-0.00000573,0.00012131,0
 .00081830,0.00012715,0.00134712,0.00030135,-0.00005207,-0.00013467,0.0
 0213746,0.00042920,-0.00501819,0.00511779,0.00005383,0.01032602,-0.149
 21202,-0.13500523,-0.17255197,-0.00184344,0.00055351,-0.00042830,-0.00
 056307,-0.00049707,0.00160349,-0.00176725,-0.00006184,-0.00096416,0.00
 034401,0.00011250,0.00025395,0.00134279,0.00011411,0.00011767,0.000347
 02,-0.00002772,0.00030014,0.00005821,0.00000172,-0.00002091,-0.0055946
 0,-0.00201170,0.00280635,0.01596277,0.00520532,-0.00426088,-0.04195502
 ,-0.01660456,-0.01796474,0.18625025,0.14967746,0.16876613,-0.00194542,
 -0.00138535,0.00116289,0.00156340,0.00023514,0.00029184,-0.00160266,0.
 00025688,0.00047767,-0.00010305,-0.00120767,0.00061124,-0.00023894,-0.
 00008527,0.00007789,0.00181104,0.00078788,0.00435636,-0.00142620,0.022
 66255,0.00833797,-0.10576212,0.10754159,0.01529805,-0.00218906,0.00232
 057,-0.00426906,-0.00034222,0.00068222,0.00000443,-0.00073319,-0.00064
 614,-0.00338766,-0.00018563,-0.00047735,0.00122390,0.00104585,0.000083
 12,0.00109317,-0.00012507,0.00060748,0.00086184,0.00008920,-0.00006646
 ,-0.00016601,0.00218394,0.00141172,-0.00164474,-0.00236843,-0.00244800
 ,0.00143878,0.01485859,0.01001086,-0.00270416,0.01366065,-0.03024347,-
 0.01117056,0.08337626,-0.00030076,0.00086314,-0.00162626,-0.00113910,-
 0.00004673,0.00118071,0.00126205,-0.00017975,-0.00042205,0.00162911,0.
 00059421,-0.00102999,0.00028782,0.00005453,-0.00013365,-0.00003820,-0.
 00100656,-0.00192408,-0.00389843,-0.00527303,0.00004172,0.09613551,-0.
 56519017,-0.08429585,0.00414792,-0.00077119,-0.00049187,0.00005555,-0.
 00103325,0.00039209,0.00020602,-0.00069560,0.00325431,0.00044082,0.001
 17564,-0.00110222,-0.00066743,0.00034380,-0.00105106,0.00020773,-0.000
 30425,-0.00093545,-0.00006493,0.00004602,0.00012261,0.00470542,0.00217
 624,-0.00118016,-0.01318931,-0.00512081,-0.00262319,0.01076789,-0.0127
 2903,0.01403490,0.00977101,-0.01670800,-0.00172287,-0.11290562,0.60726
 183,0.00073823,0.00078052,0.00054930,-0.00004877,-0.00011893,0.0008643
 8,0.00082843,-0.00013407,-0.00020590,0.00132792,0.00096954,0.00046253,
 0.00047737,0.00023452,-0.00027031,0.00110668,-0.00180828,-0.00844877,0
 .00524593,-0.01016099,0.01044212,0.01380391,-0.07408153,-0.08386010,-0
 .00109404,0.00009477,0.00209475,-0.00024578,-0.00005450,0.00045148,-0.
 00082087,0.00016102,0.00029387,0.00018959,0.00008206,-0.00010229,0.000
 49102,-0.00007166,-0.00023466,0.00022523,-0.00023366,-0.00009149,0.000
 00837,0.00001502,0.00005928,-0.00554048,-0.00259159,0.00328707,0.01370
 955,0.00532145,0.00606660,-0.01856645,0.02645812,-0.00858111,-0.001680
 74,-0.02165442,0.01262662,-0.00987278,0.07841726,0.06321645,0.00018935
 ,-0.00005185,-0.00002287,-0.00012518,0.00019985,-0.00011682,-0.0001270
 5,0.00001585,0.00012187,0.00045881,0.00003991,0.00093604,0.00001137,-0
 .00007057,-0.00009577,-0.00094395,-0.00362872,0.00164347,-0.00031495,0
 .00035623,0.00027863,-0.00262680,-0.00602327,0.00322753,0.00043588,0.0
 0030375,0.00042058,-0.00009559,0.00003187,0.00012946,-0.00004004,-0.00
 004807,-0.00028552,-0.00002330,-0.00004029,0.00010314,0.00011109,0.000
 01172,0.00010590,-0.00001538,0.00005232,0.00008189,0.00000876,-0.00000
 923,-0.00000779,-0.00929227,-0.00183317,0.03643339,-0.05006573,-0.0039
 0419,0.00715682,-0.00424206,0.00234456,-0.03391959,-0.00110823,0.00023
 651,-0.00275938,0.00042261,0.00089688,-0.00006671,0.06671806,-0.000628
 83,0.00007418,-0.00006577,-0.00010299,-0.00048438,0.00046905,-0.000051
 62,-0.00000778,0.00006162,0.00057344,0.00021893,0.00034569,-0.00005539
 ,0.00009808,-0.00001644,-0.00395717,0.01131233,0.00071222,-0.00050998,
 -0.00005785,0.00042410,-0.00032158,0.00166096,-0.00033131,0.00047141,-
 0.00116466,-0.00058574,0.00001926,-0.00004848,-0.00000095,-0.00003546,
 0.00017025,0.00007794,0.00004814,0.00000194,-0.00006916,-0.00000852,-0
 .00002302,-0.00003030,0.00000855,-0.00003695,0.00001188,-0.00000256,0.
 00000791,-0.00000775,0.00019372,-0.00210172,0.00889959,-0.00395795,-0.
 04495861,0.01048497,-0.00124064,0.00903859,-0.00675511,-0.00021723,-0.
 00035457,-0.00008217,-0.00011270,0.00010972,0.00008065,0.01005309,0.02
 755896,-0.00002329,-0.00001220,-0.00004540,0.00009962,-0.00008930,0.00
 022317,0.00015704,-0.00000843,-0.00009731,0.00002917,-0.00002835,-0.00
 059224,0.00000347,0.00003458,0.00002596,0.00044154,0.00128074,0.002587
 06,-0.00024304,0.00003301,-0.00025801,-0.00041545,-0.00356305,0.003330
 91,-0.00016025,-0.00006422,-0.00004613,0.00001763,-0.00001154,0.000010
 40,-0.00008999,0.00006249,0.00023558,0.00004074,0.00003583,-0.00007924
 ,0.00000445,-0.00001141,-0.00009516,0.00004453,-0.00007230,-0.00006346
 ,-0.00000338,0.00000764,0.00001378,0.01310527,0.00240964,-0.01358678,0
 .00546668,0.01085347,-0.33455882,-0.00461699,0.00142474,-0.01609900,-0
 .00048336,0.00019633,-0.00107688,-0.00007081,0.00071866,0.00013209,-0.
 01290279,-0.01351577,0.35998241,0.00000997,-0.00009900,-0.00022165,-0.
 00015928,0.00002922,0.00003810,0.00014992,0.00000048,-0.00003393,0.000
 01486,0.00012597,0.00003551,0.00007471,-0.00004305,-0.00004589,0.00035
 201,0.00043413,-0.00091539,-0.00007968,0.00016240,-0.00318843,0.012536
 13,0.00095594,-0.00127243,0.00098938,0.00009825,-0.00004498,0.00002180
 ,0.00000905,0.00008808,0.00001592,0.00001723,0.00042414,0.00005617,0.0
 0008403,-0.00013658,-0.00007253,-0.00000825,-0.00013675,0.00005126,-0.
 00010451,-0.00014384,-0.00001014,0.00000840,0.00001862,-0.00268108,-0.
 00223145,-0.00481238,-0.01646885,-0.00028995,0.02146740,-0.32233717,-0
 .05829764,0.16848381,-0.00186934,-0.00078894,0.00097847,-0.00198956,0.
 00169006,-0.00021561,0.00066460,-0.00016498,-0.00040082,0.33073091,-0.
 00068921,-0.00020148,0.00014011,0.00011924,-0.00007525,0.00083476,0.00
 018763,0.00000364,-0.00007724,0.00060764,-0.00018463,-0.00080762,0.000
 02957,0.00012853,-0.00003591,-0.00027261,0.00003007,0.00175648,0.00075
 664,0.00136076,0.00109988,-0.00936477,0.00161379,0.01044234,0.00004971
 ,-0.00076143,-0.00083654,0.00004430,0.00012062,-0.00002081,-0.00006985
 ,0.00033825,0.00032917,0.00004992,-0.00002160,-0.00016546,-0.00007412,
 -0.00008031,-0.00014247,0.00004714,-0.00013807,-0.00005452,-0.00000984
 ,0.00001798,0.00001385,-0.00017163,0.00600903,-0.00402487,-0.01018307,
 -0.00964226,0.00449543,-0.04323170,-0.01322934,0.03535308,-0.00028246,
 -0.00211505,-0.00044555,0.00297803,-0.00356676,-0.00170530,0.00106682,
 -0.00101384,0.00031944,0.05841261,0.02140734,0.00029364,-0.00045436,-0
 .00052561,-0.00004664,-0.00001162,-0.00016114,0.00008476,0.00002665,0.
 00000948,-0.00009526,-0.00005728,0.00035397,0.00009540,0.00000096,-0.0
 0000748,-0.00047789,-0.00038951,-0.00215358,-0.00234670,0.00256576,-0.
 00596804,0.02926160,0.00190932,-0.00948244,0.00164205,0.00025682,0.000
 79605,-0.00002285,0.00016839,0.00005124,0.00013247,0.00016216,0.000196
 48,-0.00000442,-0.00000291,-0.00006117,-0.00003256,-0.00003340,-0.0000
 2326,-0.00001444,-0.00006345,-0.00000328,0.00000031,-0.00000211,0.0000
 0354,-0.00582700,-0.00081749,-0.00186289,-0.01636772,-0.00460982,0.018
 30714,0.17971100,0.05011852,-0.18506015,-0.00360856,-0.00256757,0.0026
 1591,-0.00195024,0.00037644,0.00124810,-0.00046149,-0.00010725,0.00005
 707,-0.17996545,-0.04646824,0.18167004\\0.00002979,0.00000129,0.000013
 35,-0.00004620,0.00000123,0.00000113,0.00002413,-0.00000444,-0.0000032
 5,0.00001392,-0.00000406,0.00000555,-0.00000028,-0.00000096,-0.0000027
 1,-0.00000339,-0.00000057,0.00004315,0.00000064,-0.00000597,0.00001609
 ,0.00002870,0.00001073,-0.00006247,-0.00002961,-0.00000237,-0.00004553
 ,0.00000196,0.00000381,0.00001024,0.00004424,0.00000661,0.00001960,0.0
 0000286,0.00000860,-0.00000071,-0.00004140,-0.00000358,-0.00001423,0.0
 0000250,0.00000326,0.00000209,-0.00001034,0.00000008,-0.00000101,0.000
 05119,0.00001509,-0.00002938,-0.00013150,-0.00003789,-0.00002363,0.000
 05748,0.00000022,0.00005267,-0.00000583,-0.00000807,0.00000134,-0.0000
 0835,0.00000973,0.00001736,0.00001892,-0.00000029,0.00000129,0.0000005
 7,0.00000754,-0.00000095\\\@
 The archive entry for this job was punched.


 HE THAT WALD REACHE THE SWEITE ROSE
 SULD NOW AND THEN BE SCRATCHED WT THE SCHARPE BREERES.
 -- PROVERBS AND REASONS OF THE YEAR 1585
           AS REPRINTED IN PAISLEY MAGAZINE 1828.
 Job cpu time:       0 days  1 hours 52 minutes 13.5 seconds.
 Elapsed time:       0 days  0 hours  7 minutes  3.4 seconds.
 File lengths (MBytes):  RWF=    318 Int=      0 D2E=      0 Chk=     11 Scr=      1
 Normal termination of Gaussian 16 at Fri Jul  1 09:18:25 2022.
