 Entering Gaussian System, Link 0=g16
 AtFile(1): /home/561/yj5695/Basis/6-31pGd.gbs
 Initial command:
 /apps/gaussian/g16c01/g16/l1.exe "/jobfs/49776266.gadi-pbs/Gau-3972195.inp" -scrdir="/jobfs/49776266.gadi-pbs/"
 Entering Link 1 = /apps/gaussian/g16c01/g16/l1.exe PID=   3972197.
  
 Copyright (c) 1988-2019, Gaussian, Inc.  All Rights Reserved.
  
 This is part of the Gaussian(R) 16 program.  It is based on
 the Gaussian(R) 09 system (copyright 2009, Gaussian, Inc.),
 the Gaussian(R) 03 system (copyright 2003, Gaussian, Inc.),
 the Gaussian(R) 98 system (copyright 1998, Gaussian, Inc.),
 the Gaussian(R) 94 system (copyright 1995, Gaussian, Inc.),
 the Gaussian 92(TM) system (copyright 1992, Gaussian, Inc.),
 the Gaussian 90(TM) system (copyright 1990, Gaussian, Inc.),
 the Gaussian 88(TM) system (copyright 1988, Gaussian, Inc.),
 the Gaussian 86(TM) system (copyright 1986, Carnegie Mellon
 University), and the Gaussian 82(TM) system (copyright 1983,
 Carnegie Mellon University). Gaussian is a federally registered
 trademark of Gaussian, Inc.
  
 This software contains proprietary and confidential information,
 including trade secrets, belonging to Gaussian, Inc.
  
 This software is provided under written license and may be
 used, copied, transmitted, or stored only in accord with that
 written license.
  
 The following legend is applicable only to US Government
 contracts under FAR:
  
                    RESTRICTED RIGHTS LEGEND
  
 Use, reproduction and disclosure by the US Government is
 subject to restrictions as set forth in subparagraphs (a)
 and (c) of the Commercial Computer Software - Restricted
 Rights clause in FAR 52.227-19.
  
 Gaussian, Inc.
 340 Quinnipiac St., Bldg. 40, Wallingford CT 06492
  
  
 ---------------------------------------------------------------
 Warning -- This program may not be used in any manner that
 competes with the business of Gaussian, Inc. or will provide
 assistance to any competitor of Gaussian, Inc.  The licensee
 of this program is prohibited from giving any competitor of
 Gaussian, Inc. access to this program.  By using this program,
 the user acknowledges that Gaussian, Inc. is engaged in the
 business of creating and licensing software in the field of
 computational chemistry and represents and warrants to the
 licensee that it is not a competitor of Gaussian, Inc. and that
 it will not use this program in any manner prohibited above.
 ---------------------------------------------------------------
  

 Cite this work as:
 Gaussian 16, Revision C.01,
 M. J. Frisch, G. W. Trucks, H. B. Schlegel, G. E. Scuseria, 
 M. A. Robb, J. R. Cheeseman, G. Scalmani, V. Barone, 
 G. A. Petersson, H. Nakatsuji, X. Li, M. Caricato, A. V. Marenich, 
 J. Bloino, B. G. Janesko, R. Gomperts, B. Mennucci, H. P. Hratchian, 
 J. V. Ortiz, A. F. Izmaylov, J. L. Sonnenberg, D. Williams-Young, 
 F. Ding, F. Lipparini, F. Egidi, J. Goings, B. Peng, A. Petrone, 
 T. Henderson, D. Ranasinghe, V. G. Zakrzewski, J. Gao, N. Rega, 
 G. Zheng, W. Liang, M. Hada, M. Ehara, K. Toyota, R. Fukuda, 
 J. Hasegawa, M. Ishida, T. Nakajima, Y. Honda, O. Kitao, H. Nakai, 
 T. Vreven, K. Throssell, J. A. Montgomery, Jr., J. E. Peralta, 
 F. Ogliaro, M. J. Bearpark, J. J. Heyd, E. N. Brothers, K. N. Kudin, 
 V. N. Staroverov, T. A. Keith, R. Kobayashi, J. Normand, 
 K. Raghavachari, A. P. Rendell, J. C. Burant, S. S. Iyengar, 
 J. Tomasi, M. Cossi, J. M. Millam, M. Klene, C. Adamo, R. Cammi, 
 J. W. Ochterski, R. L. Martin, K. Morokuma, O. Farkas, 
 J. B. Foresman, and D. J. Fox, Gaussian, Inc., Wallingford CT, 2019.
 
 ******************************************
 Gaussian 16:  ES64L-G16RevC.01  3-Jul-2019
                 1-Jul-2022 
 ******************************************
 %nproc=16
 Will use up to   16 processors via shared memory.
 %mem=50gb
 --------------------------------------------------
 #M062X/gen 6D INT(grid=ultrafine) OPT Freq=noraman
 --------------------------------------------------
 1/18=20,19=15,26=4,38=1/1,3;
 2/9=110,12=2,17=6,18=5,40=1/2;
 3/5=7,8=2,11=2,25=1,30=1,71=1,74=-55,75=-5/1,2,3;
 4//1;
 5/5=2,38=5/2;
 6/7=2,8=2,9=2,10=2,28=1/1;
 7//1,2,3,16;
 1/18=20,19=15,26=4/3(2);
 2/9=110/2;
 99//99;
 2/9=110/2;
 3/5=7,6=1,8=2,11=2,25=1,30=1,71=1,74=-55,75=-5,82=7/1,2,3;
 4/5=5,16=3,69=1/1;
 5/5=2,38=5/2;
 7//1,2,3,16;
 1/18=20,19=15,26=4/3(-5);
 2/9=110/2;
 6/7=2,8=2,9=2,10=2,19=2,28=1/1;
 99/9=1/99;
 ---------
 A.32.freq
 ---------
 Symbolic Z-matrix:
 Charge = -1 Multiplicity = 1
 C                    -1.43863   0.65029  -0.81429 
 C                    -2.55646   0.70366  -1.66434 
 Cl                   -4.17344   0.78148  -1.01372 
 C                    -2.43874   0.70571  -3.03924 
 H                    -3.32401   0.75343  -3.66603 
 C                    -1.17055   0.64603  -3.64878 
 C                    -0.05404   0.59254  -2.79193 
 S                     1.5838    0.49672  -3.44357 
 C                    -0.18668   0.5993   -1.40437 
 H                     0.69631   0.56605  -0.77186 
 S                    -1.56137   0.65447   0.99439 
 O                    -2.30677  -0.60455   1.28724 
 O                    -0.14228   0.62948   1.43108 
 N                    -2.2326    1.96578   1.50304 
 H                    -3.24142   1.88902   1.35969 
 N                    -1.0537    0.70331  -5.012 
 C                     0.19114   0.29623  -5.62758 
 N                     1.27506   1.05183  -4.98202 
 O                     2.46684   1.45993  -2.78239 
 O                     2.03863  -0.90132  -3.43534 
 H                     0.17926   0.57547  -6.67876 
 H                     2.13708   1.04129  -5.53536 
 H                    -1.89475   0.49338  -5.53989 
 H                     0.34997  -0.78777  -5.54667 
 

 GradGradGradGradGradGradGradGradGradGradGradGradGradGradGradGradGradGrad
 Berny optimization.
 Initialization pass.
                           ----------------------------
                           !    Initial Parameters    !
                           ! (Angstroms and Degrees)  !
 --------------------------                            --------------------------
 ! Name  Definition              Value          Derivative Info.                !
 --------------------------------------------------------------------------------
 ! R1    R(1,2)                  1.4053         estimate D2E/DX2                !
 ! R2    R(1,9)                  1.385          estimate D2E/DX2                !
 ! R3    R(1,11)                 1.8128         estimate D2E/DX2                !
 ! R4    R(2,3)                  1.7447         estimate D2E/DX2                !
 ! R5    R(2,4)                  1.3799         estimate D2E/DX2                !
 ! R6    R(4,5)                  1.0857         estimate D2E/DX2                !
 ! R7    R(4,6)                  1.4083         estimate D2E/DX2                !
 ! R8    R(6,7)                  1.4084         estimate D2E/DX2                !
 ! R9    R(6,16)                 1.3694         estimate D2E/DX2                !
 ! R10   R(7,8)                  1.7653         estimate D2E/DX2                !
 ! R11   R(7,9)                  1.3939         estimate D2E/DX2                !
 ! R12   R(8,18)                 1.6644         estimate D2E/DX2                !
 ! R13   R(8,19)                 1.4645         estimate D2E/DX2                !
 ! R14   R(8,20)                 1.4702         estimate D2E/DX2                !
 ! R15   R(9,10)                 1.0867         estimate D2E/DX2                !
 ! R16   R(11,12)                1.4922         estimate D2E/DX2                !
 ! R17   R(11,13)                1.485          estimate D2E/DX2                !
 ! R18   R(11,14)                1.5585         estimate D2E/DX2                !
 ! R19   R(14,15)                1.0218         estimate D2E/DX2                !
 ! R20   R(16,17)                1.4472         estimate D2E/DX2                !
 ! R21   R(16,23)                1.0149         estimate D2E/DX2                !
 ! R22   R(17,18)                1.4706         estimate D2E/DX2                !
 ! R23   R(17,21)                1.0877         estimate D2E/DX2                !
 ! R24   R(17,24)                1.0986         estimate D2E/DX2                !
 ! R25   R(18,22)                1.0244         estimate D2E/DX2                !
 ! A1    A(2,1,9)              117.5616         estimate D2E/DX2                !
 ! A2    A(2,1,11)             123.3355         estimate D2E/DX2                !
 ! A3    A(9,1,11)             119.102          estimate D2E/DX2                !
 ! A4    A(1,2,3)              120.8852         estimate D2E/DX2                !
 ! A5    A(1,2,4)              122.3352         estimate D2E/DX2                !
 ! A6    A(3,2,4)              116.7784         estimate D2E/DX2                !
 ! A7    A(2,4,5)              120.3774         estimate D2E/DX2                !
 ! A8    A(2,4,6)              120.5292         estimate D2E/DX2                !
 ! A9    A(5,4,6)              119.0934         estimate D2E/DX2                !
 ! A10   A(4,6,7)              116.8821         estimate D2E/DX2                !
 ! A11   A(4,6,16)             120.3914         estimate D2E/DX2                !
 ! A12   A(7,6,16)             122.6547         estimate D2E/DX2                !
 ! A13   A(6,7,8)              120.8627         estimate D2E/DX2                !
 ! A14   A(6,7,9)              122.005          estimate D2E/DX2                !
 ! A15   A(8,7,9)              117.1294         estimate D2E/DX2                !
 ! A16   A(7,8,18)              98.6845         estimate D2E/DX2                !
 ! A17   A(7,8,19)             110.9207         estimate D2E/DX2                !
 ! A18   A(7,8,20)             109.6684         estimate D2E/DX2                !
 ! A19   A(18,8,19)            108.0474         estimate D2E/DX2                !
 ! A20   A(18,8,20)            112.3158         estimate D2E/DX2                !
 ! A21   A(19,8,20)            115.8723         estimate D2E/DX2                !
 ! A22   A(1,9,7)              120.6845         estimate D2E/DX2                !
 ! A23   A(1,9,10)             119.1861         estimate D2E/DX2                !
 ! A24   A(7,9,10)             120.1293         estimate D2E/DX2                !
 ! A25   A(1,11,12)            103.1607         estimate D2E/DX2                !
 ! A26   A(1,11,13)            103.2179         estimate D2E/DX2                !
 ! A27   A(1,11,14)            110.8994         estimate D2E/DX2                !
 ! A28   A(12,11,13)           113.9205         estimate D2E/DX2                !
 ! A29   A(12,11,14)           115.5146         estimate D2E/DX2                !
 ! A30   A(13,11,14)           109.2555         estimate D2E/DX2                !
 ! A31   A(11,14,15)           108.435          estimate D2E/DX2                !
 ! A32   A(6,16,17)            119.0173         estimate D2E/DX2                !
 ! A33   A(6,16,23)            116.0025         estimate D2E/DX2                !
 ! A34   A(17,16,23)           115.6831         estimate D2E/DX2                !
 ! A35   A(16,17,18)           107.6234         estimate D2E/DX2                !
 ! A36   A(16,17,21)           109.237          estimate D2E/DX2                !
 ! A37   A(16,17,24)           111.753          estimate D2E/DX2                !
 ! A38   A(18,17,21)           107.4808         estimate D2E/DX2                !
 ! A39   A(18,17,24)           111.5991         estimate D2E/DX2                !
 ! A40   A(21,17,24)           109.0312         estimate D2E/DX2                !
 ! A41   A(8,18,17)            111.7847         estimate D2E/DX2                !
 ! A42   A(8,18,22)            109.8616         estimate D2E/DX2                !
 ! A43   A(17,18,22)           112.1997         estimate D2E/DX2                !
 ! D1    D(9,1,2,3)           -179.567          estimate D2E/DX2                !
 ! D2    D(9,1,2,4)              0.0333         estimate D2E/DX2                !
 ! D3    D(11,1,2,3)             0.087          estimate D2E/DX2                !
 ! D4    D(11,1,2,4)           179.6873         estimate D2E/DX2                !
 ! D5    D(2,1,9,7)             -0.4254         estimate D2E/DX2                !
 ! D6    D(2,1,9,10)           179.476          estimate D2E/DX2                !
 ! D7    D(11,1,9,7)           179.9054         estimate D2E/DX2                !
 ! D8    D(11,1,9,10)           -0.1932         estimate D2E/DX2                !
 ! D9    D(2,1,11,12)           62.8115         estimate D2E/DX2                !
 ! D10   D(2,1,11,13)         -178.3294         estimate D2E/DX2                !
 ! D11   D(2,1,11,14)          -61.438          estimate D2E/DX2                !
 ! D12   D(9,1,11,12)         -117.5395         estimate D2E/DX2                !
 ! D13   D(9,1,11,13)            1.3196         estimate D2E/DX2                !
 ! D14   D(9,1,11,14)          118.211          estimate D2E/DX2                !
 ! D15   D(1,2,4,5)           -179.6518         estimate D2E/DX2                !
 ! D16   D(1,2,4,6)              0.3476         estimate D2E/DX2                !
 ! D17   D(3,2,4,5)             -0.036          estimate D2E/DX2                !
 ! D18   D(3,2,4,6)            179.9634         estimate D2E/DX2                !
 ! D19   D(2,4,6,7)             -0.3221         estimate D2E/DX2                !
 ! D20   D(2,4,6,16)          -177.322          estimate D2E/DX2                !
 ! D21   D(5,4,6,7)            179.6772         estimate D2E/DX2                !
 ! D22   D(5,4,6,16)             2.6774         estimate D2E/DX2                !
 ! D23   D(4,6,7,8)            179.2956         estimate D2E/DX2                !
 ! D24   D(4,6,7,9)             -0.0686         estimate D2E/DX2                !
 ! D25   D(16,6,7,8)            -3.7782         estimate D2E/DX2                !
 ! D26   D(16,6,7,9)           176.8576         estimate D2E/DX2                !
 ! D27   D(4,6,16,17)         -164.0353         estimate D2E/DX2                !
 ! D28   D(4,6,16,23)          -18.7498         estimate D2E/DX2                !
 ! D29   D(7,6,16,17)           19.1432         estimate D2E/DX2                !
 ! D30   D(7,6,16,23)          164.4287         estimate D2E/DX2                !
 ! D31   D(6,7,8,18)            19.5768         estimate D2E/DX2                !
 ! D32   D(6,7,8,19)           132.7746         estimate D2E/DX2                !
 ! D33   D(6,7,8,20)           -97.9724         estimate D2E/DX2                !
 ! D34   D(9,7,8,18)          -161.029          estimate D2E/DX2                !
 ! D35   D(9,7,8,19)           -47.8312         estimate D2E/DX2                !
 ! D36   D(9,7,8,20)            81.4218         estimate D2E/DX2                !
 ! D37   D(6,7,9,1)              0.4521         estimate D2E/DX2                !
 ! D38   D(6,7,9,10)          -179.4484         estimate D2E/DX2                !
 ! D39   D(8,7,9,1)           -178.9347         estimate D2E/DX2                !
 ! D40   D(8,7,9,10)             1.1649         estimate D2E/DX2                !
 ! D41   D(7,8,18,17)          -53.1934         estimate D2E/DX2                !
 ! D42   D(7,8,18,22)         -178.4334         estimate D2E/DX2                !
 ! D43   D(19,8,18,17)        -168.6405         estimate D2E/DX2                !
 ! D44   D(19,8,18,22)          66.1195         estimate D2E/DX2                !
 ! D45   D(20,8,18,17)          62.321          estimate D2E/DX2                !
 ! D46   D(20,8,18,22)         -62.9189         estimate D2E/DX2                !
 ! D47   D(1,11,14,15)          77.8787         estimate D2E/DX2                !
 ! D48   D(12,11,14,15)        -39.0131         estimate D2E/DX2                !
 ! D49   D(13,11,14,15)       -169.0018         estimate D2E/DX2                !
 ! D50   D(6,16,17,18)         -53.1798         estimate D2E/DX2                !
 ! D51   D(6,16,17,21)        -169.5821         estimate D2E/DX2                !
 ! D52   D(6,16,17,24)          69.6814         estimate D2E/DX2                !
 ! D53   D(23,16,17,18)        161.4277         estimate D2E/DX2                !
 ! D54   D(23,16,17,21)         45.0254         estimate D2E/DX2                !
 ! D55   D(23,16,17,24)        -75.711          estimate D2E/DX2                !
 ! D56   D(16,17,18,8)          73.4458         estimate D2E/DX2                !
 ! D57   D(16,17,18,22)       -162.6181         estimate D2E/DX2                !
 ! D58   D(21,17,18,8)        -169.0068         estimate D2E/DX2                !
 ! D59   D(21,17,18,22)        -45.0707         estimate D2E/DX2                !
 ! D60   D(24,17,18,8)         -49.51           estimate D2E/DX2                !
 ! D61   D(24,17,18,22)         74.4261         estimate D2E/DX2                !
 --------------------------------------------------------------------------------
 Trust Radius=3.00D-01 FncErr=1.00D-07 GrdErr=1.00D-06 EigMax=2.50D+02 EigMin=1.00D-04
 Number of steps in this run=    139 maximum allowed number of steps=    144.
 GradGradGradGradGradGradGradGradGradGradGradGradGradGradGradGradGradGrad

                          Input orientation:                          
 ---------------------------------------------------------------------
 Center     Atomic      Atomic             Coordinates (Angstroms)
 Number     Number       Type             X           Y           Z
 ---------------------------------------------------------------------
      1          6           0       -1.438631    0.650293   -0.814287
      2          6           0       -2.556457    0.703664   -1.664335
      3         17           0       -4.173442    0.781484   -1.013720
      4          6           0       -2.438743    0.705708   -3.039244
      5          1           0       -3.324013    0.753432   -3.666027
      6          6           0       -1.170545    0.646027   -3.648778
      7          6           0       -0.054042    0.592540   -2.791931
      8         16           0        1.583800    0.496722   -3.443573
      9          6           0       -0.186676    0.599302   -1.404371
     10          1           0        0.696307    0.566049   -0.771861
     11         16           0       -1.561370    0.654472    0.994391
     12          8           0       -2.306773   -0.604554    1.287236
     13          8           0       -0.142276    0.629475    1.431078
     14          7           0       -2.232604    1.965775    1.503036
     15          1           0       -3.241425    1.889021    1.359687
     16          7           0       -1.053703    0.703306   -5.011996
     17          6           0        0.191141    0.296226   -5.627579
     18          7           0        1.275056    1.051832   -4.982021
     19          8           0        2.466841    1.459926   -2.782388
     20          8           0        2.038632   -0.901324   -3.435340
     21          1           0        0.179260    0.575469   -6.678762
     22          1           0        2.137084    1.041289   -5.535358
     23          1           0       -1.894753    0.493384   -5.539885
     24          1           0        0.349973   -0.787772   -5.546668
 ---------------------------------------------------------------------
                    Distance matrix (angstroms):
                    1          2          3          4          5
     1  C    0.000000
     2  C    1.405334   0.000000
     3  Cl   2.745209   1.744705   0.000000
     4  C    2.440026   1.379940   2.667896   0.000000
     5  H    3.420193   2.144386   2.785148   1.085742   0.000000
     6  C    2.847143   2.421174   3.997407   1.408339   2.156213
     7  C    2.414850   2.746981   4.490790   2.400161   3.388605
     8  S    4.008967   4.511124   6.255486   4.048211   4.919554
     9  C    1.384988   2.386281   4.010000   2.784949   3.870624
    10  H    2.137021   3.375785   4.880508   3.871573   4.957246
    11  S    1.812843   2.839267   3.297204   4.128270   4.983593
    12  O    2.597058   3.238140   3.271078   4.522458   5.235811
    13  O    2.592805   3.926239   4.717037   5.026266   6.009933
    14  N    2.780445   3.424915   3.391674   4.718322   5.420347
    15  H    3.083939   3.319482   2.779992   4.625486   5.153076
    16  N    4.215654   3.669482   5.071991   2.410413   2.639782
    17  C    5.094046   4.839690   6.369674   3.712606   4.051300
    18  N    4.989522   5.080231   6.745860   4.205531   4.792944
    19  O    4.447655   5.201489   6.905202   4.969867   5.900333
    20  O    4.622639   5.179506   6.876477   4.773503   5.616884
    21  H    6.084014   5.713585   7.147108   4.485197   4.623977
    22  H    5.935244   6.093286   7.767589   5.223159   5.779346
    23  H    4.750152   3.937253   5.075588   2.567920   2.371023
    24  H    5.259521   5.073876   6.593289   4.036656   4.405711
                    6          7          8          9         10
     6  C    0.000000
     7  C    1.408413   0.000000
     8  S    2.766012   1.765317   0.000000
     9  C    2.451030   1.393902   2.702490   0.000000
    10  H    3.430479   2.155089   2.816114   1.086662   0.000000
    11  S    4.659595   4.075796   5.441737   2.765300   2.867851
    12  O    5.217202   4.811178   6.223336   3.631642   3.824746
    13  O    5.182909   4.224093   5.172928   2.835957   2.358005
    14  N    5.423180   5.007859   6.418099   3.808685   3.963951
    15  H    5.560422   5.392236   6.949288   4.316814   4.668992
    16  N    1.369415   2.437269   3.075557   3.711807   4.589131
    17  C    2.427387   2.861611   2.597996   4.250893   4.889376
    18  N    2.814815   2.602680   1.664419   3.891147   4.277427
    19  O    3.826701   2.665951   1.464475   3.111391   2.824186
    20  O    3.569127   2.650450   1.470195   3.365814   3.324024
    21  H    3.317794   3.893863   3.527801   5.287124   5.929495
    22  H    3.828293   3.539604   2.231196   4.760280   4.999259
    23  H    2.030779   3.308973   4.061387   4.475626   5.427055
    24  H    2.823073   3.107581   2.755950   4.401203   4.975094
                   11         12         13         14         15
    11  S    0.000000
    12  O    1.492156   0.000000
    13  O    1.484975   2.495709   0.000000
    14  N    1.558457   2.580438   2.482004   0.000000
    15  H    2.116633   2.663970   3.346083   1.021841   0.000000
    16  N    6.028001   6.554464   6.507638   6.740124   6.840350
    17  C    6.859309   7.407135   7.074381   7.714117   7.946156
    18  N    6.627270   7.407880   6.581418   7.429329   7.830501
    19  O    5.580260   6.603885   5.024981   6.380088   7.065777
    20  O    5.916336   6.424432   5.548128   7.131007   7.658806
    21  H    7.868501   8.427925   8.116391   8.642445   8.834204
    22  H    7.514373   8.306891   7.341410   8.335936   8.785707
    23  H    6.544758   6.927107   7.189160   7.203111   7.166968
    24  H    6.965540   7.334446   7.137215   7.996877   8.231713
                   16         17         18         19         20
    16  N    0.000000
    17  C    1.447168   0.000000
    18  N    2.354886   1.470564   0.000000
    19  O    4.235310   3.824673   2.534813   0.000000
    20  O    3.824032   3.106970   2.605780   2.487008   0.000000
    21  H    2.077173   1.087705   2.075240   4.604022   4.019697
    22  H    3.251040   2.085742   1.024395   2.804075   2.862431
    23  H    1.014938   2.097025   3.266613   5.249904   4.673953
    24  H    2.116482   1.098556   2.135123   4.144215   2.705950
                   21         22         23         24
    21  H    0.000000
    22  H    2.314614   0.000000
    23  H    2.367553   4.068898   0.000000
    24  H    1.780226   2.557217   2.584608   0.000000
 Stoichiometry    C7H7ClN3O4S2(1-)
 Framework group  C1[X(C7H7ClN3O4S2)]
 Deg. of freedom    66
 Full point group                 C1      NOp   1
 Largest Abelian subgroup         C1      NOp   1
 Largest concise Abelian subgroup C1      NOp   1
                         Standard orientation:                         
 ---------------------------------------------------------------------
 Center     Atomic      Atomic             Coordinates (Angstroms)
 Number     Number       Type             X           Y           Z
 ---------------------------------------------------------------------
      1          6           0        1.245515   -0.106660    0.002630
      2          6           0        1.221373    1.298350   -0.015491
      3         17           0        2.703019    2.219611   -0.015301
      4          6           0        0.043040    2.016019   -0.042281
      5          1           0        0.061559    3.101435   -0.061415
      6          6           0       -1.199021    1.352169   -0.045207
      7          6           0       -1.168619   -0.055796   -0.026818
      8         16           0       -2.664059   -0.993729   -0.009927
      9          6           0        0.029044   -0.768684   -0.008010
     10          1           0        0.017023   -1.855269   -0.003153
     11         16           0        2.776906   -1.076459    0.029649
     12          8           0        3.406752   -0.680912    1.323235
     13          8           0        2.290935   -2.479365    0.000705
     14          7           0        3.631253   -0.802104   -1.244560
     15          1           0        4.108029    0.094032   -1.127155
     16          7           0       -2.365386    2.065053   -0.126973
     17          6           0       -3.611279    1.414668    0.218056
     18          7           0       -3.702415    0.178663   -0.573490
     19          8           0       -2.616465   -2.071665   -1.000117
     20          8           0       -2.977010   -1.401294    1.367544
     21          1           0       -4.441885    2.052648   -0.075507
     22          1           0       -4.657705   -0.189644   -0.607470
     23          1           0       -2.302635    3.049742    0.110826
     24          1           0       -3.679459    1.210894    1.295392
 ---------------------------------------------------------------------
 Rotational constants (GHZ):           0.6560902           0.2391203           0.1889345
 General basis read from cards:  (6D, 7F)
 There are   349 symmetry adapted cartesian basis functions of A   symmetry.
 There are   349 symmetry adapted basis functions of A   symmetry.
   349 basis functions,   644 primitive gaussians,   349 cartesian basis functions
    76 alpha electrons       76 beta electrons
       nuclear repulsion energy      1719.4056921550 Hartrees.
 NAtoms=   24 NActive=   24 NUniq=   24 SFac= 1.00D+00 NAtFMM=   60 NAOKFM=F Big=F
 Integral buffers will be    131072 words long.
 Raffenetti 2 integral format.
 Two-electron integral symmetry is turned on.
 One-electron integrals computed using PRISM.
 NBasis=   349 RedAO= T EigKep=  1.83D-06  NBF=   349
 NBsUse=   347 1.00D-06 EigRej=  7.60D-07 NBFU=   347
 ExpMin= 4.05D-02 ExpMax= 2.52D+04 ExpMxC= 3.78D+03 IAcc=3 IRadAn=         5 AccDes= 0.00D+00
 Harris functional with IExCor= 1009 and IRadAn=       5 diagonalized for initial guess.
 HarFok:  IExCor= 1009 AccDes= 0.00D+00 IRadAn=         5 IDoV= 1 UseB2=F ITyADJ=14
 ICtDFT=  3500011 ScaDFX=  1.000000  1.000000  1.000000  1.000000
 FoFCou: FMM=F IPFlag=           0 FMFlag=      100000 FMFlg1=           0
         NFxFlg=           0 DoJE=T BraDBF=F KetDBF=T FulRan=T
         wScrn=  0.000000 ICntrl=       500 IOpCl=  0 I1Cent=   200000004 NGrid=           0
         NMat0=    1 NMatS0=      1 NMatT0=    0 NMatD0=    1 NMtDS0=    0 NMtDT0=    0
 Petite list used in FoFCou.
 Requested convergence on RMS density matrix=1.00D-08 within 128 cycles.
 Requested convergence on MAX density matrix=1.00D-06.
 Requested convergence on             energy=1.00D-06.
 No special actions if energy rises.
 SCF Done:  E(RM062X) =  -1992.22522296     A.U. after   18 cycles
            NFock= 18  Conv=0.35D-08     -V/T= 2.0051

 **********************************************************************

            Population analysis using the SCF Density.

 **********************************************************************

 Orbital symmetries:
       Occupied  (A) (A) (A) (A) (A) (A) (A) (A) (A) (A) (A) (A)
                 (A) (A) (A) (A) (A) (A) (A) (A) (A) (A) (A) (A)
                 (A) (A) (A) (A) (A) (A) (A) (A) (A) (A) (A) (A)
                 (A) (A) (A) (A) (A) (A) (A) (A) (A) (A) (A) (A)
                 (A) (A) (A) (A) (A) (A) (A) (A) (A) (A) (A) (A)
                 (A) (A) (A) (A) (A) (A) (A) (A) (A) (A) (A) (A)
                 (A) (A) (A) (A)
       Virtual   (A) (A) (A) (A) (A) (A) (A) (A) (A) (A) (A) (A)
                 (A) (A) (A) (A) (A) (A) (A) (A) (A) (A) (A) (A)
                 (A) (A) (A) (A) (A) (A) (A) (A) (A) (A) (A) (A)
                 (A) (A) (A) (A) (A) (A) (A) (A) (A) (A) (A) (A)
                 (A) (A) (A) (A) (A) (A) (A) (A) (A) (A) (A) (A)
                 (A) (A) (A) (A) (A) (A) (A) (A) (A) (A) (A) (A)
                 (A) (A) (A) (A) (A) (A) (A) (A) (A) (A) (A) (A)
                 (A) (A) (A) (A) (A) (A) (A) (A) (A) (A) (A) (A)
                 (A) (A) (A) (A) (A) (A) (A) (A) (A) (A) (A) (A)
                 (A) (A) (A) (A) (A) (A) (A) (A) (A) (A) (A) (A)
                 (A) (A) (A) (A) (A) (A) (A) (A) (A) (A) (A) (A)
                 (A) (A) (A) (A) (A) (A) (A) (A) (A) (A) (A) (A)
                 (A) (A) (A) (A) (A) (A) (A) (A) (A) (A) (A) (A)
                 (A) (A) (A) (A) (A) (A) (A) (A) (A) (A) (A) (A)
                 (A) (A) (A) (A) (A) (A) (A) (A) (A) (A) (A) (A)
                 (A) (A) (A) (A) (A) (A) (A) (A) (A) (A) (A) (A)
                 (A) (A) (A) (A) (A) (A) (A) (A) (A) (A) (A) (A)
                 (A) (A) (A) (A) (A) (A) (A) (A) (A) (A) (A) (A)
                 (A) (A) (A) (A) (A) (A) (A) (A) (A) (A) (A) (A)
                 (A) (A) (A) (A) (A) (A) (A) (A) (A) (A) (A) (A)
                 (A) (A) (A) (A) (A) (A) (A) (A) (A) (A) (A) (A)
                 (A) (A) (A) (A) (A) (A) (A) (A) (A) (A) (A) (A)
                 (A) (A) (A) (A) (A) (A) (A)
 The electronic state is 1-A.
 Alpha  occ. eigenvalues -- -102.57618 -90.07883 -89.97850 -19.55431 -19.55347
 Alpha  occ. eigenvalues --  -19.45378 -19.45297 -14.73540 -14.72623 -14.56222
 Alpha  occ. eigenvalues --  -10.57574 -10.54055 -10.53474 -10.50050 -10.48381
 Alpha  occ. eigenvalues --  -10.47727 -10.46834  -9.72255  -8.38966  -8.28631
 Alpha  occ. eigenvalues --   -7.44661  -7.44003  -7.43969  -6.31203  -6.31083
 Alpha  occ. eigenvalues --   -6.31018  -6.20842  -6.20818  -6.20721  -1.15482
 Alpha  occ. eigenvalues --   -1.04414  -1.03209  -1.02708  -0.95625  -0.92441
 Alpha  occ. eigenvalues --   -0.90524  -0.85498  -0.80370  -0.77967  -0.77220
 Alpha  occ. eigenvalues --   -0.71287  -0.67257  -0.64050  -0.58503  -0.56037
 Alpha  occ. eigenvalues --   -0.55564  -0.52478  -0.50799  -0.50236  -0.47127
 Alpha  occ. eigenvalues --   -0.45898  -0.44770  -0.44102  -0.42864  -0.42539
 Alpha  occ. eigenvalues --   -0.39650  -0.39595  -0.37327  -0.35928  -0.34533
 Alpha  occ. eigenvalues --   -0.34349  -0.33509  -0.31663  -0.31011  -0.29195
 Alpha  occ. eigenvalues --   -0.28876  -0.27727  -0.26853  -0.24769  -0.22425
 Alpha  occ. eigenvalues --   -0.21886  -0.20899  -0.20156  -0.18124  -0.16327
 Alpha  occ. eigenvalues --   -0.13577
 Alpha virt. eigenvalues --    0.05866   0.07656   0.08472   0.09581   0.10462
 Alpha virt. eigenvalues --    0.10901   0.11946   0.12634   0.13935   0.14698
 Alpha virt. eigenvalues --    0.14820   0.15710   0.16602   0.17078   0.17493
 Alpha virt. eigenvalues --    0.18120   0.18689   0.19042   0.19797   0.19931
 Alpha virt. eigenvalues --    0.20454   0.21404   0.21715   0.22108   0.22381
 Alpha virt. eigenvalues --    0.22944   0.23181   0.23249   0.23682   0.24652
 Alpha virt. eigenvalues --    0.24721   0.25228   0.26493   0.26741   0.26989
 Alpha virt. eigenvalues --    0.27435   0.28123   0.28727   0.29203   0.29619
 Alpha virt. eigenvalues --    0.30068   0.30268   0.30675   0.31429   0.31909
 Alpha virt. eigenvalues --    0.32041   0.32485   0.32997   0.33363   0.33979
 Alpha virt. eigenvalues --    0.34688   0.34715   0.35485   0.36005   0.36488
 Alpha virt. eigenvalues --    0.36596   0.36985   0.37915   0.38458   0.38553
 Alpha virt. eigenvalues --    0.39315   0.39829   0.39951   0.40528   0.41262
 Alpha virt. eigenvalues --    0.42116   0.42401   0.42472   0.43229   0.44050
 Alpha virt. eigenvalues --    0.44256   0.44431   0.44758   0.45173   0.45871
 Alpha virt. eigenvalues --    0.46321   0.46877   0.47910   0.48340   0.49010
 Alpha virt. eigenvalues --    0.49483   0.49908   0.50634   0.51238   0.52216
 Alpha virt. eigenvalues --    0.52408   0.53276   0.54504   0.55154   0.58487
 Alpha virt. eigenvalues --    0.61481   0.62039   0.63617   0.66744   0.69493
 Alpha virt. eigenvalues --    0.71355   0.74148   0.75499   0.76611   0.77148
 Alpha virt. eigenvalues --    0.77232   0.78454   0.79068   0.80238   0.81151
 Alpha virt. eigenvalues --    0.81937   0.82601   0.84291   0.84868   0.86216
 Alpha virt. eigenvalues --    0.86628   0.87544   0.87941   0.89497   0.90513
 Alpha virt. eigenvalues --    0.92170   0.94039   0.95227   0.97433   0.98893
 Alpha virt. eigenvalues --    1.00285   1.02034   1.02555   1.04462   1.05545
 Alpha virt. eigenvalues --    1.06182   1.06509   1.06785   1.09258   1.12295
 Alpha virt. eigenvalues --    1.13002   1.14370   1.14921   1.15826   1.16121
 Alpha virt. eigenvalues --    1.17315   1.18310   1.19531   1.20643   1.21002
 Alpha virt. eigenvalues --    1.21507   1.23176   1.23558   1.24853   1.26706
 Alpha virt. eigenvalues --    1.27207   1.27818   1.28424   1.28794   1.29913
 Alpha virt. eigenvalues --    1.32758   1.33341   1.36718   1.37833   1.38147
 Alpha virt. eigenvalues --    1.39106   1.39525   1.41811   1.43555   1.44463
 Alpha virt. eigenvalues --    1.46077   1.47324   1.49004   1.49069   1.50362
 Alpha virt. eigenvalues --    1.50907   1.52247   1.54327   1.55426   1.56103
 Alpha virt. eigenvalues --    1.57674   1.58027   1.58602   1.59470   1.61084
 Alpha virt. eigenvalues --    1.62336   1.63917   1.64425   1.65383   1.66417
 Alpha virt. eigenvalues --    1.67576   1.69065   1.70818   1.72432   1.75612
 Alpha virt. eigenvalues --    1.78285   1.84495   1.85703   1.87745   1.89522
 Alpha virt. eigenvalues --    1.92265   1.93538   1.95277   1.95962   1.96801
 Alpha virt. eigenvalues --    1.98051   1.98358   1.99321   2.01009   2.01651
 Alpha virt. eigenvalues --    2.03312   2.05612   2.05717   2.06517   2.07180
 Alpha virt. eigenvalues --    2.09848   2.09989   2.12266   2.12568   2.15678
 Alpha virt. eigenvalues --    2.17100   2.18414   2.20089   2.20912   2.21868
 Alpha virt. eigenvalues --    2.24842   2.25391   2.27927   2.28434   2.30277
 Alpha virt. eigenvalues --    2.33509   2.34534   2.37466   2.38024   2.39390
 Alpha virt. eigenvalues --    2.40521   2.42737   2.43586   2.44055   2.48052
 Alpha virt. eigenvalues --    2.50426   2.51636   2.52611   2.58653   2.60945
 Alpha virt. eigenvalues --    2.65259   2.67275   2.71599   2.74288   2.78878
 Alpha virt. eigenvalues --    2.79461   2.80312   2.86163   2.89083   2.89617
 Alpha virt. eigenvalues --    2.92646   2.99926   3.03721   3.06914   3.07650
 Alpha virt. eigenvalues --    3.10957   3.13362   3.27119   3.43081   4.11958
 Alpha virt. eigenvalues --    4.17112   4.18500   4.24560   4.29275   4.32900
 Alpha virt. eigenvalues --    4.39116   4.42128   4.44122   4.46598   4.48475
 Alpha virt. eigenvalues --    4.51232   4.53601   4.58905   4.61085   4.62849
 Alpha virt. eigenvalues --    4.84019
          Condensed to atoms (all electrons):
               1          2          3          4          5          6
     1  C   68.749040  -2.260612   0.281007 -10.141992   0.039847  -0.429902
     2  C   -2.260612  65.286309  -1.448922 -22.044004   0.069223   6.081344
     3  Cl   0.281007  -1.448922  17.209716   0.593222  -0.009523  -0.029300
     4  C  -10.141992 -22.044004   0.593222  37.770814   0.251785  -8.563164
     5  H    0.039847   0.069223  -0.009523   0.251785   0.500932  -0.136837
     6  C   -0.429902   6.081344  -0.029300  -8.563164  -0.136837  34.990180
     7  C  -16.452068  -8.150698  -0.096649  -6.160349   0.085602 -16.734712
     8  S   -4.729591  -0.595081  -0.017167   1.779973   0.002106  -1.675719
     9  C  -22.903054 -32.303000   0.256933  14.267415  -0.010377  -8.467258
    10  H   -0.119318   0.018061  -0.000577  -0.008031   0.000012  -0.014339
    11  S   -1.667148  -0.914223   0.119483   0.854469  -0.000258   0.851418
    12  O   -0.233834   0.545295  -0.060129  -0.047629   0.000003   0.205931
    13  O   -0.894634  -0.316876   0.010206   0.074115   0.000027  -0.007668
    14  N   -0.083679   0.101002  -0.021499  -0.039965  -0.000099   0.047978
    15  H   -0.125880  -0.061718   0.026840   0.031776  -0.000001   0.011221
    16  N    0.154879   0.239522  -0.003921  -0.545133  -0.008859  -0.945573
    17  C    0.352495   0.231951  -0.006280  -1.219649   0.007583  -0.620780
    18  N   -0.675432   0.077833  -0.000109   0.672860   0.000376   1.261947
    19  O   -0.116006  -0.032787  -0.000482   0.055280   0.000018  -0.086561
    20  O   -0.167598   0.041949  -0.000851  -0.016719   0.000016  -0.341732
    21  H    0.004378  -0.005508   0.000035   0.023518   0.000004   0.069581
    22  H    0.010969  -0.003014   0.000010  -0.011096  -0.000000  -0.074829
    23  H    0.000255   0.047590  -0.000640  -0.126725   0.005522  -0.074519
    24  H   -0.010771   0.025090  -0.000160  -0.055662   0.000002  -0.241929
               7          8          9         10         11         12
     1  C  -16.452068  -4.729591 -22.903054  -0.119318  -1.667148  -0.233834
     2  C   -8.150698  -0.595081 -32.303000   0.018061  -0.914223   0.545295
     3  Cl  -0.096649  -0.017167   0.256933  -0.000577   0.119483  -0.060129
     4  C   -6.160349   1.779973  14.267415  -0.008031   0.854469  -0.047629
     5  H    0.085602   0.002106  -0.010377   0.000012  -0.000258   0.000003
     6  C  -16.734712  -1.675719  -8.467258  -0.014339   0.851418   0.205931
     7  C   43.110806  -0.211520  11.778835   0.023616  -2.151198  -0.358499
     8  S   -0.211520  18.971823   0.740721   0.031722  -0.271828  -0.021831
     9  C   11.778835   0.740721  43.060662   0.381880  -0.148381  -0.469959
    10  H    0.023616   0.031722   0.381880   0.392164  -0.017176  -0.000274
    11  S   -2.151198  -0.271828  -0.148381  -0.017176  16.739810   0.371686
    12  O   -0.358499  -0.021831  -0.469959  -0.000274   0.371686   8.896864
    13  O   -0.028666   0.000759   0.650823   0.003338   0.430469  -0.109522
    14  N   -0.066261  -0.001190  -0.203466  -0.000687   0.229516  -0.172659
    15  H   -0.018750  -0.000490   0.000068  -0.000019   0.157591  -0.013309
    16  N    1.069894  -0.017228  -0.105074  -0.000757  -0.002237  -0.000186
    17  C    1.453309  -0.872435  -0.080298   0.000249  -0.011345   0.000415
    18  N   -1.468790   0.080188  -0.009867   0.001771  -0.015695  -0.000345
    19  O   -0.065791   0.229498   0.154176   0.002599  -0.008441  -0.000237
    20  O    0.010694   0.865408  -0.112097  -0.000442  -0.009421  -0.000243
    21  H   -0.034873  -0.014723   0.002053  -0.000000   0.000079   0.000000
    22  H    0.154545  -0.042568   0.008686  -0.000001   0.000146   0.000000
    23  H    0.137801   0.016783  -0.011261   0.000002  -0.000317   0.000000
    24  H    0.145619   0.019641   0.005284   0.000001  -0.000684  -0.000001
              13         14         15         16         17         18
     1  C   -0.894634  -0.083679  -0.125880   0.154879   0.352495  -0.675432
     2  C   -0.316876   0.101002  -0.061718   0.239522   0.231951   0.077833
     3  Cl   0.010206  -0.021499   0.026840  -0.003921  -0.006280  -0.000109
     4  C    0.074115  -0.039965   0.031776  -0.545133  -1.219649   0.672860
     5  H    0.000027  -0.000099  -0.000001  -0.008859   0.007583   0.000376
     6  C   -0.007668   0.047978   0.011221  -0.945573  -0.620780   1.261947
     7  C   -0.028666  -0.066261  -0.018750   1.069894   1.453309  -1.468790
     8  S    0.000759  -0.001190  -0.000490  -0.017228  -0.872435   0.080188
     9  C    0.650823  -0.203466   0.000068  -0.105074  -0.080298  -0.009867
    10  H    0.003338  -0.000687  -0.000019  -0.000757   0.000249   0.001771
    11  S    0.430469   0.229516   0.157591  -0.002237  -0.011345  -0.015695
    12  O   -0.109522  -0.172659  -0.013309  -0.000186   0.000415  -0.000345
    13  O    8.987327  -0.156788   0.022976   0.000414  -0.000581  -0.000827
    14  N   -0.156788   7.888920   0.188018   0.000196  -0.000802  -0.000528
    15  H    0.022976   0.188018   0.440423   0.000001   0.000012  -0.000002
    16  N    0.000414   0.000196   0.000001   7.563630   0.222983  -0.314033
    17  C   -0.000581  -0.000802   0.000012   0.222983   6.363200  -0.383820
    18  N   -0.000827  -0.000528  -0.000002  -0.314033  -0.383820   8.737977
    19  O   -0.000856  -0.000163  -0.000001  -0.010788   0.081464  -0.088854
    20  O    0.000088   0.000010  -0.000000   0.060726  -0.094629  -0.222719
    21  H    0.000000   0.000000   0.000000  -0.051900   0.358486  -0.015693
    22  H    0.000001   0.000000   0.000000   0.019801  -0.020951   0.220385
    23  H    0.000000   0.000002   0.000000   0.290331  -0.052223   0.011870
    24  H   -0.000001  -0.000003  -0.000000  -0.056661   0.548709  -0.123410
              19         20         21         22         23         24
     1  C   -0.116006  -0.167598   0.004378   0.010969   0.000255  -0.010771
     2  C   -0.032787   0.041949  -0.005508  -0.003014   0.047590   0.025090
     3  Cl  -0.000482  -0.000851   0.000035   0.000010  -0.000640  -0.000160
     4  C    0.055280  -0.016719   0.023518  -0.011096  -0.126725  -0.055662
     5  H    0.000018   0.000016   0.000004  -0.000000   0.005522   0.000002
     6  C   -0.086561  -0.341732   0.069581  -0.074829  -0.074519  -0.241929
     7  C   -0.065791   0.010694  -0.034873   0.154545   0.137801   0.145619
     8  S    0.229498   0.865408  -0.014723  -0.042568   0.016783   0.019641
     9  C    0.154176  -0.112097   0.002053   0.008686  -0.011261   0.005284
    10  H    0.002599  -0.000442  -0.000000  -0.000001   0.000002   0.000001
    11  S   -0.008441  -0.009421   0.000079   0.000146  -0.000317  -0.000684
    12  O   -0.000237  -0.000243   0.000000   0.000000   0.000000  -0.000001
    13  O   -0.000856   0.000088   0.000000   0.000001   0.000000  -0.000001
    14  N   -0.000163   0.000010   0.000000   0.000000   0.000002  -0.000003
    15  H   -0.000001  -0.000000   0.000000   0.000000   0.000000  -0.000000
    16  N   -0.010788   0.060726  -0.051900   0.019801   0.290331  -0.056661
    17  C    0.081464  -0.094629   0.358486  -0.020951  -0.052223   0.548709
    18  N   -0.088854  -0.222719  -0.015693   0.220385   0.011870  -0.123410
    19  O    8.613632  -0.193209  -0.000377  -0.008224   0.000079   0.001057
    20  O   -0.193209   8.625938  -0.001037  -0.007312   0.000479   0.011288
    21  H   -0.000377  -0.001037   0.508323  -0.006170  -0.003198  -0.041963
    22  H   -0.008224  -0.007312  -0.006170   0.297927  -0.000043   0.002419
    23  H    0.000079   0.000479  -0.003198  -0.000043   0.342303   0.001914
    24  H    0.001057   0.011288  -0.041963   0.002419   0.001914   0.523450
 Mulliken charges:
               1
     1  C   -2.581350
     2  C    1.371273
     3  Cl   0.198756
     4  C   -1.395111
     5  H    0.202895
     6  C    0.925224
     7  C    0.028105
     8  S    1.732749
     9  C   -0.483441
    10  H    0.306206
    11  S    1.463685
    12  O   -0.531536
    13  O   -0.664124
    14  N   -0.707853
    15  H    0.341245
    16  N   -0.560028
    17  C   -0.257065
    18  N   -0.745085
    19  O   -0.525025
    20  O   -0.448586
    21  H    0.208982
    22  H    0.459322
    23  H    0.413992
    24  H    0.246770
 Sum of Mulliken charges =  -1.00000
 Mulliken charges with hydrogens summed into heavy atoms:
               1
     1  C   -2.581350
     2  C    1.371273
     3  Cl   0.198756
     4  C   -1.192215
     6  C    0.925224
     7  C    0.028105
     8  S    1.732749
     9  C   -0.177236
    11  S    1.463685
    12  O   -0.531536
    13  O   -0.664124
    14  N   -0.366608
    16  N   -0.146036
    17  C    0.198687
    18  N   -0.285763
    19  O   -0.525025
    20  O   -0.448586
 Electronic spatial extent (au):  <R**2>=           5462.4709
 Charge=             -1.0000 electrons
 Dipole moment (field-independent basis, Debye):
    X=            -13.8821    Y=             12.0682    Z=              0.3679  Tot=             18.3981
 Quadrupole moment (field-independent basis, Debye-Ang):
   XX=           -159.6466   YY=           -137.7856   ZZ=           -141.5439
   XY=              1.8938   XZ=             -0.7478   YZ=              0.3705
 Traceless Quadrupole moment (field-independent basis, Debye-Ang):
   XX=            -13.3213   YY=              8.5398   ZZ=              4.7815
   XY=              1.8938   XZ=             -0.7478   YZ=              0.3705
 Octapole moment (field-independent basis, Debye-Ang**2):
  XXX=           -239.3149  YYY=             70.0312  ZZZ=              7.9332  XYY=            -41.9227
  XXY=            114.9130  XXZ=             -7.7966  XZZ=            -16.4112  YZZ=             11.8667
  YYZ=             11.9786  XYZ=            -16.3384
 Hexadecapole moment (field-independent basis, Debye-Ang**3):
 XXXX=          -5045.1892 YYYY=          -1771.7042 ZZZZ=           -438.4814 XXXY=            104.5640
 XXXZ=             51.1017 YYYX=            -14.1127 YYYZ=             -5.5457 ZZZX=             26.9052
 ZZZY=             -2.0542 XXYY=          -1248.2316 XXZZ=          -1094.9695 YYZZ=           -392.6694
 XXYZ=             -4.0646 YYXZ=             -1.0487 ZZXY=             20.3280
 N-N= 1.719405692155D+03 E-N=-8.159398355726D+03  KE= 1.982118688122D+03
 Calling FoFJK, ICntrl=      2127 FMM=F ISym2X=0 I1Cent= 0 IOpClX= 0 NMat=1 NMatS=1 NMatT=0.
 ***** Axes restored to original set *****
 -------------------------------------------------------------------
 Center     Atomic                   Forces (Hartrees/Bohr)
 Number     Number              X              Y              Z
 -------------------------------------------------------------------
      1        6          -0.005020773    0.000515479   -0.006643333
      2        6           0.003237489   -0.000337196    0.007082249
      3       17           0.000094552   -0.000722110   -0.001509253
      4        6           0.006219177   -0.000699122   -0.008132279
      5        1          -0.001196392    0.000414161    0.000521206
      6        6          -0.003142488   -0.000699308    0.023486077
      7        6          -0.004360305    0.001066542   -0.007681780
      8       16           0.017173058   -0.005051282    0.032083777
      9        6           0.000278897   -0.000268882   -0.001989148
     10        1          -0.000890017    0.000418102    0.002603360
     11       16           0.007766062   -0.012174486    0.039864138
     12        8           0.000953805    0.009060977   -0.011668991
     13        8          -0.007796460    0.001471262   -0.013000299
     14        7          -0.001629025    0.004021138   -0.008021075
     15        1           0.001078450   -0.002100212    0.000881706
     16        7           0.000942268    0.001354416   -0.021288690
     17        6          -0.001135580    0.002903901    0.002938728
     18        7          -0.002557729   -0.000649915   -0.016321454
     19        8          -0.006688185   -0.003790871   -0.010177057
     20        8          -0.005228486    0.006379573   -0.008759928
     21        1          -0.000985372    0.001243569   -0.002326382
     22        1          -0.002084405    0.000440000    0.004340122
     23        1           0.003115677   -0.000047862    0.002343806
     24        1           0.001855783   -0.002747873    0.001374498
 -------------------------------------------------------------------
 Cartesian Forces:  Max     0.039864138 RMS     0.008894381

 GradGradGradGradGradGradGradGradGradGradGradGradGradGradGradGradGradGrad
 Berny optimization.
 FormGI is forming the generalized inverse of G from B-inverse, IUseBI=4.
 Internal  Forces:  Max     0.017435714 RMS     0.004091040
 Search for a local minimum.
 Step number   1 out of a maximum of  139
 All quantities printed in internal units (Hartrees-Bohrs-Radians)
 Mixed Optimization -- RFO/linear search
 Second derivative matrix not updated -- first step.
 ITU=  0
     Eigenvalues ---    0.00230   0.01318   0.01361   0.01518   0.01694
     Eigenvalues ---    0.01764   0.02053   0.02085   0.02114   0.02159
     Eigenvalues ---    0.02192   0.02228   0.02236   0.02963   0.03168
     Eigenvalues ---    0.05698   0.07129   0.07578   0.09285   0.09853
     Eigenvalues ---    0.10139   0.11164   0.11676   0.11932   0.12212
     Eigenvalues ---    0.13279   0.14021   0.16000   0.16000   0.16000
     Eigenvalues ---    0.17174   0.19370   0.19970   0.21727   0.23109
     Eigenvalues ---    0.23960   0.24740   0.24989   0.24999   0.25000
     Eigenvalues ---    0.25000   0.25131   0.28590   0.31006   0.33816
     Eigenvalues ---    0.33842   0.35079   0.35201   0.35309   0.37279
     Eigenvalues ---    0.38496   0.40660   0.42031   0.43644   0.44046
     Eigenvalues ---    0.44113   0.45156   0.45445   0.47399   0.48495
     Eigenvalues ---    0.49687   0.60170   0.79334   0.81876   0.87459
     Eigenvalues ---    0.89756
 RFO step:  Lambda=-9.34355129D-03 EMin= 2.30000000D-03
 Linear search not attempted -- first point.
 Iteration  1 RMS(Cart)=  0.03629429 RMS(Int)=  0.00147478
 Iteration  2 RMS(Cart)=  0.00139065 RMS(Int)=  0.00064599
 Iteration  3 RMS(Cart)=  0.00000144 RMS(Int)=  0.00064599
 Iteration  4 RMS(Cart)=  0.00000001 RMS(Int)=  0.00064599
 Variable       Old X    -DE/DX   Delta X   Delta X   Delta X     New X
                                 (Linear)    (Quad)   (Total)
    R1        2.65570  -0.00371   0.00000  -0.00791  -0.00791   2.64779
    R2        2.61725   0.00156   0.00000   0.00346   0.00346   2.62070
    R3        3.42578   0.00802   0.00000   0.03076   0.03076   3.45653
    R4        3.29702  -0.00068   0.00000  -0.00214  -0.00214   3.29488
    R5        2.60771   0.00476   0.00000   0.00943   0.00944   2.61715
    R6        2.05176   0.00069   0.00000   0.00191   0.00191   2.05367
    R7        2.66138  -0.00521   0.00000  -0.01185  -0.01184   2.64953
    R8        2.66152  -0.00385   0.00000  -0.00873  -0.00872   2.65280
    R9        2.58782   0.01744   0.00000   0.03328   0.03332   2.62114
   R10        3.33597   0.00250   0.00000   0.00868   0.00866   3.34463
   R11        2.63409   0.00300   0.00000   0.00638   0.00637   2.64046
   R12        3.14530   0.01149   0.00000   0.02824   0.02821   3.17350
   R13        2.76746  -0.01112   0.00000  -0.01226  -0.01226   2.75519
   R14        2.77827  -0.00773   0.00000  -0.00875  -0.00875   2.76952
   R15        2.05349   0.00078   0.00000   0.00216   0.00216   2.05565
   R16        2.81977  -0.01041   0.00000  -0.01297  -0.01297   2.80679
   R17        2.80620  -0.01129   0.00000  -0.01364  -0.01364   2.79256
   R18        2.94506  -0.00048   0.00000  -0.00078  -0.00078   2.94427
   R19        1.93100  -0.00103   0.00000  -0.00230  -0.00230   1.92870
   R20        2.73475  -0.00316   0.00000  -0.00799  -0.00797   2.72678
   R21        1.91795  -0.00379   0.00000  -0.00822  -0.00822   1.90973
   R22        2.77896  -0.00286   0.00000  -0.00856  -0.00857   2.77040
   R23        2.05546   0.00258   0.00000   0.00716   0.00716   2.06263
   R24        2.07597   0.00308   0.00000   0.00886   0.00886   2.08483
   R25        1.93583  -0.00410   0.00000  -0.00921  -0.00921   1.92662
    A1        2.05184  -0.00214   0.00000  -0.00742  -0.00742   2.04442
    A2        2.15261   0.00487   0.00000   0.01837   0.01836   2.17097
    A3        2.07872  -0.00272   0.00000  -0.01091  -0.01093   2.06780
    A4        2.10985   0.00228   0.00000   0.00876   0.00871   2.11856
    A5        2.13515  -0.00011   0.00000  -0.00031  -0.00032   2.13483
    A6        2.03817  -0.00216   0.00000  -0.00836  -0.00841   2.02976
    A7        2.10098  -0.00165   0.00000  -0.00852  -0.00853   2.09245
    A8        2.10363   0.00099   0.00000   0.00336   0.00338   2.10701
    A9        2.07857   0.00066   0.00000   0.00515   0.00514   2.08372
   A10        2.03998   0.00111   0.00000   0.00321   0.00319   2.04317
   A11        2.10123  -0.00106   0.00000  -0.00351  -0.00354   2.09769
   A12        2.14073  -0.00003   0.00000   0.00082   0.00082   2.14154
   A13        2.10945   0.00026   0.00000   0.00225   0.00220   2.11165
   A14        2.12939  -0.00152   0.00000  -0.00681  -0.00681   2.12258
   A15        2.04429   0.00126   0.00000   0.00446   0.00447   2.04877
   A16        1.72237  -0.00038   0.00000  -0.01070  -0.01064   1.71173
   A17        1.93593   0.00284   0.00000   0.02936   0.02866   1.96459
   A18        1.91407   0.00282   0.00000   0.01749   0.01625   1.93032
   A19        1.88578  -0.00363   0.00000  -0.02883  -0.02883   1.85695
   A20        1.96028  -0.00783   0.00000  -0.05783  -0.05796   1.90232
   A21        2.02235   0.00518   0.00000   0.04163   0.03955   2.06190
   A22        2.10634   0.00168   0.00000   0.00799   0.00799   2.11433
   A23        2.08019  -0.00355   0.00000  -0.02002  -0.02002   2.06017
   A24        2.09665   0.00187   0.00000   0.01202   0.01202   2.10867
   A25        1.80049  -0.00876   0.00000  -0.05300  -0.05335   1.74714
   A26        1.80149  -0.01122   0.00000  -0.05903  -0.05898   1.74251
   A27        1.93556  -0.00637   0.00000  -0.04316  -0.04342   1.89214
   A28        1.98829   0.00781   0.00000   0.05985   0.05607   2.04436
   A29        2.01611   0.00610   0.00000   0.02783   0.02451   2.04062
   A30        1.90687   0.00854   0.00000   0.04599   0.04302   1.94988
   A31        1.89255  -0.00329   0.00000  -0.01944  -0.01944   1.87311
   A32        2.07724  -0.00078   0.00000  -0.00339  -0.00340   2.07385
   A33        2.02463  -0.00017   0.00000  -0.00448  -0.00455   2.02008
   A34        2.01905   0.00043   0.00000  -0.00161  -0.00167   2.01738
   A35        1.87838  -0.00022   0.00000  -0.00599  -0.00608   1.87230
   A36        1.90655  -0.00057   0.00000  -0.00577  -0.00575   1.90079
   A37        1.95046   0.00079   0.00000   0.00807   0.00806   1.95852
   A38        1.87589   0.00064   0.00000   0.00710   0.00712   1.88301
   A39        1.94777  -0.00126   0.00000  -0.01225  -0.01221   1.93556
   A40        1.90295   0.00062   0.00000   0.00866   0.00867   1.91163
   A41        1.95101   0.00126   0.00000   0.00215   0.00206   1.95307
   A42        1.91745  -0.00183   0.00000  -0.01970  -0.01967   1.89778
   A43        1.95825   0.00064   0.00000   0.00746   0.00748   1.96573
    D1       -3.13404  -0.00063   0.00000  -0.02130  -0.02136   3.12779
    D2        0.00058  -0.00013   0.00000  -0.00505  -0.00502  -0.00444
    D3        0.00152  -0.00045   0.00000  -0.01282  -0.01282  -0.01130
    D4        3.13614   0.00005   0.00000   0.00343   0.00352   3.13966
    D5       -0.00742   0.00013   0.00000   0.00565   0.00562  -0.00181
    D6        3.13245  -0.00003   0.00000   0.00070   0.00071   3.13316
    D7        3.13994  -0.00008   0.00000  -0.00256  -0.00251   3.13743
    D8       -0.00337  -0.00023   0.00000  -0.00752  -0.00741  -0.01078
    D9        1.09627  -0.00150   0.00000  -0.07571  -0.07550   1.02077
   D10       -3.11244  -0.00082   0.00000  -0.05425  -0.05436   3.11639
   D11       -1.07230   0.00007   0.00000  -0.05275  -0.05292  -1.12521
   D12       -2.05145  -0.00132   0.00000  -0.06709  -0.06684  -2.11829
   D13        0.02303  -0.00064   0.00000  -0.04564  -0.04570  -0.02267
   D14        2.06317   0.00026   0.00000  -0.04413  -0.04425   2.01892
   D15       -3.13551  -0.00002   0.00000  -0.00019  -0.00015  -3.13567
   D16        0.00607   0.00003   0.00000   0.00138   0.00141   0.00747
   D17       -0.00063   0.00048   0.00000   0.01549   0.01547   0.01484
   D18        3.14095   0.00052   0.00000   0.01706   0.01703  -3.12520
   D19       -0.00562   0.00008   0.00000   0.00166   0.00165  -0.00397
   D20       -3.09485  -0.00036   0.00000  -0.00927  -0.00926  -3.10411
   D21        3.13596   0.00013   0.00000   0.00321   0.00320   3.13916
   D22        0.04673  -0.00031   0.00000  -0.00772  -0.00771   0.03902
   D23        3.12930  -0.00021   0.00000  -0.01137  -0.01136   3.11794
   D24       -0.00120  -0.00007   0.00000  -0.00096  -0.00098  -0.00218
   D25       -0.06594   0.00021   0.00000  -0.00031  -0.00029  -0.06623
   D26        3.08675   0.00034   0.00000   0.01010   0.01009   3.09684
   D27       -2.86296   0.00041   0.00000   0.00963   0.00956  -2.85339
   D28       -0.32725  -0.00031   0.00000  -0.00675  -0.00676  -0.33401
   D29        0.33411  -0.00008   0.00000  -0.00201  -0.00205   0.33206
   D30        2.86982  -0.00080   0.00000  -0.01839  -0.01837   2.85145
   D31        0.34168  -0.00136   0.00000   0.00306   0.00306   0.34474
   D32        2.31735  -0.00467   0.00000  -0.02470  -0.02532   2.29204
   D33       -1.70994   0.00659   0.00000   0.06676   0.06743  -1.64251
   D34       -2.81049  -0.00150   0.00000  -0.00693  -0.00697  -2.81745
   D35       -0.83481  -0.00481   0.00000  -0.03468  -0.03534  -0.87015
   D36        1.42108   0.00645   0.00000   0.05678   0.05740   1.47848
   D37        0.00789  -0.00002   0.00000  -0.00277  -0.00274   0.00515
   D38       -3.13196   0.00014   0.00000   0.00226   0.00233  -3.12963
   D39       -3.12300   0.00011   0.00000   0.00728   0.00729  -3.11571
   D40        0.02033   0.00027   0.00000   0.01231   0.01236   0.03270
   D41       -0.92840  -0.00014   0.00000  -0.01350  -0.01363  -0.94203
   D42       -3.11425  -0.00053   0.00000  -0.01007  -0.01026  -3.12451
   D43       -2.94333  -0.00192   0.00000  -0.03182  -0.03146  -2.97480
   D44        1.15400  -0.00231   0.00000  -0.02840  -0.02809   1.12591
   D45        1.08771   0.00002   0.00000  -0.02030  -0.02037   1.06734
   D46       -1.09814  -0.00037   0.00000  -0.01688  -0.01700  -1.11514
   D47        1.35924   0.00101   0.00000   0.01862   0.01882   1.37806
   D48       -0.68091   0.01291   0.00000   0.10006   0.10228  -0.57862
   D49       -2.94964  -0.01109   0.00000  -0.04971  -0.05214  -3.00178
   D50       -0.92816  -0.00020   0.00000  -0.00254  -0.00251  -0.93067
   D51       -2.95977  -0.00054   0.00000  -0.00462  -0.00460  -2.96436
   D52        1.21617  -0.00143   0.00000  -0.01680  -0.01681   1.19936
   D53        2.81745   0.00071   0.00000   0.01475   0.01476   2.83220
   D54        0.78584   0.00038   0.00000   0.01267   0.01266   0.79851
   D55       -1.32141  -0.00052   0.00000   0.00049   0.00045  -1.32095
   D56        1.28187   0.00034   0.00000   0.01518   0.01524   1.29711
   D57       -2.83822  -0.00063   0.00000  -0.00351  -0.00348  -2.84170
   D58       -2.94972  -0.00011   0.00000   0.00902   0.00903  -2.94070
   D59       -0.78663  -0.00108   0.00000  -0.00968  -0.00969  -0.79632
   D60       -0.86411   0.00031   0.00000   0.01694   0.01693  -0.84718
   D61        1.29898  -0.00066   0.00000  -0.00175  -0.00179   1.29719
         Item               Value     Threshold  Converged?
 Maximum Force            0.017436     0.000450     NO 
 RMS     Force            0.004091     0.000300     NO 
 Maximum Displacement     0.143870     0.001800     NO 
 RMS     Displacement     0.036280     0.001200     NO 
 Predicted change in Energy=-5.138208D-03
 GradGradGradGradGradGradGradGradGradGradGradGradGradGradGradGradGradGrad

                          Input orientation:                          
 ---------------------------------------------------------------------
 Center     Atomic      Atomic             Coordinates (Angstroms)
 Number     Number       Type             X           Y           Z
 ---------------------------------------------------------------------
      1          6           0       -1.456523    0.649966   -0.796989
      2          6           0       -2.564642    0.693234   -1.653390
      3         17           0       -4.192738    0.729956   -1.030490
      4          6           0       -2.434993    0.698316   -3.032233
      5          1           0       -3.321624    0.738122   -3.659395
      6          6           0       -1.168969    0.650701   -3.632834
      7          6           0       -0.057320    0.603402   -2.776881
      8         16           0        1.587244    0.505102   -3.423639
      9          6           0       -0.202310    0.606207   -1.387154
     10          1           0        0.668632    0.580374   -0.735918
     11         16           0       -1.561789    0.643920    1.029088
     12          8           0       -2.382906   -0.575881    1.238715
     13          8           0       -0.125341    0.555242    1.364526
     14          7           0       -2.179220    1.997808    1.490891
     15          1           0       -3.188293    1.934941    1.351276
     16          7           0       -1.049784    0.701196   -5.013827
     17          6           0        0.195035    0.294812   -5.619949
     18          7           0        1.264467    1.062337   -4.974608
     19          8           0        2.486614    1.478286   -2.815555
     20          8           0        2.028601   -0.890320   -3.500339
     21          1           0        0.178781    0.565933   -6.677110
     22          1           0        2.130961    1.055934   -5.511800
     23          1           0       -1.884522    0.471496   -5.535109
     24          1           0        0.373284   -0.789337   -5.519976
 ---------------------------------------------------------------------
                    Distance matrix (angstroms):
                    1          2          3          4          5
     1  C    0.000000
     2  C    1.401150   0.000000
     3  Cl   2.747325   1.743574   0.000000
     4  C    2.440503   1.384934   2.664140   0.000000
     5  H    3.417564   2.144550   2.769485   1.086753   0.000000
     6  C    2.850387   2.422377   3.990195   1.402072   2.154593
     7  C    2.424852   2.748993   4.490833   2.393228   3.384178
     8  S    4.023033   4.517447   6.259865   4.045852   4.920047
     9  C    1.386817   2.378879   4.008246   2.774822   3.861425
    10  H    2.127171   3.362819   4.872583   3.862572   4.949116
    11  S    1.829118   2.864233   3.342328   4.154488   5.008769
    12  O    2.550485   3.163535   3.182766   4.457273   5.157449
    13  O    2.540308   3.882917   4.723383   4.968546   5.957303
    14  N    2.751975   3.425926   3.466853   4.713041   5.423776
    15  H    3.043884   3.310408   2.851966   4.616477   5.153347
    16  N    4.236719   3.686108   5.074048   2.417753   2.645204
    17  C    5.110257   4.848520   6.364356   3.711622   4.050578
    18  N    5.002633   5.082204   6.741485   4.194202   4.781959
    19  O    4.506557   5.242339   6.954150   4.987737   5.915703
    20  O    4.671902   5.197763   6.886981   4.760940   5.594822
    21  H    6.103860   5.725412   7.142927   4.487145   4.624834
    22  H    5.938375   6.088314   7.757420   5.208078   5.767416
    23  H    4.760758   3.947084   5.068161   2.572714   2.377951
    24  H    5.265586   5.077392   6.581208   4.035889   4.409903
                    6          7          8          9         10
     6  C    0.000000
     7  C    1.403800   0.000000
     8  S    2.767973   1.769901   0.000000
     9  C    2.445299   1.397272   2.712931   0.000000
    10  H    3.431304   2.166349   2.841366   1.087804   0.000000
    11  S    4.678448   4.092734   5.455498   2.772694   2.845007
    12  O    5.168185   4.787908   6.218373   3.612135   3.814182
    13  O    5.106063   4.142246   5.085468   2.753229   2.245638
    14  N    5.393317   4.965955   6.369226   3.758707   3.883048
    15  H    5.528861   5.349549   6.902899   4.263875   4.589892
    16  N    1.387046   2.449178   3.085623   3.725586   4.611731
    17  C    2.436348   2.870879   2.608879   4.262793   4.915242
    18  N    2.809165   2.605330   1.679345   3.902475   4.307412
    19  O    3.836161   2.690450   1.457985   3.167201   2.904513
    20  O    3.552007   2.665645   1.465565   3.417909   3.413866
    21  H    3.330350   3.907549   3.545779   5.303818   5.961370
    22  H    3.818935   3.531734   2.226985   4.760159   5.017331
    23  H    2.040290   3.311177   4.063570   4.478115   5.437158
    24  H    2.830823   3.106399   2.746616   4.399894   4.985033
                   11         12         13         14         15
    11  S    0.000000
    12  O    1.485291   0.000000
    13  O    1.477757   2.528213   0.000000
    14  N    1.558043   2.594023   2.513043   0.000000
    15  H    2.101442   2.639232   3.359378   1.020624   0.000000
    16  N    6.064837   6.519388   6.446649   6.728164   6.827144
    17  C    6.886073   7.378696   6.996668   7.687739   7.920538
    18  N    6.648846   7.388671   6.509480   7.384901   7.784942
    19  O    5.645088   6.661001   5.014718   6.370666   7.055182
    20  O    5.980008   6.482198   5.513259   7.138587   7.663958
    21  H    7.900706   8.397992   8.047392   8.621292   8.812852
    22  H    7.522591   8.282950   7.254340   8.276622   8.727482
    23  H    6.574388   6.872414   7.120864   7.195913   7.159874
    24  H    6.977748   7.302195   7.032275   7.964654   8.204915
                   16         17         18         19         20
    16  N    0.000000
    17  C    1.442950   0.000000
    18  N    2.342588   1.466031   0.000000
    19  O    4.235845   3.810063   2.515585   0.000000
    20  O    3.781537   3.042902   2.563248   2.507788   0.000000
    21  H    2.072240   1.091495   2.079338   4.590217   3.954034
    22  H    3.238974   2.082982   1.019524   2.752201   2.800778
    23  H    1.010587   2.088773   3.252597   5.245611   4.615990
    24  H    2.122027   1.103244   2.126107   4.113657   2.613275
                   21         22         23         24
    21  H    0.000000
    22  H    2.325738   0.000000
    23  H    2.360149   4.057859   0.000000
    24  H    1.792638   2.548435   2.586044   0.000000
 Stoichiometry    C7H7ClN3O4S2(1-)
 Framework group  C1[X(C7H7ClN3O4S2)]
 Deg. of freedom    66
 Full point group                 C1      NOp   1
 Largest Abelian subgroup         C1      NOp   1
 Largest concise Abelian subgroup C1      NOp   1
                         Standard orientation:                         
 ---------------------------------------------------------------------
 Center     Atomic      Atomic             Coordinates (Angstroms)
 Number     Number       Type             X           Y           Z
 ---------------------------------------------------------------------
      1          6           0        1.270402   -0.113957   -0.004760
      2          6           0        1.242481    1.286702   -0.029172
      3         17           0        2.712006    2.224755   -0.004592
      4          6           0        0.057738    2.003145   -0.062884
      5          1           0        0.082219    3.089365   -0.086563
      6          6           0       -1.178986    1.342604   -0.065028
      7          6           0       -1.153654   -0.060682   -0.036703
      8         16           0       -2.654151   -0.998639   -0.000678
      9          6           0        0.049210   -0.771164   -0.010206
     10          1           0        0.053856   -1.858906    0.000421
     11         16           0        2.799950   -1.116155    0.037157
     12          8           0        3.416630   -0.598343    1.285222
     13          8           0        2.212636   -2.471253    0.087528
     14          7           0        3.582289   -0.875728   -1.288603
     15          1           0        4.067922    0.017287   -1.197189
     16          7           0       -2.357751    2.069377   -0.143841
     17          6           0       -3.598032    1.424093    0.213113
     18          7           0       -3.690186    0.191572   -0.575334
     19          8           0       -2.668419   -2.069433   -0.990081
     20          8           0       -3.023763   -1.327347    1.378894
     21          1           0       -4.428887    2.070098   -0.076228
     22          1           0       -4.637108   -0.185087   -0.605224
     23          1           0       -2.287859    3.047083    0.102110
     24          1           0       -3.659112    1.206057    1.292870
 ---------------------------------------------------------------------
 Rotational constants (GHZ):           0.6561979           0.2390359           0.1889720
 Basis read from rwf:  (6D, 7F)
 There are   349 symmetry adapted cartesian basis functions of A   symmetry.
 There are   349 symmetry adapted basis functions of A   symmetry.
   349 basis functions,   644 primitive gaussians,   349 cartesian basis functions
    76 alpha electrons       76 beta electrons
       nuclear repulsion energy      1719.6367485394 Hartrees.
 NAtoms=   24 NActive=   24 NUniq=   24 SFac= 1.00D+00 NAtFMM=   60 NAOKFM=F Big=F
 Integral buffers will be    131072 words long.
 Raffenetti 2 integral format.
 Two-electron integral symmetry is turned on.
 One-electron integrals computed using PRISM.
 NBasis=   349 RedAO= T EigKep=  1.87D-06  NBF=   349
 NBsUse=   347 1.00D-06 EigRej=  7.36D-07 NBFU=   347
 Initial guess from the checkpoint file:  "/jobfs/49776266.gadi-pbs/Gau-3972197.chk"
 B after Tr=     0.000000   -0.000000   -0.000000
         Rot=    0.999979    0.005860   -0.000385    0.002637 Ang=   0.74 deg.
 ExpMin= 4.05D-02 ExpMax= 2.52D+04 ExpMxC= 3.78D+03 IAcc=3 IRadAn=         5 AccDes= 0.00D+00
 Harris functional with IExCor= 1009 and IRadAn=       5 diagonalized for initial guess.
 HarFok:  IExCor= 1009 AccDes= 0.00D+00 IRadAn=         5 IDoV= 1 UseB2=F ITyADJ=14
 ICtDFT=  3500011 ScaDFX=  1.000000  1.000000  1.000000  1.000000
 FoFCou: FMM=F IPFlag=           0 FMFlag=      100000 FMFlg1=           0
         NFxFlg=           0 DoJE=T BraDBF=F KetDBF=T FulRan=T
         wScrn=  0.000000 ICntrl=       500 IOpCl=  0 I1Cent=   200000004 NGrid=           0
         NMat0=    1 NMatS0=      1 NMatT0=    0 NMatD0=    1 NMtDS0=    0 NMtDT0=    0
 Petite list used in FoFCou.
 Requested convergence on RMS density matrix=1.00D-08 within 128 cycles.
 Requested convergence on MAX density matrix=1.00D-06.
 Requested convergence on             energy=1.00D-06.
 No special actions if energy rises.
 SCF Done:  E(RM062X) =  -1992.22917826     A.U. after   16 cycles
            NFock= 16  Conv=0.25D-08     -V/T= 2.0051
 Calling FoFJK, ICntrl=      2127 FMM=F ISym2X=0 I1Cent= 0 IOpClX= 0 NMat=1 NMatS=1 NMatT=0.
 ***** Axes restored to original set *****
 -------------------------------------------------------------------
 Center     Atomic                   Forces (Hartrees/Bohr)
 Number     Number              X              Y              Z
 -------------------------------------------------------------------
      1        6          -0.002663043    0.000996328   -0.006270114
      2        6           0.003113421   -0.000969359    0.001960080
      3       17          -0.000503924    0.000518787    0.000443265
      4        6           0.001745913   -0.000059453   -0.003835145
      5        1          -0.000207205    0.000194137    0.000320830
      6        6          -0.001551736   -0.001394410    0.005070111
      7        6           0.001003641    0.000305390    0.001721896
      8       16           0.007254951   -0.000850402    0.003587418
      9        6           0.000596963    0.000948785   -0.003470504
     10        1          -0.000656419    0.000026971    0.000175516
     11       16           0.001932267   -0.004797627   -0.001938392
     12        8           0.002774341    0.005126653    0.003547724
     13        8          -0.007173401    0.000757960    0.005407404
     14        7           0.002780977   -0.000653492    0.000630469
     15        1          -0.000532381   -0.001810151    0.001479684
     16        7           0.000012865    0.002578354   -0.005284029
     17        6           0.001945758    0.000447092    0.001431099
     18        7          -0.004855313    0.002592043   -0.008483569
     19        8          -0.003522654   -0.004122044   -0.000501865
     20        8          -0.001865015    0.001849090    0.001824263
     21        1          -0.000163168   -0.000014903   -0.000196926
     22        1           0.000833037   -0.000040239    0.001549359
     23        1          -0.000381777   -0.001196668    0.001069517
     24        1           0.000081903   -0.000432841   -0.000238091
 -------------------------------------------------------------------
 Cartesian Forces:  Max     0.008483569 RMS     0.002779348

 GradGradGradGradGradGradGradGradGradGradGradGradGradGradGradGradGradGrad
 Berny optimization.
 Using GEDIIS/GDIIS optimizer.
 FormGI is forming the generalized inverse of G from B-inverse, IUseBI=4.
 Internal  Forces:  Max     0.009130376 RMS     0.002086254
 Search for a local minimum.
 Step number   2 out of a maximum of  139
 All quantities printed in internal units (Hartrees-Bohrs-Radians)
 Mixed Optimization -- RFO/linear search
 Update second derivatives using D2CorX and points    1    2
 DE= -3.96D-03 DEPred=-5.14D-03 R= 7.70D-01
 TightC=F SS=  1.41D+00  RLast= 2.79D-01 DXNew= 5.0454D-01 8.3626D-01
 Trust test= 7.70D-01 RLast= 2.79D-01 DXMaxT set to 5.05D-01
 ITU=  1  0
 Use linear search instead of GDIIS.
     Eigenvalues ---    0.00237   0.01316   0.01356   0.01524   0.01693
     Eigenvalues ---    0.01766   0.02054   0.02099   0.02128   0.02160
     Eigenvalues ---    0.02192   0.02228   0.02238   0.02978   0.03120
     Eigenvalues ---    0.05719   0.07171   0.07487   0.09213   0.09707
     Eigenvalues ---    0.10982   0.11121   0.11206   0.12519   0.13020
     Eigenvalues ---    0.13187   0.13942   0.15732   0.16000   0.16000
     Eigenvalues ---    0.19287   0.19911   0.20726   0.21876   0.23069
     Eigenvalues ---    0.23965   0.24364   0.24780   0.24994   0.24999
     Eigenvalues ---    0.25005   0.28451   0.29374   0.31072   0.33660
     Eigenvalues ---    0.33855   0.35044   0.35216   0.35308   0.37244
     Eigenvalues ---    0.37522   0.40604   0.41841   0.43628   0.44060
     Eigenvalues ---    0.44095   0.45060   0.45379   0.47306   0.47462
     Eigenvalues ---    0.48855   0.60244   0.77984   0.81103   0.87063
     Eigenvalues ---    0.89102
 RFO step:  Lambda=-1.83412870D-03 EMin= 2.37204805D-03
 Quartic linear search produced a step of -0.13481.
 Iteration  1 RMS(Cart)=  0.02076935 RMS(Int)=  0.00021974
 Iteration  2 RMS(Cart)=  0.00023104 RMS(Int)=  0.00005980
 Iteration  3 RMS(Cart)=  0.00000005 RMS(Int)=  0.00005980
 Variable       Old X    -DE/DX   Delta X   Delta X   Delta X     New X
                                 (Linear)    (Quad)   (Total)
    R1        2.64779  -0.00202   0.00107  -0.00635  -0.00528   2.64251
    R2        2.62070   0.00183  -0.00047   0.00446   0.00400   2.62470
    R3        3.45653   0.00913  -0.00415   0.04130   0.03716   3.49369
    R4        3.29488   0.00064   0.00029   0.00104   0.00133   3.29621
    R5        2.61715   0.00207  -0.00127   0.00684   0.00557   2.62271
    R6        2.05367  -0.00001  -0.00026   0.00062   0.00036   2.05403
    R7        2.64953  -0.00226   0.00160  -0.00839  -0.00680   2.64273
    R8        2.65280   0.00002   0.00118  -0.00315  -0.00199   2.65081
    R9        2.62114   0.00409  -0.00449   0.01840   0.01392   2.63505
   R10        3.34463  -0.00014  -0.00117   0.00145   0.00028   3.34491
   R11        2.64046  -0.00008  -0.00086   0.00192   0.00106   2.64152
   R12        3.17350   0.00697  -0.00380   0.02404   0.02023   3.19373
   R13        2.75519  -0.00513   0.00165  -0.00899  -0.00734   2.74786
   R14        2.76952  -0.00242   0.00118  -0.00528  -0.00411   2.76541
   R15        2.05565  -0.00042  -0.00029  -0.00030  -0.00059   2.05506
   R16        2.80679  -0.00524   0.00175  -0.00999  -0.00824   2.79855
   R17        2.79256  -0.00579   0.00184  -0.01061  -0.00877   2.78379
   R18        2.94427  -0.00241   0.00011  -0.00368  -0.00358   2.94070
   R19        1.92870   0.00043   0.00031   0.00007   0.00038   1.92908
   R20        2.72678   0.00025   0.00107  -0.00114  -0.00006   2.72672
   R21        1.90973   0.00004   0.00111  -0.00268  -0.00157   1.90816
   R22        2.77040  -0.00149   0.00115  -0.00674  -0.00556   2.76484
   R23        2.06263   0.00019  -0.00097   0.00286   0.00190   2.06452
   R24        2.08483   0.00042  -0.00119   0.00402   0.00283   2.08766
   R25        1.92662  -0.00011   0.00124  -0.00329  -0.00205   1.92457
    A1        2.04442  -0.00192   0.00100  -0.00889  -0.00788   2.03654
    A2        2.17097  -0.00111  -0.00247   0.00231  -0.00017   2.17080
    A3        2.06780   0.00303   0.00147   0.00658   0.00805   2.07585
    A4        2.11856  -0.00102  -0.00117  -0.00059  -0.00179   2.11676
    A5        2.13483   0.00130   0.00004   0.00450   0.00453   2.13937
    A6        2.02976  -0.00028   0.00113  -0.00382  -0.00271   2.02705
    A7        2.09245  -0.00036   0.00115  -0.00469  -0.00355   2.08891
    A8        2.10701  -0.00008  -0.00046   0.00056   0.00010   2.10712
    A9        2.08372   0.00044  -0.00069   0.00414   0.00344   2.08716
   A10        2.04317  -0.00005  -0.00043   0.00025  -0.00018   2.04299
   A11        2.09769  -0.00085   0.00048  -0.00371  -0.00322   2.09447
   A12        2.14154   0.00090  -0.00011   0.00339   0.00327   2.14481
   A13        2.11165  -0.00052  -0.00030  -0.00312  -0.00346   2.10819
   A14        2.12258  -0.00017   0.00092  -0.00242  -0.00152   2.12106
   A15        2.04877   0.00069  -0.00060   0.00528   0.00467   2.05343
   A16        1.71173   0.00009   0.00143  -0.00494  -0.00358   1.70814
   A17        1.96459  -0.00138  -0.00386   0.00232  -0.00145   1.96314
   A18        1.93032  -0.00135  -0.00219  -0.00558  -0.00758   1.92274
   A19        1.85695   0.00154   0.00389   0.00132   0.00524   1.86220
   A20        1.90232   0.00149   0.00781  -0.00876  -0.00097   1.90135
   A21        2.06190  -0.00002  -0.00533   0.01210   0.00703   2.06893
   A22        2.11433   0.00092  -0.00108   0.00598   0.00490   2.11923
   A23        2.06017  -0.00101   0.00270  -0.01130  -0.00860   2.05156
   A24        2.10867   0.00009  -0.00162   0.00535   0.00373   2.11240
   A25        1.74714   0.00519   0.00719   0.00886   0.01607   1.76321
   A26        1.74251   0.00847   0.00795   0.02095   0.02886   1.77136
   A27        1.89214   0.00092   0.00585  -0.00324   0.00270   1.89484
   A28        2.04436  -0.00192  -0.00756   0.00357  -0.00407   2.04029
   A29        2.04062  -0.00358  -0.00330  -0.01199  -0.01503   2.02559
   A30        1.94988  -0.00481  -0.00580  -0.00976  -0.01541   1.93448
   A31        1.87311  -0.00213   0.00262  -0.01786  -0.01524   1.85787
   A32        2.07385  -0.00045   0.00046  -0.00272  -0.00235   2.07149
   A33        2.02008  -0.00085   0.00061  -0.01170  -0.01116   2.00892
   A34        2.01738   0.00088   0.00022  -0.00095  -0.00084   2.01654
   A35        1.87230  -0.00005   0.00082  -0.00253  -0.00166   1.87064
   A36        1.90079   0.00011   0.00078  -0.00240  -0.00163   1.89917
   A37        1.95852  -0.00013  -0.00109   0.00300   0.00189   1.96041
   A38        1.88301   0.00011  -0.00096   0.00484   0.00387   1.88688
   A39        1.93556   0.00008   0.00165  -0.00475  -0.00313   1.93243
   A40        1.91163  -0.00012  -0.00117   0.00188   0.00072   1.91235
   A41        1.95307  -0.00054  -0.00028  -0.00528  -0.00563   1.94744
   A42        1.89778  -0.00082   0.00265  -0.01894  -0.01626   1.88152
   A43        1.96573   0.00078  -0.00101   0.00749   0.00636   1.97210
    D1        3.12779   0.00050   0.00288   0.01130   0.01417  -3.14122
[...]
 06617,0.00070786,-0.12214881,-0.00189973,0.00803325,0.00729199,0.00106
 050,-0.03779318,-0.00325677,-0.00010763,0.00820078,-0.00947074,0.00000
 908,0.00470044,0.00050712,0.00007906,-0.00098939,-0.00028120,0.0003442
 7,-0.00130780,0.00007954,-0.00016923,0.00021394,0.00076320,-0.00006694
 ,0.00031802,-0.00000900,0.00007322,0.00035558,0.00002694,-0.00002273,-
 0.00007779,0.71157831,0.00166890,-0.00108833,0.00196288,0.00171443,0.0
 0466825,-0.00227435,-0.00007652,0.00007781,-0.00025420,-0.00531658,0.0
 0728300,0.00162956,-0.00043080,-0.00302270,0.00029992,-0.00077118,-0.0
 4006876,-0.02796229,0.00560321,0.00452898,-0.00016094,-0.00432260,-0.0
 0468027,0.00591822,-0.00291330,0.00519677,0.00071268,0.00008081,0.0005
 4429,-0.00014905,0.,-0.00048314,-0.00288109,-0.00058335,-0.00044072,0.
 00095150,0.00064633,0.00004941,0.00062680,-0.00030104,0.00062339,0.000
 78824,0.00006411,-0.00008030,0.00004622,0.08392755,0.15930077,-0.00535
 515,-0.00025212,-0.00622408,-0.00251882,0.00012357,0.00806206,0.000974
 00,-0.00002888,-0.00019812,0.01972855,0.00163387,-0.03759390,-0.001408
 84,0.00043248,0.00158399,0.00896047,0.01594439,-0.29354272,-0.01369076
 ,0.00062259,-0.02658346,0.01214958,0.00095562,-0.01851894,0.00349237,-
 0.00080090,-0.00292132,0.00052874,0.00007287,-0.00048831,-0.00027869,0
 .00010204,0.00921188,0.00152614,0.00171941,-0.00287339,-0.00193762,0.0
 0001653,-0.00236179,0.00113925,-0.00178350,-0.00272256,-0.00019033,0.0
 0018145,0.00000518,0.04496475,0.13951297,0.64149593,-0.00249175,0.0000
 0405,-0.00152664,-0.00019361,-0.00015798,0.00255048,0.00041468,0.00003
 227,-0.00045599,0.00316618,-0.00028081,-0.00702010,-0.00039005,0.00019
 109,0.00014821,-0.00059655,-0.00007310,0.02702218,-0.00220885,-0.00137
 757,-0.00073612,0.00015169,0.00836240,-0.04802192,-0.00062731,0.000075
 54,-0.00252883,0.00030357,-0.00001049,-0.00057351,0.00039849,-0.000079
 01,0.00315302,0.00028043,0.00052345,-0.00095579,-0.00110611,0.00003558
 ,-0.00088546,0.00020451,-0.00046366,-0.00096466,-0.00007986,0.00005169
 ,0.00005666,-0.20269121,0.03350696,0.04784102,0.48541621,-0.00166301,-
 0.00006414,-0.00048593,0.00037909,0.00198895,0.00215202,-0.00023413,-0
 .00016385,0.00010820,0.00224654,0.00191588,-0.00109964,-0.00008637,-0.
 00093009,0.00001819,-0.00572720,-0.00610417,0.01315355,-0.00242912,0.0
 0016353,0.00092722,0.01094608,0.01607945,-0.00869866,0.00069678,-0.000
 40806,-0.00124097,0.00004881,0.00001949,-0.00007003,0.00007765,0.00020
 438,0.00003224,-0.00005711,-0.00018908,0.00001120,-0.00009051,-0.00007
 874,0.00004551,0.00001905,-0.00009080,0.00004135,-0.00000462,0.0000076
 3,-0.00004426,0.05652185,-0.07682301,-0.04550915,-0.02300046,0.5584530
 1,-0.00060310,-0.00009114,0.00100929,0.00218731,0.00016283,0.00027047,
 -0.00004666,0.00009190,-0.00027841,-0.00287230,-0.00088249,-0.00451448
 ,0.00037847,-0.00011431,0.00011740,0.03810564,-0.00959234,-0.02126348,
 0.00257931,0.00187788,0.00538423,-0.02974214,-0.01323138,-0.02532132,0
 .00010173,0.00010112,-0.00079542,-0.00016070,0.00003742,0.00010983,-0.
 00000595,0.00004822,-0.00156122,-0.00022877,-0.00031562,0.00048228,0.0
 0030712,-0.00002267,0.00044875,-0.00016109,0.00027394,0.00048272,0.000
 03386,-0.00001894,-0.00002656,0.04831852,-0.02502447,-0.13491878,0.001
 51402,-0.03978665,0.64681010,0.00016838,0.00084053,0.00286319,0.001003
 02,0.00009776,-0.00019288,-0.00056420,-0.00007918,0.00018366,-0.000353
 97,0.00059784,0.00126146,0.00036256,-0.00017992,-0.00007141,0.00385333
 ,0.00002877,-0.00704368,0.00864657,-0.00783184,0.03074021,-0.09999849,
 -0.00827872,0.01210973,-0.00688437,-0.00155671,-0.00063999,-0.00028410
 ,-0.00022678,0.00010878,-0.00092261,0.00010594,-0.00286189,-0.00015115
 ,-0.00046579,0.00078062,0.00100675,-0.00001462,0.00075494,-0.00007541,
 0.00048460,0.00088443,0.00006630,-0.00002230,-0.00008415,-0.04999987,-
 0.02111680,-0.01715807,-0.14439403,-0.07633832,-0.04566405,0.62331097,
 -0.00014135,-0.00014446,0.00056237,0.00027153,-0.00010669,0.00017709,-
 0.00018467,0.00005736,0.00005104,0.00003422,-0.00018918,0.00011630,0.0
 0002806,-0.00003996,-0.00002972,-0.00024010,0.00038815,-0.00096330,0.0
 0396029,0.00460921,0.00375193,-0.00542516,-0.08181294,0.02531883,-0.00
 118497,0.00027030,-0.00054251,-0.00008471,-0.00016629,-0.00005625,-0.0
 0004624,-0.00054120,-0.00073914,-0.00003925,0.00012969,0.00025501,0.00
 012100,0.00019688,0.00021523,-0.00010650,0.00035918,0.00017000,0.00002
 248,-0.00002318,-0.00000488,-0.00332541,0.00982190,0.00336882,-0.04947
 631,-0.11696833,-0.02953057,0.10491572,0.21213950,0.00230179,-0.000750
 71,-0.00095557,-0.00143414,-0.00005385,-0.00181959,0.00097722,0.000002
 18,-0.00012800,-0.00099391,-0.00023491,0.00279465,0.00043767,0.0001050
 8,-0.00011357,0.00062411,0.00256576,-0.01107878,-0.00010279,0.00832086
 ,-0.01413802,-0.02279953,0.06133519,-0.15628371,0.00317335,0.00055535,
 0.00340993,-0.00040124,0.00017175,0.00072326,-0.00056820,0.00022862,0.
 00178957,0.00042121,0.00038025,-0.00054033,0.00023010,-0.00003154,-0.0
 0055169,0.00033848,-0.00055642,-0.00057639,-0.00001539,0.00003871,0.00
 008800,0.00797590,0.00597439,0.01872752,-0.01897310,-0.03888322,-0.128
 56406,-0.08949424,-0.00483782,0.48123902,-0.00103201,0.00086332,0.0007
 6041,0.00126921,-0.00018229,-0.00044090,-0.00162676,0.00001762,0.00063
 805,-0.00150247,0.00123782,-0.00128649,-0.00074412,0.00024639,0.000370
 50,-0.00195196,-0.00252727,0.01057598,-0.01217195,-0.01693801,-0.01830
 005,-0.30675309,-0.21620154,-0.14971461,0.00035344,0.00060135,-0.00321
 422,-0.00083845,-0.00055889,0.00000771,-0.00090514,-0.00022654,-0.0041
 3773,-0.00013131,-0.00054855,0.00125609,0.00139845,0.00004331,0.001426
 84,-0.00011674,0.00068835,0.00121665,0.00009891,-0.00005408,-0.0001850
 2,0.00085379,0.00052710,-0.00219269,0.00147445,0.00090020,-0.00260329,
 -0.00231370,-0.00771815,-0.00832907,0.31163559,-0.00062288,-0.00010370
 ,0.00076287,0.00056718,-0.00010013,0.00032932,-0.00038340,0.00006464,0
 .00018828,-0.00014868,-0.00015926,-0.00097263,-0.00023831,-0.00010747,
 0.00016330,-0.00203651,0.00009649,0.00256262,0.00232581,0.00569629,-0.
 00509641,-0.20759656,-0.28123879,-0.14135820,-0.00004731,0.00040766,-0
 .00121335,-0.00014054,-0.00066212,0.00018091,-0.00064283,-0.00081372,-
 0.00146433,0.00009461,0.00021470,0.00044079,0.00064254,0.00036406,0.00
 043058,-0.00000872,0.00053897,0.00037520,0.00005304,-0.00001574,-0.000
 03790,-0.00046802,0.00050054,0.00025079,-0.00005481,0.00068642,-0.0000
 5943,0.00581208,0.00912014,0.00435272,0.23093697,0.28501416,0.00053225
 ,0.00037677,0.00162674,0.00005240,-0.00008720,-0.00032025,0.00011877,-
 0.00002212,0.00010852,0.00022246,-0.00012192,0.00156631,0.00024607,-0.
 00010050,-0.00002421,0.00122491,0.00101048,-0.00601360,0.00515030,0.00
 009116,0.01053734,-0.14409223,-0.14333457,-0.18300459,-0.00164724,0.00
 060202,-0.00113038,-0.00048853,-0.00083871,0.00149149,-0.00170584,-0.0
 0010172,-0.00060467,0.00041917,0.00022170,0.00013363,0.00120378,0.0001
 3427,-0.00000039,0.00037663,-0.00007639,0.00013327,0.00004609,0.000014
 60,-0.00001363,-0.00199594,-0.00086913,0.00324711,0.00830767,0.0068996
 1,-0.00671181,-0.03502773,-0.02124003,-0.01207164,0.17990356,0.1625317
 0,0.17521279,-0.00253959,-0.00144437,0.00106144,0.00180998,0.00015394,
 0.00085912,-0.00160862,0.00027653,0.00052376,0.00025660,-0.00140056,-0
 .00018946,-0.00032834,-0.00014830,0.00002065,0.00128254,0.00046168,0.0
 0694168,-0.00299399,0.02446408,0.00696702,-0.11278422,0.12024469,0.013
 26156,-0.00158817,0.00194252,-0.00451411,-0.00034897,0.00074466,0.0000
 8870,-0.00083644,-0.00022970,-0.00369024,-0.00018261,-0.00061425,0.001
 24300,0.00115457,-0.00005400,0.00116526,-0.00011470,0.00055622,0.00101
 725,0.00008956,-0.00005119,-0.00017712,0.00131069,0.00114029,-0.003005
 07,-0.00068438,-0.00104869,0.00038979,0.01178436,0.00772194,-0.0035246
 7,0.01455029,-0.02826793,-0.00996213,0.09253451,0.00110383,0.00085691,
 -0.00145421,-0.00104513,-0.00018366,0.00012621,0.00107276,-0.00013849,
 -0.00037801,0.00100860,0.00059790,0.00032246,0.00038293,0.00001399,-0.
 00016935,0.00061805,-0.00095329,-0.00372582,-0.00104172,-0.00452608,0.
 00041842,0.10575782,-0.53388741,-0.04853538,0.00269870,-0.00024341,0.0
 0117093,-0.00001218,-0.00109902,0.00024227,0.00033223,-0.00097732,0.00
 263101,0.00031560,0.00112259,-0.00080951,-0.00060900,0.00049129,-0.000
 82611,0.00007747,-0.00007430,-0.00076279,-0.00003966,0.00001861,0.0001
 2451,0.00011737,0.00113692,0.00159664,-0.00543090,-0.00763057,-0.00354
 479,0.00871527,-0.01484239,0.00693897,0.01074355,-0.01834343,-0.001443
 34,-0.12882714,0.57576076,0.00080113,0.00035914,0.00073843,-0.00042692
 ,-0.00004578,0.00004959,0.00074549,-0.00008531,-0.00018831,0.00049771,
 0.00062673,0.00134334,0.00045822,0.00012598,-0.00015199,0.00058987,-0.
 00155149,-0.00998051,0.00681587,-0.00885128,0.01216468,0.01044998,-0.0
 4573952,-0.08362982,-0.00129827,0.00043464,0.00143191,-0.00028480,0.00
 015839,0.00042518,-0.00083851,0.00015390,0.00063752,0.00025194,0.00015
 653,-0.00021309,0.00041020,-0.00008062,-0.00035091,0.00027514,-0.00031
 819,-0.00025647,-0.00000026,0.00001511,0.00005423,-0.00241545,-0.00134
 082,0.00548755,0.00770039,0.00151789,-0.00021808,-0.01565405,0.0298367
 0,-0.00389887,-0.00106873,-0.02184597,0.01325085,-0.00528206,0.0466946
 3,0.06018637,0.00017262,-0.00007109,0.00005596,-0.00034538,0.00018513,
 -0.00019750,-0.00013060,-0.00000543,0.00016186,0.00046117,0.00011836,0
 .00179476,-0.00000518,-0.00008729,-0.00007924,-0.00552299,-0.00071418,
 -0.00048816,0.00006043,0.00035500,-0.00010074,-0.00318358,-0.00369828,
 0.00164750,0.00025830,-0.00005291,0.00019373,-0.00005726,0.00001348,0.
 00008997,-0.00006394,0.00002598,-0.00020544,0.00000195,-0.00002442,0.0
 0005263,0.00010630,-0.00000471,0.00006240,-0.00000268,0.00002096,0.000
 06617,0.00000592,-0.00000503,-0.00000793,-0.00212813,-0.00479537,0.037
 33945,-0.04969694,0.00218229,-0.01020461,-0.00383393,0.00651246,-0.028
 64739,-0.00100162,-0.00025117,-0.00251102,0.00024105,0.00078893,-0.000
 40242,0.06132643,-0.00011096,-0.00001995,-0.00002576,0.00010675,-0.000
 08459,0.00007440,0.00001579,0.00000027,-0.00003208,0.00000507,0.000008
 65,-0.00044477,0.00001579,0.00001910,0.00001274,0.00192953,0.00047620,
 -0.00098604,-0.00031198,0.00034566,0.00000018,-0.00143838,-0.00514940,
 0.00030657,0.00013596,-0.00010774,-0.00015999,-0.00001034,0.00000439,0
 .00000996,-0.00001268,0.00001932,-0.00000374,0.00000764,0.00000822,-0.
 00000419,0.00000931,0.00000063,0.00000241,0.00000327,-0.00000368,0.000
 01123,0.00000079,0.00000124,-0.00000249,0.00056401,0.00334281,-0.01266
 630,0.00313993,-0.08214075,0.09032937,-0.00279969,0.00512955,-0.022756
 26,-0.00069583,0.00035129,-0.00160806,0.00078508,0.00190671,0.00106205
 ,-0.00250610,0.08168739,-0.00003301,-0.00002490,-0.00006980,0.00005741
 ,-0.00007267,0.00017491,0.00019610,0.00000612,-0.00011719,-0.00014971,
 -0.00009659,-0.00090637,0.00003365,0.00001154,0.00000714,0.00318734,0.
 00079187,0.00168319,-0.00012563,0.00010490,0.00055810,-0.00069708,-0.0
 0259742,0.00267961,0.00001260,0.00004244,-0.00006607,-0.00000026,0.000
 00111,0.00002806,-0.00007458,0.00001059,0.00036934,0.00005956,0.000073
 19,-0.00011426,-0.00003392,0.00000064,-0.00012663,0.00005708,-0.000087
 80,-0.00012299,-0.00000672,0.00000894,0.00001594,0.00444548,0.00062948
 ,-0.01513484,-0.00819712,0.08033796,-0.29289639,-0.00439880,0.00249619
 ,-0.01606276,-0.00059701,-0.00016112,-0.00108180,-0.00007109,0.0005307
 9,0.00006262,0.00680861,-0.08442774,0.32073807,0.00034338,-0.00003722,
 -0.00008325,-0.00017145,0.00003101,-0.00034126,0.00007659,0.00000242,-
 0.00000889,-0.00026137,0.00007665,0.00042666,0.00006428,-0.00003800,-0
 .00001635,0.00050443,0.00014540,-0.00158258,0.00028300,0.00018668,-0.0
 0247179,0.00862259,0.00258759,-0.00248307,0.00062126,0.00012291,0.0001
 4633,0.00001817,0.00002876,0.00009772,0.00001672,-0.00003133,0.0001802
 9,0.00002303,0.00003886,-0.00005328,-0.00002330,0.00000489,-0.00005883
 ,0.00002436,-0.00004866,-0.00008250,-0.00000391,0.00000209,0.00001207,
 -0.00421684,-0.00358787,-0.00373982,-0.01531923,0.00714406,0.01588020,
 -0.33280001,-0.02582864,0.16500418,-0.00098680,-0.00049897,0.00088889,
 -0.00128403,0.00095899,-0.00082549,0.00066956,0.00057741,-0.00024408,0
 .34440130,0.00032761,-0.00015984,0.00018222,-0.00016259,0.00006478,-0.
 00009718,0.00018552,-0.00000282,-0.00006380,-0.00003482,-0.00004696,-0
 .00009954,0.00001528,-0.00000105,-0.00001143,0.00010773,-0.00042178,0.
 00037043,0.00130858,0.00073497,0.00086312,-0.01185107,0.00022577,0.018
 88104,-0.00069636,0.00034976,0.00022066,0.00002405,0.00006213,-0.00000
 085,-0.00007255,0.00008005,0.00032365,0.00002714,-0.00000217,-0.000096
 61,-0.00004441,-0.00003539,-0.00013047,0.00005519,-0.00011586,-0.00012
 333,-0.00000821,0.00000930,0.00001505,0.00092160,-0.00110371,-0.001634
 25,-0.01895007,-0.00528281,0.00860700,0.00799478,-0.00736921,-0.015329
 70,-0.00073039,-0.00230440,-0.00125875,0.00274358,-0.00196439,-0.00327
 125,0.00070470,0.00115688,0.00032379,0.01837922,0.01655405,0.00025189,
 -0.00031049,-0.00063060,-0.00021870,0.00005093,-0.00035958,0.00010421,
 0.00001694,0.00000880,-0.00032408,-0.00000477,0.00047366,0.00007881,-0
 .00003445,0.00003278,-0.00073135,-0.00016676,-0.00199233,-0.00283864,0
 .00239315,-0.00656608,0.03600866,-0.00090961,-0.01698259,0.00199903,0.
 00058483,0.00064263,-0.00000732,0.00010557,0.00004996,0.00019370,-0.00
 003748,0.00038598,0.00001437,0.00007141,-0.00008818,-0.00010838,-0.000
 00405,-0.00007828,0.00000123,-0.00007890,-0.00011462,-0.00000766,-0.00
 000062,0.00000473,-0.00497580,-0.00263831,-0.00082518,-0.01668751,-0.0
 0034825,0.01241115,0.16790982,0.01103538,-0.16039456,-0.00388448,-0.00
 146533,0.00320147,-0.00276758,-0.00045259,0.00270419,-0.00053934,0.000
 55866,0.00051070,-0.17186615,-0.00754482,0.16723258,0.00069332,-0.0000
 2193,0.00047989,-0.00014108,0.00103890,-0.00093991,-0.00017313,-0.0000
 3795,0.00001440,0.00119514,0.00024715,0.00394182,-0.00074936,-0.000679
 27,-0.00021783,0.00502606,0.00153325,-0.00171568,0.00121160,-0.0003798
 0,0.00159766,-0.00093660,-0.00072124,0.00204959,-0.00059985,-0.0001040
 6,0.00048657,0.00001151,-0.00001978,0.00004208,0.00005369,-0.00016916,
 -0.00068289,-0.00017245,-0.00012078,0.00025270,0.00009558,0.00003497,0
 .00016111,-0.00009563,0.00014779,0.00018744,0.00001187,-0.00001431,0.0
 0000753,-0.30650162,-0.11673860,-0.13810179,-0.01725230,-0.01422871,-0
 .01613978,-0.00507772,0.00133891,0.00303881,0.00023142,0.00009414,-0.0
 0032080,0.00028917,0.00025615,-0.00037570,0.00054450,-0.00049423,0.000
 24710,-0.00092321,0.00002216,-0.00124828,0.32295927,0.00002462,0.00000
 875,-0.00045848,-0.00029466,-0.00060388,0.00015951,0.00008724,-0.00000
 663,0.00003852,0.00102642,-0.00012940,-0.00094837,0.00057171,0.0004391
 8,-0.00050334,0.00498977,-0.00284897,0.01486985,-0.00222247,0.00122287
 ,0.00106748,0.00097071,0.00018192,-0.00067418,0.00100232,0.00089209,0.
 00034890,-0.00001404,0.00000735,0.00011838,0.00004073,0.00009511,0.000
 87822,0.00012862,0.00008132,-0.00028308,-0.00018506,-0.00004255,-0.000
 17231,0.00014916,-0.00025153,-0.00029172,-0.00002604,0.00003316,-0.000
 01479,-0.14662852,-0.06749231,-0.10146662,0.01359923,-0.00036437,0.004
 71120,-0.00108100,-0.00085647,-0.00025559,-0.00023710,-0.00012351,0.00
 001871,-0.00028540,-0.00014825,0.00021642,-0.00024167,0.00051135,0.000
 08910,-0.00011089,0.00066543,-0.00008619,0.12836809,0.06926035,0.00069
 419,-0.00018303,0.00054804,-0.00001060,0.00070221,-0.00104477,-0.00013
 567,-0.00001671,0.00013080,-0.00208916,0.00111533,0.00221353,0.0014390
 7,-0.00083139,-0.00010734,-0.03275708,-0.01398492,-0.02079818,0.003336
 04,-0.00084120,-0.00473417,0.00098456,-0.00010543,-0.00200116,-0.00208
 705,0.00061320,-0.00007642,0.00022869,0.00012218,-0.00033704,-0.000021
 45,-0.00010449,-0.00030524,-0.00000364,0.00000126,0.00007905,0.0001507
 2,0.00000771,0.00005483,-0.00000302,0.00004230,0.00006317,0.00000592,-
 0.00001088,-0.00002503,-0.13509378,-0.07722275,-0.14314016,0.01180250,
 0.00759806,0.01088068,0.00513358,-0.00009714,-0.00089813,-0.00014090,0
 .00005048,0.00049826,-0.00001361,-0.00009882,0.00040396,-0.00034340,0.
 00060750,0.00003283,0.00114449,0.00013864,0.00078077,0.14745630,0.0828
 0671,0.15771504,0.00103503,0.00004465,0.00050772,-0.00005077,-0.000295
 57,-0.00128601,-0.00012970,0.00002624,0.00008394,-0.00153285,-0.000518
 64,0.00204177,0.00014644,0.00024431,-0.00003129,0.00101949,0.00163591,
 -0.00845551,0.00086255,-0.00000125,-0.00044572,-0.00068858,-0.00566027
 ,0.00562912,-0.00039305,0.00002977,0.00094537,-0.00004736,0.00001015,0
 .00006084,0.00002382,0.00003760,-0.00075170,-0.00010236,-0.00015175,0.
 00021727,0.00018746,-0.00001111,0.00020831,-0.00008009,0.00012076,0.00
 021940,0.00001530,-0.00001100,-0.00000961,-0.01940405,0.03207433,0.010
 93331,-0.05407802,0.04374585,-0.00136354,-0.00254867,-0.03112515,-0.00
 923917,0.00021059,0.00088027,-0.00094149,-0.00000927,0.00205747,-0.000
 12328,0.00212403,0.00108389,-0.00047591,0.00032149,-0.00026668,-0.0003
 5644,0.00029982,0.00036824,0.00032329,0.07281877,0.00014683,-0.0000064
 8,-0.00019232,-0.00031955,-0.00000010,-0.00018027,0.00009016,-0.000001
 62,-0.00002376,-0.00012749,-0.00013157,-0.00012301,-0.00003656,-0.0000
 2624,0.00002419,-0.00023089,0.00050247,0.00013033,0.00015056,0.0000936
 8,-0.00088831,0.00089345,-0.00593814,0.00425454,0.00011719,-0.00006022
 ,0.00011690,0.00000510,-0.00002184,0.00000057,-0.00001234,-0.00006142,
 0.00046407,0.00008331,0.00013714,-0.00015476,-0.00009166,0.00002548,-0
 .00013238,0.00004908,-0.00005815,-0.00014923,-0.00000921,0.00000609,0.
 00001021,0.01033638,-0.00179161,-0.00239231,0.03983296,-0.28227997,0.0
 1597390,-0.00960160,-0.01916155,-0.00727981,-0.00018733,0.00091691,-0.
 00079858,0.00113632,0.00310633,0.00177214,0.00155037,-0.00746354,0.002
 00959,-0.00010535,-0.00109272,-0.00073425,0.00064829,-0.00053101,-0.00
 030883,-0.04431802,0.31383809,-0.00071194,-0.00007198,-0.00014111,0.00
 030899,0.00021285,0.00083841,-0.00000124,-0.00001049,-0.00002988,0.000
 83386,0.00042609,-0.00108502,-0.00009978,-0.00015299,0.00000991,-0.000
 63135,-0.00159491,0.00419175,-0.00049602,0.00088284,0.00045497,-0.0002
 9398,-0.00635824,0.00020189,0.00028614,0.00019345,-0.00061452,0.000011
 86,-0.00000631,-0.00002454,-0.00001796,-0.00007726,-0.00001726,-0.0000
 0689,0.00001488,0.00003550,-0.00000323,0.00001571,0.00000318,-0.000002
 56,0.00002384,0.00000834,0.00000168,-0.00000301,0.00000126,0.01061435,
 -0.01827546,0.00022634,-0.00256938,0.02332376,-0.06133688,-0.00443949,
 -0.01931355,-0.00069628,-0.00006060,0.00105511,-0.00003081,-0.00034212
 ,0.00140388,-0.00005237,-0.00454583,0.03014233,-0.00016141,0.00007650,
 -0.00026363,-0.00040737,-0.00022034,-0.00016833,0.00006668,0.00230933,
 -0.01139860,0.05855922\\0.00001997,0.00000458,-0.00001992,-0.00000936,
 0.00000439,-0.00000635,-0.00000087,-0.00000080,-0.00000214,-0.00001434
 ,0.00000288,0.00001929,0.00000203,-0.00000040,-0.00000140,0.00001796,0
 .00000853,-0.00002411,0.00000601,-0.00001302,-0.00001405,0.00000063,-0
 .00001008,0.00000490,-0.00000757,0.00000247,0.00001868,0.00000205,0.00
 000017,-0.00000103,-0.00000867,-0.00001568,0.00001646,0.00000453,0.000
 00630,-0.00000147,-0.00001550,0.00000808,-0.00000616,0.00000733,0.0000
 1020,-0.00000684,0.00000713,-0.00000584,0.00000662,0.00000238,-0.00001
 626,0.00001511,-0.00001263,0.00001980,0.00001275,0.00000107,-0.0000003
 5,-0.00000627,-0.00000133,-0.00000359,0.00000148,0.00000277,0.00001294
 ,0.00000714,0.00000042,-0.00001058,-0.00000221,0.00000024,0.00000394,-
 0.00000232,-0.00000110,-0.00000166,-0.00000278,-0.00000315,-0.00000603
 ,-0.00000535\\\@
 The archive entry for this job was punched.


 CONFIDENCE: THAT QUIET ASSURED FEELING YOU HAVE
 JUST BEFORE YOU FALL FLAT ON YOUR FACE.
 Job cpu time:       0 days  2 hours 10 minutes  5.3 seconds.
 Elapsed time:       0 days  0 hours  8 minutes 13.2 seconds.
 File lengths (MBytes):  RWF=    358 Int=      0 D2E=      0 Chk=     11 Scr=      1
 Normal termination of Gaussian 16 at Fri Jul  1 09:21:09 2022.
