 Entering Gaussian System, Link 0=g16
 AtFile(1): /home/561/yj5695/Basis/6-31pGd.gbs
 Initial command:
 /apps/gaussian/g16c01/g16/l1.exe "/jobfs/49913702.gadi-pbs/Gau-767897.inp" -scrdir="/jobfs/49913702.gadi-pbs/"
 Entering Link 1 = /apps/gaussian/g16c01/g16/l1.exe PID=    767918.
  
 Copyright (c) 1988-2019, Gaussian, Inc.  All Rights Reserved.
  
 This is part of the Gaussian(R) 16 program.  It is based on
 the Gaussian(R) 09 system (copyright 2009, Gaussian, Inc.),
 the Gaussian(R) 03 system (copyright 2003, Gaussian, Inc.),
 the Gaussian(R) 98 system (copyright 1998, Gaussian, Inc.),
 the Gaussian(R) 94 system (copyright 1995, Gaussian, Inc.),
 the Gaussian 92(TM) system (copyright 1992, Gaussian, Inc.),
 the Gaussian 90(TM) system (copyright 1990, Gaussian, Inc.),
 the Gaussian 88(TM) system (copyright 1988, Gaussian, Inc.),
 the Gaussian 86(TM) system (copyright 1986, Carnegie Mellon
 University), and the Gaussian 82(TM) system (copyright 1983,
 Carnegie Mellon University). Gaussian is a federally registered
 trademark of Gaussian, Inc.
  
 This software contains proprietary and confidential information,
 including trade secrets, belonging to Gaussian, Inc.
  
 This software is provided under written license and may be
 used, copied, transmitted, or stored only in accord with that
 written license.
  
 The following legend is applicable only to US Government
 contracts under FAR:
  
                    RESTRICTED RIGHTS LEGEND
  
 Use, reproduction and disclosure by the US Government is
 subject to restrictions as set forth in subparagraphs (a)
 and (c) of the Commercial Computer Software - Restricted
 Rights clause in FAR 52.227-19.
  
 Gaussian, Inc.
 340 Quinnipiac St., Bldg. 40, Wallingford CT 06492
  
  
 ---------------------------------------------------------------
 Warning -- This program may not be used in any manner that
 competes with the business of Gaussian, Inc. or will provide
 assistance to any competitor of Gaussian, Inc.  The licensee
 of this program is prohibited from giving any competitor of
 Gaussian, Inc. access to this program.  By using this program,
 the user acknowledges that Gaussian, Inc. is engaged in the
 business of creating and licensing software in the field of
 computational chemistry and represents and warrants to the
 licensee that it is not a competitor of Gaussian, Inc. and that
 it will not use this program in any manner prohibited above.
 ---------------------------------------------------------------
  

 Cite this work as:
 Gaussian 16, Revision C.01,
 M. J. Frisch, G. W. Trucks, H. B. Schlegel, G. E. Scuseria, 
 M. A. Robb, J. R. Cheeseman, G. Scalmani, V. Barone, 
 G. A. Petersson, H. Nakatsuji, X. Li, M. Caricato, A. V. Marenich, 
 J. Bloino, B. G. Janesko, R. Gomperts, B. Mennucci, H. P. Hratchian, 
 J. V. Ortiz, A. F. Izmaylov, J. L. Sonnenberg, D. Williams-Young, 
 F. Ding, F. Lipparini, F. Egidi, J. Goings, B. Peng, A. Petrone, 
 T. Henderson, D. Ranasinghe, V. G. Zakrzewski, J. Gao, N. Rega, 
 G. Zheng, W. Liang, M. Hada, M. Ehara, K. Toyota, R. Fukuda, 
 J. Hasegawa, M. Ishida, T. Nakajima, Y. Honda, O. Kitao, H. Nakai, 
 T. Vreven, K. Throssell, J. A. Montgomery, Jr., J. E. Peralta, 
 F. Ogliaro, M. J. Bearpark, J. J. Heyd, E. N. Brothers, K. N. Kudin, 
 V. N. Staroverov, T. A. Keith, R. Kobayashi, J. Normand, 
 K. Raghavachari, A. P. Rendell, J. C. Burant, S. S. Iyengar, 
 J. Tomasi, M. Cossi, J. M. Millam, M. Klene, C. Adamo, R. Cammi, 
 J. W. Ochterski, R. L. Martin, K. Morokuma, O. Farkas, 
 J. B. Foresman, and D. J. Fox, Gaussian, Inc., Wallingford CT, 2019.
 
 ******************************************
 Gaussian 16:  ES64L-G16RevC.01  3-Jul-2019
                 1-Jul-2022 
 ******************************************
 %nproc=16
 Will use up to   16 processors via shared memory.
 %mem=50gb
 --------------------------------------------------
 #M062X/gen 6D INT(grid=ultrafine) OPT Freq=noraman
 --------------------------------------------------
 1/18=20,19=15,26=4,38=1/1,3;
 2/9=110,12=2,17=6,18=5,40=1/2;
 3/5=7,8=2,11=2,25=1,30=1,71=1,74=-55,75=-5/1,2,3;
 4//1;
 5/5=2,38=5/2;
 6/7=2,8=2,9=2,10=2,28=1/1;
 7//1,2,3,16;
 1/18=20,19=15,26=4/3(2);
 2/9=110/2;
 99//99;
 2/9=110/2;
 3/5=7,6=1,8=2,11=2,25=1,30=1,71=1,74=-55,75=-5,82=7/1,2,3;
 4/5=5,16=3,69=1/1;
 5/5=2,38=5/2;
 7//1,2,3,16;
 1/18=20,19=15,26=4/3(-5);
 2/9=110/2;
 6/7=2,8=2,9=2,10=2,19=2,28=1/1;
 99/9=1/99;
 ---------
 A.33.freq
 ---------
 Symbolic Z-matrix:
 Charge = -1 Multiplicity = 1
 C                    -1.58878   1.02267  -0.88853 
 C                    -2.74812   0.57182  -1.55631 
 C                    -4.10603   0.48954  -0.8951 
 C                    -2.70185   0.20485  -2.89297 
 H                    -3.59686  -0.13598  -3.40347 
 C                    -1.49616   0.25945  -3.60787 
 C                    -0.34375   0.71258  -2.94823 
 C                     0.91272   0.8873   -3.7231 
 C                    -0.40302   1.08597  -1.60745 
 S                    -1.49737   1.47302   0.87311 
 O                    -0.21468   2.21552   0.97258 
 O                    -2.70009   2.32813   1.08468 
 N                    -1.40616   0.19459   1.76305 
 H                    -2.33     -0.23943   1.80063 
 N                    -1.42795  -0.06894  -4.94825 
 C                    -0.13673  -0.58051  -5.38726 
 N                     0.87342   0.3906   -4.97969 
 H                    -2.21306  -0.62468  -5.28207 
 F                    -4.94976  -0.29867  -1.58755 
 F                    -4.70724   1.68915  -0.80824 
 F                    -4.05652  -0.02561   0.34616 
 H                     1.73914   0.42297  -5.51293 
 C                    -0.09906  -0.77208  -6.89866 
 C                    -1.09676  -1.81255  -7.34761 
 C                    -0.81868  -3.17468  -7.17879 
 H                     0.13766  -3.47541  -6.75571 
 C                    -1.74957  -4.142    -7.55356 
 H                    -1.51781  -5.195    -7.42058 
 C                    -2.97503  -3.75859  -8.10288 
 H                    -3.70003  -4.51181  -8.39772 
 C                    -3.26113  -2.40477  -8.2756 
 H                    -4.21081  -2.09829  -8.70488 
 C                    -2.32644  -1.43821  -7.89892 
 H                    -2.55045  -0.38276  -8.03824 
 H                     0.07077  -1.54369  -4.89378 
 H                     0.91659  -1.08564  -7.16507 
 H                    -0.29975   0.1906   -7.38041 
 O                     1.8944    1.49474  -3.2753 
 H                     0.50021   1.44257  -1.12374 
 

 GradGradGradGradGradGradGradGradGradGradGradGradGradGradGradGradGradGrad
 Berny optimization.
 Initialization pass.
                           ----------------------------
                           !    Initial Parameters    !
                           ! (Angstroms and Degrees)  !
 --------------------------                            --------------------------
 ! Name  Definition              Value          Derivative Info.                !
 --------------------------------------------------------------------------------
 ! R1    R(1,2)                  1.4118         estimate D2E/DX2                !
 ! R2    R(1,9)                  1.3881         estimate D2E/DX2                !
 ! R3    R(1,10)                 1.8206         estimate D2E/DX2                !
 ! R4    R(2,3)                  1.5126         estimate D2E/DX2                !
 ! R5    R(2,4)                  1.3869         estimate D2E/DX2                !
 ! R6    R(3,19)                 1.3463         estimate D2E/DX2                !
 ! R7    R(3,20)                 1.3446         estimate D2E/DX2                !
 ! R8    R(3,21)                 1.3448         estimate D2E/DX2                !
 ! R9    R(4,5)                  1.0853         estimate D2E/DX2                !
 ! R10   R(4,6)                  1.4028         estimate D2E/DX2                !
 ! R11   R(6,7)                  1.403          estimate D2E/DX2                !
 ! R12   R(6,15)                 1.3817         estimate D2E/DX2                !
 ! R13   R(7,8)                  1.4865         estimate D2E/DX2                !
 ! R14   R(7,9)                  1.3931         estimate D2E/DX2                !
 ! R15   R(8,17)                 1.3518         estimate D2E/DX2                !
 ! R16   R(8,38)                 1.2382         estimate D2E/DX2                !
 ! R17   R(9,39)                 1.0849         estimate D2E/DX2                !
 ! R18   R(10,11)                1.4854         estimate D2E/DX2                !
 ! R19   R(10,12)                1.4908         estimate D2E/DX2                !
 ! R20   R(10,13)                1.5604         estimate D2E/DX2                !
 ! R21   R(13,14)                1.0214         estimate D2E/DX2                !
 ! R22   R(15,16)                1.4566         estimate D2E/DX2                !
 ! R23   R(15,18)                1.0182         estimate D2E/DX2                !
 ! R24   R(16,17)                1.4593         estimate D2E/DX2                !
 ! R25   R(16,23)                1.524          estimate D2E/DX2                !
 ! R26   R(16,35)                1.102          estimate D2E/DX2                !
 ! R27   R(17,22)                1.0173         estimate D2E/DX2                !
 ! R28   R(23,24)                1.5098         estimate D2E/DX2                !
 ! R29   R(23,36)                1.0958         estimate D2E/DX2                !
 ! R30   R(23,37)                1.095          estimate D2E/DX2                !
 ! R31   R(24,25)                1.4004         estimate D2E/DX2                !
 ! R32   R(24,33)                1.3986         estimate D2E/DX2                !
 ! R33   R(25,26)                1.0881         estimate D2E/DX2                !
 ! R34   R(25,27)                1.3938         estimate D2E/DX2                !
 ! R35   R(27,28)                1.0864         estimate D2E/DX2                !
 ! R36   R(27,29)                1.3966         estimate D2E/DX2                !
 ! R37   R(29,30)                1.0862         estimate D2E/DX2                !
 ! R38   R(29,31)                1.3945         estimate D2E/DX2                !
 ! R39   R(31,32)                1.0863         estimate D2E/DX2                !
 ! R40   R(31,33)                1.3963         estimate D2E/DX2                !
 ! R41   R(33,34)                1.0879         estimate D2E/DX2                !
 ! A1    A(2,1,9)              118.1024         estimate D2E/DX2                !
 ! A2    A(2,1,10)             125.3032         estimate D2E/DX2                !
 ! A3    A(9,1,10)             116.5489         estimate D2E/DX2                !
 ! A4    A(1,2,3)              123.2162         estimate D2E/DX2                !
 ! A5    A(1,2,4)              120.8615         estimate D2E/DX2                !
 ! A6    A(3,2,4)              115.9039         estimate D2E/DX2                !
 ! A7    A(2,3,19)             111.6919         estimate D2E/DX2                !
 ! A8    A(2,3,20)             112.4024         estimate D2E/DX2                !
 ! A9    A(2,3,21)             113.0329         estimate D2E/DX2                !
 ! A10   A(19,3,20)            105.9817         estimate D2E/DX2                !
 ! A11   A(19,3,21)            105.8739         estimate D2E/DX2                !
 ! A12   A(20,3,21)            107.3723         estimate D2E/DX2                !
 ! A13   A(2,4,5)              120.593          estimate D2E/DX2                !
 ! A14   A(2,4,6)              120.6338         estimate D2E/DX2                !
 ! A15   A(5,4,6)              118.772          estimate D2E/DX2                !
 ! A16   A(4,6,7)              118.6164         estimate D2E/DX2                !
 ! A17   A(4,6,15)             121.8415         estimate D2E/DX2                !
 ! A18   A(7,6,15)             119.4919         estimate D2E/DX2                !
 ! A19   A(6,7,8)              119.1536         estimate D2E/DX2                !
 ! A20   A(6,7,9)              120.2735         estimate D2E/DX2                !
 ! A21   A(8,7,9)              120.4088         estimate D2E/DX2                !
 ! A22   A(7,8,17)             114.6335         estimate D2E/DX2                !
 ! A23   A(7,8,38)             122.6343         estimate D2E/DX2                !
 ! A24   A(17,8,38)            122.6486         estimate D2E/DX2                !
 ! A25   A(1,9,7)              121.506          estimate D2E/DX2                !
 ! A26   A(1,9,39)             119.6874         estimate D2E/DX2                !
 ! A27   A(7,9,39)             118.8039         estimate D2E/DX2                !
 ! A28   A(1,10,11)            103.4033         estimate D2E/DX2                !
 ! A29   A(1,10,12)            103.8096         estimate D2E/DX2                !
 ! A30   A(1,10,13)            110.6181         estimate D2E/DX2                !
 ! A31   A(11,10,12)           113.6054         estimate D2E/DX2                !
 ! A32   A(11,10,13)           108.7159         estimate D2E/DX2                !
 ! A33   A(12,10,13)           115.8598         estimate D2E/DX2                !
 ! A34   A(10,13,14)           108.4372         estimate D2E/DX2                !
 ! A35   A(6,15,16)            114.8102         estimate D2E/DX2                !
 ! A36   A(6,15,18)            114.1871         estimate D2E/DX2                !
 ! A37   A(16,15,18)           113.1434         estimate D2E/DX2                !
 ! A38   A(15,16,17)           107.2014         estimate D2E/DX2                !
 ! A39   A(15,16,23)           111.4058         estimate D2E/DX2                !
 ! A40   A(15,16,35)           109.8116         estimate D2E/DX2                !
 ! A41   A(17,16,23)           110.0923         estimate D2E/DX2                !
 ! A42   A(17,16,35)           109.0406         estimate D2E/DX2                !
 ! A43   A(23,16,35)           109.2447         estimate D2E/DX2                !
 ! A44   A(8,17,16)            121.6189         estimate D2E/DX2                !
 ! A45   A(8,17,22)            116.7979         estimate D2E/DX2                !
 ! A46   A(16,17,22)           117.6364         estimate D2E/DX2                !
 ! A47   A(16,23,24)           111.4203         estimate D2E/DX2                !
 ! A48   A(16,23,36)           107.457          estimate D2E/DX2                !
 ! A49   A(16,23,37)           108.7398         estimate D2E/DX2                !
 ! A50   A(24,23,36)           110.0582         estimate D2E/DX2                !
 ! A51   A(24,23,37)           110.7271         estimate D2E/DX2                !
 ! A52   A(36,23,37)           108.328          estimate D2E/DX2                !
 ! A53   A(23,24,25)           120.2136         estimate D2E/DX2                !
 ! A54   A(23,24,33)           120.9139         estimate D2E/DX2                !
 ! A55   A(25,24,33)           118.8437         estimate D2E/DX2                !
 ! A56   A(24,25,26)           119.3542         estimate D2E/DX2                !
 ! A57   A(24,25,27)           120.6633         estimate D2E/DX2                !
 ! A58   A(26,25,27)           119.9816         estimate D2E/DX2                !
 ! A59   A(25,27,28)           119.8212         estimate D2E/DX2                !
 ! A60   A(25,27,29)           120.0838         estimate D2E/DX2                !
 ! A61   A(28,27,29)           120.0946         estimate D2E/DX2                !
 ! A62   A(27,29,30)           120.1357         estimate D2E/DX2                !
 ! A63   A(27,29,31)           119.6876         estimate D2E/DX2                !
 ! A64   A(30,29,31)           120.1762         estimate D2E/DX2                !
 ! A65   A(29,31,32)           120.1466         estimate D2E/DX2                !
 ! A66   A(29,31,33)           120.0852         estimate D2E/DX2                !
 ! A67   A(32,31,33)           119.7682         estimate D2E/DX2                !
 ! A68   A(24,33,31)           120.6364         estimate D2E/DX2                !
 ! A69   A(24,33,34)           119.4176         estimate D2E/DX2                !
 ! A70   A(31,33,34)           119.9453         estimate D2E/DX2                !
 ! D1    D(9,1,2,3)           -178.4583         estimate D2E/DX2                !
 ! D2    D(9,1,2,4)             -0.0868         estimate D2E/DX2                !
 ! D3    D(10,1,2,3)             4.0864         estimate D2E/DX2                !
 ! D4    D(10,1,2,4)          -177.542          estimate D2E/DX2                !
 ! D5    D(2,1,9,7)             -0.284          estimate D2E/DX2                !
 ! D6    D(2,1,9,39)           179.1014         estimate D2E/DX2                !
 ! D7    D(10,1,9,7)           177.3945         estimate D2E/DX2                !
 ! D8    D(10,1,9,39)           -3.2201         estimate D2E/DX2                !
 ! D9    D(2,1,10,11)         -164.8876         estimate D2E/DX2                !
 ! D10   D(2,1,10,12)          -46.0405         estimate D2E/DX2                !
 ! D11   D(2,1,10,13)           78.8751         estimate D2E/DX2                !
 ! D12   D(9,1,10,11)           17.6217         estimate D2E/DX2                !
 ! D13   D(9,1,10,12)          136.4688         estimate D2E/DX2                !
 ! D14   D(9,1,10,13)          -98.6155         estimate D2E/DX2                !
 ! D15   D(1,2,3,19)          -162.7387         estimate D2E/DX2                !
 ! D16   D(1,2,3,20)            78.2831         estimate D2E/DX2                !
 ! D17   D(1,2,3,21)           -43.4648         estimate D2E/DX2                !
 ! D18   D(4,2,3,19)            18.8153         estimate D2E/DX2                !
 ! D19   D(4,2,3,20)          -100.1629         estimate D2E/DX2                !
 ! D20   D(4,2,3,21)           138.0892         estimate D2E/DX2                !
 ! D21   D(1,2,4,5)           -179.6648         estimate D2E/DX2                !
 ! D22   D(1,2,4,6)              0.7281         estimate D2E/DX2                !
 ! D23   D(3,2,4,5)             -1.1793         estimate D2E/DX2                !
 ! D24   D(3,2,4,6)            179.2136         estimate D2E/DX2                !
 ! D25   D(2,4,6,7)             -0.9817         estimate D2E/DX2                !
 ! D26   D(2,4,6,15)          -178.3904         estimate D2E/DX2                !
 ! D27   D(5,4,6,7)            179.4042         estimate D2E/DX2                !
 ! D28   D(5,4,6,15)             1.9954         estimate D2E/DX2                !
 ! D29   D(4,6,7,8)           -174.751          estimate D2E/DX2                !
 ! D30   D(4,6,7,9)              0.6131         estimate D2E/DX2                !
 ! D31   D(15,6,7,8)             2.7201         estimate D2E/DX2                !
 ! D32   D(15,6,7,9)           178.0842         estimate D2E/DX2                !
 ! D33   D(4,6,15,16)         -151.9421         estimate D2E/DX2                !
 ! D34   D(4,6,15,18)          -18.9185         estimate D2E/DX2                !
 ! D35   D(7,6,15,16)           30.6712         estimate D2E/DX2                !
 ! D36   D(7,6,15,18)          163.6948         estimate D2E/DX2                !
 ! D37   D(6,7,8,17)            -9.6313         estimate D2E/DX2                !
 ! D38   D(6,7,8,38)           167.1225         estimate D2E/DX2                !
 ! D39   D(9,7,8,17)           175.0111         estimate D2E/DX2                !
 ! D40   D(9,7,8,38)            -8.2351         estimate D2E/DX2                !
 ! D41   D(6,7,9,1)              0.0164         estimate D2E/DX2                !
 ! D42   D(6,7,9,39)          -179.3743         estimate D2E/DX2                !
 ! D43   D(8,7,9,1)            175.3219         estimate D2E/DX2                !
 ! D44   D(8,7,9,39)            -4.0688         estimate D2E/DX2                !
 ! D45   D(7,8,17,16)          -17.9818         estimate D2E/DX2                !
 ! D46   D(7,8,17,22)         -175.0875         estimate D2E/DX2                !
 ! D47   D(38,8,17,16)         165.2649         estimate D2E/DX2                !
 ! D48   D(38,8,17,22)           8.1593         estimate D2E/DX2                !
 ! D49   D(1,10,13,14)         -75.2343         estimate D2E/DX2                !
 ! D50   D(11,10,13,14)        171.876          estimate D2E/DX2                !
 ! D51   D(12,10,13,14)         42.5261         estimate D2E/DX2                !
 ! D52   D(6,15,16,17)         -53.2327         estimate D2E/DX2                !
 ! D53   D(6,15,16,23)        -173.7384         estimate D2E/DX2                !
 ! D54   D(6,15,16,35)          65.0957         estimate D2E/DX2                !
 ! D55   D(18,15,16,17)        173.2576         estimate D2E/DX2                !
 ! D56   D(18,15,16,23)         52.752          estimate D2E/DX2                !
 ! D57   D(18,15,16,35)        -68.4139         estimate D2E/DX2                !
 ! D58   D(15,16,17,8)          48.5493         estimate D2E/DX2                !
 ! D59   D(15,16,17,22)       -154.528          estimate D2E/DX2                !
 ! D60   D(23,16,17,8)         169.8857         estimate D2E/DX2                !
 ! D61   D(23,16,17,22)        -33.1916         estimate D2E/DX2                !
 ! D62   D(35,16,17,8)         -70.2783         estimate D2E/DX2                !
 ! D63   D(35,16,17,22)         86.6444         estimate D2E/DX2                !
 ! D64   D(15,16,23,24)        -63.4486         estimate D2E/DX2                !
 ! D65   D(15,16,23,36)        175.9155         estimate D2E/DX2                !
 ! D66   D(15,16,23,37)         58.8648         estimate D2E/DX2                !
 ! D67   D(17,16,23,24)        177.7598         estimate D2E/DX2                !
 ! D68   D(17,16,23,36)         57.1239         estimate D2E/DX2                !
 ! D69   D(17,16,23,37)        -59.9268         estimate D2E/DX2                !
 ! D70   D(35,16,23,24)         58.0476         estimate D2E/DX2                !
 ! D71   D(35,16,23,36)        -62.5883         estimate D2E/DX2                !
 ! D72   D(35,16,23,37)       -179.639          estimate D2E/DX2                !
 ! D73   D(16,23,24,25)        -77.351          estimate D2E/DX2                !
 ! D74   D(16,23,24,33)        100.6736         estimate D2E/DX2                !
 ! D75   D(36,23,24,25)         41.7464         estimate D2E/DX2                !
 ! D76   D(36,23,24,33)       -140.2289         estimate D2E/DX2                !
 ! D77   D(37,23,24,25)        161.4882         estimate D2E/DX2                !
 ! D78   D(37,23,24,33)        -20.4871         estimate D2E/DX2                !
 ! D79   D(23,24,25,26)         -2.2674         estimate D2E/DX2                !
 ! D80   D(23,24,25,27)        178.0933         estimate D2E/DX2                !
 ! D81   D(33,24,25,26)        179.6673         estimate D2E/DX2                !
 ! D82   D(33,24,25,27)          0.0281         estimate D2E/DX2                !
 ! D83   D(23,24,33,31)       -178.0889         estimate D2E/DX2                !
 ! D84   D(23,24,33,34)          2.2129         estimate D2E/DX2                !
 ! D85   D(25,24,33,31)         -0.0377         estimate D2E/DX2                !
 ! D86   D(25,24,33,34)       -179.7358         estimate D2E/DX2                !
 ! D87   D(24,25,27,28)        179.728          estimate D2E/DX2                !
 ! D88   D(24,25,27,29)         -0.0478         estimate D2E/DX2                !
 ! D89   D(26,25,27,28)          0.0909         estimate D2E/DX2                !
 ! D90   D(26,25,27,29)       -179.6848         estimate D2E/DX2                !
 ! D91   D(25,27,29,30)        179.8353         estimate D2E/DX2                !
 ! D92   D(25,27,29,31)          0.0763         estimate D2E/DX2                !
 ! D93   D(28,27,29,30)          0.0602         estimate D2E/DX2                !
 ! D94   D(28,27,29,31)       -179.6988         estimate D2E/DX2                !
 ! D95   D(27,29,31,32)        179.8188         estimate D2E/DX2                !
 ! D96   D(27,29,31,33)         -0.0858         estimate D2E/DX2                !
 ! D97   D(30,29,31,32)          0.0598         estimate D2E/DX2                !
 ! D98   D(30,29,31,33)       -179.8448         estimate D2E/DX2                !
 ! D99   D(29,31,33,24)          0.0671         estimate D2E/DX2                !
 ! D100  D(29,31,33,34)        179.7637         estimate D2E/DX2                !
 ! D101  D(32,31,33,24)       -179.8378         estimate D2E/DX2                !
 ! D102  D(32,31,33,34)         -0.1413         estimate D2E/DX2                !
 --------------------------------------------------------------------------------
 Trust Radius=3.00D-01 FncErr=1.00D-07 GrdErr=1.00D-06 EigMax=2.50D+02 EigMin=1.00D-04
 Number of steps in this run=    223 maximum allowed number of steps=    234.
 GradGradGradGradGradGradGradGradGradGradGradGradGradGradGradGradGradGrad

                          Input orientation:                          
 ---------------------------------------------------------------------
 Center     Atomic      Atomic             Coordinates (Angstroms)
 Number     Number       Type             X           Y           Z
 ---------------------------------------------------------------------
      1          6           0       -1.588784    1.022670   -0.888528
      2          6           0       -2.748116    0.571816   -1.556309
      3          6           0       -4.106033    0.489544   -0.895101
      4          6           0       -2.701851    0.204849   -2.892972
      5          1           0       -3.596860   -0.135979   -3.403470
      6          6           0       -1.496163    0.259452   -3.607868
      7          6           0       -0.343751    0.712584   -2.948230
      8          6           0        0.912719    0.887296   -3.723098
      9          6           0       -0.403017    1.085970   -1.607446
     10         16           0       -1.497366    1.473024    0.873110
     11          8           0       -0.214683    2.215516    0.972580
     12          8           0       -2.700089    2.328135    1.084677
     13          7           0       -1.406161    0.194586    1.763050
     14          1           0       -2.330000   -0.239430    1.800628
     15          7           0       -1.427953   -0.068938   -4.948246
     16          6           0       -0.136731   -0.580506   -5.387259
     17          7           0        0.873422    0.390602   -4.979689
     18          1           0       -2.213060   -0.624676   -5.282070
     19          9           0       -4.949759   -0.298671   -1.587552
     20          9           0       -4.707239    1.689152   -0.808238
     21          9           0       -4.056522   -0.025605    0.346164
     22          1           0        1.739142    0.422974   -5.512934
     23          6           0       -0.099064   -0.772080   -6.898656
     24          6           0       -1.096760   -1.812547   -7.347612
     25          6           0       -0.818678   -3.174678   -7.178788
     26          1           0        0.137655   -3.475411   -6.755712
     27          6           0       -1.749571   -4.141995   -7.553557
     28          1           0       -1.517811   -5.195002   -7.420576
     29          6           0       -2.975034   -3.758589   -8.102885
     30          1           0       -3.700034   -4.511810   -8.397717
     31          6           0       -3.261134   -2.404771   -8.275602
     32          1           0       -4.210810   -2.098288   -8.704879
     33          6           0       -2.326442   -1.438207   -7.898922
     34          1           0       -2.550451   -0.382759   -8.038245
     35          1           0        0.070770   -1.543690   -4.893776
     36          1           0        0.916588   -1.085643   -7.165069
     37          1           0       -0.299748    0.190604   -7.380408
     38          8           0        1.894397    1.494742   -3.275304
     39          1           0        0.500208    1.442574   -1.123742
 ---------------------------------------------------------------------
                    Distance matrix (angstroms):
                    1          2          3          4          5
     1  C    0.000000
     2  C    1.411826   0.000000
     3  C    2.573093   1.512581   0.000000
     4  C    2.434245   1.386893   2.458509   0.000000
     5  H    3.420493   2.152520   2.634853   1.085271   0.000000
     6  C    2.825932   2.423603   3.771401   1.402762   2.147341
     7  C    2.426650   2.781767   4.291835   2.412775   3.392642
     8  C    3.782940   4.265702   5.774395   3.770936   4.635252
     9  C    1.388126   2.401346   3.817786   2.777335   3.862577
    10  S    1.820589   2.877261   3.301355   4.152400   5.028510
    11  O    2.602836   3.938948   4.648636   5.017098   6.009864
    12  O    2.613958   3.172030   3.045754   4.508884   5.198031
    13  N    2.783872   3.600180   3.800273   4.832956   5.621510
    14  H    3.061675   3.478789   3.309479   4.729221   5.357077
    15  N    4.206993   3.695759   4.889990   2.433501   2.663641
    16  C    4.991715   4.777380   6.089323   3.663072   4.013168
    17  N    4.816593   4.986773   6.441166   4.143847   4.769190
    18  H    4.733569   3.949578   4.906151   2.575814   2.383875
    19  F    3.678414   2.367689   1.346344   2.647781   2.270323
    20  F    3.189891   2.376176   1.344638   3.251284   3.361439
    21  F    2.951793   2.385004   1.344831   3.518558   3.779316
    22  H    5.728862   5.984356   7.449489   5.160833   5.764997
    23  C    6.446862   6.112626   7.327357   4.875899   4.985531
    24  C    7.071090   6.476986   7.482663   5.146846   4.961616
    25  C    7.601196   7.026466   7.982352   5.773714   5.586145
    26  H    7.591915   7.193157   8.250849   6.043829   6.027930
    27  C    8.433400   7.693120   8.446248   6.443830   6.056721
    28  H    9.018433   8.316217   9.032983   7.145596   6.786258
    29  C    8.765220   7.852487   8.442626   6.551844   5.966110
    30  H    9.564297   8.576378   9.025941   7.317476   6.640861
    31  C    8.313421   7.366963   7.972622   6.007963   5.384960
    32  H    8.815370   7.769876   8.228030   6.431148   5.686170
    33  C    7.466303   6.666838   7.479082   5.282054   4.849623
    34  H    7.349727   6.554828   7.362421   5.180930   4.757836
    35  H    5.038089   4.853882   6.129365   3.840317   4.201687
    36  H    7.079326   6.901842   8.186601   5.745371   5.951698
    37  H    6.670716   6.329293   7.525714   5.089930   5.176257
    38  O    4.248777   5.035838   6.533066   4.789102   5.729710
    39  H    2.143719   3.390714   4.709352   3.862036   4.947217
                    6          7          8          9         10
     6  C    0.000000
     7  C    1.403034   0.000000
     8  C    2.492023   1.486493   0.000000
     9  C    2.424828   1.393065   2.499323   0.000000
    10  S    4.642405   4.063464   5.222712   2.738717   0.000000
    11  O    5.142848   4.200977   5.008452   2.822743   1.485417
    12  O    5.267720   4.942335   6.184101   3.750606   1.490811
    13  N    5.372064   4.857283   5.996238   3.627824   1.560358
    14  H    5.495088   5.234803   6.503559   4.133390   2.118034
    15  N    1.381704   2.405481   2.809648   3.680388   6.022513
    16  C    2.391614   2.768358   2.454632   4.139449   6.727596
    17  N    2.741172   2.389981   1.351766   3.672174   6.406835
    18  H    2.024493   3.275575   3.806172   4.439079   6.542079
    19  F    4.039864   4.908094   6.351041   4.752945   4.594864
    20  F    4.493660   4.957144   6.381482   4.419150   3.630004
    21  F    4.719223   5.018229   6.487345   4.289557   3.012116
    22  H    3.758087   3.316629   2.025360   4.503470   7.235963
    23  C    3.720917   4.227288   3.723090   5.616194   8.209512
    24  C    4.293994   5.128145   4.946136   6.467781   8.862039
    25  C    5.000371   5.764893   5.607064   7.026077   9.321740
    26  H    5.150484   5.680491   5.369421   6.899505   9.239006
    27  C    5.916537   6.837566   6.859591   8.031256  10.129204
    28  H    6.654944   7.501991   7.521514   8.630519  10.641815
    29  C    6.207808   7.313379   7.475387   8.501515  10.493892
    30  H    7.110881   8.261709   8.501759   9.397513  11.252476
    31  C    5.656938   6.827146   6.998861   8.050988  10.091933
    32  H    6.237609   7.482925   7.744831   8.660967  10.576149
    33  C    4.688768   5.750332   5.773875   7.046538   9.279611
    34  H    4.599152   5.654870   5.676891   6.937133   9.163251
    35  H    2.712961   3.007948   2.826493   4.235511   6.694520
    36  H    4.503813   4.754347   3.967326   6.111010   8.774183
    37  H    3.958308   4.463026   3.915530   5.842896   8.437977
    38  O    3.623870   2.393336   1.238225   2.868267   5.358533
    39  H    3.399435   2.138669   2.689823   1.084873   2.824650
                   11         12         13         14         15
    11  O    0.000000
    12  O    2.490481   0.000000
    13  N    2.475605   2.585821   0.000000
    14  H    3.344696   2.691086   1.021401   0.000000
    15  N    6.461187   6.615169   6.716504   6.811025   0.000000
    16  C    6.947760   7.544333   7.303366   7.522798   1.456602
    17  N    6.320110   7.300723   7.120356   7.525394   2.347018
    18  H    7.154079   7.035038   7.138347   7.094131   1.018172
    19  F    5.941073   4.370575   4.901726   4.283270   4.873414
    20  F    4.861217   2.831974   4.443238   4.022049   5.566351
    21  F    4.491631   2.815210   3.013381   2.267612   5.911179
    22  H    7.006606   8.177096   7.930009   8.395528   3.254435
    23  C    8.419943   8.950434   8.812951   8.996573   2.462610
    24  C    9.285954   9.529922   9.334264   9.364073   2.984429
    25  C    9.791007  10.104728   9.573587   9.567115   3.871971
    26  H    9.604025  10.159018   9.403274   9.474800   4.161985
    27  C   10.745643  10.834443  10.282171  10.152226   4.845707
    28  H   11.272044  11.416422  10.648902  10.499902   5.691838
    29  C   11.210420  11.024296  10.743632  10.529962   5.094971
    30  H   12.050189  11.734587  11.430363  11.141654   6.066326
    31  C   10.777605  10.503809  10.534330  10.348242   4.459592
    32  H   11.323919  10.849466  11.077043  10.833211   5.096552
    33  C    9.824091   9.748333   9.842085   9.773348   3.374709
    34  H    9.664461   9.518353   9.884742   9.842386   3.302511
    35  H    6.973324   7.642682   7.036780   7.230479   2.103338
    36  H    8.854308   9.632889   9.313725   9.572885   3.383027
    37  H    8.595342   9.054742   9.210157   9.412665   2.693626
    38  O    4.797109   6.388528   6.161908   6.827735   4.035076
    39  H    2.345863   3.987886   3.677674   4.403539   4.541950
                   16         17         18         19         20
    16  C    0.000000
    17  N    1.459305   0.000000
    18  H    2.079462   3.263218   0.000000
    19  F    6.138603   6.774299   4.609258   0.000000
    20  F    6.856262   7.087384   5.620489   2.148856   0.000000
    21  F    6.967412   7.269271   5.952668   2.147485   2.167134
    22  H    2.131118   1.017286   4.095213   7.789146   8.080421
    23  C    1.523955   2.445401   2.665344   7.208411   8.024096
    24  C    2.506504   3.787154   2.631279   7.093357   8.249901
    25  C    3.225579   4.517794   3.470498   7.523242   8.908516
    26  H    3.213787   4.317599   3.977961   7.917281   9.247603
    27  C    4.469710   5.835180   4.212602   7.784958   9.394115
    28  H    5.228321   6.547892   5.093571   8.353233  10.064146
    29  C    5.052801   6.463803   4.284742   7.636762   9.267701
    30  H    6.100421   7.525493   5.198862   8.104980   9.852237
    31  C    4.629510   5.980945   3.637091   7.212290   8.637878
    32  H    5.468856   6.776505   4.228258   7.378416   8.772005
    33  C    3.440775   4.701658   2.742737   6.929194   8.107180
    34  H    3.590665   4.655723   2.787267   6.882964   7.824164
    35  H    1.101956   2.095977   2.492236   6.138966   7.069105
    36  H    2.127264   2.637622   3.681423   8.132777   8.929514
    37  H    2.143321   2.679510   2.954398   7.444406   8.053883
    38  O    3.590611   2.272981   5.038873   7.273741   7.050234
    39  H    4.761945   4.014258   5.378386   5.740138   5.222819
                   21         22         23         24         25
    21  F    0.000000
    22  H    8.253483   0.000000
    23  C    8.288915   2.593719   0.000000
    24  C    8.434901   4.050424   1.509811   0.000000
    25  C    8.776401   4.718116   2.523648   1.400441   0.000000
    26  H    8.940298   4.393935   2.717438   2.153890   1.088121
    27  C    9.201755   6.097066   3.809121   2.427943   1.393814
    28  H    9.669021   6.768198   4.674130   3.409342   2.151501
    29  C    9.300065   6.812986   4.317477   2.808101   2.417597
    30  H    9.834052   7.890419   5.403680   3.894327   3.402340
    31  C    8.979305   6.374264   3.815803   2.428253   2.785919
    32  H    9.286614   7.207441   4.682705   3.408978   3.872225
    33  C    8.542252   5.068127   2.530903   1.398639   2.409829
    34  H    8.526085   5.042521   2.731215   2.152786   3.395956
    35  H    6.840767   2.652281   2.154941   2.730700   2.944915
    36  H    9.070509   2.383710   1.095832   2.148320   2.715770
    37  H    8.594185   2.774622   1.095043   2.156135   3.411021
    38  O    7.130213   2.485916   4.716041   6.038946   6.663441
    39  H    5.007990   4.673280   6.213972   7.202963   7.728005
                   26         27         28         29         30
    26  H    0.000000
    27  C    2.154650   0.000000
    28  H    2.477823   1.086379   0.000000
    29  C    3.403513   1.396610   2.156925   0.000000
    30  H    4.300949   2.157237   2.486695   1.086229   0.000000
    31  C    3.874029   2.413321   3.399357   1.394456   2.155727
    32  H    4.960330   3.399997   4.300153   2.155491   2.486027
    33  C    3.395423   2.786131   3.872493   2.417942   3.403320
    34  H    4.293635   3.874040   4.960397   3.403039   4.301142
    35  H    2.683808   4.139960   4.715971   4.947836   5.941910
    36  H    2.546625   4.074386   4.783139   4.813404   5.879731
    37  H    3.744494   4.572022   5.521779   4.824444   5.891482
    38  O    6.316787   7.959570   8.577827   8.637961   9.675507
    39  H    7.485794   8.808601   9.369095   9.372184  10.295991
                   31         32         33         34         35
    31  C    0.000000
    32  H    1.086322   0.000000
    33  C    1.396346   2.153165   0.000000
    34  H    2.156372   2.478756   1.087916   0.000000
    35  H    4.824913   5.758820   3.845601   4.255144   0.000000
    36  H    4.519595   5.448548   3.343663   3.643741   2.466575
    37  H    4.038211   4.721192   2.651296   2.413951   3.054243
    38  O    8.172434   8.925452   6.913429   6.779918   3.895785
    39  H    8.949796   9.602345   7.886185   7.774877   4.828597
                   36         37         38         39
    36  H    0.000000
    37  H    1.776134   0.000000
    38  O    4.769148   4.833934   0.000000
    39  H    6.562232   6.430647   2.564314   0.000000
 Stoichiometry    C16H13F3N3O3S(1-)
 Framework group  C1[X(C16H13F3N3O3S)]
 Deg. of freedom   111
 Full point group                 C1      NOp   1
 Largest Abelian subgroup         C1      NOp   1
 Largest concise Abelian subgroup C1      NOp   1
                         Standard orientation:                         
 ---------------------------------------------------------------------
 Center     Atomic      Atomic             Coordinates (Angstroms)
 Number     Number       Type             X           Y           Z
 ---------------------------------------------------------------------
      1          6           0       -2.400444    0.334049    0.036843
      2          6           0       -1.711568   -0.873574   -0.208822
      3          6           0       -2.397941   -2.219664   -0.278362
      4          6           0       -0.343428   -0.878630   -0.436062
      5          1           0        0.180857   -1.808897   -0.629821
      6          6           0        0.389620    0.317107   -0.411655
      7          6           0       -0.293404    1.519288   -0.173442
      8          6           0        0.449412    2.803874   -0.261338
      9          6           0       -1.669059    1.513831    0.046041
     10         16           0       -4.176522    0.474740    0.411409
     11          8           0       -4.457817    1.919120    0.208665
     12          8           0       -4.824606   -0.407468   -0.600626
     13          7           0       -4.453346    0.115489    1.904400
     14          1           0       -4.391173   -0.898584    2.009524
     15          7           0        1.747276    0.345157   -0.666781
     16          6           0        2.469077    1.430465   -0.016550
     17          7           0        1.790406    2.672975   -0.370307
     18          1           0        2.208769   -0.557183   -0.569411
     19          9           0       -1.520772   -3.232801   -0.148862
     20          9           0       -3.020820   -2.417183   -1.453548
     21          9           0       -3.309928   -2.396137    0.694112
     22          1           0        2.337650    3.530393   -0.355213
     23          6           0        3.923344    1.481019   -0.469308
     24          6           0        4.669088    0.230587   -0.069537
     25          6           0        5.097843    0.058015    1.252439
     26          1           0        4.920966    0.849251    1.978158
     27          6           0        5.752156   -1.109787    1.640805
     28          1           0        6.082843   -1.227402    2.668926
     29          6           0        5.986140   -2.123949    0.709543
     30          1           0        6.498356   -3.033266    1.010657
     31          6           0        5.563619   -1.961397   -0.609380
     32          1           0        5.744359   -2.744207   -1.340569
     33          6           0        4.908213   -0.790324   -0.995145
     34          1           0        4.582969   -0.664279   -2.025626
     35          1           0        2.433480    1.300169    1.077097
     36          1           0        4.383084    2.358686   -0.001132
     37          1           0        3.949094    1.617037   -1.555566
     38          8           0       -0.119433    3.903167   -0.295557
     39          1           0       -2.174745    2.458172    0.217656
 ---------------------------------------------------------------------
 Rotational constants (GHZ):           0.3323748           0.1004199           0.0829899
 General basis read from cards:  (6D, 7F)
 There are   524 symmetry adapted cartesian basis functions of A   symmetry.
 There are   524 symmetry adapted basis functions of A   symmetry.
   524 basis functions,   908 primitive gaussians,   524 cartesian basis functions
    99 alpha electrons       99 beta electrons
       nuclear repulsion energy      2538.9560882812 Hartrees.
 NAtoms=   39 NActive=   39 NUniq=   39 SFac= 1.00D+00 NAtFMM=   60 NAOKFM=F Big=F
 Integral buffers will be    131072 words long.
 Raffenetti 2 integral format.
 Two-electron integral symmetry is turned on.
 One-electron integrals computed using PRISM.
 NBasis=   524 RedAO= T EigKep=  1.52D-06  NBF=   524
 NBsUse=   521 1.00D-06 EigRej=  8.23D-07 NBFU=   521
 ExpMin= 4.05D-02 ExpMax= 2.19D+04 ExpMxC= 3.30D+03 IAcc=3 IRadAn=         5 AccDes= 0.00D+00
 Harris functional with IExCor= 1009 and IRadAn=       5 diagonalized for initial guess.
 HarFok:  IExCor= 1009 AccDes= 0.00D+00 IRadAn=         5 IDoV= 1 UseB2=F ITyADJ=14
 ICtDFT=  3500011 ScaDFX=  1.000000  1.000000  1.000000  1.000000
 FoFCou: FMM=F IPFlag=           0 FMFlag=      100000 FMFlg1=           0
         NFxFlg=           0 DoJE=T BraDBF=F KetDBF=T FulRan=T
         wScrn=  0.000000 ICntrl=       500 IOpCl=  0 I1Cent=   200000004 NGrid=           0
         NMat0=    1 NMatS0=      1 NMatT0=    0 NMatD0=    1 NMtDS0=    0 NMtDT0=    0
 Petite list used in FoFCou.
 Requested convergence on RMS density matrix=1.00D-08 within 128 cycles.
 Requested convergence on MAX density matrix=1.00D-06.
 Requested convergence on             energy=1.00D-06.
 No special actions if energy rises.
 SCF Done:  E(RM062X) =  -1704.70381429     A.U. after   17 cycles
            NFock= 17  Conv=0.79D-08     -V/T= 2.0071

 **********************************************************************

            Population analysis using the SCF Density.

 **********************************************************************

 Orbital symmetries:
       Occupied  (A) (A) (A) (A) (A) (A) (A) (A) (A) (A) (A) (A)
                 (A) (A) (A) (A) (A) (A) (A) (A) (A) (A) (A) (A)
                 (A) (A) (A) (A) (A) (A) (A) (A) (A) (A) (A) (A)
                 (A) (A) (A) (A) (A) (A) (A) (A) (A) (A) (A) (A)
                 (A) (A) (A) (A) (A) (A) (A) (A) (A) (A) (A) (A)
                 (A) (A) (A) (A) (A) (A) (A) (A) (A) (A) (A) (A)
                 (A) (A) (A) (A) (A) (A) (A) (A) (A) (A) (A) (A)
                 (A) (A) (A) (A) (A) (A) (A) (A) (A) (A) (A) (A)
                 (A) (A) (A)
       Virtual   (A) (A) (A) (A) (A) (A) (A) (A) (A) (A) (A) (A)
                 (A) (A) (A) (A) (A) (A) (A) (A) (A) (A) (A) (A)
                 (A) (A) (A) (A) (A) (A) (A) (A) (A) (A) (A) (A)
                 (A) (A) (A) (A) (A) (A) (A) (A) (A) (A) (A) (A)
                 (A) (A) (A) (A) (A) (A) (A) (A) (A) (A) (A) (A)
                 (A) (A) (A) (A) (A) (A) (A) (A) (A) (A) (A) (A)
                 (A) (A) (A) (A) (A) (A) (A) (A) (A) (A) (A) (A)
                 (A) (A) (A) (A) (A) (A) (A) (A) (A) (A) (A) (A)
                 (A) (A) (A) (A) (A) (A) (A) (A) (A) (A) (A) (A)
                 (A) (A) (A) (A) (A) (A) (A) (A) (A) (A) (A) (A)
                 (A) (A) (A) (A) (A) (A) (A) (A) (A) (A) (A) (A)
                 (A) (A) (A) (A) (A) (A) (A) (A) (A) (A) (A) (A)
                 (A) (A) (A) (A) (A) (A) (A) (A) (A) (A) (A) (A)
                 (A) (A) (A) (A) (A) (A) (A) (A) (A) (A) (A) (A)
                 (A) (A) (A) (A) (A) (A) (A) (A) (A) (A) (A) (A)
                 (A) (A) (A) (A) (A) (A) (A) (A) (A) (A) (A) (A)
                 (A) (A) (A) (A) (A) (A) (A) (A) (A) (A) (A) (A)
                 (A) (A) (A) (A) (A) (A) (A) (A) (A) (A) (A) (A)
                 (A) (A) (A) (A) (A) (A) (A) (A) (A) (A) (A) (A)
                 (A) (A) (A) (A) (A) (A) (A) (A) (A) (A) (A) (A)
                 (A) (A) (A) (A) (A) (A) (A) (A) (A) (A) (A) (A)
                 (A) (A) (A) (A) (A) (A) (A) (A) (A) (A) (A) (A)
                 (A) (A) (A) (A) (A) (A) (A) (A) (A) (A) (A) (A)
                 (A) (A) (A) (A) (A) (A) (A) (A) (A) (A) (A) (A)
                 (A) (A) (A) (A) (A) (A) (A) (A) (A) (A) (A) (A)
                 (A) (A) (A) (A) (A) (A) (A) (A) (A) (A) (A) (A)
                 (A) (A) (A) (A) (A) (A) (A) (A) (A) (A) (A) (A)
                 (A) (A) (A) (A) (A) (A) (A) (A) (A) (A) (A) (A)
                 (A) (A) (A) (A) (A) (A) (A) (A) (A) (A) (A) (A)
                 (A) (A) (A) (A) (A) (A) (A) (A) (A) (A) (A) (A)
                 (A) (A) (A) (A) (A) (A) (A) (A) (A) (A) (A) (A)
                 (A) (A) (A) (A) (A) (A) (A) (A) (A) (A) (A) (A)
                 (A) (A) (A) (A) (A) (A) (A) (A) (A) (A) (A) (A)
                 (A) (A) (A) (A) (A) (A) (A) (A) (A) (A) (A) (A)
                 (A) (A) (A) (A) (A) (A) (A) (A) (A) (A) (A) (A)
                 (A) (A)
 The electronic state is 1-A.
 Alpha  occ. eigenvalues --  -89.97245 -25.20136 -25.18630 -25.18188 -19.52927
 Alpha  occ. eigenvalues --  -19.44765 -19.44653 -14.72049 -14.71436 -14.55675
 Alpha  occ. eigenvalues --  -10.70524 -10.57680 -10.57478 -10.52753 -10.52097
 Alpha  occ. eigenvalues --  -10.52073 -10.52042 -10.51907 -10.51864 -10.51814
 Alpha  occ. eigenvalues --  -10.51659 -10.49227 -10.47764 -10.47377 -10.46459
 Alpha  occ. eigenvalues --  -10.45966  -8.28027  -6.20238  -6.20214  -6.20116
 Alpha  occ. eigenvalues --   -1.35869  -1.26756  -1.25747  -1.07678  -1.03832
 Alpha  occ. eigenvalues --   -1.01842  -0.94219  -0.92935  -0.91873  -0.88069
 Alpha  occ. eigenvalues --   -0.84746  -0.80779  -0.80202  -0.79679  -0.77705
 Alpha  occ. eigenvalues --   -0.74313  -0.71669  -0.67734  -0.65732  -0.65493
 Alpha  occ. eigenvalues --   -0.62446  -0.62363  -0.59432  -0.58129  -0.57888
 Alpha  occ. eigenvalues --   -0.56487  -0.55333  -0.54004  -0.52834  -0.51770
 Alpha  occ. eigenvalues --   -0.49225  -0.48827  -0.47821  -0.46690  -0.46435
 Alpha  occ. eigenvalues --   -0.46138  -0.45229  -0.43974  -0.43514  -0.43464
 Alpha  occ. eigenvalues --   -0.42721  -0.41784  -0.41491  -0.41398  -0.40230
 Alpha  occ. eigenvalues --   -0.39799  -0.39446  -0.39108  -0.38792  -0.38111
 Alpha  occ. eigenvalues --   -0.36588  -0.36243  -0.36143  -0.35281  -0.34561
 Alpha  occ. eigenvalues --   -0.31916  -0.29651  -0.27150  -0.26463  -0.25289
 Alpha  occ. eigenvalues --   -0.24604  -0.24436  -0.22740  -0.21906  -0.20200
 Alpha  occ. eigenvalues --   -0.19619  -0.17964  -0.15878  -0.12854
 Alpha virt. eigenvalues --    0.04998   0.05477   0.05739   0.06788   0.06980
 Alpha virt. eigenvalues --    0.07303   0.08252   0.08849   0.09138   0.09585
 Alpha virt. eigenvalues --    0.10968   0.11172   0.11844   0.12238   0.12688
 Alpha virt. eigenvalues --    0.13123   0.14411   0.14636   0.14841   0.15307
 Alpha virt. eigenvalues --    0.15824   0.16005   0.16301   0.17101   0.17538
 Alpha virt. eigenvalues --    0.18001   0.18123   0.18261   0.18585   0.18810
 Alpha virt. eigenvalues --    0.19257   0.19684   0.19849   0.20622   0.20929
 Alpha virt. eigenvalues --    0.21314   0.21678   0.21964   0.22398   0.22769
 Alpha virt. eigenvalues --    0.23136   0.23602   0.23726   0.24055   0.24544
 Alpha virt. eigenvalues --    0.25013   0.25308   0.25668   0.25849   0.26124
 Alpha virt. eigenvalues --    0.26577   0.26630   0.26938   0.27389   0.27864
 Alpha virt. eigenvalues --    0.27917   0.28202   0.28537   0.29042   0.29246
 Alpha virt. eigenvalues --    0.29581   0.29979   0.30250   0.30504   0.30760
 Alpha virt. eigenvalues --    0.30880   0.31352   0.31589   0.32002   0.32584
 Alpha virt. eigenvalues --    0.32758   0.33128   0.33571   0.33861   0.34101
 Alpha virt. eigenvalues --    0.34499   0.34713   0.35004   0.35229   0.35513
 Alpha virt. eigenvalues --    0.35855   0.35922   0.36733   0.37077   0.37328
 Alpha virt. eigenvalues --    0.37471   0.37843   0.38102   0.38631   0.38836
 Alpha virt. eigenvalues --    0.39301   0.39744   0.40160   0.40219   0.40636
 Alpha virt. eigenvalues --    0.40995   0.41311   0.41634   0.42397   0.42655
 Alpha virt. eigenvalues --    0.43256   0.43295   0.43766   0.43985   0.44333
 Alpha virt. eigenvalues --    0.44432   0.44925   0.45147   0.45563   0.46185
 Alpha virt. eigenvalues --    0.46499   0.46647   0.47302   0.47595   0.47628
 Alpha virt. eigenvalues --    0.48006   0.48435   0.48748   0.49033   0.49418
 Alpha virt. eigenvalues --    0.49801   0.49994   0.50963   0.51028   0.51951
 Alpha virt. eigenvalues --    0.52423   0.52990   0.53693   0.54242   0.54399
 Alpha virt. eigenvalues --    0.54848   0.55674   0.56425   0.57402   0.58294
 Alpha virt. eigenvalues --    0.58901   0.59232   0.60446   0.62619   0.63039
 Alpha virt. eigenvalues --    0.63845   0.64468   0.66041   0.66750   0.67009
 Alpha virt. eigenvalues --    0.68696   0.70490   0.73959   0.74687   0.75695
 Alpha virt. eigenvalues --    0.77932   0.78272   0.79035   0.80112   0.80542
 Alpha virt. eigenvalues --    0.81222   0.81816   0.82251   0.83292   0.83670
 Alpha virt. eigenvalues --    0.84410   0.84642   0.85128   0.86115   0.87935
 Alpha virt. eigenvalues --    0.88302   0.88337   0.89097   0.89379   0.90773
 Alpha virt. eigenvalues --    0.91126   0.92205   0.92819   0.93652   0.93872
 Alpha virt. eigenvalues --    0.94961   0.95817   0.96667   0.97574   0.98385
 Alpha virt. eigenvalues --    0.98664   1.00123   1.00855   1.01668   1.01917
 Alpha virt. eigenvalues --    1.03313   1.04158   1.04778   1.05411   1.05594
 Alpha virt. eigenvalues --    1.06326   1.06707   1.07088   1.10020   1.10533
 Alpha virt. eigenvalues --    1.10775   1.12408   1.13210   1.14278   1.15285
 Alpha virt. eigenvalues --    1.16732   1.17860   1.18336   1.18594   1.19021
 Alpha virt. eigenvalues --    1.20156   1.20939   1.21963   1.23144   1.23538
 Alpha virt. eigenvalues --    1.24775   1.25651   1.26551   1.27486   1.28246
 Alpha virt. eigenvalues --    1.28915   1.29964   1.30192   1.31512   1.32615
 Alpha virt. eigenvalues --    1.33396   1.34056   1.34623   1.35334   1.36060
 Alpha virt. eigenvalues --    1.36599   1.37102   1.37681   1.39461   1.39703
 Alpha virt. eigenvalues --    1.41505   1.41615   1.42850   1.44475   1.45726
 Alpha virt. eigenvalues --    1.46999   1.48246   1.48765   1.49937   1.50902
 Alpha virt. eigenvalues --    1.51637   1.52491   1.52957   1.54455   1.55073
 Alpha virt. eigenvalues --    1.55540   1.57060   1.57114   1.57697   1.58280
 Alpha virt. eigenvalues --    1.58472   1.59401   1.60078   1.60745   1.61379
 Alpha virt. eigenvalues --    1.62330   1.64166   1.64736   1.64911   1.66423
 Alpha virt. eigenvalues --    1.67064   1.67719   1.70469   1.70821   1.75040
 Alpha virt. eigenvalues --    1.76017   1.78363   1.78573   1.79893   1.81516
 Alpha virt. eigenvalues --    1.82995   1.84210   1.86017   1.86382   1.87025
 Alpha virt. eigenvalues --    1.87233   1.88003   1.88754   1.89419   1.89813
 Alpha virt. eigenvalues --    1.91327   1.91957   1.92510   1.92921   1.94250
 Alpha virt. eigenvalues --    1.95047   1.96102   1.96630   1.97695   1.98203
 Alpha virt. eigenvalues --    1.99248   1.99668   2.00401   2.00752   2.01626
 Alpha virt. eigenvalues --    2.02053   2.02348   2.04659   2.05424   2.06172
 Alpha virt. eigenvalues --    2.06513   2.08059   2.08178   2.08598   2.09143
 Alpha virt. eigenvalues --    2.09779   2.10278   2.10932   2.11571   2.12540
 Alpha virt. eigenvalues --    2.14068   2.14905   2.16223   2.16907   2.18132
 Alpha virt. eigenvalues --    2.18813   2.19503   2.20562   2.21340   2.21373
 Alpha virt. eigenvalues --    2.22478   2.22967   2.23416   2.24693   2.25059
 Alpha virt. eigenvalues --    2.25708   2.26209   2.27720   2.28165   2.28394
 Alpha virt. eigenvalues --    2.29473   2.30118   2.31739   2.32466   2.33744
 Alpha virt. eigenvalues --    2.35441   2.36849   2.37251   2.37704   2.38111
 Alpha virt. eigenvalues --    2.39185   2.42725   2.43820   2.45649   2.46726
 Alpha virt. eigenvalues --    2.48627   2.49500   2.51128   2.51516   2.53053
 Alpha virt. eigenvalues --    2.55316   2.57443   2.58283   2.60699   2.61859
 Alpha virt. eigenvalues --    2.63972   2.65354   2.67397   2.68735   2.69309
 Alpha virt. eigenvalues --    2.70153   2.71570   2.71846   2.75760   2.77240
 Alpha virt. eigenvalues --    2.80341   2.81709   2.81803   2.82227   2.82528
 Alpha virt. eigenvalues --    2.83034   2.83648   2.84788   2.86759   2.90336
 Alpha virt. eigenvalues --    2.92390   2.94945   2.95644   2.98032   3.02140
 Alpha virt. eigenvalues --    3.03355   3.06374   3.08439   3.09534   3.11767
 Alpha virt. eigenvalues --    3.13053   3.16625   3.22068   3.24933   3.31152
 Alpha virt. eigenvalues --    3.33405   3.39692   3.42159   3.43920   3.45436
 Alpha virt. eigenvalues --    3.53485   4.21653   4.28477   4.30659   4.33175
 Alpha virt. eigenvalues --    4.33527   4.38258   4.40468   4.42411   4.44463
 Alpha virt. eigenvalues --    4.46258   4.46469   4.49041   4.50555   4.52396
 Alpha virt. eigenvalues --    4.55643   4.56989   4.62490   4.64265   4.72178
 Alpha virt. eigenvalues --    4.75121   4.78913   4.88004   4.97094   5.98428
 Alpha virt. eigenvalues --    6.20689   7.14345
          Condensed to atoms (all electrons):
               1          2          3          4          5          6
     1  C   34.769736 -19.990240  -0.031047   4.713723  -0.021283  -1.463310
     2  C  -19.990240  67.576299   0.711998 -17.375335   0.018367 -15.707749
     3  C   -0.031047   0.711998  12.132934  -4.105132   0.017807  -1.605989
     4  C    4.713723 -17.375335  -4.105132  25.023845   0.239153   9.925796
     5  H   -0.021283   0.018367   0.017807   0.239153   0.496345  -0.029244
     6  C   -1.463310 -15.707749  -1.605989   9.925796  -0.029244  29.933984
     7  C   -7.267067  -1.535134   0.843862 -14.734158   0.077059 -14.391725
     8  C   -2.096329   3.757532  -0.067216  -2.656788   0.015976  -3.876311
     9  C    2.056721 -10.111382  -2.133043   6.564553  -0.023203   5.209714
    10  S   -0.926842  -1.540988  -1.397564   1.160295  -0.000127   0.156960
    11  O   -0.408285  -0.234604   0.020509   0.056948   0.000026  -0.010198
    12  O   -0.414083   0.042580  -0.197370   0.103040  -0.000066   0.040041
    13  N    0.199255  -0.206877  -0.114687   0.099463   0.000051   0.038835
    14  H   -0.154310   0.001895  -0.023995   0.022605   0.000000   0.006072
    15  N    0.191435   0.567458   0.033395  -0.398720  -0.012209  -1.267221
    16  C   -0.740291  -1.072039  -0.044619  -0.835110  -0.001858  -1.110969
    17  N   -0.378287   0.318967   0.012483   0.011922   0.000730   0.879472
    18  H    0.004805   0.065799   0.004428  -0.018729   0.006063  -0.112004
    19  F   -0.028109  -0.217475  -0.011750   0.217415   0.002962   0.115077
    20  F   -0.131489   0.351637   0.146774  -0.165171  -0.000322  -0.074554
    21  F    0.079595  -0.136067   0.156830  -0.027550   0.000189  -0.038757
    22  H    0.005095  -0.002610   0.000055   0.002655  -0.000000  -0.022146
    23  C   -0.073930   0.285066   0.018030  -0.528547   0.001640  -0.827788
    24  C   -0.090917   0.232035  -0.005254   0.323696  -0.000038   0.262810
    25  C   -0.027906  -0.019258  -0.003193  -0.020145   0.000136  -0.064804
    26  H    0.000124  -0.000252  -0.000011  -0.000158   0.000000  -0.001851
    27  C    0.003843   0.003818  -0.002164   0.032454  -0.000126   0.024594
    28  H    0.000000   0.000010   0.000000   0.000030   0.000000   0.000065
    29  C    0.001942   0.006035   0.001386  -0.029261   0.000109   0.004245
    30  H    0.000001  -0.000024  -0.000000  -0.000083   0.000000   0.000063
    31  C   -0.008904   0.017137   0.000457   0.035491   0.000881   0.019540
    32  H   -0.000005   0.000079  -0.000003   0.000780  -0.000000  -0.001011
    33  C    0.086677  -0.206798   0.003138  -0.216254  -0.000842   0.122755
    34  H    0.000022   0.001504  -0.000001   0.007805  -0.000001  -0.010520
    35  H    0.002757  -0.023833   0.000216   0.030016   0.000002   0.046396
    36  H    0.000121  -0.000949  -0.000037   0.002403   0.000000   0.009701
    37  H   -0.000329   0.001659   0.000046  -0.001319   0.000000   0.000207
    38  O    0.061397  -0.020934  -0.002594   0.028694   0.000012   0.057957
    39  H   -0.134152   0.037194   0.002505  -0.014438   0.000013   0.004340
               7          8          9         10         11         12
     1  C   -7.267067  -2.096329   2.056721  -0.926842  -0.408285  -0.414083
     2  C   -1.535134   3.757532 -10.111382  -1.540988  -0.234604   0.042580
     3  C    0.843862  -0.067216  -2.133043  -1.397564   0.020509  -0.197370
     4  C  -14.734158  -2.656788   6.564553   1.160295   0.056948   0.103040
     5  H    0.077059   0.015976  -0.023203  -0.000127   0.000026  -0.000066
     6  C  -14.391725  -3.876311   5.209714   0.156960  -0.010198   0.040041
     7  C   52.691265  -3.213952  -8.811740  -2.221323  -0.159476  -0.161738
     8  C   -3.213952  15.818649  -2.032408  -0.307894  -0.009408  -0.015226
     9  C   -8.811740  -2.032408  14.583762   1.595502   0.260745   0.309744
    10  S   -2.221323  -0.307894   1.595502  16.909416   0.407237   0.295352
    11  O   -0.159476  -0.009408   0.260745   0.407237   8.940708  -0.097078
    12  O   -0.161738  -0.015226   0.309744   0.295352  -0.097078   8.920008
    13  N   -0.161111  -0.013157   0.020225   0.257501  -0.140821  -0.178824
    14  H    0.002873  -0.000644   0.045576   0.119263   0.020672  -0.010209
    15  N    0.654576   0.273451  -0.166824   0.007593   0.000336   0.000214
    16  C    4.678152  -2.311401  -1.041103  -0.056083  -0.004242  -0.001209
    17  N   -1.306136   0.460013   0.100902  -0.022307  -0.001311  -0.000377
    18  H    0.042748   0.026039  -0.008464   0.000108   0.000000   0.000000
    19  F   -0.002599  -0.000795   0.021985  -0.003251   0.000001  -0.000189
    20  F    0.040111   0.004959  -0.010025  -0.007076   0.000028  -0.021869
    21  F    0.028181   0.001162  -0.003126   0.062025   0.001637  -0.022900
    22  H    0.169401  -0.122783   0.005280   0.000065   0.000000   0.000000
    23  C    0.079757   0.662783  -0.006842  -0.005110  -0.000168  -0.000164
    24  C   -0.701511   0.140471   0.013867  -0.000498  -0.000017   0.000019
    25  C   -0.123908  -0.047266   0.018774  -0.001171  -0.000004  -0.000012
    26  H    0.001596   0.001654  -0.000051   0.000001  -0.000000   0.000000
    27  C   -0.069704   0.023949   0.009271   0.000169  -0.000000   0.000001
    28  H    0.000012   0.000036  -0.000001   0.000000  -0.000000  -0.000000
    29  C    0.020947   0.006478  -0.001315  -0.000014   0.000000  -0.000001
    30  H    0.000001  -0.000012   0.000000   0.000000   0.000000   0.000000
    31  C   -0.062543   0.020447   0.003619  -0.000118  -0.000001   0.000001
    32  H   -0.000091   0.000037   0.000004  -0.000000  -0.000000  -0.000000
    33  C    0.459326   0.026536  -0.012259   0.001480   0.000009   0.000001
    34  H   -0.000948   0.000990   0.000132   0.000000  -0.000000   0.000000
    35  H    0.049503   0.003964   0.002781  -0.000176  -0.000001  -0.000000
    36  H   -0.015576   0.008932   0.002231  -0.000003  -0.000000  -0.000000
    37  H    0.005249   0.015271  -0.001911  -0.000004  -0.000000   0.000000
    38  O    0.000624   0.211681  -0.088487   0.007879   0.000244   0.000190
    39  H    0.084146  -0.018008   0.342245  -0.009940  -0.001260   0.000749
              13         14         15         16         17         18
     1  C    0.199255  -0.154310   0.191435  -0.740291  -0.378287   0.004805
     2  C   -0.206877   0.001895   0.567458  -1.072039   0.318967   0.065799
     3  C   -0.114687  -0.023995   0.033395  -0.044619   0.012483   0.004428
     4  C    0.099463   0.022605  -0.398720  -0.835110   0.011922  -0.018729
     5  H    0.000051   0.000000  -0.012209  -0.001858   0.000730   0.006063
     6  C    0.038835   0.006072  -1.267221  -1.110969   0.879472  -0.112004
     7  C   -0.161111   0.002873   0.654576   4.678152  -1.306136   0.042748
     8  C   -0.013157  -0.000644   0.273451  -2.311401   0.460013   0.026039
     9  C    0.020225   0.045576  -0.166824  -1.041103   0.100902  -0.008464
    10  S    0.257501   0.119263   0.007593  -0.056083  -0.022307   0.000108
    11  O   -0.140821   0.020672   0.000336  -0.004242  -0.001311   0.000000
    12  O   -0.178824  -0.010209   0.000214  -0.001209  -0.000377   0.000000
    13  N    7.827789   0.185472  -0.000555  -0.001805  -0.000862  -0.000000
    14  H    0.185472   0.428668  -0.000003   0.000005  -0.000001   0.000000
    15  N   -0.000555  -0.000003   7.622260  -0.375183  -0.052321   0.287965
    16  C   -0.001805   0.000005  -0.375183  11.692295  -0.425430  -0.099957
    17  N   -0.000862  -0.000001  -0.052321  -0.425430   7.895227   0.008869
    18  H   -0.000000   0.000000   0.287965  -0.099957   0.008869   0.356897
    19  F   -0.001623   0.000065  -0.000914  -0.000265   0.000110  -0.000066
    20  F    0.001918  -0.000032   0.000245  -0.001546   0.000035   0.000002
    21  F   -0.000491   0.001300   0.000814  -0.000077  -0.000067   0.000002
    22  H    0.000000  -0.000000   0.008404  -0.017421   0.245734  -0.000079
    23  C   -0.000170  -0.000005   0.141893  -2.517462  -0.067691  -0.015267
    24  C   -0.000070   0.000001  -0.081224   1.140562   0.003147  -0.010234
    25  C   -0.000011  -0.000000  -0.078695  -0.166176   0.025664  -0.034904
    26  H   -0.000000  -0.000000  -0.001980   0.033249  -0.000541   0.000017
    27  C   -0.000003  -0.000000   0.021361  -0.096316   0.009084   0.001481
    28  H    0.000000  -0.000000   0.000004   0.001753  -0.000005  -0.000001
    29  C    0.000000  -0.000000   0.006577  -0.085685   0.000413   0.004925
    30  H    0.000000  -0.000000   0.000005  -0.000689  -0.000001  -0.000000
    31  C   -0.000003  -0.000000   0.011453  -0.024140   0.019916  -0.008120
    32  H   -0.000000   0.000000  -0.000032   0.001246  -0.000010  -0.000001
    33  C    0.000050  -0.000000   0.111329  -0.403988   0.025991   0.085116
    34  H   -0.000000   0.000000   0.005200   0.001137  -0.000145  -0.000613
    35  H    0.000010   0.000000  -0.091739   0.450761  -0.059300   0.000093
    36  H   -0.000000   0.000000   0.002573  -0.015125   0.000747  -0.000080
    37  H   -0.000000  -0.000000   0.009963  -0.103926   0.013233   0.000186
    38  O    0.000020   0.000002  -0.013176   0.121547  -0.149199   0.000070
    39  H   -0.000034  -0.000018  -0.000734   0.002859   0.000971   0.000003
              19         20         21         22         23         24
     1  C   -0.028109  -0.131489   0.079595   0.005095  -0.073930  -0.090917
     2  C   -0.217475   0.351637  -0.136067  -0.002610   0.285066   0.232035
     3  C   -0.011750   0.146774   0.156830   0.000055   0.018030  -0.005254
     4  C    0.217415  -0.165171  -0.027550   0.002655  -0.528547   0.323696
     5  H    0.002962  -0.000322   0.000189  -0.000000   0.001640  -0.000038
     6  C    0.115077  -0.074554  -0.038757  -0.022146  -0.827788   0.262810
     7  C   -0.002599   0.040111   0.028181   0.169401   0.079757  -0.701511
     8  C   -0.000795   0.004959   0.001162  -0.122783   0.662783   0.140471
     9  C    0.021985  -0.010025  -0.003126   0.005280  -0.006842   0.013867
    10  S   -0.003251  -0.007076   0.062025   0.000065  -0.005110  -0.000498
    11  O    0.000001   0.000028   0.001637   0.000000  -0.000168  -0.000017
    12  O   -0.000189  -0.021869  -0.022900   0.000000  -0.000164   0.000019
    13  N   -0.001623   0.001918  -0.000491   0.000000  -0.000170  -0.000070
    14  H    0.000065  -0.000032   0.001300  -0.000000  -0.000005   0.000001
    15  N   -0.000914   0.000245   0.000814   0.008404   0.141893  -0.081224
    16  C   -0.000265  -0.001546  -0.000077  -0.017421  -2.517462   1.140562
    17  N    0.000110   0.000035  -0.000067   0.245734  -0.067691   0.003147
    18  H   -0.000066   0.000002   0.000002  -0.000079  -0.015267  -0.010234
    19  F    9.350304  -0.052498  -0.041592   0.000000  -0.000084  -0.000058
    20  F   -0.052498   9.207465  -0.048410  -0.000000   0.000025   0.000022
    21  F   -0.041592  -0.048410   9.295470  -0.000000   0.000070   0.000002
    22  H    0.000000  -0.000000  -0.000000   0.308640  -0.045828   0.002811
    23  C   -0.000084   0.000025   0.000070  -0.045828  11.544455  -3.748453
    24  C   -0.000058   0.000022   0.000002   0.002811  -3.748453  13.122527
    25  C    0.000075   0.000001  -0.000025   0.006449   1.025752  -1.849301
    26  H   -0.000000  -0.000000   0.000000  -0.000002  -0.028724   0.143916
    27  C    0.000003  -0.000000   0.000002   0.000178  -0.355394  -0.033805
    28  H    0.000000  -0.000000  -0.000000  -0.000000  -0.003931   0.039205
    29  C   -0.000018   0.000000  -0.000001  -0.000001   0.145278  -0.732894
    30  H   -0.000000   0.000000   0.000000  -0.000000   0.004012   0.000982
    31  C   -0.000067  -0.000006  -0.000000   0.000320  -0.420958   0.486564
    32  H    0.000000  -0.000000  -0.000000   0.000000  -0.003888   0.034012
    33  C    0.000145  -0.000011   0.000008  -0.002424   0.669151  -2.698572
    34  H    0.000000  -0.000000   0.000000   0.000000  -0.028744   0.093434
    35  H    0.000003   0.000000  -0.000000   0.002282  -0.283476   0.112333
    36  H   -0.000000   0.000000  -0.000000   0.003041   0.334783  -0.049358
    37  H    0.000000   0.000000  -0.000000  -0.000200   0.471845  -0.141496
    38  O    0.000000  -0.000006  -0.000003   0.012870  -0.021870  -0.001446
    39  H    0.000013  -0.000003  -0.000000  -0.000004  -0.000142   0.000039
              25         26         27         28         29         30
     1  C   -0.027906   0.000124   0.003843   0.000000   0.001942   0.000001
     2  C   -0.019258  -0.000252   0.003818   0.000010   0.006035  -0.000024
     3  C   -0.003193  -0.000011  -0.002164   0.000000   0.001386  -0.000000
     4  C   -0.020145  -0.000158   0.032454   0.000030  -0.029261  -0.000083
     5  H    0.000136   0.000000  -0.000126   0.000000   0.000109   0.000000
     6  C   -0.064804  -0.001851   0.024594   0.000065   0.004245   0.000063
     7  C   -0.123908   0.001596  -0.069704   0.000012   0.020947   0.000001
     8  C   -0.047266   0.001654   0.023949   0.000036   0.006478  -0.000012
     9  C    0.018774  -0.000051   0.009271  -0.000001  -0.001315   0.000000
    10  S   -0.001171   0.000001   0.000169   0.000000  -0.000014   0.000000
    11  O   -0.000004  -0.000000  -0.000000  -0.000000   0.000000   0.000000
    12  O   -0.000012   0.000000   0.000001  -0.000000  -0.000001   0.000000
    13  N   -0.000011  -0.000000  -0.000003   0.000000   0.000000   0.000000
    14  H   -0.000000  -0.000000  -0.000000  -0.000000  -0.000000  -0.000000
    15  N   -0.078695  -0.001980   0.021361   0.000004   0.006577   0.000005
    16  C   -0.166176   0.033249  -0.096316   0.001753  -0.085685  -0.000689
    17  N    0.025664  -0.000541   0.009084  -0.000005   0.000413  -0.000001
    18  H   -0.034904   0.000017   0.001481  -0.000001   0.004925  -0.000000
    19  F    0.000075  -0.000000   0.000003   0.000000  -0.000018  -0.000000
    20  F    0.000001  -0.000000  -0.000000  -0.000000   0.000000   0.000000
    21  F   -0.000025   0.000000   0.000002  -0.000000  -0.000001   0.000000
    22  H    0.006449  -0.000002   0.000178  -0.000000  -0.000001  -0.000000
    23  C    1.025752  -0.028724  -0.355394  -0.003931   0.145278   0.004012
    24  C   -1.849301   0.143916  -0.033805   0.039205  -0.732894   0.000982
    25  C   11.951362   0.105363   0.018935   0.013094   0.116216   0.004298
    26  H    0.105363   0.501974   0.003780  -0.003807  -0.007895  -0.000134
    27  C    0.018935   0.003780   6.301473   0.267482   0.477793  -0.000624
    28  H    0.013094  -0.003807   0.267482   0.495418  -0.008489  -0.003828
    29  C    0.116216  -0.007895   0.477793  -0.008489   5.258158   0.287699
    30  H    0.004298  -0.000134  -0.000624  -0.003828   0.287699   0.498224
    31  C    0.176114  -0.007613   0.043752   0.000023   0.377430   0.004561
    32  H   -0.009436   0.000015   0.006627  -0.000136  -0.002531  -0.003844
    33  C   -5.014617   0.053746  -0.417264  -0.003437   0.284037   0.006058
    34  H    0.033856  -0.000133  -0.006873   0.000015   0.001095  -0.000133
    35  H   -0.124102  -0.000539  -0.029134   0.000004   0.000151  -0.000000
    36  H    0.061201   0.001158   0.016810  -0.000005  -0.000459  -0.000000
    37  H   -0.039739   0.000010  -0.011022   0.000002   0.003154  -0.000000
    38  O    0.001842  -0.000005   0.000154  -0.000000   0.000008   0.000000
    39  H   -0.000022   0.000000  -0.000000   0.000000  -0.000000  -0.000000
              31         32         33         34         35         36
     1  C   -0.008904  -0.000005   0.086677   0.000022   0.002757   0.000121
     2  C    0.017137   0.000079  -0.206798   0.001504  -0.023833  -0.000949
     3  C    0.000457  -0.000003   0.003138  -0.000001   0.000216  -0.000037
     4  C    0.035491   0.000780  -0.216254   0.007805   0.030016   0.002403
     5  H    0.000881  -0.000000  -0.000842  -0.000001   0.000002   0.000000
     6  C    0.019540  -0.001011   0.122755  -0.010520   0.046396   0.009701
     7  C   -0.062543  -0.000091   0.459326  -0.000948   0.049503  -0.015576
     8  C    0.020447   0.000037   0.026536   0.000990   0.003964   0.008932
     9  C    0.003619   0.000004  -0.012259   0.000132   0.002781   0.002231
    10  S   -0.000118  -0.000000   0.001480   0.000000  -0.000176  -0.000003
    11  O   -0.000001  -0.000000   0.000009  -0.000000  -0.000001  -0.000000
    12  O    0.000001  -0.000000   0.000001   0.000000  -0.000000  -0.000000
    13  N   -0.000003  -0.000000   0.000050  -0.000000   0.000010  -0.000000
    14  H   -0.000000   0.000000  -0.000000   0.000000   0.000000   0.000000
    15  N    0.011453  -0.000032   0.111329   0.005200  -0.091739   0.002573
    16  C   -0.024140   0.001246  -0.403988   0.001137   0.450761  -0.015125
    17  N    0.019916  -0.000010   0.025991  -0.000145  -0.059300   0.000747
    18  H   -0.008120  -0.000001   0.085116  -0.000613   0.000093  -0.000080
    19  F   -0.000067   0.000000   0.000145   0.000000   0.000003  -0.000000
    20  F   -0.000006  -0.000000  -0.000011  -0.000000   0.000000   0.000000
    21  F   -0.000000  -0.000000   0.000008   0.000000  -0.000000  -0.000000
    22  H    0.000320   0.000000  -0.002424   0.000000   0.002282   0.003041
    23  C   -0.420958  -0.003888   0.669151  -0.028744  -0.283476   0.334783
    24  C    0.486564   0.034012  -2.698572   0.093434   0.112333  -0.049358
    25  C    0.176114  -0.009436  -5.014617   0.033856  -0.124102   0.061201
    26  H   -0.007613   0.000015   0.053746  -0.000133  -0.000539   0.001158
    27  C    0.043752   0.006627  -0.417264  -0.006873  -0.029134   0.016810
    28  H    0.000023  -0.000136  -0.003437   0.000015   0.000004  -0.000005
    29  C    0.377430  -0.002531   0.284037   0.001095   0.000151  -0.000459
    30  H    0.004561  -0.003844   0.006058  -0.000133  -0.000000  -0.000000
    31  C    6.166981   0.295480  -0.909187   0.015297  -0.001456   0.005979
    32  H    0.295480   0.494214  -0.015300  -0.003630   0.000000   0.000002
    33  C   -0.909187  -0.015300  13.790620   0.180707   0.115920  -0.067233
    34  H    0.015297  -0.003630   0.180707   0.489904  -0.000025   0.000050
    35  H   -0.001456   0.000000   0.115920  -0.000025   0.574258  -0.003675
    36  H    0.005979   0.000002  -0.067233   0.000050  -0.003675   0.503597
    37  H    0.000616  -0.000005   0.087405   0.002648   0.003924  -0.027773
    38  O   -0.000028  -0.000000  -0.001824  -0.000000  -0.000182   0.000272
    39  H    0.000001  -0.000000  -0.000000   0.000000  -0.000002  -0.000000
              37         38         39
     1  C   -0.000329   0.061397  -0.134152
     2  C    0.001659  -0.020934   0.037194
     3  C    0.000046  -0.002594   0.002505
     4  C   -0.001319   0.028694  -0.014438
     5  H    0.000000   0.000012   0.000013
     6  C    0.000207   0.057957   0.004340
     7  C    0.005249   0.000624   0.084146
     8  C    0.015271   0.211681  -0.018008
     9  C   -0.001911  -0.088487   0.342245
    10  S   -0.000004   0.007879  -0.009940
    11  O   -0.000000   0.000244  -0.001260
    12  O    0.000000   0.000190   0.000749
    13  N   -0.000000   0.000020  -0.000034
    14  H   -0.000000   0.000002  -0.000018
    15  N    0.009963  -0.013176  -0.000734
    16  C   -0.103926   0.121547   0.002859
    17  N    0.013233  -0.149199   0.000971
    18  H    0.000186   0.000070   0.000003
    19  F    0.000000   0.000000   0.000013
    20  F    0.000000  -0.000006  -0.000003
    21  F   -0.000000  -0.000003  -0.000000
    22  H   -0.000200   0.012870  -0.000004
    23  C    0.471845  -0.021870  -0.000142
    24  C   -0.141496  -0.001446   0.000039
    25  C   -0.039739   0.001842  -0.000022
    26  H    0.000010  -0.000005   0.000000
    27  C   -0.011022   0.000154  -0.000000
    28  H    0.000002  -0.000000   0.000000
    29  C    0.003154   0.000008  -0.000000
    30  H   -0.000000   0.000000  -0.000000
    31  C    0.000616  -0.000028   0.000001
    32  H   -0.000005  -0.000000  -0.000000
    33  C    0.087405  -0.001824  -0.000000
    34  H    0.002648  -0.000000   0.000000
    35  H    0.003924  -0.000182  -0.000002
    36  H   -0.027773   0.000272  -0.000000
    37  H    0.456348  -0.000127  -0.000000
    38  O   -0.000127   8.310202   0.004754
    39  H   -0.000000   0.004754   0.390664
 Mulliken charges:
               1
     1  C   -1.790134
     2  C    0.405480
     3  C    1.638812
     4  C   -1.475882
     5  H    0.211795
     6  C   -0.242472
     7  C    1.011051
     8  C    1.308588
     9  C   -0.715449
    10  S    1.519643
    11  O   -0.642227
    12  O   -0.590626
    13  N   -0.809487
    14  H    0.354751
    15  N   -0.416975
    16  C   -0.569455
    17  N   -0.569640
    18  H    0.412902
    19  F   -0.346805
    20  F   -0.240202
    21  F   -0.308221
    22  H    0.440218
    23  C   -0.399902
    24  C   -0.007309
    25  C    0.065564
    26  H    0.207096
    27  C   -0.244586
    28  H    0.206486
    29  C   -0.135512
    30  H    0.203466
    31  C   -0.258912
    32  H    0.207426
    33  C   -0.140194
    34  H    0.217971
    35  H    0.222265
    36  H    0.226672
    37  H    0.256083
    38  O   -0.520540
    39  H    0.308261
 Sum of Mulliken charges =  -1.00000
 Mulliken charges with hydrogens summed into heavy atoms:
               1
     1  C   -1.790134
     2  C    0.405480
     3  C    1.638812
     4  C   -1.264087
     6  C   -0.242472
     7  C    1.011051
     8  C    1.308588
     9  C   -0.407188
    10  S    1.519643
    11  O   -0.642227
    12  O   -0.590626
    13  N   -0.454736
    15  N   -0.004073
    16  C   -0.347189
    17  N   -0.129422
    19  F   -0.346805
    20  F   -0.240202
    21  F   -0.308221
    23  C    0.082853
    24  C   -0.007309
    25  C    0.272660
    27  C   -0.038100
    29  C    0.067954
    31  C   -0.051486
    33  C    0.077777
    38  O   -0.520540
 Electronic spatial extent (au):  <R**2>=          12216.5674
 Charge=             -1.0000 electrons
 Dipole moment (field-independent basis, Debye):
    X=             25.1463    Y=             -5.1864    Z=             -0.8040  Tot=             25.6881
 Quadrupole moment (field-independent basis, Debye-Ang):
   XX=           -254.5413   YY=           -184.3468   ZZ=           -168.1071
   XY=             14.2497   XZ=             10.6336   YZ=             -1.2561
 Traceless Quadrupole moment (field-independent basis, Debye-Ang):
   XX=            -52.2096   YY=             17.9849   ZZ=             34.2246
   XY=             14.2497   XZ=             10.6336   YZ=             -1.2561
 Octapole moment (field-independent basis, Debye-Ang**2):
  XXX=            422.6609  YYY=           -115.8441  ZZZ=            -22.7884  XYY=             75.0027
  XXY=            -81.0624  XXZ=            -24.6321  XZZ=             44.2458  YZZ=            -23.1651
  YYZ=              5.4884  XYZ=             25.3974
 Hexadecapole moment (field-independent basis, Debye-Ang**3):
 XXXX=         -15209.6684 YYYY=          -3485.2972 ZZZZ=           -808.7191 XXXY=            285.6810
 XXXZ=            331.1291 YYYX=            215.7454 YYYZ=             39.5413 ZZZX=            141.7284
 ZZZY=             -7.9734 XXYY=          -2550.4530 XXZZ=          -2299.9639 YYZZ=           -641.2876
 XXYZ=           -105.0218 YYXZ=             -6.9873 ZZXY=             49.9732
 N-N= 2.538956088281D+03 E-N=-9.101168729584D+03  KE= 1.692724680889D+03
 Calling FoFJK, ICntrl=      2127 FMM=F ISym2X=0 I1Cent= 0 IOpClX= 0 NMat=1 NMatS=1 NMatT=0.
 ***** Axes restored to original set *****
 -------------------------------------------------------------------
 Center     Atomic                   Forces (Hartrees/Bohr)
 Number     Number              X              Y              Z
 -------------------------------------------------------------------
      1        6          -0.004728273   -0.003147500   -0.003872160
      2        6           0.003413118    0.001391791    0.002854910
      3        6           0.003363710    0.011247582    0.015105997
      4        6           0.005657437   -0.001622654   -0.007935681
      5        1          -0.001042482   -0.000117238    0.000593885
      6        6          -0.003879039    0.004336291    0.018099073
      7        6          -0.002758841   -0.001512698   -0.003245801
[...]
 ,-0.00008362,-0.00111820,-0.00035245,0.00147011,0.00746983,0.00015807,
 0.00007879,0.00005971,0.00000281,0.00001771,0.00075769,-0.00008151,-0.
 00005366,-0.00019422,0.00012192,-0.00006394,-0.00021248,-0.00002925,0.
 00022161,-0.00030281,-0.00000032,-0.00002816,0.00001061,0.01571446,-0.
 00979105,0.00249046,0.03945289,-0.21057549,0.09116550,-0.01119910,-0.0
 2926723,0.00152118,0.00037955,-0.00031176,-0.00035744,0.00015639,0.000
 10105,-0.00001362,0.00011107,-0.00000796,-0.00004214,0.00008886,0.0000
 7592,-0.00012960,0.00019041,-0.00193437,0.00008160,-0.00071317,0.00356
 584,-0.00213808,0.00005574,0.00080428,0.00009246,0.00038232,-0.0000279
 2,0.00000403,-0.00010242,0.00013021,-0.00006074,-0.00010069,0.00011254
 ,-0.00009464,0.00001415,0.00001328,0.00000077,0.00007371,0.00002007,0.
 00003612,-0.00003417,-0.00000461,-0.00001272,-0.00013532,0.00007243,-0
 .00008119,-0.00002180,0.00000184,-0.00000575,0.00011168,-0.00013296,0.
 00015142,-0.00003294,0.00005970,-0.00004450,-0.04233948,0.24492257,-0.
 00090164,-0.00030992,0.00015824,0.00037022,0.00051426,0.00085743,0.000
 19879,0.00009300,-0.00002633,0.00075024,0.00029347,-0.00086624,0.00000
 426,-0.00009894,0.00001349,-0.00034638,-0.00051903,0.00406770,-0.00095
 265,0.00157657,0.00083082,0.00071510,-0.00065937,0.00245618,0.00031979
 ,-0.00004190,-0.00097201,-0.00008904,-0.00010549,-0.00023079,0.0000836
 4,0.00005311,0.00004022,-0.00001442,0.00003222,0.00007547,0.00003417,-
 0.00003461,0.00012202,0.00000451,0.00000737,-0.00001073,0.00489813,-0.
 01097869,0.00536008,-0.02111676,0.09197208,-0.10755465,0.00033022,-0.0
 1223178,0.00677270,-0.00041181,0.00018273,0.00021419,-0.00005752,-0.00
 004488,-0.00001544,-0.00006465,0.00000763,0.00001074,-0.00003797,-0.00
 001845,0.00003780,0.00006245,0.00011426,-0.00009901,-0.00744110,0.0267
 7390,-0.01887152,0.00203931,0.00162591,0.00123307,-0.00045624,0.000289
 34,0.00028364,0.00036424,-0.00045610,-0.00044174,-0.00049974,-0.000496
 89,0.00002395,-0.00003077,-0.00003863,-0.00002947,0.00035992,-0.000501
 61,0.00010109,0.00005710,-0.00003132,-0.00002692,0.00033508,0.00059233
 ,0.00020395,-0.00000680,-0.00000510,-0.00001823,-0.00124187,-0.0001478
 2,-0.00012289,0.00019086,-0.00010331,-0.00006706,0.02276432,-0.0965996
 0,0.11158919,0.00008584,0.00002857,0.00002391,-0.00004012,-0.00001076,
 -0.00007929,0.00001137,-0.00002235,-0.00005194,-0.00006837,0.00009000,
 0.00017314,0.00002148,-0.00000518,-0.00000816,-0.00011066,-0.00052091,
 -0.00072572,0.00019333,0.00003246,-0.00012371,0.00017741,0.00009394,0.
 00052435,0.00000455,0.00003661,0.00007082,-0.00002614,-0.00003704,-0.0
 0011719,0.00003987,0.00002806,0.00003147,-0.00000833,0.00001788,0.0000
 3162,0.00000897,-0.00001514,0.00004938,0.00000122,0.00000183,-0.000005
 30,0.00088389,-0.00028225,0.00119348,-0.00248555,0.00076150,-0.0008642
 1,0.00097396,-0.00046155,-0.00085585,0.00003829,0.00007647,-0.00035208
 ,0.00000397,0.00001303,0.00002394,-0.00000971,0.00001313,0.00000904,-0
 .00000684,-0.00000889,0.00003188,0.00019594,0.00039594,0.00036103,-0.2
 6759535,0.07630151,0.06195574,-0.02098980,0.00641129,0.00360456,0.0014
 0005,0.00242390,-0.00055574,0.00012782,-0.00080685,0.00080655,-0.00028
 442,-0.00035915,-0.00088102,-0.00001922,-0.00003708,0.00004917,0.00029
 583,-0.00039737,0.00021022,-0.00001195,-0.00007146,0.00015761,-0.00012
 774,0.00081797,-0.00090865,-0.00022517,-0.00020278,-0.00011101,-0.0020
 2198,-0.00362838,-0.00017914,0.00007649,-0.00006767,0.00037169,0.00031
 149,-0.00015606,0.00046024,0.29261877,-0.00005563,-0.00001890,-0.00003
 543,0.00005904,-0.00002820,0.00005108,-0.00007627,-0.00001230,0.000038
 25,0.00003189,-0.00009711,-0.00026176,-0.00002184,0.00001624,0.0000033
 7,0.00026466,0.00085313,0.00046394,-0.00003516,0.00000914,0.00010824,0
 .00001838,-0.00021053,-0.00019074,-0.00002555,-0.00003117,-0.00004270,
 0.00001611,0.00005180,0.00015259,-0.00004194,-0.00003389,-0.00003980,0
 .00002383,-0.00002758,-0.00004300,-0.00000596,0.00001611,-0.00006483,-
 0.00000197,-0.00000253,0.00000594,0.00003418,0.00022959,-0.00254409,0.
 00296502,-0.00239906,0.00138542,0.00040881,0.00015263,0.00020968,0.000
 11593,-0.00023754,0.00002473,0.00002684,0.00000854,-0.00001076,0.00002
 794,-0.00001270,-0.00000885,0.00001906,0.00001302,-0.00003071,-0.00038
 118,-0.00037271,-0.00090915,0.07751502,-0.07674042,-0.01919640,-0.0220
 1078,0.00647179,0.00597098,-0.00110289,0.00069080,-0.00078666,0.000492
 87,-0.00035946,0.00006383,0.00030188,0.00048649,0.00027888,0.00006252,
 0.00002350,0.00001823,-0.00041558,0.00009052,-0.00005417,0.00006270,0.
 00000316,-0.00004951,-0.00036338,0.00016379,-0.00082528,-0.00013982,-0
 .00014787,-0.00013484,-0.00121071,-0.00250178,-0.00048434,-0.00031931,
 0.00012686,0.00004494,-0.00044305,0.00021654,-0.00021248,-0.08146220,0
 .08055243,-0.00013761,-0.00006753,-0.00003223,0.00019301,0.00010865,0.
 00005569,-0.00012735,-0.00001404,0.00002961,-0.00007074,-0.00030690,-0
 .00073139,-0.00002005,-0.00000702,0.00003285,0.00201119,0.00024901,0.0
 0069783,-0.00008454,0.00010722,0.00026385,0.00021517,-0.00035601,-0.00
 100088,-0.00003800,-0.00007688,-0.00015334,0.00002170,0.00006312,0.000
 21573,-0.00006046,-0.00004417,-0.00005525,0.00002977,-0.00003369,-0.00
 005571,-0.00001018,0.00003138,-0.00008541,-0.00000223,-0.00000514,0.00
 000629,-0.00155492,-0.00183439,-0.00834800,0.03254176,-0.01277405,-0.0
 0744602,0.00091918,0.00166482,0.00235257,-0.00020145,0.00003168,0.0001
 0715,0.00004160,0.00001212,-0.00001905,0.00004568,-0.00002715,-0.00001
 085,0.00004085,0.00002797,-0.00005986,-0.00082434,-0.00077704,-0.00024
 309,0.06038985,-0.01768270,-0.06293515,-0.01250907,0.00312651,0.001985
 33,0.00017826,0.00042840,0.00019141,0.00020525,0.00015412,0.00025312,0
 .00013821,0.00007509,-0.00023748,0.00001478,-0.00001260,0.00000321,-0.
 00017873,0.00022102,-0.00002826,-0.00003815,-0.00003220,0.00007048,-0.
 00040876,-0.00026195,-0.00076625,-0.00012162,-0.00010955,-0.00010207,-
 0.00118054,-0.00161984,-0.00012791,0.00005956,-0.00015338,0.00036547,-
 0.00038755,0.00082735,0.00133095,-0.06512515,0.02565698,0.07054360,-0.
 00012000,-0.00004396,-0.00001742,0.00004272,0.00006139,0.00010495,-0.0
 0002711,-0.00000008,0.00003272,0.00012699,-0.00002454,-0.00021138,-0.0
 0000934,-0.00001647,0.00000891,-0.00004710,0.00020077,0.00073025,-0.00
 011272,0.00007924,0.00007910,-0.00000743,-0.00012718,-0.00030456,0.000
 02258,-0.00003074,-0.00009634,0.00000508,0.00003475,0.00009113,-0.0000
 2496,-0.00002320,-0.00002434,0.00001840,-0.00001987,-0.00002628,-0.000
 00144,0.00000532,-0.00003539,-0.00000084,-0.00000140,0.00000309,0.0004
 5744,-0.00088565,-0.00026708,-0.00044086,-0.00047998,0.00078630,0.0000
 9742,-0.00009294,0.00004602,-0.00007167,-0.00028015,0.00014230,0.00001
 232,0.00000217,-0.00001036,0.00001166,-0.00000586,-0.00000809,0.000008
 44,0.00000704,-0.00001796,-0.00037587,0.00056984,-0.00038885,-0.059280
 65,0.04210218,-0.01964486,0.00344285,-0.02067601,0.01041268,-0.0032308
 6,-0.00184730,-0.00156420,0.00004070,-0.00026750,0.00022950,0.00086011
 ,-0.00081885,-0.00017983,-0.00020596,-0.00021579,-0.00008998,-0.000154
 87,0.00004206,-0.00000563,0.00000468,0.00005072,-0.00003986,0.00009954
 ,0.00000914,0.00021970,0.00001784,0.00004230,0.00001737,0.00124190,-0.
 00141111,0.00021457,-0.00055015,0.00037491,-0.00032387,0.00055015,-0.0
 0045947,0.00004453,-0.00352295,0.02578344,-0.01394912,0.06112200,0.000
 10252,0.00003700,-0.00002220,-0.00003717,-0.00006335,-0.00009232,-0.00
 002983,-0.00003284,0.00000508,-0.00008908,0.00003058,0.00008518,-0.000
 00022,0.00000667,-0.00000024,-0.00002732,0.00011893,-0.00020926,0.0000
 7353,-0.00016712,-0.00014847,0.00004481,0.00022089,-0.00023046,-0.0000
 2978,-0.00002148,0.00011539,0.00000965,0.00000093,0.00003017,-0.000006
 44,-0.00000107,-0.00000392,-0.00000064,0.00000163,-0.00000761,-0.00000
 560,0.00001263,-0.00001775,-0.00000006,-0.00000217,0.00000113,-0.00079
 457,0.00053332,-0.00052422,-0.00031878,0.00164384,-0.00138207,0.000447
 63,0.00116843,-0.00078546,0.00010290,-0.00011827,0.00010376,0.00001330
 ,0.00001401,0.00000520,0.00000731,0.00000511,-0.00000074,0.00000609,0.
 00000546,-0.00000450,-0.00005638,0.00002055,0.00037362,0.03949786,-0.2
 6175690,0.10432878,0.00383241,-0.01889432,0.00791637,-0.00376759,-0.00
 154179,-0.00099252,-0.00006185,0.00026555,0.00013121,0.00093243,-0.000
 61664,0.00002670,-0.00020975,-0.00022293,-0.00012098,-0.00022038,0.000
 34577,-0.00005700,-0.00009240,0.00005607,0.00005448,-0.00015193,-0.000
 22810,-0.00048243,-0.00002453,0.00000597,0.00002279,0.00250334,0.00111
 196,0.00040093,-0.00094276,0.00056914,0.00009840,-0.00014786,0.0006310
 6,-0.00060802,0.00097828,-0.00694099,0.00324180,-0.04161431,0.28377754
 ,0.00008172,0.00003450,0.00003295,-0.00006530,-0.00000730,-0.00009847,
 0.00002124,0.00003605,-0.00002279,-0.00013942,0.00005139,0.00025620,-0
 .00000133,-0.00000208,-0.00000102,-0.00004997,-0.00070099,-0.00033127,
 0.00003871,0.00011476,0.00008596,0.00009773,-0.00069426,-0.00077530,-0
 .00005233,-0.00002395,0.00008699,0.00000728,0.00002772,-0.00008737,0.0
 0000016,-0.00000626,0.00002437,-0.00001050,-0.00000261,0.00002426,-0.0
 0000026,-0.00004042,0.00002918,-0.00000096,0.00000481,0.00000191,-0.00
 074306,-0.00020385,0.00348472,-0.00724727,0.03316543,-0.02111507,0.001
 08274,0.00005872,0.00377963,-0.00000527,0.00025434,-0.00023526,-0.0000
 1479,-0.00001446,0.00000199,-0.00000308,-0.00000925,0.00000473,-0.0000
 0390,-0.00001296,0.00001616,-0.00045828,0.00028853,-0.00034071,-0.0179
 6844,0.10304425,-0.09423742,0.00170656,-0.01154154,0.00436071,-0.00201
 181,-0.00114301,0.00001516,-0.00008901,0.00009492,-0.00000695,-0.00015
 991,-0.00066115,-0.00017817,-0.00007184,-0.00013403,-0.00015364,0.0001
 8578,-0.00019027,0.00013981,-0.00001515,0.00000495,-0.00000745,0.00015
 882,0.00013433,0.00002123,0.00001818,0.00002223,-0.00002542,0.00014492
 ,-0.00069051,0.00004549,0.00006408,0.00027638,0.00014151,0.00048349,-0
 .00190098,-0.00582980,0.00082588,-0.00860427,0.00369538,0.02396282,-0.
 11134827,0.10699701,-0.00067678,0.00043979,0.00044771,-0.00137766,-0.0
 0045922,0.00058298,0.00338317,-0.00000627,-0.00226560,-0.00204877,-0.0
 0026362,-0.00031279,-0.00076781,0.00004404,0.00033014,0.00029652,0.002
 74519,0.01098939,-0.05393836,-0.02867955,-0.00346206,-0.52116990,-0.24
 003368,-0.15364990,0.00032911,-0.00248826,-0.00749525,-0.00183837,-0.0
 0182149,-0.00432271,0.00190019,0.00130539,0.00114015,-0.00014283,0.000
 81627,0.00124706,0.00052293,-0.00030826,0.00157665,0.00007228,0.000051
 78,-0.00022241,0.00001206,-0.00088385,-0.00312852,0.00619436,0.0009724
 6,0.00191103,-0.00422051,-0.02304153,-0.04945060,0.00021936,-0.0004914
 2,0.00046047,-0.00094424,-0.00022188,0.00030424,-0.00127609,0.00063043
 ,0.00056095,-0.00069514,-0.00028980,0.00124737,-0.00079470,-0.00290198
 ,-0.00335922,-0.00086235,-0.00087873,-0.00006704,0.00050985,0.00042173
 ,-0.00036933,-0.00030068,-0.00005659,-0.00020052,-0.00000938,0.0000838
 0,0.00006508,0.00004330,0.00004350,-0.00000368,-0.00003330,-0.00008832
 ,0.00000984,-0.00007805,-0.00008560,-0.00005260,-0.00004492,-0.0000415
 3,0.,0.00007407,0.00001688,0.00003097,-0.00007392,-0.00001280,0.000011
 60,-0.00005990,-0.00028184,-0.00019796,0.00005505,-0.00002616,0.000139
 53,-0.00181960,-0.00148559,-0.00071930,0.00009388,-0.00012769,-0.00003
 478,-0.00000339,0.00007848,0.00022834,0.58044209,-0.00030621,-0.000363
 79,0.00117421,0.00002307,0.00004003,0.00021470,0.00074260,-0.00008742,
 -0.00066651,-0.00006641,-0.00125331,0.00059160,-0.00006703,-0.00020370
 ,0.00014641,-0.00010641,0.00311528,0.00043778,-0.02295633,0.01060817,-
 0.00125407,-0.24214844,-0.21241823,-0.09721396,0.00069125,-0.00139195,
 -0.00393528,-0.00122771,-0.00129849,-0.00118063,0.00106711,0.00084354,
 0.00012492,0.00006994,0.00043252,0.00035276,0.00024367,0.00027197,0.00
 036452,0.00002708,0.00001701,-0.00008487,-0.00168657,-0.00064941,-0.00
 011296,0.00400503,0.00793575,-0.00352304,-0.03288931,-0.00747884,-0.04
 513134,-0.00022189,-0.00030230,0.00055773,-0.00013139,0.00008870,0.000
 18400,-0.00038624,0.00027756,0.00017105,-0.00015682,-0.00005029,0.0003
 4936,0.00047485,-0.00476731,0.00453477,-0.00174873,-0.00156716,-0.0003
 9977,0.00071173,0.00035352,-0.00049811,-0.00026581,-0.00017025,-0.0001
 0896,-0.00000577,0.00008908,0.00001925,0.00000222,0.00003132,0.0000308
 2,-0.00002541,-0.00007241,0.00000087,-0.00008895,-0.00009591,-0.000049
 18,-0.00003818,-0.00003374,-0.00001538,0.00000686,0.00003096,0.0000338
 7,-0.00007561,-0.00001763,-0.00002147,-0.00014827,-0.00031086,-0.00004
 456,0.00005701,0.00001217,0.00004225,-0.00065375,-0.00081625,0.0001123
 6,0.00002781,-0.00000132,0.00017143,-0.00002667,0.00002425,0.00031087,
 0.29734971,0.20914128,0.00001645,0.00081579,0.00181385,0.00090110,0.00
 016700,-0.00041898,-0.00092515,-0.00014172,0.00021511,0.00046571,0.000
 97419,0.00183344,0.00044416,0.00010541,-0.00009150,0.00339283,-0.00187
 062,-0.00855130,0.00911778,0.00473036,0.02134138,-0.16367749,-0.100980
 79,-0.16421337,0.00018241,-0.00047110,-0.00309252,-0.00154472,-0.00049
 922,0.00067538,0.00089811,0.00014403,-0.00049818,0.00061729,-0.0001364
 1,-0.00014065,0.00025637,0.00035828,-0.00030404,0.00003837,-0.00001645
 ,0.00001220,-0.00243377,-0.00021962,0.00397481,0.01196277,0.00303181,-
 0.00449005,-0.06154122,-0.04785266,-0.04049489,-0.00062001,0.00011399,
 0.00044832,0.00049023,0.00025501,0.00011962,0.00032033,-0.00011338,-0.
 00005458,0.00018083,0.00003800,-0.00005036,-0.00127762,0.00170529,0.00
 450864,-0.00241845,-0.00216804,-0.00015927,0.00078735,0.00064954,-0.00
 083434,-0.00038823,-0.00025976,-0.00013662,0.00000158,0.00012549,0.000
 01993,0.00007900,0.00008178,0.00006474,-0.00002458,-0.00009804,-0.0000
 1991,-0.00020028,-0.00008354,-0.00008222,-0.00004366,-0.00004025,-0.00
 003333,-0.00007978,-0.00005622,0.00007001,-0.00009457,-0.00002597,-0.0
 0004439,-0.00015502,-0.00040496,0.00000996,0.00008776,0.00003668,-0.00
 002882,-0.00237709,-0.00218225,-0.00061332,-0.00003337,0.00006680,0.00
 027331,0.00008837,0.00010061,0.00021557,0.20708196,0.14328799,0.186963
 63,-0.01646484,-0.00922779,-0.00910077,-0.00333055,-0.00193060,0.00285
 272,0.00003992,-0.00032107,-0.00103583,-0.00001000,0.00065460,0.001189
 99,-0.00006815,0.00010606,-0.00008825,0.00118451,-0.00102708,0.0021355
 0,0.00763372,0.00084725,0.00083352,-0.00012721,0.00138487,0.00037850,-
 0.24812647,-0.09213202,-0.10625156,-0.00400519,-0.00139230,-0.00100356
 ,0.00182943,-0.00025046,-0.00280069,0.00058961,-0.00005897,0.00037206,
 0.00006602,0.00064675,-0.00047443,0.00001583,0.00006121,0.00005288,0.0
 0043556,0.00011117,0.00031458,0.00026631,0.00002573,-0.00014542,-0.000
 25431,-0.00033029,-0.00071009,0.00001942,0.00005739,0.00014399,-0.0005
 0859,-0.00020461,-0.00002967,-0.00012862,0.00017562,0.00011644,0.00001
 740,-0.00001570,0.00013241,0.00004923,-0.00005166,0.00003748,-0.000042
 55,-0.00003074,-0.00000756,0.00000265,0.00000465,-0.00001414,-0.000002
 24,-0.00001055,0.00000541,0.00000041,0.00000139,-0.00000251,0.00000214
 ,0.00000158,0.00000130,0.00000040,0.00000069,-0.00000119,-0.00000503,0
 .00000006,-0.00000022,0.00000068,0.00000098,-0.00000105,-0.00000818,-0
 .00000199,0.00000122,-0.00000017,-0.00000078,-0.00000265,-0.00000365,-
 0.00000393,0.00001158,-0.00000001,0.00000452,-0.00000816,-0.00005918,-
 0.00002967,0.00000156,-0.00001013,0.00001081,0.00001954,0.00000537,-0.
 00000132,0.00000342,-0.00097156,-0.00007203,0.00042427,0.26196801,-0.0
 0286807,0.00440184,-0.00075060,-0.00140692,0.00542726,-0.00184498,0.00
 003032,-0.00004409,0.00004440,0.00031981,-0.00069309,0.00037291,0.0000
 8058,-0.00043521,0.00011148,-0.00088993,0.00526754,-0.00269225,-0.0055
 4460,0.00200922,-0.00465548,-0.00000133,-0.00396951,0.00075816,-0.0941
 2910,-0.08655517,-0.05235746,0.00179250,-0.00088264,0.00072275,-0.0007
 6557,-0.00200610,-0.00171285,0.00037799,-0.00040662,-0.00075997,-0.000
 10854,-0.00054874,0.00074936,0.00006454,-0.00018980,0.00005817,-0.0002
 5106,0.00027260,0.00020876,0.00002025,0.00001883,-0.00000405,-0.000015
 56,0.00006484,0.00000164,0.00002680,-0.00001623,0.00001653,0.00016074,
 -0.00004652,0.00000718,0.00013506,-0.00008798,-0.00002839,0.00002905,0
 .00000114,0.00004781,-0.00003803,0.00015770,-0.00007740,-0.00000357,-0
 .00000318,0.00000255,-0.00000465,-0.00001235,0.00000229,-0.00000217,0.
 00000508,0.00000327,0.00000368,-0.00000284,-0.00000398,0.00000005,-0.0
 0000358,0.00000206,-0.00000019,0.00000032,-0.00000171,0.00000040,0.000
 00071,0.00000131,0.00000174,0.00000103,-0.00000029,-0.00000120,-0.0000
 0148,0.00000037,0.00000256,-0.00000003,-0.00000028,0.00000151,0.000007
 44,0.00000438,0.00000015,-0.00000123,-0.00000333,0.00000173,-0.0000242
 6,0.00000339,0.00000285,-0.00000004,-0.00000244,0.00000376,0.00000071,
 0.00000828,-0.00002379,0.00003745,0.00083295,0.10299822,0.07825698,0.0
 1187226,0.00513524,0.01226808,0.00385734,-0.00178670,-0.00196584,0.000
 02885,0.00054131,0.00142778,0.00039943,0.00032855,-0.00045598,-0.00010
 356,0.00013072,-0.00003359,0.00250702,-0.00254047,-0.00346496,-0.02245
 060,-0.01085445,-0.00931622,-0.00285184,-0.00029436,-0.00184146,-0.107
 32873,-0.05318861,-0.11436026,0.00602536,0.00383036,0.00020300,-0.0026
 2873,-0.00195793,-0.00271411,-0.00131114,-0.00042965,0.00013963,-0.000
 90003,-0.00065325,-0.00065162,-0.00013549,0.00000365,0.00015805,-0.001
 07393,-0.00074514,-0.00040747,-0.00076964,-0.00010362,0.00001698,0.000
 25767,0.00046071,0.00144560,0.00003910,-0.00002973,-0.00043242,0.00054
 415,0.00024044,-0.00007990,0.00012333,-0.00018406,-0.00019959,0.000003
 99,0.00003757,-0.00039507,0.00005755,0.00001415,-0.00000100,0.00009906
 ,0.00003606,0.00001160,-0.00003532,-0.00003641,0.00000904,0.00001902,0
 .00002946,0.00000604,0.00000144,-0.00000931,-0.00000197,-0.00000952,-0
 .00000828,-0.00000208,0.00000101,0.00000504,0.00000006,0.00001237,-0.0
 0000172,0.00000688,0.00000335,0.00000192,0.00000124,0.00000960,0.00001
 148,-0.00000074,0.00000462,0.00000078,0.00000141,0.00001184,0.00001190
 ,-0.00001133,-0.00000510,-0.00000431,0.00000489,0.00012411,0.00006389,
 0.00001323,0.00001183,-0.00001410,-0.00003563,-0.00000892,-0.00000315,
 -0.00001482,0.00094887,0.00102659,0.00179277,0.11264938,0.06093544,0.1
 1887977\\0.00002601,-0.00000098,-0.00002295,-0.00000929,0.00000175,0.0
 0000494,0.00002132,-0.00003693,0.00001948,-0.00001313,-0.00000044,0.00
 000814,0.00000596,0.00000099,-0.00000216,0.00000450,-0.00000146,-0.000
 02559,0.00000847,-0.00000191,-0.00002830,0.00001247,0.00001808,0.00005
 490,-0.00001266,0.00000012,0.00000566,-0.00000152,0.00002973,-0.000007
 24,-0.00002832,-0.00001210,0.00000306,0.00001507,-0.00000644,0.0000010
 6,0.00000129,-0.00001579,-0.00000506,0.00000048,0.00000836,0.00001269,
 0.00001890,-0.00001609,0.00002672,-0.00000731,0.00002382,0.00001408,-0
 .00001431,-0.00003883,-0.00003360,-0.00000981,0.00000853,-0.00000289,-
 0.00000466,0.00000353,0.00000228,-0.00000568,0.00001950,0.00000253,-0.
 00000540,0.00001135,-0.00001912,0.00000154,0.00001380,-0.00000657,0.00
 000506,-0.00001133,-0.00001196,0.00000070,0.00000568,0.00000418,0.0000
 0327,0.00000115,0.00000394,-0.00000005,-0.00000079,0.00000028,-0.00000
 136,-0.00000279,-0.00000034,0.00000035,-0.00000027,0.00000076,-0.00000
 170,-0.00000245,0.00000057,0.00000019,-0.00000077,-0.00000007,-0.00000
 060,0.00000262,0.00000016,-0.00000007,-0.00000023,-0.00000042,-0.00000
 205,-0.00000009,-0.00000311,-0.00000071,-0.00000062,0.00000141,0.00000
 077,-0.00000017,-0.00000184,-0.00000192,0.00000139,0.00000501,-0.00000
 167,0.00000090,-0.00000082,-0.00000429,-0.00000055,-0.00000231,0.00000
 017,-0.00000026,0.00000249\\\@
 The archive entry for this job was punched.


 WHEN YOU REACH FOR THE STARS, YOU MAY NOT QUITE GET ONE,
 BUT YOU WON'T COME UP WITH A HANDFUL OF MUD, EITHER.

                                         -- LEO BURNETT (AD AGENCY HEAD)
 Job cpu time:       0 days  9 hours 16 minutes 55.8 seconds.
 Elapsed time:       0 days  0 hours 34 minutes 54.5 seconds.
 File lengths (MBytes):  RWF=   1158 Int=      0 D2E=      0 Chk=     24 Scr=      1
 Normal termination of Gaussian 16 at Fri Jul  1 15:00:38 2022.
