 Entering Gaussian System, Link 0=g16
 AtFile(1): /home/561/yj5695/Basis/6-31pGd.gbs
 Initial command:
 /apps/gaussian/g16c01/g16/l1.exe "/jobfs/49789050.gadi-pbs/Gau-2642848.inp" -scrdir="/jobfs/49789050.gadi-pbs/"
 Entering Link 1 = /apps/gaussian/g16c01/g16/l1.exe PID=   2642849.
  
 Copyright (c) 1988-2019, Gaussian, Inc.  All Rights Reserved.
  
 This is part of the Gaussian(R) 16 program.  It is based on
 the Gaussian(R) 09 system (copyright 2009, Gaussian, Inc.),
 the Gaussian(R) 03 system (copyright 2003, Gaussian, Inc.),
 the Gaussian(R) 98 system (copyright 1998, Gaussian, Inc.),
 the Gaussian(R) 94 system (copyright 1995, Gaussian, Inc.),
 the Gaussian 92(TM) system (copyright 1992, Gaussian, Inc.),
 the Gaussian 90(TM) system (copyright 1990, Gaussian, Inc.),
 the Gaussian 88(TM) system (copyright 1988, Gaussian, Inc.),
 the Gaussian 86(TM) system (copyright 1986, Carnegie Mellon
 University), and the Gaussian 82(TM) system (copyright 1983,
 Carnegie Mellon University). Gaussian is a federally registered
 trademark of Gaussian, Inc.
  
 This software contains proprietary and confidential information,
 including trade secrets, belonging to Gaussian, Inc.
  
 This software is provided under written license and may be
 used, copied, transmitted, or stored only in accord with that
 written license.
  
 The following legend is applicable only to US Government
 contracts under FAR:
  
                    RESTRICTED RIGHTS LEGEND
  
 Use, reproduction and disclosure by the US Government is
 subject to restrictions as set forth in subparagraphs (a)
 and (c) of the Commercial Computer Software - Restricted
 Rights clause in FAR 52.227-19.
  
 Gaussian, Inc.
 340 Quinnipiac St., Bldg. 40, Wallingford CT 06492
  
  
 ---------------------------------------------------------------
 Warning -- This program may not be used in any manner that
 competes with the business of Gaussian, Inc. or will provide
 assistance to any competitor of Gaussian, Inc.  The licensee
 of this program is prohibited from giving any competitor of
 Gaussian, Inc. access to this program.  By using this program,
 the user acknowledges that Gaussian, Inc. is engaged in the
 business of creating and licensing software in the field of
 computational chemistry and represents and warrants to the
 licensee that it is not a competitor of Gaussian, Inc. and that
 it will not use this program in any manner prohibited above.
 ---------------------------------------------------------------
  

 Cite this work as:
 Gaussian 16, Revision C.01,
 M. J. Frisch, G. W. Trucks, H. B. Schlegel, G. E. Scuseria, 
 M. A. Robb, J. R. Cheeseman, G. Scalmani, V. Barone, 
 G. A. Petersson, H. Nakatsuji, X. Li, M. Caricato, A. V. Marenich, 
 J. Bloino, B. G. Janesko, R. Gomperts, B. Mennucci, H. P. Hratchian, 
 J. V. Ortiz, A. F. Izmaylov, J. L. Sonnenberg, D. Williams-Young, 
 F. Ding, F. Lipparini, F. Egidi, J. Goings, B. Peng, A. Petrone, 
 T. Henderson, D. Ranasinghe, V. G. Zakrzewski, J. Gao, N. Rega, 
 G. Zheng, W. Liang, M. Hada, M. Ehara, K. Toyota, R. Fukuda, 
 J. Hasegawa, M. Ishida, T. Nakajima, Y. Honda, O. Kitao, H. Nakai, 
 T. Vreven, K. Throssell, J. A. Montgomery, Jr., J. E. Peralta, 
 F. Ogliaro, M. J. Bearpark, J. J. Heyd, E. N. Brothers, K. N. Kudin, 
 V. N. Staroverov, T. A. Keith, R. Kobayashi, J. Normand, 
 K. Raghavachari, A. P. Rendell, J. C. Burant, S. S. Iyengar, 
 J. Tomasi, M. Cossi, J. M. Millam, M. Klene, C. Adamo, R. Cammi, 
 J. W. Ochterski, R. L. Martin, K. Morokuma, O. Farkas, 
 J. B. Foresman, and D. J. Fox, Gaussian, Inc., Wallingford CT, 2019.
 
 ******************************************
 Gaussian 16:  ES64L-G16RevC.01  3-Jul-2019
                 1-Jul-2022 
 ******************************************
 %nproc=16
 Will use up to   16 processors via shared memory.
 %mem=50gb
 --------------------------------------------------
 #M062X/gen 6D INT(grid=ultrafine) OPT Freq=noraman
 --------------------------------------------------
 1/18=20,19=15,26=4,38=1/1,3;
 2/9=110,12=2,17=6,18=5,40=1/2;
 3/5=7,8=2,11=2,25=1,30=1,71=1,74=-55,75=-5/1,2,3;
 4//1;
 5/5=2,38=5/2;
 6/7=2,8=2,9=2,10=2,28=1/1;
 7//1,2,3,16;
 1/18=20,19=15,26=4/3(2);
 2/9=110/2;
 99//99;
 2/9=110/2;
 3/5=7,6=1,8=2,11=2,25=1,30=1,71=1,74=-55,75=-5,82=7/1,2,3;
 4/5=5,16=3,69=1/1;
 5/5=2,38=5/2;
 7//1,2,3,16;
 1/18=20,19=15,26=4/3(-5);
 2/9=110/2;
 6/7=2,8=2,9=2,10=2,19=2,28=1/1;
 99/9=1/99;
 ---------
 A.34.freq
 ---------
 Symbolic Z-matrix:
 Charge = -1 Multiplicity = 1
 C                    -1.55499   0.92108  -0.89399 
 C                    -2.681     0.73965  -1.71323 
 Cl                   -4.29416   0.76755  -1.04733 
 C                    -2.57436   0.51589  -3.07519 
 H                    -3.46196   0.37252  -3.68382 
 C                    -1.30493   0.46528  -3.66542 
 C                    -0.16719   0.65582  -2.86256 
 C                     1.16833   0.68579  -3.49868 
 C                    -0.30439   0.8792   -1.4937 
 S                    -1.66546   1.19519   0.89477 
 O                    -0.2454    1.30082   1.31488 
 O                    -2.42233   2.47712   1.00191 
 N                    -2.32002  -0.03003   1.60416 
 H                    -3.3305    0.01486   1.45892 
 N                    -1.14951   0.29136  -5.02826 
 C                     0.08436  -0.30993  -5.47541 
 N                     1.18444   0.36826  -4.82181 
 H                    -1.97926  -0.01047  -5.53063 
 O                     2.1931    1.03162  -2.90166 
 H                     0.58546   1.02852  -0.89112 
 H                     2.0962    0.33269  -5.26863 
 C                     0.13113  -1.83054  -5.17595 
 H                     0.17824  -0.17206  -6.55402 
 H                     0.06671  -2.04041  -4.10781 
 Cl                    1.67001  -2.51772  -5.76378 
 Cl                   -1.2451   -2.64727  -5.96716 
 

 GradGradGradGradGradGradGradGradGradGradGradGradGradGradGradGradGradGrad
 Berny optimization.
 Initialization pass.
                           ----------------------------
                           !    Initial Parameters    !
                           ! (Angstroms and Degrees)  !
 --------------------------                            --------------------------
 ! Name  Definition              Value          Derivative Info.                !
 --------------------------------------------------------------------------------
 ! R1    R(1,2)                  1.4043         estimate D2E/DX2                !
 ! R2    R(1,9)                  1.3876         estimate D2E/DX2                !
 ! R3    R(1,10)                 1.813          estimate D2E/DX2                !
 ! R4    R(2,3)                  1.7454         estimate D2E/DX2                !
 ! R5    R(2,4)                  1.3843         estimate D2E/DX2                !
 ! R6    R(4,5)                  1.0857         estimate D2E/DX2                !
 ! R7    R(4,6)                  1.4008         estimate D2E/DX2                !
 ! R8    R(6,7)                  1.4055         estimate D2E/DX2                !
 ! R9    R(6,15)                 1.3827         estimate D2E/DX2                !
 ! R10   R(7,8)                  1.4796         estimate D2E/DX2                !
 ! R11   R(7,9)                  1.3937         estimate D2E/DX2                !
 ! R12   R(8,17)                 1.3608         estimate D2E/DX2                !
 ! R13   R(8,19)                 1.2354         estimate D2E/DX2                !
 ! R14   R(9,20)                 1.085          estimate D2E/DX2                !
 ! R15   R(10,11)                1.4847         estimate D2E/DX2                !
 ! R16   R(10,12)                1.4925         estimate D2E/DX2                !
 ! R17   R(10,13)                1.5598         estimate D2E/DX2                !
 ! R18   R(13,14)                1.0219         estimate D2E/DX2                !
 ! R19   R(15,16)                1.4436         estimate D2E/DX2                !
 ! R20   R(15,18)                1.0159         estimate D2E/DX2                !
 ! R21   R(16,17)                1.4482         estimate D2E/DX2                !
 ! R22   R(16,22)                1.5505         estimate D2E/DX2                !
 ! R23   R(16,23)                1.0914         estimate D2E/DX2                !
 ! R24   R(17,21)                1.016          estimate D2E/DX2                !
 ! R25   R(22,24)                1.0905         estimate D2E/DX2                !
 ! R26   R(22,25)                1.7849         estimate D2E/DX2                !
 ! R27   R(22,26)                1.7852         estimate D2E/DX2                !
 ! A1    A(2,1,9)              117.8169         estimate D2E/DX2                !
 ! A2    A(2,1,10)             123.111          estimate D2E/DX2                !
 ! A3    A(9,1,10)             119.0712         estimate D2E/DX2                !
 ! A4    A(1,2,3)              121.0946         estimate D2E/DX2                !
 ! A5    A(1,2,4)              122.2138         estimate D2E/DX2                !
 ! A6    A(3,2,4)              116.6874         estimate D2E/DX2                !
 ! A7    A(2,4,5)              120.6555         estimate D2E/DX2                !
 ! A8    A(2,4,6)              119.3515         estimate D2E/DX2                !
 ! A9    A(5,4,6)              119.9912         estimate D2E/DX2                !
 ! A10   A(4,6,7)              119.2084         estimate D2E/DX2                !
 ! A11   A(4,6,15)             121.4464         estimate D2E/DX2                !
 ! A12   A(7,6,15)             119.2821         estimate D2E/DX2                !
 ! A13   A(6,7,8)              119.1988         estimate D2E/DX2                !
 ! A14   A(6,7,9)              120.2041         estimate D2E/DX2                !
 ! A15   A(8,7,9)              120.5222         estimate D2E/DX2                !
 ! A16   A(7,8,17)             115.087          estimate D2E/DX2                !
 ! A17   A(7,8,19)             123.137          estimate D2E/DX2                !
 ! A18   A(17,8,19)            121.6945         estimate D2E/DX2                !
 ! A19   A(1,9,7)              121.2009         estimate D2E/DX2                !
 ! A20   A(1,9,20)             119.669          estimate D2E/DX2                !
 ! A21   A(7,9,20)             119.1291         estimate D2E/DX2                !
 ! A22   A(1,10,11)            103.3944         estimate D2E/DX2                !
 ! A23   A(1,10,12)            103.39           estimate D2E/DX2                !
 ! A24   A(1,10,13)            110.8262         estimate D2E/DX2                !
 ! A25   A(11,10,12)           113.8042         estimate D2E/DX2                !
 ! A26   A(11,10,13)           109.1831         estimate D2E/DX2                !
 ! A27   A(12,10,13)           115.4183         estimate D2E/DX2                !
 ! A28   A(10,13,14)           108.411          estimate D2E/DX2                !
 ! A29   A(6,15,16)            116.9867         estimate D2E/DX2                !
 ! A30   A(6,15,18)            115.6581         estimate D2E/DX2                !
 ! A31   A(16,15,18)           114.9111         estimate D2E/DX2                !
 ! A32   A(15,16,17)           108.3253         estimate D2E/DX2                !
 ! A33   A(15,16,22)           111.9901         estimate D2E/DX2                !
 ! A34   A(15,16,23)           109.0877         estimate D2E/DX2                !
 ! A35   A(17,16,22)           110.4375         estimate D2E/DX2                !
 ! A36   A(17,16,23)           108.7551         estimate D2E/DX2                !
 ! A37   A(22,16,23)           108.189          estimate D2E/DX2                !
 ! A38   A(8,17,16)            122.6229         estimate D2E/DX2                !
 ! A39   A(8,17,21)            116.5136         estimate D2E/DX2                !
 ! A40   A(16,17,21)           117.8274         estimate D2E/DX2                !
 ! A41   A(16,22,24)           112.0954         estimate D2E/DX2                !
 ! A42   A(16,22,25)           109.8751         estimate D2E/DX2                !
 ! A43   A(16,22,26)           109.8658         estimate D2E/DX2                !
 ! A44   A(24,22,25)           107.4233         estimate D2E/DX2                !
 ! A45   A(24,22,26)           107.4892         estimate D2E/DX2                !
 ! A46   A(25,22,26)           110.0316         estimate D2E/DX2                !
 ! D1    D(9,1,2,3)            179.6685         estimate D2E/DX2                !
 ! D2    D(9,1,2,4)              0.4266         estimate D2E/DX2                !
 ! D3    D(10,1,2,3)             0.0203         estimate D2E/DX2                !
 ! D4    D(10,1,2,4)          -179.2215         estimate D2E/DX2                !
 ! D5    D(2,1,9,7)             -0.4117         estimate D2E/DX2                !
 ! D6    D(2,1,9,20)           179.2105         estimate D2E/DX2                !
 ! D7    D(10,1,9,7)           179.2511         estimate D2E/DX2                !
 ! D8    D(10,1,9,20)           -1.1267         estimate D2E/DX2                !
 ! D9    D(2,1,10,11)          178.9257         estimate D2E/DX2                !
 ! D10   D(2,1,10,12)          -62.181          estimate D2E/DX2                !
 ! D11   D(2,1,10,13)           62.0556         estimate D2E/DX2                !
 ! D12   D(9,1,10,11)           -0.7183         estimate D2E/DX2                !
 ! D13   D(9,1,10,12)          118.175          estimate D2E/DX2                !
 ! D14   D(9,1,10,13)         -117.5884         estimate D2E/DX2                !
 ! D15   D(1,2,4,5)            179.6031         estimate D2E/DX2                !
 ! D16   D(1,2,4,6)              0.0825         estimate D2E/DX2                !
 ! D17   D(3,2,4,5)              0.3297         estimate D2E/DX2                !
 ! D18   D(3,2,4,6)           -179.1909         estimate D2E/DX2                !
 ! D19   D(2,4,6,7)             -0.6049         estimate D2E/DX2                !
 ! D20   D(2,4,6,15)          -177.6951         estimate D2E/DX2                !
 ! D21   D(5,4,6,7)            179.8713         estimate D2E/DX2                !
 ! D22   D(5,4,6,15)             2.7811         estimate D2E/DX2                !
 ! D23   D(4,6,7,8)           -176.2482         estimate D2E/DX2                !
 ! D24   D(4,6,7,9)              0.6203         estimate D2E/DX2                !
 ! D25   D(15,6,7,8)             0.9057         estimate D2E/DX2                !
 ! D26   D(15,6,7,9)           177.7742         estimate D2E/DX2                !
 ! D27   D(4,6,15,16)         -154.0118         estimate D2E/DX2                !
 ! D28   D(4,6,15,18)          -13.747          estimate D2E/DX2                !
 ! D29   D(7,6,15,16)           28.9001         estimate D2E/DX2                !
 ! D30   D(7,6,15,18)          169.1649         estimate D2E/DX2                !
 ! D31   D(6,7,8,17)            -7.2166         estimate D2E/DX2                !
 ! D32   D(6,7,8,19)           169.5482         estimate D2E/DX2                !
 ! D33   D(9,7,8,17)           175.9251         estimate D2E/DX2                !
 ! D34   D(9,7,8,19)            -7.3101         estimate D2E/DX2                !
 ! D35   D(6,7,9,1)             -0.1045         estimate D2E/DX2                !
 ! D36   D(6,7,9,20)          -179.7288         estimate D2E/DX2                !
 ! D37   D(8,7,9,1)            176.7222         estimate D2E/DX2                !
 ! D38   D(8,7,9,20)            -2.902          estimate D2E/DX2                !
 ! D39   D(7,8,17,16)          -16.9425         estimate D2E/DX2                !
 ! D40   D(7,8,17,21)         -176.7802         estimate D2E/DX2                !
 ! D41   D(19,8,17,16)         166.2413         estimate D2E/DX2                !
 ! D42   D(19,8,17,21)           6.4037         estimate D2E/DX2                !
 ! D43   D(1,10,13,14)         -77.918          estimate D2E/DX2                !
 ! D44   D(11,10,13,14)        168.8312         estimate D2E/DX2                !
 ! D45   D(12,10,13,14)         39.1528         estimate D2E/DX2                !
 ! D46   D(6,15,16,17)         -48.4531         estimate D2E/DX2                !
 ! D47   D(6,15,16,22)          73.5828         estimate D2E/DX2                !
 ! D48   D(6,15,16,23)        -166.6834         estimate D2E/DX2                !
 ! D49   D(18,15,16,17)        170.9904         estimate D2E/DX2                !
 ! D50   D(18,15,16,22)        -66.9738         estimate D2E/DX2                !
 ! D51   D(18,15,16,23)         52.76           estimate D2E/DX2                !
 ! D52   D(15,16,17,8)          43.7042         estimate D2E/DX2                !
 ! D53   D(15,16,17,21)       -156.7074         estimate D2E/DX2                !
 ! D54   D(22,16,17,8)         -79.2774         estimate D2E/DX2                !
 ! D55   D(22,16,17,21)         80.311          estimate D2E/DX2                !
 ! D56   D(23,16,17,8)         162.146          estimate D2E/DX2                !
 ! D57   D(23,16,17,21)        -38.2656         estimate D2E/DX2                !
 ! D58   D(15,16,22,24)        -61.1476         estimate D2E/DX2                !
 ! D59   D(15,16,22,25)        179.4864         estimate D2E/DX2                !
 ! D60   D(15,16,22,26)         58.295          estimate D2E/DX2                !
 ! D61   D(17,16,22,24)         59.6722         estimate D2E/DX2                !
 ! D62   D(17,16,22,25)        -59.6938         estimate D2E/DX2                !
 ! D63   D(17,16,22,26)        179.1148         estimate D2E/DX2                !
 ! D64   D(23,16,22,24)        178.5936         estimate D2E/DX2                !
 ! D65   D(23,16,22,25)         59.2275         estimate D2E/DX2                !
 ! D66   D(23,16,22,26)        -61.9638         estimate D2E/DX2                !
 --------------------------------------------------------------------------------
 Trust Radius=3.00D-01 FncErr=1.00D-07 GrdErr=1.00D-06 EigMax=2.50D+02 EigMin=1.00D-04
 Number of steps in this run=    149 maximum allowed number of steps=    156.
 GradGradGradGradGradGradGradGradGradGradGradGradGradGradGradGradGradGrad

                          Input orientation:                          
 ---------------------------------------------------------------------
 Center     Atomic      Atomic             Coordinates (Angstroms)
 Number     Number       Type             X           Y           Z
 ---------------------------------------------------------------------
      1          6           0       -1.554987    0.921081   -0.893991
      2          6           0       -2.680999    0.739647   -1.713231
      3         17           0       -4.294160    0.767545   -1.047334
      4          6           0       -2.574363    0.515889   -3.075194
      5          1           0       -3.461964    0.372524   -3.683816
      6          6           0       -1.304933    0.465279   -3.665416
      7          6           0       -0.167192    0.655823   -2.862558
      8          6           0        1.168328    0.685794   -3.498682
      9          6           0       -0.304394    0.879198   -1.493695
     10         16           0       -1.665463    1.195187    0.894770
     11          8           0       -0.245402    1.300819    1.314877
     12          8           0       -2.422330    2.477120    1.001911
     13          7           0       -2.320017   -0.030029    1.604155
     14          1           0       -3.330501    0.014862    1.458916
     15          7           0       -1.149510    0.291355   -5.028261
     16          6           0        0.084363   -0.309930   -5.475410
     17          7           0        1.184438    0.368262   -4.821810
     18          1           0       -1.979262   -0.010467   -5.530631
     19          8           0        2.193099    1.031620   -2.901661
     20          1           0        0.585458    1.028520   -0.891117
     21          1           0        2.096200    0.332693   -5.268629
     22          6           0        0.131134   -1.830535   -5.175951
     23          1           0        0.178241   -0.172063   -6.554021
     24          1           0        0.066708   -2.040411   -4.107814
     25         17           0        1.670012   -2.517722   -5.763783
     26         17           0       -1.245095   -2.647272   -5.967164
 ---------------------------------------------------------------------
                    Distance matrix (angstroms):
                    1          2          3          4          5
     1  C    0.000000
     2  C    1.404270   0.000000
     3  Cl   2.747755   1.745418   0.000000
     4  C    2.441507   1.384335   2.670814   0.000000
     5  H    3.423536   2.151253   2.792782   1.085730   0.000000
     6  C    2.819766   2.404134   3.985122   1.400848   2.159103
     7  C    2.423137   2.765358   4.509921   2.420592   3.407381
     8  C    3.775741   4.243590   5.987868   3.770404   4.644569
     9  C    1.387581   2.390799   4.016209   2.790321   3.876028
    10  S    1.813010   2.835577   3.296163   4.128942   4.986746
    11  O    2.595826   3.926383   4.717718   5.031192   6.016223
    12  O    2.601535   3.233840   3.259724   4.526845   5.240821
    13  N    2.780398   3.424582   3.400553   4.717947   5.424825
    14  H    3.083805   3.318084   2.788630   4.623951   5.156830
    15  N    4.201566   3.679110   5.095425   2.427981   2.676110
    16  C    5.019189   4.785690   6.319832   3.675845   4.031375
    17  N    4.820562   4.974213   6.664918   4.147414   4.783733
    18  H    4.748286   3.953182   5.105292   2.580769   2.399128
    19  O    4.253364   5.025380   6.752244   4.798415   5.746818
    20  H    2.143142   3.380689   4.889088   3.875236   4.960960
    21  H    5.728423   5.968928   7.671058   5.163223   5.779827
    22  C    5.361863   5.148238   6.586253   4.151939   4.471050
    23  H    6.019550   5.695587   7.156035   4.489136   4.667520
    24  H    4.661436   4.583955   6.022319   3.817883   4.295760
    25  Cl   6.777969   6.778549   8.283068   5.869074   6.246356
    26  Cl   6.210174   5.623965   6.720305   4.487319   4.387181
                    6          7          8          9         10
     6  C    0.000000
     7  C    1.405469   0.000000
     8  C    2.488664   1.479583   0.000000
     9  C    2.426681   1.393738   2.495253   0.000000
    10  S    4.632283   4.080839   5.252835   2.767151   0.000000
    11  O    5.159850   4.227659   5.054428   2.840655   1.484662
    12  O    5.203847   4.830827   6.029678   3.642397   1.492541
    13  N    5.389258   5.005654   6.222532   3.806062   1.559751
    14  H    5.528524   5.393746   6.728104   4.315358   2.117494
    15  N    1.382661   2.405838   2.804918   3.681431   6.013769
    16  C    2.409807   2.796954   2.464528   4.173633   6.775431
    17  N    2.746566   2.397554   1.360792   3.681579   6.440887
    18  H    2.039628   3.293350   3.810632   4.460217   6.545063
    19  O    3.624954   2.390340   1.235389   2.871075   5.415546
    20  H    3.404050   2.142887   2.693807   1.085004   2.878162
    21  H    3.762390   3.319116   2.029369   4.506844   7.271966
    22  C    3.100769   3.409217   3.197016   4.592532   7.016866
    23  H    3.309086   3.798897   3.324348   5.190856   7.794428
    24  H    2.890605   2.979102   3.002799   3.936426   6.204463
    25  Cl   4.706563   4.675876   3.955361   5.802671   8.321503
    26  Cl   3.871640   4.659495   4.798681   5.773459   7.875744
                   11         12         13         14         15
    11  O    0.000000
    12  O    2.494123   0.000000
    13  N    2.481706   2.580496   0.000000
    14  H    3.345485   2.663896   1.021855   0.000000
    15  N    6.486280   6.539160   6.742575   6.849572   0.000000
    16  C    6.986505   7.483772   7.481954   7.736386   1.443582
    17  N    6.369696   7.167411   7.330271   7.743196   2.344323
    18  H    7.182390   7.004178   7.142945   7.119007   1.015855
    19  O    4.878314   6.215266   6.465113   7.110456   4.030317
    20  H    2.372949   3.837810   3.973499   4.678129   4.546371
    21  H    7.054284   8.020932   8.177390   8.649275   3.254861
    22  C    7.216509   7.952487   7.431003   7.707780   2.482797
    23  H    8.016758   8.418625   8.533305   8.749478   2.074999
    24  H    6.377053   7.260350   6.508816   6.837665   2.786313
    25  Cl   8.267859   9.352557   8.740450   9.142565   4.047420
    26  Cl   8.343556   8.730022   8.082715   8.159812   3.086455
                   16         17         18         19         20
    16  C    0.000000
    17  N    1.448207   0.000000
    18  H    2.085971   3.264178   0.000000
    19  O    3.587577   2.268130   5.040439   0.000000
    20  H    4.801905   4.030517   5.402071   2.574258   0.000000
    21  H    2.122077   1.015983   4.098267   2.469904   4.682855
    22  C    1.550517   2.463650   2.809309   4.197145   5.171113
    23  H    1.091431   2.074835   2.393378   4.341456   5.803077
    24  H    2.205719   2.749694   3.214199   3.926031   4.476000
    25  Cl   2.733457   3.074410   4.433722   4.589465   6.123313
    26  Cl   2.733578   4.038306   2.771697   5.895145   6.529060
                   21         22         23         24         25
    21  H    0.000000
    22  C    2.923975   0.000000
    23  H    2.363383   2.156809   0.000000
    24  H    3.331359   1.090466   3.080112   0.000000
    25  Cl   2.924325   1.784914   2.889978   2.353857   0.000000
    26  Cl   4.531269   1.785240   2.914952   2.355056   2.925063
                   26
    26  Cl   0.000000
 Stoichiometry    C9H7Cl3N3O3S(1-)
 Framework group  C1[X(C9H7Cl3N3O3S)]
 Deg. of freedom    72
 Full point group                 C1      NOp   1
 Largest Abelian subgroup         C1      NOp   1
 Largest concise Abelian subgroup C1      NOp   1
                         Standard orientation:                         
 ---------------------------------------------------------------------
 Center     Atomic      Atomic             Coordinates (Angstroms)
 Number     Number       Type             X           Y           Z
 ---------------------------------------------------------------------
      1          6           0        2.054311   -0.187026   -0.052602
      2          6           0        1.730300    1.134362   -0.400349
      3         17           0        2.916874    2.410291   -0.297726
      4          6           0        0.463025    1.496434   -0.823788
      5          1           0        0.238547    2.527255   -1.080358
      6          6           0       -0.537310    0.519574   -0.910096
      7          6           0       -0.227921   -0.810246   -0.576632
      8          6           0       -1.260373   -1.856182   -0.747587
      9          6           0        1.056700   -1.146220   -0.153101
     10         16           0        3.699606   -0.684285    0.524236
     11          8           0        3.547387   -2.137648    0.786509
     12          8           0        4.582513   -0.371053   -0.637677
     13          7           0        4.063097    0.041545    1.856102
     14          1           0        4.347003    0.998018    1.635322
     15          7           0       -1.804490    0.823618   -1.372227
     16          6           0       -2.887622   -0.012592   -0.912329
     17          7           0       -2.497239   -1.396974   -1.080822
     18          1           0       -2.024507    1.813451   -1.433746
     19          8           0       -1.018793   -3.064463   -0.658815
     20          1           0        1.277599   -2.178956    0.095684
     21          1           0       -3.234559   -2.092107   -1.154124
     22          6           0       -3.251801    0.270932    0.567904
     23          1           0       -3.771249    0.179710   -1.523430
     24          1           0       -2.416481    0.074312    1.240731
     25         17           0       -4.603270   -0.780238    1.072377
     26         17           0       -3.705623    1.986455    0.763121
 ---------------------------------------------------------------------
 Rotational constants (GHZ):           0.4983223           0.1433605           0.1246553
 General basis read from cards:  (6D, 7F)
 There are   391 symmetry adapted cartesian basis functions of A   symmetry.
 There are   391 symmetry adapted basis functions of A   symmetry.
   391 basis functions,   732 primitive gaussians,   391 cartesian basis functions
    87 alpha electrons       87 beta electrons
       nuclear repulsion energy      2028.6787189951 Hartrees.
 NAtoms=   26 NActive=   26 NUniq=   26 SFac= 1.00D+00 NAtFMM=   60 NAOKFM=F Big=F
 Integral buffers will be    131072 words long.
 Raffenetti 2 integral format.
 Two-electron integral symmetry is turned on.
 One-electron integrals computed using PRISM.
 NBasis=   391 RedAO= T EigKep=  1.43D-06  NBF=   391
 NBsUse=   389 1.00D-06 EigRej=  7.02D-07 NBFU=   389
 ExpMin= 4.05D-02 ExpMax= 2.52D+04 ExpMxC= 3.78D+03 IAcc=3 IRadAn=         5 AccDes= 0.00D+00
 Harris functional with IExCor= 1009 and IRadAn=       5 diagonalized for initial guess.
 HarFok:  IExCor= 1009 AccDes= 0.00D+00 IRadAn=         5 IDoV= 1 UseB2=F ITyADJ=14
 ICtDFT=  3500011 ScaDFX=  1.000000  1.000000  1.000000  1.000000
 FoFCou: FMM=F IPFlag=           0 FMFlag=      100000 FMFlg1=           0
         NFxFlg=           0 DoJE=T BraDBF=F KetDBF=T FulRan=T
         wScrn=  0.000000 ICntrl=       500 IOpCl=  0 I1Cent=   200000004 NGrid=           0
         NMat0=    1 NMatS0=      1 NMatT0=    0 NMatD0=    1 NMtDS0=    0 NMtDT0=    0
 Petite list used in FoFCou.
 Requested convergence on RMS density matrix=1.00D-08 within 128 cycles.
 Requested convergence on MAX density matrix=1.00D-06.
 Requested convergence on             energy=1.00D-06.
 No special actions if energy rises.
 SCF Done:  E(RM062X) =  -2515.49598059     A.U. after   18 cycles
            NFock= 18  Conv=0.43D-08     -V/T= 2.0045

 **********************************************************************

            Population analysis using the SCF Density.

 **********************************************************************

 Orbital symmetries:
       Occupied  (A) (A) (A) (A) (A) (A) (A) (A) (A) (A) (A) (A)
                 (A) (A) (A) (A) (A) (A) (A) (A) (A) (A) (A) (A)
                 (A) (A) (A) (A) (A) (A) (A) (A) (A) (A) (A) (A)
                 (A) (A) (A) (A) (A) (A) (A) (A) (A) (A) (A) (A)
                 (A) (A) (A) (A) (A) (A) (A) (A) (A) (A) (A) (A)
                 (A) (A) (A) (A) (A) (A) (A) (A) (A) (A) (A) (A)
                 (A) (A) (A) (A) (A) (A) (A) (A) (A) (A) (A) (A)
                 (A) (A) (A)
       Virtual   (A) (A) (A) (A) (A) (A) (A) (A) (A) (A) (A) (A)
                 (A) (A) (A) (A) (A) (A) (A) (A) (A) (A) (A) (A)
                 (A) (A) (A) (A) (A) (A) (A) (A) (A) (A) (A) (A)
                 (A) (A) (A) (A) (A) (A) (A) (A) (A) (A) (A) (A)
                 (A) (A) (A) (A) (A) (A) (A) (A) (A) (A) (A) (A)
                 (A) (A) (A) (A) (A) (A) (A) (A) (A) (A) (A) (A)
                 (A) (A) (A) (A) (A) (A) (A) (A) (A) (A) (A) (A)
                 (A) (A) (A) (A) (A) (A) (A) (A) (A) (A) (A) (A)
                 (A) (A) (A) (A) (A) (A) (A) (A) (A) (A) (A) (A)
                 (A) (A) (A) (A) (A) (A) (A) (A) (A) (A) (A) (A)
                 (A) (A) (A) (A) (A) (A) (A) (A) (A) (A) (A) (A)
                 (A) (A) (A) (A) (A) (A) (A) (A) (A) (A) (A) (A)
                 (A) (A) (A) (A) (A) (A) (A) (A) (A) (A) (A) (A)
                 (A) (A) (A) (A) (A) (A) (A) (A) (A) (A) (A) (A)
                 (A) (A) (A) (A) (A) (A) (A) (A) (A) (A) (A) (A)
                 (A) (A) (A) (A) (A) (A) (A) (A) (A) (A) (A) (A)
                 (A) (A) (A) (A) (A) (A) (A) (A) (A) (A) (A) (A)
                 (A) (A) (A) (A) (A) (A) (A) (A) (A) (A) (A) (A)
                 (A) (A) (A) (A) (A) (A) (A) (A) (A) (A) (A) (A)
                 (A) (A) (A) (A) (A) (A) (A) (A) (A) (A) (A) (A)
                 (A) (A) (A) (A) (A) (A) (A) (A) (A) (A) (A) (A)
                 (A) (A) (A) (A) (A) (A) (A) (A) (A) (A) (A) (A)
                 (A) (A) (A) (A) (A) (A) (A) (A) (A) (A) (A) (A)
                 (A) (A) (A) (A) (A) (A) (A) (A) (A) (A) (A) (A)
                 (A) (A) (A) (A) (A) (A) (A) (A) (A) (A) (A) (A)
                 (A) (A)
 The electronic state is 1-A.
 Alpha  occ. eigenvalues -- -102.62844-102.62651-102.57568 -89.97753 -19.53653
 Alpha  occ. eigenvalues --  -19.45275 -19.45212 -14.73196 -14.73005 -14.56179
 Alpha  occ. eigenvalues --  -10.62270 -10.59996 -10.58537 -10.53442 -10.53219
 Alpha  occ. eigenvalues --  -10.48231 -10.47829 -10.46820 -10.46632  -9.77548
 Alpha  occ. eigenvalues --   -9.77348  -9.72201  -8.28536  -7.49946  -7.49751
 Alpha  occ. eigenvalues --   -7.49278  -7.49261  -7.49073  -7.49060  -7.44606
 Alpha  occ. eigenvalues --   -7.43951  -7.43914  -6.20745  -6.20721  -6.20627
 Alpha  occ. eigenvalues --   -1.08753  -1.04315  -1.03696  -0.96062  -0.94986
 Alpha  occ. eigenvalues --   -0.92338  -0.90328  -0.87336  -0.85038  -0.80286
 Alpha  occ. eigenvalues --   -0.78468  -0.76463  -0.73505  -0.67103  -0.65384
 Alpha  occ. eigenvalues --   -0.63260  -0.57686  -0.56563  -0.54704  -0.52338
 Alpha  occ. eigenvalues --   -0.50781  -0.50571  -0.47419  -0.45558  -0.44865
 Alpha  occ. eigenvalues --   -0.43680  -0.43525  -0.42422  -0.41594  -0.40468
 Alpha  occ. eigenvalues --   -0.39382  -0.38301  -0.36862  -0.35295  -0.35160
 Alpha  occ. eigenvalues --   -0.34498  -0.33905  -0.33042  -0.32737  -0.31957
 Alpha  occ. eigenvalues --   -0.28809  -0.28052  -0.26163  -0.25513  -0.24736
 Alpha  occ. eigenvalues --   -0.22343  -0.21798  -0.20812  -0.20105  -0.18212
 Alpha  occ. eigenvalues --   -0.16275  -0.13528
 Alpha virt. eigenvalues --    0.06484   0.06782   0.07240   0.07796   0.09373
 Alpha virt. eigenvalues --    0.09956   0.10699   0.11102   0.11961   0.12509
 Alpha virt. eigenvalues --    0.13323   0.13471   0.14186   0.14508   0.15401
 Alpha virt. eigenvalues --    0.15648   0.16581   0.16727   0.16952   0.17401
 Alpha virt. eigenvalues --    0.17769   0.18222   0.18744   0.19140   0.19348
 Alpha virt. eigenvalues --    0.19943   0.20133   0.20250   0.20842   0.21297
 Alpha virt. eigenvalues --    0.21957   0.22201   0.23149   0.23336   0.23938
 Alpha virt. eigenvalues --    0.24433   0.24692   0.25247   0.25613   0.26531
 Alpha virt. eigenvalues --    0.26822   0.26996   0.27881   0.28253   0.28719
 Alpha virt. eigenvalues --    0.29121   0.29555   0.29881   0.30145   0.30549
 Alpha virt. eigenvalues --    0.30688   0.31084   0.31404   0.32050   0.32339
 Alpha virt. eigenvalues --    0.32579   0.33136   0.33605   0.33728   0.34621
 Alpha virt. eigenvalues --    0.34795   0.35328   0.35515   0.36114   0.36193
 Alpha virt. eigenvalues --    0.36725   0.37110   0.38337   0.38824   0.39095
 Alpha virt. eigenvalues --    0.39252   0.39914   0.40684   0.41231   0.41410
 Alpha virt. eigenvalues --    0.42211   0.42438   0.43156   0.44197   0.44235
 Alpha virt. eigenvalues --    0.44492   0.45145   0.46172   0.46419   0.46659
 Alpha virt. eigenvalues --    0.46969   0.47441   0.48122   0.48384   0.49427
 Alpha virt. eigenvalues --    0.50171   0.50671   0.51223   0.51927   0.52627
 Alpha virt. eigenvalues --    0.52974   0.54457   0.55243   0.57993   0.59985
 Alpha virt. eigenvalues --    0.61534   0.62747   0.64013   0.65847   0.67570
 Alpha virt. eigenvalues --    0.68342   0.69591   0.70996   0.71696   0.72438
 Alpha virt. eigenvalues --    0.73857   0.74060   0.74429   0.76033   0.76988
 Alpha virt. eigenvalues --    0.77395   0.78431   0.78642   0.79199   0.81173
 Alpha virt. eigenvalues --    0.82839   0.83066   0.84288   0.84605   0.86004
 Alpha virt. eigenvalues --    0.86525   0.87358   0.88538   0.89130   0.89770
 Alpha virt. eigenvalues --    0.90209   0.92220   0.92506   0.93481   0.94077
 Alpha virt. eigenvalues --    0.95331   0.96919   0.97587   0.97884   0.99596
 Alpha virt. eigenvalues --    0.99982   1.00740   1.01834   1.02973   1.03731
 Alpha virt. eigenvalues --    1.04964   1.05671   1.06003   1.07278   1.08268
 Alpha virt. eigenvalues --    1.09128   1.10305   1.12717   1.13476   1.14265
 Alpha virt. eigenvalues --    1.14910   1.16588   1.17179   1.17952   1.18876
 Alpha virt. eigenvalues --    1.20070   1.20525   1.20807   1.21846   1.23299
 Alpha virt. eigenvalues --    1.24405   1.24821   1.25570   1.26151   1.27673
 Alpha virt. eigenvalues --    1.28347   1.29173   1.30864   1.32486   1.33003
 Alpha virt. eigenvalues --    1.34723   1.35291   1.36695   1.37217   1.38455
 Alpha virt. eigenvalues --    1.39172   1.40581   1.41307   1.42924   1.45392
 Alpha virt. eigenvalues --    1.47165   1.48343   1.50057   1.50518   1.51681
 Alpha virt. eigenvalues --    1.52992   1.53306   1.54378   1.55101   1.56467
 Alpha virt. eigenvalues --    1.57167   1.57894   1.58353   1.59003   1.59818
 Alpha virt. eigenvalues --    1.61347   1.63213   1.64378   1.64932   1.66734
 Alpha virt. eigenvalues --    1.67592   1.69346   1.69762   1.71013   1.75542
 Alpha virt. eigenvalues --    1.78348   1.82121   1.86132   1.87480   1.88891
 Alpha virt. eigenvalues --    1.90293   1.91303   1.93251   1.94811   1.96299
 Alpha virt. eigenvalues --    1.97228   1.98438   2.00017   2.01175   2.02067
 Alpha virt. eigenvalues --    2.02742   2.04744   2.05979   2.06905   2.08511
 Alpha virt. eigenvalues --    2.10334   2.11813   2.12716   2.13364   2.13833
 Alpha virt. eigenvalues --    2.15602   2.17181   2.18822   2.20312   2.21339
 Alpha virt. eigenvalues --    2.23689   2.25951   2.26590   2.28219   2.31418
 Alpha virt. eigenvalues --    2.33789   2.34462   2.36150   2.37703   2.38286
 Alpha virt. eigenvalues --    2.39926   2.42146   2.43104   2.43619   2.49541
 Alpha virt. eigenvalues --    2.50067   2.53437   2.55654   2.58995   2.61812
 Alpha virt. eigenvalues --    2.63511   2.66036   2.68699   2.70986   2.72137
 Alpha virt. eigenvalues --    2.77231   2.79589   2.80716   2.82265   2.83897
 Alpha virt. eigenvalues --    2.86750   2.88207   2.94305   2.96716   3.02318
 Alpha virt. eigenvalues --    3.05368   3.08971   3.09664   3.14121   3.22518
 Alpha virt. eigenvalues --    3.30037   3.41752   3.50473   4.17542   4.18782
 Alpha virt. eigenvalues --    4.24788   4.32723   4.35202   4.39382   4.43661
 Alpha virt. eigenvalues --    4.45049   4.48202   4.49547   4.50001   4.51987
 Alpha virt. eigenvalues --    4.54706   4.57201   4.60883   4.62803   4.66646
 Alpha virt. eigenvalues --    4.81906   4.92903
          Condensed to atoms (all electrons):
               1          2          3          4          5          6
     1  C   77.570393   6.701585   0.112798 -13.064782   0.040479   6.665135
     2  C    6.701585  65.113247  -0.976335 -26.502276   0.037593  10.767368
     3  Cl   0.112798  -0.976335  17.165062   0.409325  -0.007029  -0.356363
     4  C  -13.064782 -26.502276   0.409325  40.247931   0.201768 -15.090162
     5  H    0.040479   0.037593  -0.007029   0.201768   0.497331  -0.050943
     6  C    6.665135  10.767368  -0.356363 -15.090162  -0.050943  36.899002
     7  C  -19.917469 -14.791142   0.166490   0.060298   0.080085 -14.204963
     8  C  -13.485638  -2.210867   0.034083   4.736422   0.012348  -7.004687
     9  C  -32.433896 -34.052667   0.262943  16.111039  -0.019061 -11.971902
    10  S   -1.871223  -0.381044   0.055961   0.682639   0.000158   0.546238
    11  O   -1.138348  -0.384796   0.008025   0.092797   0.000024  -0.015922
    12  O   -0.165554   0.555132  -0.068577  -0.086901  -0.000025   0.214497
    13  N   -0.060335   0.156192  -0.014947  -0.040133  -0.000039   0.078867
    14  H   -0.127531  -0.067345   0.021204   0.036056  -0.000001   0.004504
    15  N   -0.210543   0.675764   0.001230   0.560253  -0.010960  -2.011855
    16  C    0.340817  -0.596263  -0.007700  -0.953939   0.005993   1.383231
    17  N   -0.264373   0.152665   0.000712   0.166058   0.000335   0.543639
    18  H    0.000757   0.063123  -0.000520  -0.057540   0.005157  -0.067053
    19  O    0.121594  -0.013951   0.000004  -0.014721   0.000012   0.028840
    20  H   -0.089990   0.021731  -0.000777  -0.011146   0.000012  -0.005948
    21  H    0.004466  -0.002663   0.000011   0.002829  -0.000000  -0.030741
    22  C   -0.025247   0.247783   0.003345  -0.409842   0.001290  -0.585962
    23  H   -0.000684   0.001721   0.000001  -0.001162   0.000005   0.010693
    24  H    0.005040  -0.000289  -0.000014  -0.044686   0.000019  -0.017282
    25  Cl  -0.054020   0.020500   0.000496   0.155886   0.000072  -0.076022
    26  Cl  -0.019562   0.044196  -0.001477   0.207019  -0.001134  -0.054772
               7          8          9         10         11         12
     1  C  -19.917469 -13.485638 -32.433896  -1.871223  -1.138348  -0.165554
     2  C  -14.791142  -2.210867 -34.052667  -0.381044  -0.384796   0.555132
     3  Cl   0.166490   0.034083   0.262943   0.055961   0.008025  -0.068577
     4  C    0.060298   4.736422  16.111039   0.682639   0.092797  -0.086901
     5  H    0.080085   0.012348  -0.019061   0.000158   0.000024  -0.000025
     6  C  -14.204963  -7.004687 -11.971902   0.546238  -0.015922   0.214497
     7  C   42.440258  -2.850675  14.890713  -1.296515   0.050772  -0.382591
     8  C   -2.850675  24.010656   3.550800  -0.462976  -0.032752  -0.067682
     9  C   14.890713   3.550800  50.133276  -0.300744   0.857539  -0.455620
    10  S   -1.296515  -0.462976  -0.300744  16.397511   0.454801   0.374005
    11  O    0.050772  -0.032752   0.857539   0.454801   9.006834  -0.106620
    12  O   -0.382591  -0.067682  -0.455620   0.374005  -0.106620   8.896878
    13  N   -0.060012  -0.025113  -0.312787   0.246921  -0.146059  -0.169286
    14  H   -0.012999  -0.000971   0.020386   0.148779   0.022823  -0.013801
    15  N    0.109543   1.050511  -0.109187   0.001186   0.000595   0.000011
    16  C    1.865438  -3.342471  -0.367639  -0.001415   0.000034   0.001346
    17  N   -1.183013   0.352122   0.306524  -0.015506  -0.001030  -0.000534
    18  H    0.053258   0.024925  -0.008415  -0.000043   0.000000   0.000000
    19  O    0.006925   0.221565  -0.093892   0.005433   0.000512   0.000076
    20  H    0.008193   0.007268   0.382062  -0.015673  -0.000548  -0.000218
    21  H    0.145043  -0.103800   0.001343   0.000055   0.000000  -0.000000
    22  C    0.342921   0.495758  -0.006385  -0.005820  -0.000211  -0.000288
    23  H   -0.035026   0.025486  -0.002259   0.000041   0.000000   0.000000
    24  H    0.060828  -0.027825  -0.007380   0.000209   0.000001   0.000000
    25  Cl  -0.264386   0.314818  -0.036167   0.000102   0.000003  -0.000007
    26  Cl  -0.156177  -0.045108   0.034030  -0.000349   0.000003   0.000009
              13         14         15         16         17         18
     1  C   -0.060335  -0.127531  -0.210543   0.340817  -0.264373   0.000757
     2  C    0.156192  -0.067345   0.675764  -0.596263   0.152665   0.063123
     3  Cl  -0.014947   0.021204   0.001230  -0.007700   0.000712  -0.000520
     4  C   -0.040133   0.036056   0.560253  -0.953939   0.166058  -0.057540
     5  H   -0.000039  -0.000001  -0.010960   0.005993   0.000335   0.005157
     6  C    0.078867   0.004504  -2.011855   1.383231   0.543639  -0.067053
     7  C   -0.060012  -0.012999   0.109543   1.865438  -1.183013   0.053258
     8  C   -0.025113  -0.000971   1.050511  -3.342471   0.352122   0.024925
     9  C   -0.312787   0.020386  -0.109187  -0.367639   0.306524  -0.008415
    10  S    0.246921   0.148779   0.001186  -0.001415  -0.015506  -0.000043
    11  O   -0.146059   0.022823   0.000595   0.000034  -0.001030   0.000000
    12  O   -0.169286  -0.013801   0.000011   0.001346  -0.000534   0.000000
    13  N    7.881333   0.187318  -0.000280   0.001475  -0.000702  -0.000001
    14  H    0.187318   0.439784  -0.000016   0.000005  -0.000002   0.000000
    15  N   -0.000280  -0.000016   8.323906  -1.617187   0.092194   0.275760
    16  C    0.001475   0.000005  -1.617187  11.665151  -0.939825  -0.050604
    17  N   -0.000702  -0.000002   0.092194  -0.939825   8.247276   0.012090
    18  H   -0.000001   0.000000   0.275760  -0.050604   0.012090   0.335975
    19  O   -0.000013   0.000001  -0.012463   0.137024  -0.168157   0.000160
    20  H   -0.000465  -0.000019  -0.000815  -0.000347   0.000766   0.000003
    21  H    0.000000  -0.000000   0.007633  -0.023216   0.247364  -0.000045
    22  C   -0.000114  -0.000054   0.242801  -1.172764  -0.033007  -0.028656
    23  H    0.000000   0.000000  -0.043879   0.472442  -0.044226  -0.003845
    24  H    0.000004   0.000000  -0.032892   0.159016  -0.025400   0.000071
    25  Cl   0.000005  -0.000001   0.141600  -0.343774   0.041321   0.001372
    26  Cl  -0.000150   0.000004   0.015792  -0.042374   0.062319   0.016408
              19         20         21         22         23         24
     1  C    0.121594  -0.089990   0.004466  -0.025247  -0.000684   0.005040
     2  C   -0.013951   0.021731  -0.002663   0.247783   0.001721  -0.000289
     3  Cl   0.000004  -0.000777   0.000011   0.003345   0.000001  -0.000014
     4  C   -0.014721  -0.011146   0.002829  -0.409842  -0.001162  -0.044686
     5  H    0.000012   0.000012  -0.000000   0.001290   0.000005   0.000019
     6  C    0.028840  -0.005948  -0.030741  -0.585962   0.010693  -0.017282
     7  C    0.006925   0.008193   0.145043   0.342921  -0.035026   0.060828
     8  C    0.221565   0.007268  -0.103800   0.495758   0.025486  -0.027825
     9  C   -0.093892   0.382062   0.001343  -0.006385  -0.002259  -0.007380
    10  S    0.005433  -0.015673   0.000055  -0.005820   0.000041   0.000209
    11  O    0.000512  -0.000548   0.000000  -0.000211   0.000000   0.000001
    12  O    0.000076  -0.000218  -0.000000  -0.000288   0.000000   0.000000
    13  N   -0.000013  -0.000465   0.000000  -0.000114   0.000000   0.000004
    14  H    0.000001  -0.000019  -0.000000  -0.000054   0.000000   0.000000
    15  N   -0.012463  -0.000815   0.007633   0.242801  -0.043879  -0.032892
    16  C    0.137024  -0.000347  -0.023216  -1.172764   0.472442   0.159016
    17  N   -0.168157   0.000766   0.247364  -0.033007  -0.044226  -0.025400
    18  H    0.000160   0.000003  -0.000045  -0.028656  -0.003845   0.000071
    19  O    8.308196   0.005594   0.008103  -0.030920  -0.000225   0.000755
    20  H    0.005594   0.389977  -0.000004   0.000191  -0.000000  -0.000006
    21  H    0.008103  -0.000004   0.287834  -0.006945  -0.004331   0.000131
    22  C   -0.030920   0.000191  -0.006945   7.221418  -0.099443   0.269402
    23  H   -0.000225  -0.000000  -0.004331  -0.099443   0.472127   0.002489
    24  H    0.000755  -0.000006   0.000131   0.269402   0.002489   0.420093
    25  Cl   0.002211  -0.000058   0.005322  -0.041885   0.000214  -0.054898
    26  Cl   0.001346   0.000094  -0.000771  -0.179653  -0.002898  -0.051386
              25         26
     1  C   -0.054020  -0.019562
     2  C    0.020500   0.044196
     3  Cl   0.000496  -0.001477
     4  C    0.155886   0.207019
     5  H    0.000072  -0.001134
     6  C   -0.076022  -0.054772
     7  C   -0.264386  -0.156177
     8  C    0.314818  -0.045108
     9  C   -0.036167   0.034030
    10  S    0.000102  -0.000349
    11  O    0.000003   0.000003
    12  O   -0.000007   0.000009
    13  N    0.000005  -0.000150
    14  H   -0.000001   0.000004
    15  N    0.141600   0.015792
    16  C   -0.343774  -0.042374
    17  N    0.041321   0.062319
    18  H    0.001372   0.016408
    19  O    0.002211   0.001346
    20  H   -0.000058   0.000094
    21  H    0.005322  -0.000771
    22  C   -0.041885  -0.179653
    23  H    0.000214  -0.002898
    24  H   -0.054898  -0.051386
    25  Cl  17.183746  -0.046827
    26  Cl  -0.046827  17.171594
 Mulliken charges:
               1
     1  C   -2.633869
     2  C    1.421039
     3  Cl   0.192047
     4  C   -1.393031
     5  H    0.206512
     6  C    0.402564
     7  C    0.874203
     8  C    0.823807
     9  C   -0.372653
    10  S    1.437270
    11  O   -0.668476
    12  O   -0.524250
    13  N   -0.721679
    14  H    0.341876
    15  N   -0.448701
    16  C   -0.572451
    17  N   -0.549612
    18  H    0.427663
    19  O   -0.514009
    20  H    0.310124
    21  H    0.462381
    22  C   -0.197715
    23  H    0.252760
    24  H    0.343998
    25  Cl   0.050377
    26  Cl   0.049825
 Sum of Mulliken charges =  -1.00000
 Mulliken charges with hydrogens summed into heavy atoms:
               1
     1  C   -2.633869
     2  C    1.421039
     3  Cl   0.192047
     4  C   -1.186519
     6  C    0.402564
     7  C    0.874203
     8  C    0.823807
     9  C   -0.062529
    10  S    1.437270
    11  O   -0.668476
    12  O   -0.524250
    13  N   -0.379803
    15  N   -0.021038
    16  C   -0.319691
    17  N   -0.087231
    19  O   -0.514009
    22  C    0.146283
    25  Cl   0.050377
    26  Cl   0.049825
 Electronic spatial extent (au):  <R**2>=           8129.4676
 Charge=             -1.0000 electrons
 Dipole moment (field-independent basis, Debye):
    X=            -18.3661    Y=              7.5143    Z=             -3.6462  Tot=             20.1760
 Quadrupole moment (field-independent basis, Debye-Ang):
   XX=           -221.9774   YY=           -161.1592   ZZ=           -154.7611
   XY=             16.6166   XZ=             -5.0138   YZ=              0.1739
 Traceless Quadrupole moment (field-independent basis, Debye-Ang):
   XX=            -42.6782   YY=             18.1400   ZZ=             24.5382
   XY=             16.6166   XZ=             -5.0138   YZ=              0.1739
 Octapole moment (field-independent basis, Debye-Ang**2):
  XXX=           -335.6710  YYY=             74.7927  ZZZ=            -16.0611  XYY=            -32.8383
  XXY=             57.3941  XXZ=            -65.5572  XZZ=            -57.0741  YZZ=              7.5172
  YYZ=             -4.2616  XYZ=             21.2023
 Hexadecapole moment (field-independent basis, Debye-Ang**3):
 XXXX=          -9589.5176 YYYY=          -2148.0514 ZZZZ=           -862.6570 XXXY=            420.3755
 XXXZ=            -25.0950 YYYX=             28.7170 YYYZ=            -20.1121 ZZZX=           -130.0369
 ZZZY=             10.2688 XXYY=          -1729.5810 XXZZ=          -1649.7409 YYZZ=           -459.4880
 XXYZ=             70.2732 YYXZ=            -13.3629 ZZXY=             27.6245
 N-N= 2.028678718995D+03 E-N=-1.002115453792D+04  KE= 2.504327277297D+03
 Calling FoFJK, ICntrl=      2127 FMM=F ISym2X=0 I1Cent= 0 IOpClX= 0 NMat=1 NMatS=1 NMatT=0.
 ***** Axes restored to original set *****
 -------------------------------------------------------------------
 Center     Atomic                   Forces (Hartrees/Bohr)
 Number     Number              X              Y              Z
 -------------------------------------------------------------------
      1        6          -0.004056494   -0.001401326   -0.005626991
      2        6           0.002362679    0.001248359    0.005994059
      3       17           0.000717953    0.000384399   -0.001574811
      4        6           0.005347732   -0.001834852   -0.006873209
      5        1          -0.001126983    0.000112452    0.000561006
      6        6          -0.003928111    0.002621252    0.016342399
      7        6          -0.002306532   -0.002309190   -0.005340903
      8        6           0.017162622    0.013172240    0.030636627
      9        6          -0.000492465   -0.000314348   -0.000032469
     10       16           0.007402964    0.018858964    0.037243847
     11        8          -0.007484167   -0.003925856   -0.012338587
     12        8           0.000960151   -0.010901561   -0.010301786
     13        7          -0.001489388   -0.005510383   -0.007484881
     14        1           0.000987337    0.002251655    0.000527371
     15        7           0.001506902   -0.001909945   -0.016539157
     16        6          -0.000816612    0.005285630    0.006001203
     17        7          -0.000388605   -0.006254830   -0.020874224
     18        1           0.003186832   -0.000465586    0.001507732
     19        8          -0.014993127   -0.007392392   -0.014097322
     20        1          -0.000488365    0.000610076    0.002312113
     21        1          -0.001970182   -0.000118140    0.003396122
     22        6           0.000975684   -0.001855736   -0.000923174
     23        1          -0.000062972   -0.001375945   -0.002140270
     24        1          -0.000499911    0.001437647    0.000135124
     25       17           0.000258399   -0.000091912   -0.000179794
     26       17          -0.000765340   -0.000320672   -0.000330025
 -------------------------------------------------------------------
 Cartesian Forces:  Max     0.037243847 RMS     0.008473925

 GradGradGradGradGradGradGradGradGradGradGradGradGradGradGradGradGradGrad
 Berny optimization.
 FormGI is forming the generalized inverse of G from B-inverse, IUseBI=4.
 Internal  Forces:  Max     0.021319571 RMS     0.004005338
 Search for a local minimum.
 Step number   1 out of a maximum of  149
 All quantities printed in internal units (Hartrees-Bohrs-Radians)
 Mixed Optimization -- RFO/linear search
 Second derivative matrix not updated -- first step.
 ITU=  0
     Eigenvalues ---    0.00230   0.00230   0.01349   0.01360   0.01544
     Eigenvalues ---    0.01649   0.01719   0.01836   0.01937   0.02030
     Eigenvalues ---    0.02116   0.02155   0.02195   0.02212   0.02216
     Eigenvalues ---    0.02327   0.03151   0.05029   0.05828   0.06144
     Eigenvalues ---    0.06561   0.07322   0.10130   0.11912   0.11951
     Eigenvalues ---    0.14414   0.15969   0.16000   0.16000   0.16000
     Eigenvalues ---    0.16000   0.17071   0.17182   0.21726   0.21830
     Eigenvalues ---    0.23108   0.23278   0.23983   0.24096   0.24793
     Eigenvalues ---    0.24943   0.24971   0.24998   0.25000   0.25000
     Eigenvalues ---    0.25118   0.27315   0.27342   0.27607   0.30935
     Eigenvalues ---    0.33158   0.34648   0.34759   0.35311   0.35396
     Eigenvalues ---    0.36418   0.37392   0.40399   0.42538   0.44043
     Eigenvalues ---    0.44193   0.44985   0.45006   0.45811   0.46630
     Eigenvalues ---    0.47150   0.47853   0.51596   0.59861   0.79201
     Eigenvalues ---    0.81989   0.88878
 RFO step:  Lambda=-7.90525531D-03 EMin= 2.30000000D-03
 Linear search not attempted -- first point.
 Iteration  1 RMS(Cart)=  0.04698571 RMS(Int)=  0.00155131
 Iteration  2 RMS(Cart)=  0.00164463 RMS(Int)=  0.00060186
 Iteration  3 RMS(Cart)=  0.00000160 RMS(Int)=  0.00060185
 Iteration  4 RMS(Cart)=  0.00000000 RMS(Int)=  0.00060185
 Variable       Old X    -DE/DX   Delta X   Delta X   Delta X     New X
                                 (Linear)    (Quad)   (Total)
    R1        2.65369  -0.00279   0.00000  -0.00589  -0.00589   2.64779
    R2        2.62215   0.00099   0.00000   0.00236   0.00235   2.62450
    R3        3.42609   0.00764   0.00000   0.02949   0.02949   3.45558
    R4        3.29836  -0.00126   0.00000  -0.00397  -0.00397   3.29439
    R5        2.61601   0.00467   0.00000   0.00941   0.00941   2.62542
    R6        2.05173   0.00059   0.00000   0.00164   0.00164   2.05337
    R7        2.64722  -0.00424   0.00000  -0.00950  -0.00949   2.63773
    R8        2.65595  -0.00123   0.00000  -0.00285  -0.00287   2.65309
    R9        2.61285   0.01425   0.00000   0.02848   0.02846   2.64131
   R10        2.79601   0.00184   0.00000   0.00580   0.00580   2.80181
   R11        2.63378   0.00426   0.00000   0.00909   0.00909   2.64287
   R12        2.57152   0.01638   0.00000   0.03090   0.03089   2.60241
   R13        2.33455  -0.02132   0.00000  -0.02378  -0.02378   2.31077
   R14        2.05036   0.00097   0.00000   0.00268   0.00268   2.05304
   R15        2.80560  -0.01093   0.00000  -0.01320  -0.01320   2.79240
   R16        2.82049  -0.01059   0.00000  -0.01324  -0.01324   2.80725
   R17        2.94750  -0.00040   0.00000  -0.00065  -0.00065   2.94685
   R18        1.93103  -0.00095   0.00000  -0.00213  -0.00213   1.92890
   R19        2.72797  -0.00366   0.00000  -0.00981  -0.00970   2.71827
   R20        1.91969  -0.00321   0.00000  -0.00701  -0.00701   1.91268
   R21        2.73671  -0.00365   0.00000  -0.00930  -0.00936   2.72736
   R22        2.93005   0.00056   0.00000   0.00199   0.00199   2.93204
   R23        2.06251   0.00194   0.00000   0.00546   0.00546   2.06797
   R24        1.91993  -0.00326   0.00000  -0.00712  -0.00712   1.91281
   R25        2.06068  -0.00012   0.00000  -0.00032  -0.00032   2.06036
   R26        3.37300   0.00031   0.00000   0.00112   0.00112   3.37412
   R27        3.37362   0.00089   0.00000   0.00315   0.00315   3.37677
    A1        2.05629  -0.00213   0.00000  -0.00768  -0.00769   2.04860
    A2        2.14869   0.00433   0.00000   0.01653   0.01653   2.16522
    A3        2.07818  -0.00221   0.00000  -0.00884  -0.00884   2.06935
    A4        2.11350   0.00149   0.00000   0.00596   0.00594   2.11944
    A5        2.13303   0.00064   0.00000   0.00221   0.00220   2.13523
    A6        2.03658  -0.00213   0.00000  -0.00806  -0.00807   2.02851
    A7        2.10584  -0.00170   0.00000  -0.00853  -0.00854   2.09730
    A8        2.08308   0.00111   0.00000   0.00342   0.00343   2.08651
    A9        2.09424   0.00059   0.00000   0.00513   0.00512   2.09936
   A10        2.08058  -0.00006   0.00000  -0.00049  -0.00051   2.08007
   A11        2.11964  -0.00073   0.00000  -0.00086  -0.00090   2.11874
   A12        2.08186   0.00081   0.00000   0.00193   0.00192   2.08379
   A13        2.08041  -0.00065   0.00000  -0.00261  -0.00258   2.07783
   A14        2.09796  -0.00087   0.00000  -0.00364  -0.00365   2.09431
   A15        2.10351   0.00153   0.00000   0.00663   0.00658   2.11009
   A16        2.00865  -0.00152   0.00000  -0.00500  -0.00527   2.00338
   A17        2.14915   0.00639   0.00000   0.02535   0.02502   2.17416
   A18        2.12397  -0.00481   0.00000  -0.01804  -0.01838   2.10559
   A19        2.11536   0.00131   0.00000   0.00616   0.00615   2.12150
   A20        2.08862  -0.00294   0.00000  -0.01665  -0.01666   2.07196
   A21        2.07919   0.00163   0.00000   0.01054   0.01053   2.08972
   A22        1.80457  -0.01085   0.00000  -0.05805  -0.05801   1.74656
   A23        1.80450  -0.00865   0.00000  -0.05291  -0.05326   1.75123
   A24        1.93428  -0.00712   0.00000  -0.04700  -0.04734   1.88694
   A25        1.98626   0.00812   0.00000   0.06321   0.05946   2.04572
   A26        1.90560   0.00836   0.00000   0.04484   0.04168   1.94729
   A27        2.01443   0.00637   0.00000   0.02890   0.02540   2.03983
   A28        1.89213  -0.00335   0.00000  -0.01993  -0.01993   1.87220
   A29        2.04180  -0.00005   0.00000  -0.00848  -0.00866   2.03314
   A30        2.01861   0.00046   0.00000  -0.00297  -0.00330   2.01531
   A31        2.00558  -0.00115   0.00000  -0.01283  -0.01308   1.99249
   A32        1.89063   0.00039   0.00000   0.00175   0.00164   1.89228
   A33        1.95460  -0.00058   0.00000  -0.00489  -0.00478   1.94982
   A34        1.90394   0.00043   0.00000   0.00578   0.00567   1.90961
   A35        1.92750   0.00017   0.00000   0.00049   0.00053   1.92803
   A36        1.89814   0.00035   0.00000   0.00756   0.00755   1.90568
   A37        1.88825  -0.00072   0.00000  -0.01019  -0.01019   1.87806
   A38        2.14017   0.00097   0.00000   0.00268   0.00272   2.14289
   A39        2.03355  -0.00235   0.00000  -0.01482  -0.01492   2.01863
   A40        2.05648   0.00130   0.00000   0.00733   0.00733   2.06381
   A41        1.95643  -0.00218   0.00000  -0.01388  -0.01389   1.94254
   A42        1.91768   0.00039   0.00000   0.00293   0.00293   1.92061
   A43        1.91752   0.00013   0.00000   0.00075   0.00073   1.91825
   A44        1.87489   0.00095   0.00000   0.00645   0.00645   1.88134
   A45        1.87604   0.00067   0.00000   0.00150   0.00147   1.87751
   A46        1.92041   0.00008   0.00000   0.00247   0.00246   1.92287
    D1        3.13581   0.00051   0.00000   0.01790   0.01791  -3.12947
    D2        0.00745   0.00021   0.00000   0.00710   0.00709   0.01454
    D3        0.00035   0.00048   0.00000   0.01657   0.01657   0.01693
    D4       -3.12801   0.00019   0.00000   0.00577   0.00575  -3.12225
    D5       -0.00719  -0.00027   0.00000  -0.00911  -0.00908  -0.01626
    D6        3.12781  -0.00008   0.00000  -0.00270  -0.00273   3.12508
    D7        3.12852  -0.00022   0.00000  -0.00774  -0.00772   3.12080
    D8       -0.01966  -0.00004   0.00000  -0.00133  -0.00138  -0.02104
    D9        3.12284   0.00038   0.00000   0.04632   0.04651  -3.11383
   D10       -1.08526   0.00147   0.00000   0.07136   0.07102  -1.01424
   D11        1.08307  -0.00015   0.00000   0.04747   0.04762   1.13070
   D12       -0.01254   0.00035   0.00000   0.04497   0.04516   0.03262
   D13        2.06254   0.00145   0.00000   0.07001   0.06966   2.13220
   D14       -2.05230  -0.00017   0.00000   0.04612   0.04626  -2.00604
   D15        3.13466  -0.00002   0.00000  -0.00050  -0.00057   3.13409
   D16        0.00144  -0.00009   0.00000  -0.00310  -0.00314  -0.00170
   D17        0.00575  -0.00033   0.00000  -0.01095  -0.01096  -0.00520
   D18       -3.12747  -0.00040   0.00000  -0.01355  -0.01353  -3.14100
   D19       -0.01056   0.00000   0.00000   0.00090   0.00088  -0.00967
   D20       -3.10136  -0.00037   0.00000  -0.01260  -0.01268  -3.11405
   D21        3.13935  -0.00005   0.00000  -0.00162  -0.00162   3.13772
   D22        0.04854  -0.00043   0.00000  -0.01511  -0.01519   0.03335
   D23       -3.07611  -0.00034   0.00000  -0.01101  -0.01097  -3.08708
   D24        0.01083  -0.00007   0.00000  -0.00297  -0.00290   0.00793
   D25        0.01581  -0.00002   0.00000   0.00211   0.00224   0.01805
   D26        3.10275   0.00025   0.00000   0.01015   0.01031   3.11305
   D27       -2.68801   0.00107   0.00000   0.03035   0.03044  -2.65758
   D28       -0.23993  -0.00041   0.00000  -0.00795  -0.00791  -0.24784
   D29        0.50440   0.00072   0.00000   0.01692   0.01691   0.52132
   D30        2.95248  -0.00076   0.00000  -0.02139  -0.02144   2.93105
   D31       -0.12595  -0.00044   0.00000  -0.02172  -0.02172  -0.14767
   D32        2.95917   0.00057   0.00000   0.02331   0.02390   2.98308
   D33        3.07047  -0.00064   0.00000  -0.02946  -0.02953   3.04094
   D34       -0.12759   0.00037   0.00000   0.01558   0.01609  -0.11150
   D35       -0.00182   0.00021   0.00000   0.00727   0.00722   0.00539
   D36       -3.13686   0.00004   0.00000   0.00099   0.00091  -3.13595
   D37        3.08438   0.00042   0.00000   0.01511   0.01514   3.09952
   D38       -0.05065   0.00025   0.00000   0.00884   0.00883  -0.04182
   D39       -0.29570   0.00104   0.00000   0.02359   0.02360  -0.27210
   D40       -3.08540   0.00106   0.00000   0.03773   0.03752  -3.04787
   D41        2.90146  -0.00035   0.00000  -0.02227  -0.02159   2.87987
   D42        0.11177  -0.00034   0.00000  -0.00813  -0.00767   0.10410
   D43       -1.35993  -0.00097   0.00000  -0.01963  -0.01981  -1.37974
   D44        2.94666   0.01119   0.00000   0.05021   0.05269   2.99935
   D45        0.68335  -0.01308   0.00000  -0.10295  -0.10525   0.57809
   D46       -0.84567  -0.00026   0.00000  -0.01676  -0.01673  -0.86240
   D47        1.28426  -0.00016   0.00000  -0.01810  -0.01801   1.26625
   D48       -2.90917  -0.00114   0.00000  -0.03006  -0.02999  -2.93916
   D49        2.98434   0.00058   0.00000   0.01742   0.01732   3.00167
   D50       -1.16891   0.00068   0.00000   0.01609   0.01604  -1.15287
   D51        0.92084  -0.00029   0.00000   0.00412   0.00407   0.92490
   D52        0.76278  -0.00006   0.00000  -0.00179  -0.00166   0.76112
   D53       -2.73506  -0.00077   0.00000  -0.02031  -0.02015  -2.75521
   D54       -1.38365   0.00030   0.00000   0.00282   0.00285  -1.38080
   D55        1.40169  -0.00041   0.00000  -0.01570  -0.01564   1.38605
   D56        2.82998   0.00087   0.00000   0.01035   0.01038   2.84036
   D57       -0.66786   0.00016   0.00000  -0.00817  -0.00811  -0.67597
   D58       -1.06723   0.00003   0.00000   0.00456   0.00456  -1.06266
   D59        3.13263  -0.00002   0.00000   0.00343   0.00345   3.13607
   D60        1.01744  -0.00045   0.00000  -0.00199  -0.00197   1.01547
   D61        1.04148   0.00025   0.00000   0.00382   0.00380   1.04528
   D62       -1.04185   0.00020   0.00000   0.00269   0.00269  -1.03917
   D63        3.12614  -0.00023   0.00000  -0.00273  -0.00273   3.12341
   D64        3.11705   0.00033   0.00000   0.00711   0.00709   3.12414
   D65        1.03371   0.00028   0.00000   0.00598   0.00598   1.03969
   D66       -1.08147  -0.00015   0.00000   0.00056   0.00056  -1.08091
         Item               Value     Threshold  Converged?
 Maximum Force            0.021320     0.000450     NO 
 RMS     Force            0.004005     0.000300     NO 
 Maximum Displacement     0.185887     0.001800     NO 
 RMS     Displacement     0.047109     0.001200     NO 
 Predicted change in Energy=-4.294211D-03
 GradGradGradGradGradGradGradGradGradGradGradGradGradGradGradGradGradGrad

                          Input orientation:                          
 ---------------------------------------------------------------------
 Center     Atomic      Atomic             Coordinates (Angstroms)
 Number     Number       Type             X           Y           Z
 ---------------------------------------------------------------------
      1          6           0       -1.564029    0.930941   -0.886943
      2          6           0       -2.680150    0.753086   -1.715115
      3         17           0       -4.301528    0.786693   -1.075454
      4          6           0       -2.564081    0.538357   -3.082817
      5          1           0       -3.453567    0.397806   -3.690890
      6          6           0       -1.297581    0.497606   -3.668176
      7          6           0       -0.164247    0.686806   -2.861430
      8          6           0        1.175300    0.712717   -3.496412
      9          6           0       -0.312149    0.903216   -1.487666
     10         16           0       -1.660796    1.187379    0.921014
     11          8           0       -0.226164    1.348496    1.236292
     12          8           0       -2.508634    2.406126    0.972408
     13          7           0       -2.247189   -0.106845    1.563563
     14          1           0       -3.257995   -0.083505    1.423502
     15          7           0       -1.137202    0.316615   -5.044819
     16          6           0        0.085851   -0.308825   -5.471549
     17          7           0        1.189817    0.362162   -4.828106
     18          1           0       -1.960163   -0.001500   -5.540777
     19          8           0        2.209004    1.025714   -2.923050
     20          1           0        0.567497    1.054369   -0.868243
     21          1           0        2.105848    0.293107   -5.253200
     22          6           0        0.102780   -1.823934   -5.137600
     23          1           0        0.186684   -0.207894   -6.556531
     24          1           0        0.023038   -1.993667   -4.063555
     25         17           0        1.633478   -2.556023   -5.693518
     26         17           0       -1.286411   -2.634216   -5.916470
 ---------------------------------------------------------------------
                    Distance matrix (angstroms):
                    1          2          3          4          5
     1  C    0.000000
     2  C    1.401152   0.000000
     3  Cl   2.747770   1.743319   0.000000
     4  C    2.444604   1.389313   2.666439   0.000000
     5  H    3.422967   2.151298   2.776829   1.086596   0.000000
     6  C    2.827372   2.406495   3.978627   1.395825   2.158413
     7  C    2.432610   2.765538   4.507414   2.414592   3.404577
     8  C    3.789575   4.247252   5.988502   3.766223   4.643640
     9  C    1.388827   2.383632   4.012311   2.783672   3.870160
    10  S    1.828614   2.859522   3.334650   4.155456   5.010699
    11  O    2.544083   3.884245   4.718938   4.977638   5.966327
    12  O    2.554532   3.159864   3.167139   4.465029   5.164552
    13  N    2.747487   3.417113   3.461665   4.701654   5.414729
    14  H    3.039207   3.299198   2.844466   4.601645   5.140712
    15  N    4.224632   3.695690   5.098018   2.436105   2.684262
    16  C    5.027697   4.784267   6.306734   3.666864   4.024618
    17  N    4.841482   4.981986   6.664645   4.143529   4.780748
    18  H    4.762830   3.965284   5.103171   2.587998   2.410764
    19  O    4.288414   5.043537   6.771836   4.800561   5.748788
    20  H    2.135179   3.369744   4.880777   3.870063   4.956548
    21  H    5.739254   5.969540   7.664962   5.155477   5.775713
    22  C    5.332512   5.108732   6.535621   4.112749   4.435843
    23  H    6.042034   5.708024   7.153702   4.493361   4.672279
    24  H    4.600324   4.512987   5.946513   3.750490   4.236131
    25  Cl   6.744341   6.736860   8.229493   5.831847   6.213988
    26  Cl   6.171188   5.573841   6.650488   4.441536   4.340844
                    6          7          8          9         10
     6  C    0.000000
     7  C    1.403952   0.000000
     8  C    2.488155   1.482653   0.000000
     9  C    2.426978   1.398548   2.506762   0.000000
    10  S    4.654930   4.098428   5.270901   2.775128   0.000000
    11  O    5.091734   4.151264   4.976625   2.761451   1.477677
    12  O    5.161794   4.811500   6.034017   3.624258   1.485535
    13  N    5.351468   4.954704   6.163478   3.751613   1.559405
    14  H    5.486903   5.340908   6.670355   4.257526   2.102067
    15  N    1.397721   2.418857   2.811072   3.698398   6.051739
    16  C    2.411715   2.804737   2.476209   4.183153   6.793692
    17  N    2.747897   2.409710   1.377138   3.702322   6.469881
    18  H    2.048110   3.298178   3.810599   4.467905   6.577066
    19  O    3.623569   2.398120   1.222807   2.903713   5.456951
    20  H    3.410004   2.154843   2.719086   1.086420   2.860843
    21  H    3.759980   3.320978   2.031821   4.516435   7.287541
    22  C    3.083791   3.399422   3.205994   4.575100   6.991782
    23  H    3.323156   3.818038   3.345028   5.213137   7.827749
    24  H    2.847245   2.943657   2.995642   3.890949   6.148193
    25  Cl   4.692309   4.665670   3.965080   5.782818   8.283558
    26  Cl   3.855290   4.649914   4.808186   5.751253   7.841934
                   11         12         13         14         15
    11  O    0.000000
    12  O    2.529404   0.000000
    13  N    2.511905   2.594772   0.000000
    14  H    3.358225   2.638804   1.020730   0.000000
    15  N    6.430172   6.515666   6.714320   6.818874   0.000000
    16  C    6.916588   7.458344   7.414625   7.666407   1.438447
    17  N    6.305139   7.176511   7.272305   7.685328   2.337532
    18  H    7.124458   6.965563   7.110916   7.084651   1.012145
    19  O    4.830564   6.271861   6.424177   7.071843   4.025149
    20  H    2.268363   3.831165   3.896737   4.602308   4.571003
    21  H    6.976075   8.032216   8.097972   8.572689   3.249822
    22  C    7.127342   7.876871   7.305911   7.574429   2.475503
    23  H    7.957442   8.413250   8.477610   8.692653   2.076790
    24  H    6.270608   7.150417   6.354407   6.672458   2.765219
    25  Cl   8.168585   9.285181   8.586225   8.982863   4.043454
    26  Cl   8.255187   8.622964   7.953715   8.016761   3.080494
                   16         17         18         19         20
    16  C    0.000000
    17  N    1.443254   0.000000
    18  H    2.070124   3.250004   0.000000
    19  O    3.575419   2.260152   5.028879   0.000000
    20  H    4.825008   4.067795   5.416318   2.630133   0.000000
    21  H    2.119053   1.012218   4.086800   2.444781   4.708916
    22  C    1.551568   2.460986   2.782005   4.178625   5.169913
    23  H    1.094322   2.078147   2.383969   4.337483   5.839088
    24  H    2.196607   2.737853   3.175531   3.898187   4.449380
    25  Cl   2.737576   3.075967   4.411708   4.564599   6.120010
    26  Cl   2.736512   4.036647   2.743406   5.879930   6.521290
                   21         22         23         24         25
    21  H    0.000000
    22  C    2.916763   0.000000
    23  H    2.373366   2.152206   0.000000
    24  H    3.314013   1.090294   3.070943   0.000000
    25  Cl   2.921396   1.785506   2.889933   2.359351   0.000000
    26  Cl   4.529521   1.786909   2.909763   2.357595   2.929431
                   26
    26  Cl   0.000000
 Stoichiometry    C9H7Cl3N3O3S(1-)
 Framework group  C1[X(C9H7Cl3N3O3S)]
 Deg. of freedom    72
 Full point group                 C1      NOp   1
 Largest Abelian subgroup         C1      NOp   1
 Largest concise Abelian subgroup C1      NOp   1
                         Standard orientation:                         
 ---------------------------------------------------------------------
 Center     Atomic      Atomic             Coordinates (Angstroms)
 Number     Number       Type             X           Y           Z
 ---------------------------------------------------------------------
      1          6           0        2.060656   -0.190789   -0.055621
      2          6           0        1.729381    1.124699   -0.406299
      3         17           0        2.900896    2.412475   -0.314952
      4          6           0        0.458760    1.480362   -0.841289
      5          1           0        0.238557    2.513069   -1.097645
      6          6           0       -0.533572    0.503680   -0.939776
      7          6           0       -0.222334   -0.824317   -0.607156
      8          6           0       -1.257937   -1.871287   -0.779326
      9          6           0        1.066269   -1.153054   -0.174292
     10         16           0        3.707653   -0.705459    0.549644
     11          8           0        3.481664   -2.156795    0.711135
     12          8           0        4.557432   -0.272911   -0.589475
     13          7           0        3.959611   -0.008298    1.921587
     14          1           0        4.241265    0.953062    1.725761
     15          7           0       -1.815423    0.812264   -1.403734
     16          6           0       -2.889089   -0.013521   -0.919531
     17          7           0       -2.512928   -1.396510   -1.089314
     18          1           0       -2.037676    1.798856   -1.444698
     19          8           0       -1.054282   -3.072484   -0.674888
     20          1           0        1.303911   -2.182961    0.076958
     21          1           0       -3.247691   -2.091723   -1.126576
     22          6           0       -3.214080    0.281591    0.568641
     23          1           0       -3.793517    0.187319   -1.501952
     24          1           0       -2.354018    0.083240    1.208713
     25         17           0       -4.556074   -0.759145    1.119961
     26         17           0       -3.648288    2.003590    0.766702
 ---------------------------------------------------------------------
 Rotational constants (GHZ):           0.4917919           0.1451840           0.1262443
 Basis read from rwf:  (6D, 7F)
 There are   391 symmetry adapted cartesian basis functions of A   symmetry.
 There are   391 symmetry adapted basis functions of A   symmetry.
   391 basis functions,   732 primitive gaussians,   391 cartesian basis functions
    87 alpha electrons       87 beta electrons
       nuclear repulsion energy      2031.6990983853 Hartrees.
 NAtoms=   26 NActive=   26 NUniq=   26 SFac= 1.00D+00 NAtFMM=   60 NAOKFM=F Big=F
 Integral buffers will be    131072 words long.
 Raffenetti 2 integral format.
 Two-electron integral symmetry is turned on.
 One-electron integrals computed using PRISM.
 NBasis=   391 RedAO= T EigKep=  1.41D-06  NBF=   391
 NBsUse=   389 1.00D-06 EigRej=  7.05D-07 NBFU=   389
 Initial guess from the checkpoint file:  "/jobfs/49789050.gadi-pbs/Gau-2642849.chk"
 B after Tr=     0.000000    0.000000   -0.000000
         Rot=    0.999999   -0.000699   -0.000351    0.001220 Ang=  -0.17 deg.
 ExpMin= 4.05D-02 ExpMax= 2.52D+04 ExpMxC= 3.78D+03 IAcc=3 IRadAn=         5 AccDes= 0.00D+00
 Harris functional with IExCor= 1009 and IRadAn=       5 diagonalized for initial guess.
 HarFok:  IExCor= 1009 AccDes= 0.00D+00 IRadAn=         5 IDoV= 1 UseB2=F ITyADJ=14
 ICtDFT=  3500011 ScaDFX=  1.000000  1.000000  1.000000  1.000000
 FoFCou: FMM=F IPFlag=           0 FMFlag=      100000 FMFlg1=           0
         NFxFlg=           0 DoJE=T BraDBF=F KetDBF=T FulRan=T
         wScrn=  0.000000 ICntrl=       500 IOpCl=  0 I1Cent=   200000004 NGrid=           0
         NMat0=    1 NMatS0=      1 NMatT0=    0 NMatD0=    1 NMtDS0=    0 NMtDT0=    0
 Petite list used in FoFCou.
 Requested convergence on RMS density matrix=1.00D-08 within 128 cycles.
 Requested convergence on MAX density matrix=1.00D-06.
 Requested convergence on             energy=1.00D-06.
 No special actions if energy rises.
 SCF Done:  E(RM062X) =  -2515.49937752     A.U. after   17 cycles
            NFock= 17  Conv=0.41D-08     -V/T= 2.0044
 Calling FoFJK, ICntrl=      2127 FMM=F ISym2X=0 I1Cent= 0 IOpClX= 0 NMat=1 NMatS=1 NMatT=0.
 ***** Axes restored to original set *****
 -------------------------------------------------------------------
 Center     Atomic                   Forces (Hartrees/Bohr)
 Number     Number              X              Y              Z
 -------------------------------------------------------------------
      1        6          -0.002354384   -0.001894006   -0.005843297
      2        6           0.002866330    0.001214890    0.001410693
      3       17          -0.000526413   -0.000441283    0.000426892
      4        6           0.001508116   -0.001092802   -0.003393277
      5        1          -0.000317497    0.000069492    0.000363230
      6        6          -0.002201430   -0.000308958    0.005752068
      7        6           0.000174108    0.001110082   -0.002178359
      8        6           0.005707580    0.000089673    0.012225981
      9        6           0.000907304   -0.001333092   -0.003289067
     10       16           0.001872593    0.004483548   -0.003076781
     11        8          -0.007305370   -0.000026861    0.005463630
     12        8           0.003152053   -0.004569082    0.004345052
     13        7           0.002534905    0.000625360    0.000610025
     14        1          -0.000526641    0.001952519    0.001291924
     15        7           0.001046351    0.002535458   -0.005413894
     16        6           0.000897805    0.002082362    0.002354104
     17        7          -0.002939808   -0.001136458   -0.009183501
     18        1          -0.000418749   -0.000953859    0.000918630
     19        8          -0.004126708   -0.000049521   -0.003481671
     20        1          -0.000535263    0.000227359   -0.000031734
     21        1           0.000521485   -0.000518011    0.001422983
     22        6           0.000929739   -0.001303147   -0.000227606
     23        1          -0.000227175   -0.000298988   -0.000518854
     24        1          -0.000128147    0.000001126    0.000110469
     25       17          -0.000513059   -0.000050948    0.000108404
     26       17           0.000002275   -0.000414853   -0.000166040
 -------------------------------------------------------------------
 Cartesian Forces:  Max     0.012225981 RMS     0.002927732

 GradGradGradGradGradGradGradGradGradGradGradGradGradGradGradGradGradGrad
 Berny optimization.
 Using GEDIIS/GDIIS optimizer.
 FormGI is forming the generalized inverse of G from B-inverse, IUseBI=4.
 Internal  Forces:  Max     0.008898083 RMS     0.001966763
 Search for a local minimum.
 Step number   2 out of a maximum of  149
 All quantities printed in internal units (Hartrees-Bohrs-Radians)
 Mixed Optimization -- RFO/linear search
 Update second derivatives using D2CorX and points    1    2
 DE= -3.40D-03 DEPred=-4.29D-03 R= 7.91D-01
[...]
 .00089723,-0.00495153,0.00217331,0.00042558,0.00164999,0.00000308,0.00
 097927,0.00139965,0.00010293,-0.00038637,0.00156866,0.00012859,0.00001
 979,-0.00026506,0.00000580,-0.00073345,-0.00376926,0.00560481,0.001806
 22,0.00132916,-0.00145108,-0.01296002,-0.05294382,0.00017965,-0.000539
 71,0.00032903,0.62741647,-0.00043039,-0.00050679,0.00065122,0.00039059
 ,0.00008860,-0.00004135,-0.00018759,0.00011606,0.00012540,-0.00004924,
 -0.00125779,0.00031771,-0.00002909,-0.00031990,0.00007545,0.00005723,0
 .00348436,-0.00019190,-0.01032312,0.01742536,-0.00170689,-0.13468183,-
 0.11558333,-0.07301511,0.00073869,-0.00076431,-0.00204108,-0.00062903,
 -0.00052092,-0.00064830,0.00055888,0.00030097,0.00015155,0.00003691,0.
 00033255,0.00018271,0.00014625,0.00017325,0.00019088,0.00001972,0.0000
 1091,-0.00004608,-0.00146394,-0.00018151,-0.00008466,0.00280357,0.0068
 6778,-0.00319107,-0.01952674,0.00965675,-0.02986879,-0.00012514,-0.000
 24190,0.00044879,0.16428729,0.08626095,-0.00026424,0.00043923,0.002026
 51,0.00058541,-0.00003534,-0.00020961,0.00017031,0.00003146,0.00016222
 ,0.00041005,0.00048621,0.00210371,0.00038545,-0.00000847,-0.00003187,0
 .00384907,-0.00080304,-0.00696713,-0.00026259,0.00108321,0.02170719,-0
 .23901029,-0.07425940,-0.22328133,0.00077101,-0.00039668,-0.00434392,-
 0.00203337,-0.00027732,-0.00032898,0.00134744,0.00005924,-0.00015462,0
 .00048857,-0.00009485,0.00011979,0.00047243,0.00032577,0.00003030,0.00
 004188,-0.00002274,-0.00002152,-0.00312739,-0.00063893,0.00328442,0.01
 344027,0.00188990,-0.00476814,-0.06789774,-0.03065331,-0.06123137,-0.0
 0046578,-0.00001043,0.00067928,0.29806461,0.10472257,0.26732689,-0.018
 36703,-0.00343087,-0.01267558,-0.00369607,-0.00052170,0.00165320,-0.00
 103743,-0.00007705,-0.00040148,-0.00018003,0.00030025,0.00125543,-0.00
 000230,0.00001232,-0.00006431,0.00064348,-0.00013159,0.00203572,0.0089
 0163,0.00056154,0.00206657,0.00027567,0.00047975,0.00077574,-0.2488644
 9,-0.03374376,-0.13540264,-0.00424845,-0.00051433,-0.00190615,0.002260
 27,-0.00025432,-0.00265505,0.00055135,-0.00033647,0.00024789,0.0005432
 7,0.00064921,-0.00017877,0.00003583,0.00001324,0.00005317,0.00050902,0
 .00007098,0.00048534,0.00034606,-0.00002087,-0.00012802,-0.00023745,-0
 .00019968,-0.00089163,0.00000122,0.00001977,0.00022707,-0.00116146,0.0
 0000966,0.00025578,0.26382746,0.00039369,0.00591821,0.00019110,-0.0005
 0785,0.00667647,-0.00131294,0.00032996,-0.00042439,0.00007002,0.000162
 56,-0.00103091,0.00027147,0.00000231,-0.00036138,0.00005791,-0.0000330
 1,0.00573482,-0.00173344,-0.00274073,0.00428294,-0.00291130,-0.0005019
 6,-0.00401426,0.00039585,-0.03458715,-0.04883792,-0.02499250,0.0007569
 5,-0.00254791,0.00088776,-0.00033959,-0.00091021,-0.00051242,0.0006833
 9,-0.00057842,-0.00113960,-0.00062180,-0.00027966,0.00077340,-0.000027
 78,-0.00015503,0.00014706,-0.00021410,0.00037194,0.00014789,0.00006509
 ,0.00002229,0.00006530,0.00001932,0.00001648,-0.00013000,0.00003106,-0
 .00001318,0.00001352,-0.00001809,-0.00015617,0.00040628,0.03718741,0.0
 3610522,0.00955480,0.00165524,0.01249306,0.00197756,-0.00119475,-0.001
 64884,0.00163704,0.00021438,0.00021119,0.00055069,0.00021548,-0.000091
 82,-0.00009235,0.00005697,-0.00001607,0.00234479,-0.00135344,-0.003700
 40,-0.02228934,-0.00421256,-0.01275192,-0.00272964,-0.00020419,-0.0019
 1066,-0.13684941,-0.02559609,-0.14957542,0.00637536,0.00118896,0.00215
 770,-0.00297053,-0.00044313,-0.00295413,-0.00119274,-0.00000890,-0.000
 35743,-0.00094452,-0.00014560,-0.00072711,-0.00021612,-0.00010328,0.00
 012144,-0.00113548,-0.00035870,-0.00054745,-0.00069184,0.00002003,-0.0
 0001312,0.00015686,0.00024915,0.00134845,0.00008188,0.00001161,-0.0004
 1129,0.00088860,0.00056772,0.00211246,0.14527788,0.02939423,0.15621067
 ,0.00030639,0.00005100,0.00011375,-0.00013296,-0.00000851,-0.00013605,
 0.00010660,-0.00000071,-0.00003956,-0.00007787,0.00007970,0.00009868,0
 .00004230,-0.00000992,-0.00002931,0.00041934,-0.00002250,-0.00063765,0
 .00160177,-0.00078357,-0.00087033,0.00352446,0.00153838,0.00289999,-0.
 00010119,0.00015614,0.00003795,-0.00000749,-0.00001148,0.00016274,-0.0
 0003136,-0.00001019,-0.00007140,0.00002195,-0.00003522,-0.00006422,0.0
 0001500,0.00002386,-0.00006553,-0.00000281,-0.00000148,0.00001632,-0.0
 0261003,-0.00250260,-0.00296800,-0.01342870,0.00745739,0.00964819,-0.3
 8907038,0.04139716,0.13859038,-0.00052265,0.00023219,0.00077982,-0.001
 41644,-0.00049288,-0.00150880,0.00002612,-0.00001360,0.00006684,0.4009
 0791,0.00007220,-0.00040782,-0.00009598,-0.00011036,0.00005906,0.00000
 270,0.00010864,0.00005544,-0.00002841,0.00005666,-0.00034601,0.0000667
 3,0.00002921,0.00001623,-0.00000883,-0.00031682,-0.00053318,-0.0002534
 3,-0.00092385,0.00360499,-0.00186385,0.00986865,0.00190430,0.00513686,
 0.00033791,0.00068181,0.00008431,-0.00001011,0.00008456,0.00022196,-0.
 00002186,-0.00005055,-0.00006981,0.00005873,-0.00013150,-0.00008576,0.
 00001470,-0.00001199,-0.00005501,-0.00000253,-0.00000108,0.00001348,0.
 00035557,-0.00048512,-0.00027062,-0.01444566,-0.00131992,0.00902297,0.
 05857187,-0.02708900,-0.05474798,-0.00009678,0.00030108,0.00000970,-0.
 00286284,-0.00458152,0.00071099,-0.00002266,0.00015633,0.00000755,-0.0
 4836937,0.02991025,0.00007781,0.00010316,-0.00061448,-0.00009758,-0.00
 003680,-0.00026482,-0.00003394,-0.00002128,0.00004260,-0.00023977,0.00
 024269,0.00048805,0.00008009,-0.00002944,0.00001299,-0.00026062,0.0000
 2260,-0.00156841,-0.00271322,-0.00286776,-0.00557852,0.04144206,-0.005
 06305,-0.01222215,0.00172595,0.00002151,0.00016188,0.00017722,-0.00002
 369,0.00013854,-0.00006818,0.00001281,-0.00001270,-0.00000950,-0.00001
 251,-0.00002826,-0.00001842,0.00004434,-0.00003155,-0.00000295,0.00000
 014,-0.00000724,-0.00569330,-0.00257466,-0.00157813,-0.01417455,0.0070
 8235,0.00986011,0.13089604,-0.04361093,-0.11270567,-0.00129763,0.00020
 587,0.00082844,-0.00357567,0.00352666,0.00458992,0.00001330,-0.0000602
 6,0.00000639,-0.14607745,0.04318777,0.11897732,0.00002995,0.00011774,0
 .00009566,0.00017181,-0.00026731,-0.00001606,-0.00015538,-0.00003305,0
 .00000949,-0.00037744,-0.00025477,0.00070941,-0.00024598,0.00035368,-0
 .00010605,0.00026491,0.00184217,-0.00360834,0.00023928,-0.00028169,0.0
 0006424,0.00094340,-0.00126843,0.00401010,-0.00037293,-0.00001371,0.00
 008684,0.00035266,0.00013248,0.00011764,-0.00026052,-0.00003166,-0.000
 09584,-0.00012140,-0.00003965,-0.00003835,-0.00014263,-0.00014100,-0.0
 0006816,-0.00000889,0.00004476,0.00005653,-0.01441614,0.02957347,0.000
 59538,-0.05007964,-0.00052041,0.00469779,-0.01119326,-0.02581837,-0.00
 437152,-0.00128167,0.00359812,0.00011296,-0.00246367,0.00050949,-0.001
 81576,0.00003741,-0.00004224,0.00000089,-0.00074409,-0.00418458,-0.000
 31219,0.29584722,0.00078441,0.00001534,0.00020835,-0.00026115,-0.00035
 325,-0.00120690,-0.00039760,-0.00003455,0.00020578,-0.00092590,0.00049
 766,0.00157225,-0.00004830,0.00011164,-0.00001255,0.00050739,-0.000819
 08,-0.00293447,0.00093337,-0.00108281,-0.00075982,-0.00010517,-0.00081
 452,-0.00237870,-0.00030797,0.00016302,0.00057721,0.00024627,-0.000004
 51,-0.00065480,-0.00002035,0.00001876,0.00024850,-0.00012936,0.0001393
 2,0.00017970,-0.00013077,-0.00016484,0.00022716,0.00000763,0.00001558,
 -0.00003016,0.01750832,-0.02155946,-0.00011975,-0.00171226,-0.13352886
 ,0.03862712,-0.01714544,-0.02243319,-0.00384523,0.00015277,0.00027766,
 -0.00001881,0.00154538,0.00064794,0.00182979,-0.00002706,0.00002157,-0
 .00006334,-0.00039151,0.00003888,0.00051058,-0.00004322,0.35302829,-0.
 00095316,-0.00016412,0.00004022,0.00078333,0.00046235,0.00064628,-0.00
 039609,-0.00000233,0.00010286,0.00076266,-0.00014591,-0.00045110,-0.00
 009511,-0.00007899,0.00001214,-0.00010278,-0.00278166,0.00243424,-0.00
 039034,0.00133170,0.00081514,-0.00101041,-0.00393307,0.00240545,0.0004
 2901,0.00027320,-0.00119429,0.00011091,-0.00024098,-0.00089279,0.00011
 080,0.00008008,0.00028628,-0.00017368,0.00025462,0.00026927,-0.0001319
 1,-0.00010580,0.00037521,0.00001782,0.00002294,-0.00003499,0.00116387,
 -0.01097156,0.00498798,0.00580179,0.03236114,-0.09899380,-0.00431236,-
 0.01718072,0.00319604,-0.00067515,0.00097079,0.00029626,-0.00022146,0.
 00068615,-0.00095500,-0.00003967,-0.00006801,-0.00004053,-0.00019347,0
 .00009864,0.00003854,-0.02238352,-0.04470934,0.55275986,0.00028268,-0.
 00002827,0.00004436,-0.00040533,0.00000068,-0.00028510,-0.00013118,0.0
 0000338,0.00016682,0.00040016,0.00032299,0.00175784,-0.00000063,-0.000
 03492,-0.00004635,-0.00564159,0.00002157,-0.00109458,0.00036926,-0.000
 16941,-0.00051020,-0.00461459,0.00168575,0.00297592,0.00011466,0.00008
 478,0.00030601,-0.00002437,-0.00001299,-0.00017939,0.00007647,0.000013
 84,0.00005975,-0.00000804,0.00003466,0.00005039,-0.00000645,-0.0000189
 2,0.00004979,0.00000343,0.00000356,-0.00000888,-0.00491064,0.00501746,
 0.03480918,-0.05343394,-0.00252724,0.02343120,0.00135273,-0.00484497,-
 0.03352590,0.00048709,-0.00029492,-0.00009984,-0.00075328,-0.00129300,
 -0.00243035,-0.00005138,-0.00000829,0.00007871,0.00071626,0.00007507,0
 .00007265,0.00237136,0.00034443,0.00027280,0.06285247,0.00003987,0.000
 01731,-0.00010253,0.00008203,-0.00004115,0.00007787,0.00018587,-0.0000
 1586,-0.00012362,-0.00010897,-0.00007081,-0.00101140,0.00002931,0.0000
 1599,0.00002098,0.00347486,0.00074487,0.00014662,-0.00002751,-0.000018
 88,0.00003938,-0.00256510,0.00126396,0.00180333,0.00001315,-0.00004889
 ,-0.00000294,-0.00004295,0.00000150,0.00034642,-0.00004130,-0.00000588
 ,-0.00010932,0.00004370,-0.00006149,-0.00009683,0.00004717,0.00008597,
 -0.00011529,-0.00000548,-0.00000597,0.00001254,0.00449867,-0.00202988,
 -0.01988054,-0.00294741,-0.04928557,0.02637842,-0.00060418,-0.00193516
 ,-0.02258926,-0.00018498,0.00041127,0.00040132,-0.00081018,-0.00085858
 ,-0.00161302,-0.00000867,0.00000288,0.00001773,0.00017350,0.00043863,0
 .00050389,-0.00302360,-0.01031937,0.03631029,0.00164494,0.06435807,0.0
 0001987,-0.00001202,-0.00004806,0.00000681,0.00000929,0.00010766,0.000
 14875,-0.00000127,-0.00008172,-0.00010035,-0.00006340,-0.00050651,0.00
 002341,-0.00000840,-0.00000046,0.00172221,0.00053815,0.00171299,-0.000
 01580,0.00027881,0.00043101,-0.00185056,0.00161680,0.00315416,0.000005
 84,0.00005718,0.00000982,-0.00005450,0.00001603,0.00029818,-0.00002735
 ,-0.00001490,-0.00010270,0.00005145,-0.00006822,-0.00009089,0.00004066
 ,0.00005901,-0.00010209,-0.00000469,-0.00000507,0.00001397,0.00505160,
 -0.00322067,-0.00627717,0.02355114,0.02246819,-0.31304848,-0.00335627,
 -0.00425237,-0.01378086,0.00036669,-0.00031179,-0.00012214,-0.00067813
 ,-0.00063783,-0.00132538,-0.00000444,-0.00000111,0.00002909,-0.0001818
 4,-0.00049544,0.00021148,0.00127428,0.00259800,-0.01131323,-0.02576494
 ,-0.01988433,0.33783187,-0.00019479,-0.00002603,-0.00003230,-0.0000273
 4,0.00002728,0.00020970,0.00000681,0.00000537,-0.00000810,-0.00017386,
 -0.00018457,0.00000573,-0.00001101,0.00001994,-0.00002345,0.00009594,0
 .00054489,0.00002294,-0.00006467,0.00018431,0.00031096,0.00070753,-0.0
 0072881,-0.00029481,0.00012290,0.00001627,-0.00023022,0.00005013,0.000
 05028,0.00012339,-0.00006725,-0.00000328,-0.00004035,0.00001251,-0.000
 03659,-0.00003825,-0.00000979,-0.00001878,-0.00005066,-0.00000552,0.00
 000405,0.00000572,0.00061704,-0.00095972,-0.00034241,0.00214590,-0.000
 30064,-0.00024358,0.00035392,0.00091278,0.00075252,0.00000538,-0.00009
 850,-0.00019543,-0.00034269,0.00014843,-0.00004982,0.00001273,-0.00002
 458,-0.00002356,-0.00002880,0.00009733,0.00017674,-0.03985143,-0.00335
 423,0.02534281,0.00019205,0.00010953,-0.00009478,0.06042493,-0.0000884
 4,-0.00001285,-0.00006206,0.00014351,-0.00002653,0.00000124,-0.0001398
 2,-0.00002039,0.00004564,0.00010970,0.00001100,-0.00032191,-0.00004126
 ,0.00000664,0.00001096,0.00113313,-0.00048879,0.00046060,-0.00008012,-
 0.00071449,-0.00059679,-0.00105242,-0.00050367,0.00086356,0.00011687,0
 .00001635,-0.00021652,0.00003939,0.00007855,-0.00026987,0.00002747,-0.
 00001309,0.00009699,-0.00002106,0.00001006,0.00008199,-0.00003623,-0.0
 0010553,0.00007751,0.00000402,0.00000722,-0.00000942,-0.00041340,0.002
 15412,-0.00237273,-0.00340716,-0.00180913,0.03294837,0.00121537,0.0025
 0767,-0.00211235,0.00005054,-0.00021291,0.00003082,0.00000301,-0.00009
 429,-0.00049380,-0.00002034,0.00000815,-0.00000317,0.00004912,-0.00011
 979,-0.00001591,-0.00377062,-0.05380107,0.04648398,0.00007830,-0.00570
 314,0.00113926,0.00408954,0.06030411,0.00039027,0.00008169,-0.00010086
 ,-0.00015297,-0.00007510,-0.00036361,0.00002401,-0.00000739,-0.0000081
 1,-0.00033047,0.00010686,0.00029420,-0.00001423,0.00003505,-0.00000147
 ,0.00028639,-0.00048266,0.00025002,0.00017605,-0.00111956,-0.00053559,
 0.00027443,0.00046463,0.00039235,-0.00021444,-0.00000919,0.00035368,0.
 00003947,-0.00006532,0.00014254,-0.00004208,0.00002436,-0.00002914,-0.
 00000824,0.00001622,-0.00004341,0.00000836,0.00006793,-0.00003490,-0.0
 0000415,-0.00000171,-0.00000199,-0.00009108,0.00026360,-0.00018918,0.0
 0006010,0.00081581,-0.00500832,0.00033820,0.00023489,0.00086202,0.0000
 3226,0.00008077,-0.00007380,-0.00008061,-0.00000039,-0.00011762,-0.000
 01105,-0.00000311,-0.00000677,0.00003246,0.00009142,-0.00002816,0.0251
 7267,0.04531953,-0.33860528,-0.00000047,0.00043836,0.00083412,-0.02441
 397,-0.04436297,0.34954862,0.00058626,0.00004380,0.00034359,0.00008604
 ,-0.00012598,-0.00070293,-0.00012616,-0.00000202,0.00010407,-0.0005308
 3,0.00018271,0.00081378,0.00014045,-0.00005701,0.00000538,0.00071838,-
 0.00040933,-0.00401741,0.00070440,-0.00018005,-0.00025717,-0.00181372,
 0.00016180,0.00128212,-0.00017064,0.00017421,0.00044540,-0.00013002,-0
 .00013164,-0.00094387,0.00030795,0.00004160,0.00030772,-0.00006833,0.0
 0017635,0.00026988,-0.00003544,-0.00010262,0.00033688,0.00002348,0.000
 00089,-0.00004796,-0.00037716,0.00546291,0.00075707,-0.01605659,0.0045
 4343,0.00899770,0.00206964,-0.00179418,-0.00140589,0.00036616,-0.00073
 878,0.00015529,0.00115223,-0.00015170,0.00003640,-0.00007262,0.0000202
 3,0.00004249,0.00029312,0.00128723,0.00007071,-0.09771178,0.04426405,0
 .03883240,0.00053642,-0.00109403,-0.00093125,-0.01465187,0.01063634,0.
 00299355,0.16594271,-0.00054184,-0.00009362,-0.00036068,-0.00011583,0.
 00021349,0.00079412,0.00028949,0.00001700,-0.00014773,0.00071439,-0.00
 010938,-0.00121910,-0.00004568,-0.00006752,0.00002363,-0.00073681,0.00
 020362,0.00466538,-0.00057000,0.00056314,-0.00005828,0.00190149,-0.000
 00711,0.00149345,0.00032513,-0.00013509,-0.00043180,-0.00005406,0.0000
 2679,0.00099697,-0.00018578,-0.00001788,-0.00031504,0.00011873,-0.0001
 6162,-0.00028144,0.00011406,0.00021146,-0.00034033,-0.00002045,-0.0000
 1642,0.00003214,0.00236349,-0.00794698,-0.00104159,0.02669664,-0.01035
 228,-0.01380770,0.00133554,-0.00386458,-0.00110062,-0.00033633,-0.0000
 2400,-0.00033574,-0.00130182,-0.00000232,-0.00051452,0.00003764,-0.000
 01442,0.00000239,0.00122662,-0.00170354,-0.00082054,0.03362109,-0.0538
 9998,-0.01637145,-0.00025265,0.00149755,0.00006611,0.00469310,-0.00036
 546,-0.00040578,-0.06454644,0.07025391,-0.00000933,0.00000310,-0.00004
 082,-0.00015133,-0.00000132,0.00013940,0.00013670,-0.00000240,-0.00004
 882,0.00001652,0.00002725,-0.00007947,-0.00000048,0.00001595,-0.000008
 42,-0.00042983,0.00024365,0.00079221,-0.00001337,-0.00005353,0.0000301
 9,0.00053034,0.00037832,0.00013259,-0.00002602,-0.00007673,0.00008635,
 -0.00002136,0.00009646,0.00037427,-0.00007250,-0.00003371,-0.00012977,
 0.00006370,-0.00010889,-0.00011006,0.00003421,0.00002813,-0.00015219,-
 0.00000751,-0.00000377,0.00002454,0.00045707,-0.00023057,0.00074619,-0
 .00108307,0.00094114,0.00102172,0.00055637,-0.00185207,0.00055504,-0.0
 0004607,-0.00006137,-0.00015082,-0.00042488,0.00002681,0.00000771,0.00
 001763,0.00001455,0.00001213,0.00024811,-0.00062577,-0.00056319,0.0265
 2564,-0.01385974,-0.05226220,-0.00060141,-0.00056426,0.00093533,0.0252
 2527,-0.01433173,-0.00134195,-0.04515088,0.02680582,0.04369083,0.00053
 386,0.00010744,0.00007517,-0.00027145,-0.00006251,-0.00029493,0.000296
 16,0.00001503,-0.00007148,-0.00020243,0.00010711,-0.00004178,0.0001776
 6,-0.00015746,-0.00000918,-0.00003348,-0.00004958,-0.00122988,0.000766
 89,-0.00013314,-0.00042339,-0.00139650,0.00077759,0.00481994,-0.000051
 44,0.00000470,0.00057887,-0.00030002,-0.00010981,0.00013323,0.00018388
 ,0.00001675,-0.00003828,0.00010923,-0.00001029,-0.00004165,0.00011855,
 0.00014055,-0.00005081,0.00000421,-0.00002696,-0.00000665,0.00130877,0
 .00192101,0.00136922,-0.01295334,-0.00402051,-0.01058666,0.00064069,-0
 .00547912,-0.00162689,0.00078292,-0.00054802,0.00020967,-0.00013296,-0
 .00032303,-0.00145255,-0.00005281,0.00002880,0.00010116,0.00019356,0.0
 0043364,-0.00015760,-0.08083114,-0.04129372,-0.04254909,0.00022639,0.0
 0112178,0.00080219,-0.00931876,-0.00862544,-0.00446448,-0.04118210,-0.
 00472973,-0.00577353,0.14138363,0.00035531,0.00002983,-0.00009134,-0.0
 0033222,0.00002780,-0.00000949,0.00036912,0.00002315,-0.00012554,0.000
 29283,0.00023877,-0.00023231,0.00007886,-0.00012445,0.00007785,-0.0009
 4586,-0.00025764,0.00147574,0.00021348,0.00025927,-0.00075888,-0.00047
 684,0.00041630,0.00604089,-0.00008365,0.00003885,0.00037451,-0.0002253
 7,-0.00011029,0.00065022,0.00003134,0.00000702,-0.00021436,0.00012664,
 -0.00008130,-0.00019725,0.00013928,0.00022600,-0.00021536,-0.00000999,
 -0.00002626,0.00001666,-0.00087516,-0.00393815,-0.00136335,-0.02301673
 ,-0.01131664,-0.01807325,-0.00134048,-0.00819842,-0.00243136,-0.001368
 10,-0.00282612,-0.00116550,-0.00132983,-0.00029613,-0.00216277,-0.0000
 3241,0.00000658,0.00008570,0.00026848,-0.00047056,-0.00032752,-0.03005
 864,-0.05616017,-0.02258195,0.00015417,0.00156264,0.00013002,-0.005167
 34,-0.00111275,-0.00150794,0.00233822,0.00579523,0.00322467,0.06089491
 ,0.07628745,0.00034314,0.00004433,0.00002381,-0.00025970,-0.00004259,-
 0.00013414,0.00022004,0.00001701,-0.00005899,-0.00010624,0.00014065,0.
 00006328,0.00006199,0.00001328,0.00002803,-0.00011834,0.00025443,-0.00
 008965,0.00016337,-0.00024639,-0.00025398,0.00018510,0.00098230,0.0016
 2447,-0.00012195,-0.00003433,0.00042057,-0.00013532,0.00005934,0.00031
 295,0.00002752,-0.00003180,-0.00010852,0.00008594,-0.00010028,-0.00009
 378,0.00007446,0.00005889,-0.00013144,-0.00000415,-0.00001056,0.000017
 88,-0.00030657,-0.00164562,0.00081274,-0.00146790,-0.00017548,-0.00069
 171,-0.00048499,-0.00131972,0.00079914,-0.00006815,-0.00080593,-0.0006
 7045,-0.00028718,-0.00020014,-0.00041390,-0.00000593,0.00002839,0.0000
 5040,0.00014840,-0.00005417,-0.00015300,-0.03071372,-0.02151035,-0.063
 92254,0.00047199,-0.00040380,0.00123001,-0.02609411,-0.01707168,-0.006
 18735,-0.00233708,0.00267232,0.00633922,0.06072937,0.03938191,0.061186
 96\\0.00006256,0.00000541,0.00006563,-0.00006283,-0.00000229,0.0000029
 3,0.00001749,-0.00000053,-0.00001685,0.00001728,0.00000150,-0.00000906
 ,-0.00000667,0.00000026,0.00000508,0.00002635,0.00001711,0.00011190,-0
 .00004813,-0.00000245,-0.00000887,0.00006651,-0.00003884,-0.00006259,-
 0.00003162,-0.00000117,-0.00003987,0.00000976,-0.00003774,-0.00001856,
 0.00000358,-0.00000747,0.00000067,-0.00003555,0.00003447,-0.00000028,0
 .00001530,-0.00000963,-0.00001375,0.00000635,0.00001452,0.00001225,-0.
 00000472,-0.00001398,-0.00009688,-0.00005294,-0.00004833,-0.00000059,0
 .00002985,-0.00000520,0.00007845,0.00000807,-0.00000353,0.00000664,-0.
 00002143,0.00001997,-0.00000381,0.00000166,-0.00000003,0.00000988,-0.0
 0001117,0.00002052,-0.00000987,-0.00001117,0.00005857,0.00000029,0.000
 00482,0.00001238,-0.00000434,0.00000187,0.00000357,0.00000165,0.000014
 62,-0.00001891,-0.00001228,0.00000017,0.00000182,0.00000224\\\@
 The archive entry for this job was punched.


 NEVER LISTEN TO CRITICISM
 OR YOU'LL BE DOIN' EVERYBODY ELSE'S THING BUT BUT YOUR OWN.

                                               -- ANDY CAPP
 Job cpu time:       0 days  3 hours  0 minutes 23.7 seconds.
 Elapsed time:       0 days  0 hours 11 minutes 29.0 seconds.
 File lengths (MBytes):  RWF=    484 Int=      0 D2E=      0 Chk=     14 Scr=      1
 Normal termination of Gaussian 16 at Fri Jul  1 09:31:16 2022.
