 Entering Gaussian System, Link 0=g16
 AtFile(1): /home/561/yj5695/Basis/6-31pGd.gbs
 Initial command:
 /apps/gaussian/g16c01/g16/l1.exe "/jobfs/49976750.gadi-pbs/Gau-1851105.inp" -scrdir="/jobfs/49976750.gadi-pbs/"
 Entering Link 1 = /apps/gaussian/g16c01/g16/l1.exe PID=   1851145.
  
 Copyright (c) 1988-2019, Gaussian, Inc.  All Rights Reserved.
  
 This is part of the Gaussian(R) 16 program.  It is based on
 the Gaussian(R) 09 system (copyright 2009, Gaussian, Inc.),
 the Gaussian(R) 03 system (copyright 2003, Gaussian, Inc.),
 the Gaussian(R) 98 system (copyright 1998, Gaussian, Inc.),
 the Gaussian(R) 94 system (copyright 1995, Gaussian, Inc.),
 the Gaussian 92(TM) system (copyright 1992, Gaussian, Inc.),
 the Gaussian 90(TM) system (copyright 1990, Gaussian, Inc.),
 the Gaussian 88(TM) system (copyright 1988, Gaussian, Inc.),
 the Gaussian 86(TM) system (copyright 1986, Carnegie Mellon
 University), and the Gaussian 82(TM) system (copyright 1983,
 Carnegie Mellon University). Gaussian is a federally registered
 trademark of Gaussian, Inc.
  
 This software contains proprietary and confidential information,
 including trade secrets, belonging to Gaussian, Inc.
  
 This software is provided under written license and may be
 used, copied, transmitted, or stored only in accord with that
 written license.
  
 The following legend is applicable only to US Government
 contracts under FAR:
  
                    RESTRICTED RIGHTS LEGEND
  
 Use, reproduction and disclosure by the US Government is
 subject to restrictions as set forth in subparagraphs (a)
 and (c) of the Commercial Computer Software - Restricted
 Rights clause in FAR 52.227-19.
  
 Gaussian, Inc.
 340 Quinnipiac St., Bldg. 40, Wallingford CT 06492
  
  
 ---------------------------------------------------------------
 Warning -- This program may not be used in any manner that
 competes with the business of Gaussian, Inc. or will provide
 assistance to any competitor of Gaussian, Inc.  The licensee
 of this program is prohibited from giving any competitor of
 Gaussian, Inc. access to this program.  By using this program,
 the user acknowledges that Gaussian, Inc. is engaged in the
 business of creating and licensing software in the field of
 computational chemistry and represents and warrants to the
 licensee that it is not a competitor of Gaussian, Inc. and that
 it will not use this program in any manner prohibited above.
 ---------------------------------------------------------------
  

 Cite this work as:
 Gaussian 16, Revision C.01,
 M. J. Frisch, G. W. Trucks, H. B. Schlegel, G. E. Scuseria, 
 M. A. Robb, J. R. Cheeseman, G. Scalmani, V. Barone, 
 G. A. Petersson, H. Nakatsuji, X. Li, M. Caricato, A. V. Marenich, 
 J. Bloino, B. G. Janesko, R. Gomperts, B. Mennucci, H. P. Hratchian, 
 J. V. Ortiz, A. F. Izmaylov, J. L. Sonnenberg, D. Williams-Young, 
 F. Ding, F. Lipparini, F. Egidi, J. Goings, B. Peng, A. Petrone, 
 T. Henderson, D. Ranasinghe, V. G. Zakrzewski, J. Gao, N. Rega, 
 G. Zheng, W. Liang, M. Hada, M. Ehara, K. Toyota, R. Fukuda, 
 J. Hasegawa, M. Ishida, T. Nakajima, Y. Honda, O. Kitao, H. Nakai, 
 T. Vreven, K. Throssell, J. A. Montgomery, Jr., J. E. Peralta, 
 F. Ogliaro, M. J. Bearpark, J. J. Heyd, E. N. Brothers, K. N. Kudin, 
 V. N. Staroverov, T. A. Keith, R. Kobayashi, J. Normand, 
 K. Raghavachari, A. P. Rendell, J. C. Burant, S. S. Iyengar, 
 J. Tomasi, M. Cossi, J. M. Millam, M. Klene, C. Adamo, R. Cammi, 
 J. W. Ochterski, R. L. Martin, K. Morokuma, O. Farkas, 
 J. B. Foresman, and D. J. Fox, Gaussian, Inc., Wallingford CT, 2019.
 
 ******************************************
 Gaussian 16:  ES64L-G16RevC.01  3-Jul-2019
                 1-Jul-2022 
 ******************************************
 %nproc=16
 Will use up to   16 processors via shared memory.
 %mem=50gb
 --------------------------------------------------
 #M062X/gen 6D INT(grid=ultrafine) OPT Freq=noraman
 --------------------------------------------------
 1/18=20,19=15,26=4,38=1/1,3;
 2/9=110,12=2,17=6,18=5,40=1/2;
 3/5=7,8=2,11=2,25=1,30=1,71=1,74=-55,75=-5/1,2,3;
 4//1;
 5/5=2,38=5/2;
 6/7=2,8=2,9=2,10=2,28=1/1;
 7//1,2,3,16;
 1/18=20,19=15,26=4/3(2);
 2/9=110/2;
 99//99;
 2/9=110/2;
 3/5=7,6=1,8=2,11=2,25=1,30=1,71=1,74=-55,75=-5,82=7/1,2,3;
 4/5=5,16=3,69=1/1;
 5/5=2,38=5/2;
 7//1,2,3,16;
 1/18=20,19=15,26=4/3(-5);
 2/9=110/2;
 6/7=2,8=2,9=2,10=2,19=2,28=1/1;
 99/9=1/99;
 ---------
 A.35.freq
 ---------
 Symbolic Z-matrix:
 Charge = -1 Multiplicity = 1
 C                    -1.37599   0.72297  -0.75988 
 C                    -2.45327   0.57883  -1.65153 
 Cl                   -4.09993   0.60568  -1.07755 
 C                    -2.26915   0.40163  -3.00825 
 H                    -3.12225   0.29853  -3.67212 
 C                    -0.97008   0.34977  -3.54767 
 C                     0.10073   0.48479  -2.65206 
 S                     1.76276   0.40817  -3.22466 
 C                    -0.09569   0.67269  -1.28474 
 H                     0.75549   0.78877  -0.61978 
 S                    -1.58072   0.95949   1.02667 
 O                    -0.18105   1.04268   1.5155 
 O                    -2.33178   2.24504   1.12054 
 N                    -2.28084  -0.27421   1.67203 
 H                    -3.28306  -0.2128    1.48121 
 N                    -0.78078   0.22958  -4.89919 
 C                     0.50092  -0.20222  -5.4188 
 N                     1.54457   0.70419  -4.86958 
 O                     2.53893   1.51799  -2.66617 
 O                     2.31404  -0.93559  -2.99189 
 H                    -1.58686  -0.09544  -5.42788 
 C                     2.85316   0.60635  -5.55808 
 C                     0.49518  -0.12736  -6.94261 
 S                    -0.88301  -1.0304   -7.72245 
 C                    -0.65863  -2.72766  -7.1246 
 C                     0.53931  -3.43779  -7.70178 
 H                     0.72959  -1.23524  -5.10832 
 H                     2.77775   1.12407  -6.51347 
 H                     3.15543  -0.43485  -5.71647 
 H                     3.60661   1.11898  -4.95836 
 H                     1.43765  -0.49393  -7.34529 
 H                     0.35785   0.91076  -7.26296 
 H                    -1.54979  -3.27763  -7.43963 
 H                    -0.59612  -2.77926  -6.03441 
 F                     0.53086  -3.47606  -9.04541 
 F                     0.58755  -4.71499  -7.27562 
 F                     1.70506  -2.86556  -7.33814 
 

 GradGradGradGradGradGradGradGradGradGradGradGradGradGradGradGradGradGrad
 Berny optimization.
 Initialization pass.
                           ----------------------------
                           !    Initial Parameters    !
                           ! (Angstroms and Degrees)  !
 --------------------------                            --------------------------
 ! Name  Definition              Value          Derivative Info.                !
 --------------------------------------------------------------------------------
 ! R1    R(1,2)                  1.4058         estimate D2E/DX2                !
 ! R2    R(1,9)                  1.3846         estimate D2E/DX2                !
 ! R3    R(1,11)                 1.8137         estimate D2E/DX2                !
 ! R4    R(2,3)                  1.744          estimate D2E/DX2                !
 ! R5    R(2,4)                  1.3806         estimate D2E/DX2                !
 ! R6    R(4,5)                  1.0859         estimate D2E/DX2                !
 ! R7    R(4,6)                  1.4076         estimate D2E/DX2                !
 ! R8    R(6,7)                  1.4025         estimate D2E/DX2                !
 ! R9    R(6,16)                 1.37           estimate D2E/DX2                !
 ! R10   R(7,8)                  1.7596         estimate D2E/DX2                !
 ! R11   R(7,9)                  1.3941         estimate D2E/DX2                !
 ! R12   R(8,18)                 1.6855         estimate D2E/DX2                !
 ! R13   R(8,19)                 1.4649         estimate D2E/DX2                !
 ! R14   R(8,20)                 1.471          estimate D2E/DX2                !
 ! R15   R(9,10)                 1.0863         estimate D2E/DX2                !
 ! R16   R(11,12)                1.4849         estimate D2E/DX2                !
 ! R17   R(11,13)                1.4918         estimate D2E/DX2                !
 ! R18   R(11,14)                1.5584         estimate D2E/DX2                !
 ! R19   R(14,15)                1.0221         estimate D2E/DX2                !
 ! R20   R(16,17)                1.4489         estimate D2E/DX2                !
 ! R21   R(16,21)                1.0173         estimate D2E/DX2                !
 ! R22   R(17,18)                1.4874         estimate D2E/DX2                !
 ! R23   R(17,23)                1.5257         estimate D2E/DX2                !
 ! R24   R(17,27)                1.1026         estimate D2E/DX2                !
 ! R25   R(18,22)                1.4819         estimate D2E/DX2                !
 ! R26   R(22,28)                1.0893         estimate D2E/DX2                !
 ! R27   R(22,29)                1.0957         estimate D2E/DX2                !
 ! R28   R(22,30)                1.0909         estimate D2E/DX2                !
 ! R29   R(23,24)                1.8229         estimate D2E/DX2                !
 ! R30   R(23,31)                1.0885         estimate D2E/DX2                !
 ! R31   R(23,32)                1.0951         estimate D2E/DX2                !
 ! R32   R(24,25)                1.8134         estimate D2E/DX2                !
 ! R33   R(25,26)                1.5075         estimate D2E/DX2                !
 ! R34   R(25,33)                1.0936         estimate D2E/DX2                !
 ! R35   R(25,34)                1.0932         estimate D2E/DX2                !
 ! R36   R(26,35)                1.3442         estimate D2E/DX2                !
 ! R37   R(26,36)                1.3473         estimate D2E/DX2                !
 ! R38   R(26,37)                1.3486         estimate D2E/DX2                !
 ! A1    A(2,1,9)              117.6726         estimate D2E/DX2                !
 ! A2    A(2,1,11)             123.4781         estimate D2E/DX2                !
 ! A3    A(9,1,11)             118.8484         estimate D2E/DX2                !
 ! A4    A(1,2,3)              120.877          estimate D2E/DX2                !
 ! A5    A(1,2,4)              122.2936         estimate D2E/DX2                !
 ! A6    A(3,2,4)              116.8279         estimate D2E/DX2                !
 ! A7    A(2,4,5)              120.5453         estimate D2E/DX2                !
 ! A8    A(2,4,6)              120.2925         estimate D2E/DX2                !
 ! A9    A(5,4,6)              119.162          estimate D2E/DX2                !
 ! A10   A(4,6,7)              117.1543         estimate D2E/DX2                !
 ! A11   A(4,6,16)             120.585          estimate D2E/DX2                !
 ! A12   A(7,6,16)             122.2028         estimate D2E/DX2                !
 ! A13   A(6,7,8)              120.6096         estimate D2E/DX2                !
 ! A14   A(6,7,9)              122.1222         estimate D2E/DX2                !
 ! A15   A(8,7,9)              117.2663         estimate D2E/DX2                !
 ! A16   A(7,8,18)             100.8162         estimate D2E/DX2                !
 ! A17   A(7,8,19)             110.0846         estimate D2E/DX2                !
 ! A18   A(7,8,20)             110.0156         estimate D2E/DX2                !
 ! A19   A(18,8,19)            107.914          estimate D2E/DX2                !
 ! A20   A(18,8,20)            111.3079         estimate D2E/DX2                !
 ! A21   A(19,8,20)            115.6694         estimate D2E/DX2                !
 ! A22   A(1,9,7)              120.4617         estimate D2E/DX2                !
 ! A23   A(1,9,10)             119.248          estimate D2E/DX2                !
 ! A24   A(7,9,10)             120.2888         estimate D2E/DX2                !
 ! A25   A(1,11,12)            103.0132         estimate D2E/DX2                !
 ! A26   A(1,11,13)            103.3669         estimate D2E/DX2                !
 ! A27   A(1,11,14)            110.8172         estimate D2E/DX2                !
 ! A28   A(12,11,13)           113.926          estimate D2E/DX2                !
 ! A29   A(12,11,14)           109.3588         estimate D2E/DX2                !
 ! A30   A(13,11,14)           115.4639         estimate D2E/DX2                !
 ! A31   A(11,14,15)           108.3997         estimate D2E/DX2                !
 ! A32   A(6,16,17)            120.1442         estimate D2E/DX2                !
 ! A33   A(6,16,21)            115.5455         estimate D2E/DX2                !
 ! A34   A(17,16,21)           114.7934         estimate D2E/DX2                !
 ! A35   A(16,17,18)           107.858          estimate D2E/DX2                !
 ! A36   A(16,17,23)           109.892          estimate D2E/DX2                !
 ! A37   A(16,17,27)           111.2038         estimate D2E/DX2                !
 ! A38   A(18,17,23)           109.9699         estimate D2E/DX2                !
 ! A39   A(18,17,27)           108.7493         estimate D2E/DX2                !
 ! A40   A(23,17,27)           109.1468         estimate D2E/DX2                !
 ! A41   A(8,18,17)            110.1297         estimate D2E/DX2                !
 ! A42   A(8,18,22)            109.1175         estimate D2E/DX2                !
 ! A43   A(17,18,22)           114.0673         estimate D2E/DX2                !
 ! A44   A(18,22,28)           108.3598         estimate D2E/DX2                !
 ! A45   A(18,22,29)           111.9319         estimate D2E/DX2                !
 ! A46   A(18,22,30)           108.8711         estimate D2E/DX2                !
 ! A47   A(28,22,29)           110.1187         estimate D2E/DX2                !
 ! A48   A(28,22,30)           107.8576         estimate D2E/DX2                !
 ! A49   A(29,22,30)           109.601          estimate D2E/DX2                !
 ! A50   A(17,23,24)           113.9423         estimate D2E/DX2                !
 ! A51   A(17,23,31)           110.4703         estimate D2E/DX2                !
 ! A52   A(17,23,32)           109.8264         estimate D2E/DX2                !
 ! A53   A(24,23,31)           109.2398         estimate D2E/DX2                !
 ! A54   A(24,23,32)           104.4573         estimate D2E/DX2                !
 ! A55   A(31,23,32)           108.6403         estimate D2E/DX2                !
 ! A56   A(23,24,25)           103.2421         estimate D2E/DX2                !
 ! A57   A(24,25,26)           114.3936         estimate D2E/DX2                !
 ! A58   A(24,25,33)           105.956          estimate D2E/DX2                !
 ! A59   A(24,25,34)           112.3358         estimate D2E/DX2                !
 ! A60   A(26,25,33)           107.4805         estimate D2E/DX2                !
 ! A61   A(26,25,34)           108.3092         estimate D2E/DX2                !
 ! A62   A(33,25,34)           108.067          estimate D2E/DX2                !
 ! A63   A(25,26,35)           113.0245         estimate D2E/DX2                !
 ! A64   A(25,26,36)           110.7271         estimate D2E/DX2                !
 ! A65   A(25,26,37)           112.5696         estimate D2E/DX2                !
 ! A66   A(35,26,36)           106.8225         estimate D2E/DX2                !
 ! A67   A(35,26,37)           106.6814         estimate D2E/DX2                !
 ! A68   A(36,26,37)           106.6193         estimate D2E/DX2                !
 ! D1    D(9,1,2,3)            179.1024         estimate D2E/DX2                !
 ! D2    D(9,1,2,4)             -0.4471         estimate D2E/DX2                !
 ! D3    D(11,1,2,3)            -0.5371         estimate D2E/DX2                !
 ! D4    D(11,1,2,4)           179.9134         estimate D2E/DX2                !
 ! D5    D(2,1,9,7)             -0.0114         estimate D2E/DX2                !
 ! D6    D(2,1,9,10)           179.5381         estimate D2E/DX2                !
 ! D7    D(11,1,9,7)           179.6453         estimate D2E/DX2                !
 ! D8    D(11,1,9,10)           -0.8052         estimate D2E/DX2                !
 ! D9    D(2,1,11,12)          179.4612         estimate D2E/DX2                !
 ! D10   D(2,1,11,13)          -61.6734         estimate D2E/DX2                !
 ! D11   D(2,1,11,14)           62.5987         estimate D2E/DX2                !
 ! D12   D(9,1,11,12)           -0.1743         estimate D2E/DX2                !
 ! D13   D(9,1,11,13)          118.6911         estimate D2E/DX2                !
 ! D14   D(9,1,11,14)         -117.0368         estimate D2E/DX2                !
 ! D15   D(1,2,4,5)           -179.6726         estimate D2E/DX2                !
 ! D16   D(1,2,4,6)              0.4543         estimate D2E/DX2                !
 ! D17   D(3,2,4,5)              0.7607         estimate D2E/DX2                !
 ! D18   D(3,2,4,6)           -179.1125         estimate D2E/DX2                !
 ! D19   D(2,4,6,7)              0.0017         estimate D2E/DX2                !
 ! D20   D(2,4,6,16)          -177.2906         estimate D2E/DX2                !
 ! D21   D(5,4,6,7)           -179.8731         estimate D2E/DX2                !
 ! D22   D(5,4,6,16)             2.8345         estimate D2E/DX2                !
 ! D23   D(4,6,7,8)            179.0301         estimate D2E/DX2                !
 ! D24   D(4,6,7,9)             -0.4577         estimate D2E/DX2                !
 ! D25   D(16,6,7,8)            -3.7246         estimate D2E/DX2                !
 ! D26   D(16,6,7,9)           176.7876         estimate D2E/DX2                !
 ! D27   D(4,6,16,17)         -162.3318         estimate D2E/DX2                !
 ! D28   D(4,6,16,21)          -17.7424         estimate D2E/DX2                !
 ! D29   D(7,6,16,17)           20.5155         estimate D2E/DX2                !
 ! D30   D(7,6,16,21)          165.1049         estimate D2E/DX2                !
 ! D31   D(6,7,8,18)            18.7131         estimate D2E/DX2                !
 ! D32   D(6,7,8,19)           132.4969         estimate D2E/DX2                !
 ! D33   D(6,7,8,20)           -98.8891         estimate D2E/DX2                !
 ! D34   D(9,7,8,18)          -161.7749         estimate D2E/DX2                !
 ! D35   D(9,7,8,19)           -47.9912         estimate D2E/DX2                !
 ! D36   D(9,7,8,20)            80.6229         estimate D2E/DX2                !
 ! D37   D(6,7,9,1)              0.4683         estimate D2E/DX2                !
 ! D38   D(6,7,9,10)          -179.0765         estimate D2E/DX2                !
 ! D39   D(8,7,9,1)           -179.0358         estimate D2E/DX2                !
 ! D40   D(8,7,9,10)             1.4194         estimate D2E/DX2                !
 ! D41   D(7,8,18,17)          -50.979          estimate D2E/DX2                !
 ! D42   D(7,8,18,22)         -176.9052         estimate D2E/DX2                !
 ! D43   D(19,8,18,17)        -166.3952         estimate D2E/DX2                !
 ! D44   D(19,8,18,22)          67.6785         estimate D2E/DX2                !
 ! D45   D(20,8,18,17)          65.6719         estimate D2E/DX2                !
 ! D46   D(20,8,18,22)         -60.2543         estimate D2E/DX2                !
 ! D47   D(1,11,14,15)         -78.4518         estimate D2E/DX2                !
 ! D48   D(12,11,14,15)        168.6607         estimate D2E/DX2                !
 ! D49   D(13,11,14,15)         38.6131         estimate D2E/DX2                !
 ! D50   D(6,16,17,18)         -54.7741         estimate D2E/DX2                !
 ! D51   D(6,16,17,23)        -174.6524         estimate D2E/DX2                !
 ! D52   D(6,16,17,27)          64.3833         estimate D2E/DX2                !
 ! D53   D(21,16,17,18)        160.3864         estimate D2E/DX2                !
 ! D54   D(21,16,17,23)         40.5081         estimate D2E/DX2                !
 ! D55   D(21,16,17,27)        -80.4561         estimate D2E/DX2                !
 ! D56   D(16,17,18,8)          71.1545         estimate D2E/DX2                !
 ! D57   D(16,17,18,22)       -165.7708         estimate D2E/DX2                !
 ! D58   D(23,17,18,8)        -169.0165         estimate D2E/DX2                !
 ! D59   D(23,17,18,22)        -45.9418         estimate D2E/DX2                !
 ! D60   D(27,17,18,8)         -49.5527         estimate D2E/DX2                !
 ! D61   D(27,17,18,22)         73.522          estimate D2E/DX2                !
 ! D62   D(16,17,23,24)        -53.9453         estimate D2E/DX2                !
 ! D63   D(16,17,23,31)       -177.3533         estimate D2E/DX2                !
 ! D64   D(16,17,23,32)         62.8282         estimate D2E/DX2                !
 ! D65   D(18,17,23,24)       -172.5303         estimate D2E/DX2                !
 ! D66   D(18,17,23,31)         64.0616         estimate D2E/DX2                !
 ! D67   D(18,17,23,32)        -55.7569         estimate D2E/DX2                !
 ! D68   D(27,17,23,24)         68.2486         estimate D2E/DX2                !
 ! D69   D(27,17,23,31)        -55.1594         estimate D2E/DX2                !
 ! D70   D(27,17,23,32)       -174.9779         estimate D2E/DX2                !
 ! D71   D(8,18,22,28)        -160.4865         estimate D2E/DX2                !
 ! D72   D(8,18,22,29)          77.8912         estimate D2E/DX2                !
 ! D73   D(8,18,22,30)         -43.4285         estimate D2E/DX2                !
 ! D74   D(17,18,22,28)         75.8903         estimate D2E/DX2                !
 ! D75   D(17,18,22,29)        -45.7319         estimate D2E/DX2                !
 ! D76   D(17,18,22,30)       -167.0516         estimate D2E/DX2                !
 ! D77   D(17,23,24,25)        -58.2132         estimate D2E/DX2                !
 ! D78   D(31,23,24,25)         65.8601         estimate D2E/DX2                !
 ! D79   D(32,23,24,25)       -178.0623         estimate D2E/DX2                !
 ! D80   D(23,24,25,26)        -70.3409         estimate D2E/DX2                !
 ! D81   D(23,24,25,33)        171.4494         estimate D2E/DX2                !
 ! D82   D(23,24,25,34)         53.6621         estimate D2E/DX2                !
 ! D83   D(24,25,26,35)        -56.2875         estimate D2E/DX2                !
 ! D84   D(24,25,26,36)       -176.0916         estimate D2E/DX2                !
 ! D85   D(24,25,26,37)         64.6698         estimate D2E/DX2                !
 ! D86   D(33,25,26,35)         61.0527         estimate D2E/DX2                !
 ! D87   D(33,25,26,36)        -58.7514         estimate D2E/DX2                !
 ! D88   D(33,25,26,37)       -177.9899         estimate D2E/DX2                !
 ! D89   D(34,25,26,35)        177.5842         estimate D2E/DX2                !
 ! D90   D(34,25,26,36)         57.7801         estimate D2E/DX2                !
 ! D91   D(34,25,26,37)        -61.4584         estimate D2E/DX2                !
 --------------------------------------------------------------------------------
 Trust Radius=3.00D-01 FncErr=1.00D-07 GrdErr=1.00D-06 EigMax=2.50D+02 EigMin=1.00D-04
 Number of steps in this run=    207 maximum allowed number of steps=    222.
 GradGradGradGradGradGradGradGradGradGradGradGradGradGradGradGradGradGrad

                          Input orientation:                          
 ---------------------------------------------------------------------
 Center     Atomic      Atomic             Coordinates (Angstroms)
 Number     Number       Type             X           Y           Z
 ---------------------------------------------------------------------
      1          6           0       -1.375987    0.722972   -0.759880
      2          6           0       -2.453268    0.578832   -1.651528
      3         17           0       -4.099934    0.605682   -1.077551
      4          6           0       -2.269153    0.401631   -3.008249
      5          1           0       -3.122249    0.298526   -3.672122
      6          6           0       -0.970082    0.349772   -3.547666
      7          6           0        0.100726    0.484794   -2.652065
      8         16           0        1.762764    0.408173   -3.224665
      9          6           0       -0.095693    0.672694   -1.284738
     10          1           0        0.755491    0.788768   -0.619783
     11         16           0       -1.580720    0.959491    1.026666
     12          8           0       -0.181053    1.042683    1.515500
     13          8           0       -2.331777    2.245040    1.120541
     14          7           0       -2.280839   -0.274211    1.672034
     15          1           0       -3.283064   -0.212802    1.481211
     16          7           0       -0.780780    0.229584   -4.899187
     17          6           0        0.500920   -0.202224   -5.418799
     18          7           0        1.544574    0.704194   -4.869584
     19          8           0        2.538930    1.517991   -2.666173
     20          8           0        2.314038   -0.935594   -2.991894
     21          1           0       -1.586863   -0.095436   -5.427877
     22          6           0        2.853164    0.606352   -5.558079
     23          6           0        0.495182   -0.127361   -6.942610
     24         16           0       -0.883006   -1.030400   -7.722454
     25          6           0       -0.658628   -2.727656   -7.124604
     26          6           0        0.539310   -3.437793   -7.701776
     27          1           0        0.729590   -1.235244   -5.108318
     28          1           0        2.777746    1.124068   -6.513466
     29          1           0        3.155429   -0.434853   -5.716466
     30          1           0        3.606607    1.118976   -4.958357
     31          1           0        1.437649   -0.493933   -7.345292
     32          1           0        0.357850    0.910763   -7.262960
     33          1           0       -1.549793   -3.277627   -7.439626
     34          1           0       -0.596122   -2.779264   -6.034411
     35          9           0        0.530856   -3.476062   -9.045409
     36          9           0        0.587545   -4.714989   -7.275623
     37          9           0        1.705059   -2.865563   -7.338139
 ---------------------------------------------------------------------
                    Distance matrix (angstroms):
                    1          2          3          4          5
     1  C    0.000000
     2  C    1.405826   0.000000
     3  Cl   2.744915   1.744041   0.000000
     4  C    2.440526   1.380577   2.668519   0.000000
     5  H    3.422096   2.146837   2.789626   1.085878   0.000000
     6  C    2.841793   2.418191   3.995364   1.407567   2.156372
     7  C    2.412006   2.744596   4.487678   2.397938   3.385673
     8  S    4.003251   4.503200   6.246626   4.037726   4.906689
     9  C    1.384614   2.387783   4.010158   2.787095   3.872938
    10  H    2.137091   3.377086   4.880392   3.873386   4.959232
    11  S    1.813727   2.842352   3.301417   4.131064   4.989168
    12  O    2.589873   3.925327   4.719377   5.023487   6.009645
    13  O    2.601194   3.236568   3.262741   4.522056   5.232913
    14  N    2.779809   3.435619   3.412263   4.728843   5.440221
    15  H    3.087897   3.336061   2.807927   4.643361   5.181136
    16  N    4.210886   3.669670   5.075739   2.412570   2.644412
    17  C    5.107278   4.850732   6.377068   3.721383   4.053268
    18  N    5.041795   5.133648   6.800713   4.254483   4.835052
    19  O    4.426351   5.180113   6.886984   4.947821   5.877753
    20  O    4.620498   5.178539   6.868717   4.774314   5.615958
    21  H    4.743886   3.932697   5.072714   2.562653   2.365437
    22  C    6.397033   6.589394   8.271681   5.725528   6.273528
    23  C    6.515404   6.098165   7.486746   4.837414   4.895230
    24  S    7.196858   6.473908   7.561754   5.118187   4.815126
    25  C    7.275379   6.641397   7.714958   5.415773   5.210263
    26  C    8.316865   7.854572   9.041716   6.682651   6.603424
    27  H    5.213153   5.036949   6.554417   4.010249   4.387684
    28  H    7.107611   7.162348   8.781821   6.187055   6.600356
    29  H    6.814839   7.000626   8.674246   6.120476   6.642773
    30  H    6.527654   6.924519   8.643778   6.232340   6.899641
    31  H    7.263955   6.979184   8.435553   5.775149   5.908709
    32  H    6.732868   6.284961   7.630478   5.026224   5.037861
    33  H    7.788067   7.013602   7.877772   5.804439   5.427299
    34  H    6.379225   5.825415   6.950181   4.698380   4.629743
    35  F    9.482506   8.945202  10.079266   7.702197   7.514313
    36  F    8.711015   8.300695   9.417967   7.249207   7.202994
    37  F    8.102093   7.841753   9.216423   6.724348   6.837693
                    6          7          8          9         10
     6  C    0.000000
     7  C    1.402484   0.000000
     8  S    2.752488   1.759577   0.000000
     9  C    2.447382   1.394084   2.699472   0.000000
    10  H    3.426780   2.156684   2.818663   1.086348   0.000000
    11  S    4.655013   4.072549   5.436602   2.762271   2.863183
    12  O    5.170913   4.214171   5.162382   2.825864   2.345425
    13  O    5.219043   4.821627   6.246612   3.641113   3.831537
    14  N    5.417814   4.994574   6.387020   3.796576   3.949892
    15  H    5.563810   5.387082   6.927573   4.312066   4.661250
    16  N    1.369996   2.427291   3.050498   3.705393   4.581060
    17  C    2.443294   2.878709   2.603663   4.267539   4.906875
    18  N    2.862967   2.655226   1.685525   3.942410   4.323264
    19  O    3.801964   2.648119   1.464938   3.092593   2.810718
    20  O    3.570223   2.651742   1.470984   3.362703   3.321054
    21  H    2.028256   3.299963   4.040763   4.469812   5.420904
    22  C    4.327217   4.004448   2.583228   5.192456   5.368452
    23  C    3.728311   4.351909   3.964427   5.744628   6.394153
    24  S    4.397876   5.382600   5.412920   6.705564   7.512788
    25  C    4.728853   5.558782   5.559324   6.781100   7.528457
    26  C    5.820700   6.409261   6.027671   7.647073   8.250162
    27  H    2.799428   3.063850   2.704888   4.352136   4.923844
    28  H    4.841665   4.741890   3.515524   5.983309   6.239988
    29  H    4.726433   4.423518   2.976455   5.606842   5.764818
    30  H    4.850547   4.244098   2.628819   5.234661   5.202031
    31  H    4.575038   4.977112   4.230729   6.359440   6.880635
    32  H    3.985163   4.637663   4.305138   6.000127   6.656186
    33  H    5.351770   6.308785   6.505694   7.456681   8.268020
    34  H    4.014301   4.751835   4.859915   5.892864   6.623889
    35  F    6.864037   7.533143   7.105346   8.822288   9.446185
    36  F    6.478863   6.975100   6.636127   8.086078   8.638272
    37  F    5.644683   5.979805   5.257504   7.239174   7.706628
                   11         12         13         14         15
    11  S    0.000000
    12  O    1.484906   0.000000
    13  O    1.491823   2.495450   0.000000
    14  N    1.558425   2.483508   2.579411   0.000000
    15  H    2.116332   3.346624   2.660078   1.022076   0.000000
    16  N    6.023985   6.493767   6.534889   6.759063   6.867795
    17  C    6.872177   7.078092   7.535000   7.617301   7.869485
    18  N    6.678203   6.622814   7.299445   7.640931   8.029918
    19  O    5.560620   5.011049   6.212213   6.727719   7.354730
    20  O    5.908409   5.518664   6.972241   6.580467   7.201295
    21  H    6.540186   7.175103   6.993890   7.135986   7.115221
    22  C    7.946250   7.709239   8.612367   8.911112   9.374215
    23  C    8.306622   8.565391   8.867603   9.052069   9.232725
    24  S    8.999643   9.493693   9.540754   9.527967   9.546528
    25  C    8.993804   9.439011   9.772898   9.275333   9.341960
    26  C   10.000817  10.273839  10.879844  10.287362  10.456499
    27  H    6.913206   7.063511   7.764214   7.480604   7.782588
    28  H    8.710735   8.557185   9.254289   9.723522  10.121043
    29  H    8.357340   8.100405   9.167111   9.174353   9.659714
    30  H    7.921760   7.500867   8.572364   8.975805   9.524140
    31  H    9.017354   9.137561   9.663378   9.756413  10.013557
    32  H    8.513420   8.795976   8.904913   9.391537   9.538301
    33  H    9.467429  10.036573  10.217034   9.621709   9.590553
    34  H    8.050250   8.472350   8.913443   8.276645   8.383971
    35  F   11.206229  11.509069  12.011337  11.533476  11.662101
    36  F   10.287327  10.536858  11.289819  10.392724  10.579861
    37  F    9.767156   9.859956  10.675372  10.187527  10.473751
                   16         17         18         19         20
    16  N    0.000000
    17  C    1.448865   0.000000
    18  N    2.373480   1.487429   0.000000
    19  O    4.203192   3.832698   2.550691   0.000000
    20  O    3.817500   3.116905   2.608965   2.485306   0.000000
    21  H    1.017310   2.090532   3.279786   5.220375   4.675137
    22  C    3.712364   2.491234   1.481892   3.048433   3.041967
    23  C    2.435379   1.525660   2.467822   5.017171   4.423759
    24  S    3.093355   2.812109   4.128055   6.615884   5.710366
    25  C    3.703062   3.260695   4.660130   6.937398   5.396992
    26  C    4.800708   3.960097   5.117414   7.342722   5.620823
    27  H    2.114397   1.102642   2.117219   4.100986   2.660736
    28  H    4.008629   2.853293   2.097464   3.874774   4.105935
    29  H    4.074698   2.681258   2.146972   3.673956   2.895164
    30  H    4.477018   3.406299   2.105209   2.559932   3.123935
    31  H    3.380582   2.161928   2.752467   5.211028   4.462645
    32  H    2.710703   2.158736   2.679410   5.124089   5.047545
    33  H    4.398379   4.212751   5.659958   7.905786   6.340081
    34  H    3.221180   2.867685   4.251339   6.296029   4.596201
    35  F    5.713437   4.885818   5.994972   8.346711   6.802850
    36  F    5.654075   4.880610   6.006037   7.994058   5.967825
    37  F    4.659165   3.496741   4.343119   6.460507   4.794318
                   21         22         23         24         25
    21  H    0.000000
    22  C    4.497032   0.000000
    23  C    2.574946   2.831138   0.000000
    24  S    2.575783   4.617624   1.822920   0.000000
    25  C    3.266357   5.089430   2.850602   1.813407   0.000000
    26  C    4.567557   5.128788   3.396651   2.796238   1.507474
    27  H    2.601391   2.846635   2.155686   3.078333   2.867028
    28  H    4.659990   1.089258   2.638245   4.416389   5.197877
    29  H    4.763173   1.095700   2.945318   4.548365   4.667636
    30  H    5.354192   1.090929   3.895072   5.693565   6.138520
    31  H    3.603186   2.531490   1.088472   2.411532   3.071253
    32  H    2.856900   3.037413   1.095073   2.349250   3.780273
    33  H    3.764950   6.165350   3.788551   2.361064   1.093564
    34  H    2.924446   4.856631   3.008049   2.447512   1.093202
    35  F    5.385156   5.849846   3.954344   3.119371   2.380016
    36  F    5.429778   6.033213   4.600626   3.992289   2.350584
    37  F    4.707383   4.067057   3.019602   3.195873   2.377316
                   26         27         28         29         30
    26  C    0.000000
    27  H    3.407852   0.000000
    28  H    5.218548   3.425747   0.000000
    29  H    4.450077   2.625865   1.791113   0.000000
    30  H    6.139935   3.720493   1.762215   1.786806   0.000000
    31  H    3.098451   2.460680   2.259585   2.367981   3.606011
    32  H    4.374406   3.063662   2.542270   3.468252   3.988605
    33  H    2.111570   3.847325   6.241817   5.761055   7.216320
    34  H    2.122021   2.235879   5.181552   4.435255   5.832418
    35  F    1.344205   4.534474   5.711431   5.217203   6.875945
    36  F    1.347280   4.101952   6.282710   5.229203   6.965601
    37  F    1.348573   2.929434   4.212825   3.262169   5.015555
                   31         32         33         34         35
    31  H    0.000000
    32  H    1.773673   0.000000
    33  H    4.084441   4.605749   0.000000
    34  H    3.328268   4.004460   1.769882   0.000000
    35  F    3.550459   4.738279   2.635719   3.289638   0.000000
    36  F    4.306372   5.630454   2.580915   2.586253   2.161087
    37  F    2.386668   4.010145   3.282402   2.646241   2.160147
                   36         37
    36  F    0.000000
    37  F    2.161741   0.000000
 Stoichiometry    C11H12ClF3N3O4S3(1-)
 Framework group  C1[X(C11H12ClF3N3O4S3)]
 Deg. of freedom   105
 Full point group                 C1      NOp   1
 Largest Abelian subgroup         C1      NOp   1
 Largest concise Abelian subgroup C1      NOp   1
                         Standard orientation:                         
 ---------------------------------------------------------------------
 Center     Atomic      Atomic             Coordinates (Angstroms)
 Number     Number       Type             X           Y           Z
 ---------------------------------------------------------------------
      1          6           0       -3.205242   -0.197829    0.092275
      2          6           0       -2.673334   -1.399008   -0.408315
      3         17           0       -3.664713   -2.826980   -0.548824
      4          6           0       -1.354956   -1.514640   -0.801380
      5          1           0       -0.975145   -2.455139   -1.189114
      6          6           0       -0.484979   -0.412655   -0.701326
      7          6           0       -1.018904    0.780233   -0.192499
      8         16           0       -0.006081    2.206755   -0.004520
      9          6           0       -2.354127    0.889644    0.193092
     10          1           0       -2.740199    1.832714    0.569547
     11         16           0       -4.931614   -0.009408    0.615478
     12          8           0       -4.992027    1.404160    1.066172
     13          8           0       -5.701884   -0.279766   -0.633172
     14          7           0       -5.251884   -0.948835    1.816973
     15          1           0       -5.393835   -1.895104    1.457715
     16          7           0        0.809394   -0.504241   -1.140758
     17          6           0        1.796106    0.462747   -0.704246
     18          7           0        1.278140    1.819623   -1.025254
     19          8           0       -0.683746    3.381425   -0.558562
     20          8           0        0.439031    2.327696    1.392277
     21          1           0        1.164449   -1.449367   -1.265630
     22          6           0        2.299619    2.890398   -0.947624
     23          6           0        3.115336    0.222959   -1.432101
     24         16           0        3.739902   -1.483597   -1.288501
     25          6           0        3.897507   -1.718912    0.502654
     26          6           0        5.013066   -0.929218    1.138569
     27          1           0        1.965770    0.396267    0.383235
     28          1           0        2.933536    2.824534   -1.830967
     29          1           0        2.908322    2.810301   -0.040088
     30          1           0        1.797813    3.858863   -0.967429
     31          1           0        3.877094    0.914742   -1.077233
     32          1           0        2.978807    0.374493   -2.508012
     33          1           0        4.121473   -2.779384    0.647981
     34          1           0        2.969763   -1.492327    1.034671
     35          9           0        6.213550   -1.177348    0.587067
     36          9           0        5.117970   -1.222678    2.449309
     37          9           0        4.816908    0.402453    1.055956
 ---------------------------------------------------------------------
 Rotational constants (GHZ):           0.3049750           0.0802783           0.0717018
 General basis read from cards:  (6D, 7F)
 There are   515 symmetry adapted cartesian basis functions of A   symmetry.
 There are   515 symmetry adapted basis functions of A   symmetry.
   515 basis functions,   944 primitive gaussians,   515 cartesian basis functions
   112 alpha electrons      112 beta electrons
       nuclear repulsion energy      3125.2802564835 Hartrees.
 NAtoms=   37 NActive=   37 NUniq=   37 SFac= 1.00D+00 NAtFMM=   60 NAOKFM=F Big=F
 Integral buffers will be    131072 words long.
 Raffenetti 2 integral format.
 Two-electron integral symmetry is turned on.
 One-electron integrals computed using PRISM.
 NBasis=   515 RedAO= T EigKep=  1.89D-06  NBF=   515
 NBsUse=   512 1.00D-06 EigRej=  9.97D-07 NBFU=   512
 ExpMin= 4.05D-02 ExpMax= 2.52D+04 ExpMxC= 3.78D+03 IAcc=3 IRadAn=         5 AccDes= 0.00D+00
 Harris functional with IExCor= 1009 and IRadAn=       5 diagonalized for initial guess.
 HarFok:  IExCor= 1009 AccDes= 0.00D+00 IRadAn=         5 IDoV= 1 UseB2=F ITyADJ=14
 ICtDFT=  3500011 ScaDFX=  1.000000  1.000000  1.000000  1.000000
 FoFCou: FMM=F IPFlag=           0 FMFlag=      100000 FMFlg1=           0
         NFxFlg=           0 DoJE=T BraDBF=F KetDBF=T FulRan=T
         wScrn=  0.000000 ICntrl=       500 IOpCl=  0 I1Cent=   200000004 NGrid=           0
         NMat0=    1 NMatS0=      1 NMatT0=    0 NMatD0=    1 NMtDS0=    0 NMtDT0=    0
 Petite list used in FoFCou.
 Requested convergence on RMS density matrix=1.00D-08 within 128 cycles.
 Requested convergence on MAX density matrix=1.00D-06.
 Requested convergence on             energy=1.00D-06.
 No special actions if energy rises.
 SCF Done:  E(RM062X) =  -2845.21721058     A.U. after   18 cycles
            NFock= 18  Conv=0.37D-08     -V/T= 2.0052

 **********************************************************************

            Population analysis using the SCF Density.

 **********************************************************************

 Orbital symmetries:
       Occupied  (A) (A) (A) (A) (A) (A) (A) (A) (A) (A) (A) (A)
                 (A) (A) (A) (A) (A) (A) (A) (A) (A) (A) (A) (A)
                 (A) (A) (A) (A) (A) (A) (A) (A) (A) (A) (A) (A)
                 (A) (A) (A) (A) (A) (A) (A) (A) (A) (A) (A) (A)
                 (A) (A) (A) (A) (A) (A) (A) (A) (A) (A) (A) (A)
                 (A) (A) (A) (A) (A) (A) (A) (A) (A) (A) (A) (A)
                 (A) (A) (A) (A) (A) (A) (A) (A) (A) (A) (A) (A)
                 (A) (A) (A) (A) (A) (A) (A) (A) (A) (A) (A) (A)
                 (A) (A) (A) (A) (A) (A) (A) (A) (A) (A) (A) (A)
                 (A) (A) (A) (A)
       Virtual   (A) (A) (A) (A) (A) (A) (A) (A) (A) (A) (A) (A)
                 (A) (A) (A) (A) (A) (A) (A) (A) (A) (A) (A) (A)
                 (A) (A) (A) (A) (A) (A) (A) (A) (A) (A) (A) (A)
                 (A) (A) (A) (A) (A) (A) (A) (A) (A) (A) (A) (A)
                 (A) (A) (A) (A) (A) (A) (A) (A) (A) (A) (A) (A)
                 (A) (A) (A) (A) (A) (A) (A) (A) (A) (A) (A) (A)
                 (A) (A) (A) (A) (A) (A) (A) (A) (A) (A) (A) (A)
                 (A) (A) (A) (A) (A) (A) (A) (A) (A) (A) (A) (A)
                 (A) (A) (A) (A) (A) (A) (A) (A) (A) (A) (A) (A)
                 (A) (A) (A) (A) (A) (A) (A) (A) (A) (A) (A) (A)
                 (A) (A) (A) (A) (A) (A) (A) (A) (A) (A) (A) (A)
                 (A) (A) (A) (A) (A) (A) (A) (A) (A) (A) (A) (A)
                 (A) (A) (A) (A) (A) (A) (A) (A) (A) (A) (A) (A)
                 (A) (A) (A) (A) (A) (A) (A) (A) (A) (A) (A) (A)
                 (A) (A) (A) (A) (A) (A) (A) (A) (A) (A) (A) (A)
                 (A) (A) (A) (A) (A) (A) (A) (A) (A) (A) (A) (A)
                 (A) (A) (A) (A) (A) (A) (A) (A) (A) (A) (A) (A)
                 (A) (A) (A) (A) (A) (A) (A) (A) (A) (A) (A) (A)
                 (A) (A) (A) (A) (A) (A) (A) (A) (A) (A) (A) (A)
                 (A) (A) (A) (A) (A) (A) (A) (A) (A) (A) (A) (A)
                 (A) (A) (A) (A) (A) (A) (A) (A) (A) (A) (A) (A)
                 (A) (A) (A) (A) (A) (A) (A) (A) (A) (A) (A) (A)
                 (A) (A) (A) (A) (A) (A) (A) (A) (A) (A) (A) (A)
                 (A) (A) (A) (A) (A) (A) (A) (A) (A) (A) (A) (A)
                 (A) (A) (A) (A) (A) (A) (A) (A) (A) (A) (A) (A)
                 (A) (A) (A) (A) (A) (A) (A) (A) (A) (A) (A) (A)
                 (A) (A) (A) (A) (A) (A) (A) (A) (A) (A) (A) (A)
                 (A) (A) (A) (A) (A) (A) (A) (A) (A) (A) (A) (A)
                 (A) (A) (A) (A) (A) (A) (A) (A) (A) (A) (A) (A)
                 (A) (A) (A) (A) (A) (A) (A) (A) (A) (A) (A) (A)
                 (A) (A) (A) (A) (A) (A) (A) (A) (A) (A) (A) (A)
                 (A) (A) (A) (A) (A) (A) (A) (A) (A) (A) (A) (A)
                 (A) (A) (A) (A) (A) (A) (A) (A) (A) (A) (A) (A)
                 (A) (A) (A) (A)
 The electronic state is 1-A.
 Alpha  occ. eigenvalues -- -102.57955 -90.08025 -89.98183 -89.90629 -25.26582
 Alpha  occ. eigenvalues --  -25.26413 -25.26390 -19.55878 -19.55770 -19.45688
 Alpha  occ. eigenvalues --  -19.45626 -14.74288 -14.72821 -14.56582 -10.77659
 Alpha  occ. eigenvalues --  -10.59140 -10.57456 -10.55409 -10.54350 -10.53884
 Alpha  occ. eigenvalues --  -10.53142 -10.50429 -10.48776 -10.48127 -10.47240
 Alpha  occ. eigenvalues --   -9.72587  -8.39157  -8.28963  -8.25064  -7.44995
 Alpha  occ. eigenvalues --   -7.44335  -7.44301  -6.31375  -6.31270  -6.31208
 Alpha  occ. eigenvalues --   -6.21174  -6.21151  -6.21053  -6.17155  -6.16881
 Alpha  occ. eigenvalues --   -6.16448  -1.43067  -1.33755  -1.33654  -1.15875
 Alpha  occ. eigenvalues --   -1.04747  -1.03851  -1.03375  -0.96998  -0.92771
 Alpha  occ. eigenvalues --   -0.91369  -0.90337  -0.86395  -0.83702  -0.80685
 Alpha  occ. eigenvalues --   -0.79029  -0.77816  -0.75375  -0.74226  -0.71486
 Alpha  occ. eigenvalues --   -0.66400  -0.65769  -0.65323  -0.65190  -0.63633
 Alpha  occ. eigenvalues --   -0.60040  -0.58746  -0.57371  -0.54820  -0.54604
 Alpha  occ. eigenvalues --   -0.53722  -0.53492  -0.51612  -0.50397  -0.49914
 Alpha  occ. eigenvalues --   -0.49117  -0.48377  -0.47498  -0.47359  -0.46463
 Alpha  occ. eigenvalues --   -0.46006  -0.45470  -0.44817  -0.44021  -0.43699
 Alpha  occ. eigenvalues --   -0.43175  -0.42701  -0.41130  -0.40698  -0.40339
 Alpha  occ. eigenvalues --   -0.38766  -0.37774  -0.36310  -0.35712  -0.34750
 Alpha  occ. eigenvalues --   -0.34146  -0.33217  -0.31938  -0.30811  -0.29672
 Alpha  occ. eigenvalues --   -0.29162  -0.28258  -0.26900  -0.26361  -0.25125
 Alpha  occ. eigenvalues --   -0.22723  -0.22280  -0.21234  -0.20514  -0.18592
 Alpha  occ. eigenvalues --   -0.16651  -0.13931
 Alpha virt. eigenvalues --    0.05218   0.05896   0.07027   0.07851   0.08424
 Alpha virt. eigenvalues --    0.08999   0.09583   0.09657   0.10586   0.10737
 Alpha virt. eigenvalues --    0.11001   0.11563   0.11887   0.12656   0.13089
 Alpha virt. eigenvalues --    0.13400   0.13818   0.14496   0.14924   0.14993
 Alpha virt. eigenvalues --    0.15438   0.16003   0.16568   0.16802   0.17117
 Alpha virt. eigenvalues --    0.17804   0.17988   0.18084   0.18453   0.18688
 Alpha virt. eigenvalues --    0.19201   0.19283   0.19868   0.20019   0.20461
 Alpha virt. eigenvalues --    0.20724   0.21403   0.21567   0.21778   0.21802
 Alpha virt. eigenvalues --    0.22333   0.22810   0.23007   0.23301   0.23832
 Alpha virt. eigenvalues --    0.24537   0.24742   0.24771   0.25088   0.25520
 Alpha virt. eigenvalues --    0.26278   0.26302   0.26565   0.27272   0.27629
 Alpha virt. eigenvalues --    0.27944   0.28138   0.28473   0.28599   0.29276
 Alpha virt. eigenvalues --    0.29784   0.29831   0.30312   0.30589   0.31022
 Alpha virt. eigenvalues --    0.31195   0.31781   0.31996   0.32306   0.32668
 Alpha virt. eigenvalues --    0.32825   0.33365   0.33619   0.33859   0.34545
 Alpha virt. eigenvalues --    0.34706   0.34905   0.35518   0.35799   0.36007
 Alpha virt. eigenvalues --    0.36350   0.36988   0.37122   0.37440   0.38054
 Alpha virt. eigenvalues --    0.38256   0.38435   0.38911   0.39084   0.39498
 Alpha virt. eigenvalues --    0.39673   0.40176   0.40679   0.40726   0.41037
 Alpha virt. eigenvalues --    0.41367   0.41814   0.42314   0.42889   0.42980
 Alpha virt. eigenvalues --    0.43351   0.43561   0.43583   0.43970   0.44456
 Alpha virt. eigenvalues --    0.44881   0.45130   0.45739   0.45793   0.46064
 Alpha virt. eigenvalues --    0.46309   0.46661   0.46725   0.47072   0.47651
 Alpha virt. eigenvalues --    0.48062   0.48659   0.49286   0.49982   0.50154
 Alpha virt. eigenvalues --    0.50849   0.51332   0.52048   0.52317   0.52583
 Alpha virt. eigenvalues --    0.53579   0.53727   0.53893   0.55200   0.55524
 Alpha virt. eigenvalues --    0.56238   0.57009   0.58773   0.59332   0.61159
 Alpha virt. eigenvalues --    0.61611   0.62426   0.62989   0.64297   0.65512
 Alpha virt. eigenvalues --    0.68469   0.69195   0.70610   0.72202   0.74335
 Alpha virt. eigenvalues --    0.75121   0.75860   0.76434   0.76725   0.77413
 Alpha virt. eigenvalues --    0.78054   0.78529   0.79541   0.80090   0.80817
 Alpha virt. eigenvalues --    0.81166   0.81960   0.82071   0.82481   0.82786
 Alpha virt. eigenvalues --    0.84381   0.85415   0.86347   0.86623   0.87478
 Alpha virt. eigenvalues --    0.88323   0.88502   0.89666   0.90300   0.91444
 Alpha virt. eigenvalues --    0.92226   0.93771   0.94556   0.95489   0.95631
 Alpha virt. eigenvalues --    0.96425   0.98034   1.00112   1.00881   1.02484
 Alpha virt. eigenvalues --    1.03005   1.03733   1.04693   1.05259   1.05644
 Alpha virt. eigenvalues --    1.05881   1.07376   1.07823   1.08124   1.08764
 Alpha virt. eigenvalues --    1.09709   1.10495   1.11194   1.12906   1.13574
 Alpha virt. eigenvalues --    1.13995   1.15169   1.16468   1.16859   1.17066
 Alpha virt. eigenvalues --    1.18281   1.19112   1.19759   1.20382   1.20535
 Alpha virt. eigenvalues --    1.21447   1.22306   1.23239   1.23891   1.24818
 Alpha virt. eigenvalues --    1.26735   1.27001   1.27515   1.27994   1.28733
 Alpha virt. eigenvalues --    1.29137   1.30006   1.30577   1.30959   1.32350
 Alpha virt. eigenvalues --    1.33719   1.35152   1.36317   1.37120   1.37790
 Alpha virt. eigenvalues --    1.38355   1.39418   1.39877   1.40878   1.42038
 Alpha virt. eigenvalues --    1.45058   1.45462   1.46680   1.48479   1.49340
 Alpha virt. eigenvalues --    1.49883   1.50805   1.51869   1.53047   1.53463
 Alpha virt. eigenvalues --    1.54439   1.55040   1.55762   1.57526   1.57725
 Alpha virt. eigenvalues --    1.58429   1.58981   1.60056   1.60865   1.62245
 Alpha virt. eigenvalues --    1.63362   1.64836   1.65318   1.66295   1.67240
 Alpha virt. eigenvalues --    1.67990   1.69013   1.69750   1.70107   1.71706
 Alpha virt. eigenvalues --    1.72010   1.73642   1.74822   1.75395   1.75478
 Alpha virt. eigenvalues --    1.78082   1.78320   1.78510   1.80289   1.80608
 Alpha virt. eigenvalues --    1.83174   1.85278   1.86170   1.86627   1.86940
 Alpha virt. eigenvalues --    1.87899   1.89859   1.90478   1.92289   1.92751
 Alpha virt. eigenvalues --    1.93437   1.93766   1.94580   1.95759   1.96051
 Alpha virt. eigenvalues --    1.96899   1.97090   1.97519   1.97956   1.98095
 Alpha virt. eigenvalues --    1.98936   1.99266   2.00681   2.01770   2.03302
 Alpha virt. eigenvalues --    2.03817   2.04874   2.05448   2.06421   2.08398
 Alpha virt. eigenvalues --    2.08802   2.09735   2.09788   2.11395   2.12044
 Alpha virt. eigenvalues --    2.14059   2.14238   2.14870   2.15995   2.16606
 Alpha virt. eigenvalues --    2.16866   2.17430   2.18429   2.18946   2.19182
 Alpha virt. eigenvalues --    2.20883   2.21091   2.21523   2.23208   2.24281
 Alpha virt. eigenvalues --    2.25346   2.26591   2.28657   2.29856   2.30865
 Alpha virt. eigenvalues --    2.32208   2.34196   2.34848   2.36450   2.37129
 Alpha virt. eigenvalues --    2.37493   2.38101   2.40733   2.41997   2.42521
 Alpha virt. eigenvalues --    2.43133   2.44859   2.45387   2.46420   2.49835
 Alpha virt. eigenvalues --    2.50706   2.51438   2.53142   2.54447   2.55036
 Alpha virt. eigenvalues --    2.57670   2.58627   2.62227   2.63790   2.68436
 Alpha virt. eigenvalues --    2.72129   2.74822   2.75868   2.79837   2.80851
 Alpha virt. eigenvalues --    2.83394   2.84346   2.85534   2.87857   2.88820
 Alpha virt. eigenvalues --    2.91534   2.92716   2.94349   2.97233   3.02706
 Alpha virt. eigenvalues --    3.04671   3.08498   3.11578   3.12439   3.14226
 Alpha virt. eigenvalues --    3.22590   3.25451   3.28459   3.28654   3.43563
 Alpha virt. eigenvalues --    4.04170   4.15392   4.17216   4.24386   4.28184
 Alpha virt. eigenvalues --    4.35109   4.36517   4.39042   4.39341   4.41422
 Alpha virt. eigenvalues --    4.43150   4.43816   4.49117   4.49507   4.50858
 Alpha virt. eigenvalues --    4.53744   4.59530   4.61443   4.64202   4.69538
 Alpha virt. eigenvalues --    4.73450   4.85565   5.79223   5.81800   6.61087
          Condensed to atoms (all electrons):
               1          2          3          4          5          6
     1  C   77.880739   0.664045   0.257808  -9.283518   0.062292   9.788163
     2  C    0.664045  53.108304  -0.766397  -7.798440   0.081797  -2.075273
     3  Cl   0.257808  -0.766397  17.199650   0.079089  -0.007047   0.219709
     4  C   -9.283518  -7.798440   0.079089  12.810354   0.303388   0.483367
     5  H    0.062292   0.081797  -0.007047   0.303388   0.494940  -0.231415
     6  C    9.788163  -2.075273   0.219709   0.483367  -0.231415  29.825829
     7  C  -32.771670 -19.506102  -0.144809   3.676020   0.079574 -21.533596
     8  S   -6.129351  -0.056277  -0.031410   0.651485   0.004968  -3.130337
     9  C  -26.201405 -19.517544  -0.148021   4.473907   0.004669  -6.707760
    10  H   -0.094971  -0.016509  -0.000739  -0.005883   0.000011  -0.011730
    11  S   -0.337363   1.242192   0.150310   0.260302  -0.000059   1.161954
    12  O   -0.986221  -0.192585   0.008764   0.077880   0.000035   0.021751
    13  O   -0.219287   0.497185  -0.051766  -0.003569  -0.000042   0.176656
    14  N   -0.087998   0.080430  -0.009821  -0.002301  -0.000065   0.056512
    15  H   -0.140101  -0.060473   0.025411   0.035397  -0.000001   0.006472
    16  N    0.008455   0.120626  -0.002324  -0.188437  -0.011163  -0.773627
    17  C   -1.818550  -1.246774  -0.000503   0.446412   0.004891  -1.986900
    18  N   -0.922305   0.373431  -0.004646   0.082828   0.000588   0.743682
    19  O   -0.312354   0.015283  -0.000978   0.020796   0.000018  -0.067997
    20  O   -0.152329   0.008586  -0.000395   0.035826   0.000023  -0.304450
    21  H    0.008397   0.033350   0.000018   0.036951   0.005698  -0.130179
    22  C   -0.061235   0.027139  -0.000452  -0.038347   0.000056   0.225741
    23  C   -0.914233   0.193143  -0.000571   0.014898   0.002651  -0.050267
    24  S    0.024823  -0.117145   0.002657   0.013862  -0.001911  -0.200561
    25  C   -0.019460   0.041264  -0.000756   0.029852   0.000251  -0.037957
    26  C   -0.005967   0.003732  -0.000165  -0.010009   0.000081   0.034814
    27  H    0.030829  -0.000753  -0.000019   0.023486  -0.000002  -0.079030
    28  H   -0.001001   0.000269  -0.000001  -0.001369   0.000000   0.012407
    29  H   -0.000192   0.000060  -0.000000   0.003011  -0.000000  -0.002120
    30  H    0.000693  -0.000296   0.000001   0.000153  -0.000000  -0.007297
    31  H   -0.000016  -0.000727   0.000002  -0.000783   0.000000  -0.009500
    32  H   -0.000194   0.001866  -0.000005   0.003041  -0.000001   0.008728
    33  H    0.000034   0.000081   0.000002   0.000011   0.000000   0.001113
    34  H   -0.000191  -0.001386  -0.000018  -0.003616   0.000000  -0.000054
    35  F    0.000009  -0.000033   0.000000  -0.000070   0.000000  -0.000256
    36  F   -0.000092  -0.000023   0.000000  -0.000354  -0.000000   0.001506
    37  F   -0.000346  -0.000015  -0.000000  -0.001033  -0.000000   0.007584
               7          8          9         10         11         12
     1  C  -32.771670  -6.129351 -26.201405  -0.094971  -0.337363  -0.986221
     2  C  -19.506102  -0.056277 -19.517544  -0.016509   1.242192  -0.192585
     3  Cl  -0.144809  -0.031410  -0.148021  -0.000739   0.150310   0.008764
     4  C    3.676020   0.651485   4.473907  -0.005883   0.260302   0.077880
     5  H    0.079574   0.004968   0.004669   0.000011  -0.000059   0.000035
     6  C  -21.533596  -3.130337  -6.707760  -0.011730   1.161954   0.021751
     7  C   55.594747   2.075358  21.995559  -0.001183  -3.179996  -0.125232
     8  S    2.075358  19.963652   0.756279   0.038906  -0.362268  -0.000501
     9  C   21.995559   0.756279  33.234022   0.406511  -2.662931   0.635082
    10  H   -0.001183   0.038906   0.406511   0.389245  -0.020060   0.002797
    11  S   -3.179996  -0.362268  -2.662931  -0.020060  16.972080   0.449397
    12  O   -0.125232  -0.000501   0.635082   0.002797   0.449397   9.005645
    13  O   -0.489801  -0.020235  -0.403445  -0.000484   0.416158  -0.103160
    14  N   -0.182002  -0.006848  -0.263718  -0.000846   0.358876  -0.134732
    15  H   -0.011821  -0.000300   0.016441  -0.000020   0.149260   0.022819
    16  N    0.891063   0.139181  -0.000084  -0.000974   0.013610   0.000944
    17  C    3.699950  -0.628250   0.433951   0.002935  -0.079714  -0.004526
    18  N   -1.432340   0.213306  -0.028613   0.002199  -0.037061  -0.001153
    19  O   -0.108268   0.295273   0.063454   0.003156  -0.017271  -0.000988
    20  O    0.090546   0.825028  -0.026539  -0.000825  -0.002681  -0.000027
    21  H    0.049291   0.017610  -0.006920   0.000002   0.000194   0.000001
    22  C   -0.231735  -0.333449  -0.016859  -0.000021  -0.004512  -0.000006
    23  C   -1.777785   0.070873   0.090373   0.000048  -0.014975  -0.000252
    24  S    0.354993  -0.031448  -0.021599  -0.000024   0.002350   0.000028
    25  C   -0.085651   0.042664   0.001919   0.000003  -0.000776  -0.000009
    26  C   -0.060543  -0.007274   0.005567   0.000004  -0.000255  -0.000003
    27  H    0.104586   0.038896   0.010588  -0.000001  -0.000182  -0.000001
    28  H   -0.033155   0.020932   0.001290   0.000000  -0.000014  -0.000000
    29  H    0.038659  -0.001068  -0.007336  -0.000000  -0.000003  -0.000000
    30  H    0.028115  -0.044821   0.003852  -0.000001   0.000047   0.000000
    31  H    0.014275  -0.020957  -0.000677   0.000000   0.000001  -0.000000
    32  H   -0.005285   0.013780   0.000431  -0.000000  -0.000010  -0.000000
    33  H   -0.000003   0.000131   0.000012  -0.000000   0.000000   0.000000
    34  H    0.001023   0.001596   0.000514   0.000000  -0.000012  -0.000000
    35  F    0.000848  -0.000464  -0.000018  -0.000000   0.000000   0.000000
    36  F   -0.000396  -0.000054  -0.000015   0.000000  -0.000000   0.000000
    37  F   -0.002820   0.007800   0.000037   0.000000  -0.000003  -0.000000
              13         14         15         16         17         18
     1  C   -0.219287  -0.087998  -0.140101   0.008455  -1.818550  -0.922305
     2  C    0.497185   0.080430  -0.060473   0.120626  -1.246774   0.373431
     3  Cl  -0.051766  -0.009821   0.025411  -0.002324  -0.000503  -0.004646
     4  C   -0.003569  -0.002301   0.035397  -0.188437   0.446412   0.082828
     5  H   -0.000042  -0.000065  -0.000001  -0.011163   0.004891   0.000588
     6  C    0.176656   0.056512   0.006472  -0.773627  -1.986900   0.743682
     7  C   -0.489801  -0.182002  -0.011821   0.891063   3.699950  -1.432340
     8  S   -0.020235  -0.006848  -0.000300   0.139181  -0.628250   0.213306
     9  C   -0.403445  -0.263718   0.016441  -0.000084   0.433951  -0.028613
    10  H   -0.000484  -0.000846  -0.000020  -0.000974   0.002935   0.002199
    11  S    0.416158   0.358876   0.149260   0.013610  -0.079714  -0.037061
    12  O   -0.103160  -0.134732   0.022819   0.000944  -0.004526  -0.001153
    13  O    8.899723  -0.161592  -0.013455   0.000078  -0.005217  -0.000722
    14  N   -0.161592   7.867977   0.190743  -0.000020  -0.006374  -0.000789
    15  H   -0.013455   0.190743   0.438056  -0.000003  -0.000074  -0.000002
    16  N    0.000078  -0.000020  -0.000003   8.153617  -0.873421  -0.562174
    17  C   -0.005217  -0.006374  -0.000074  -0.873421  19.806222  -1.105158
    18  N   -0.000722  -0.000789  -0.000002  -0.562174  -1.105158   9.280031
    19  O   -0.000333  -0.000331   0.000000  -0.020081   0.169720  -0.004216
    20  O   -0.000098  -0.000096  -0.000001   0.101437  -0.130971  -0.212460
    21  H    0.000001   0.000002   0.000000   0.242180  -0.014670   0.010851
    22  C    0.000015  -0.000038  -0.000000  -0.198662  -0.482763   0.590805
    23  C   -0.000354  -0.000433  -0.000004   0.238247  -9.217069   0.919489
    24  S   -0.000000   0.000045   0.000001   0.119997   0.127605  -0.265906
    25  C   -0.000005  -0.000029  -0.000000   0.051033  -0.263727   0.037443
    26  C   -0.000000  -0.000006   0.000000  -0.016292  -0.391455   0.051098
    27  H   -0.000000  -0.000001   0.000000  -0.082660   0.613541  -0.112176
    28  H   -0.000000  -0.000000  -0.000000  -0.011871  -0.098005  -0.032223
    29  H   -0.000000   0.000000   0.000000   0.010461   0.101750  -0.043466
    30  H   -0.000000   0.000000  -0.000000   0.001860   0.042105  -0.080073
    31  H   -0.000000   0.000000  -0.000000   0.009347  -0.044797  -0.022331
    32  H   -0.000000  -0.000000   0.000000   0.009987  -0.095067   0.026897
    33  H   -0.000000   0.000000   0.000000  -0.002232   0.001873   0.000119
    34  H   -0.000000  -0.000000   0.000000   0.013484  -0.006650   0.000942
    35  F   -0.000000  -0.000000  -0.000000  -0.000059   0.039305  -0.000844
    36  F   -0.000000  -0.000000  -0.000000   0.000980  -0.015846   0.000089
    37  F   -0.000000  -0.000000  -0.000000  -0.001317   0.009534   0.005933
              19         20         21         22         23         24
     1  C   -0.312354  -0.152329   0.008397  -0.061235  -0.914233   0.024823
     2  C    0.015283   0.008586   0.033350   0.027139   0.193143  -0.117145
     3  Cl  -0.000978  -0.000395   0.000018  -0.000452  -0.000571   0.002657
     4  C    0.020796   0.035826   0.036951  -0.038347   0.014898   0.013862
     5  H    0.000018   0.000023   0.005698   0.000056   0.002651  -0.001911
     6  C   -0.067997  -0.304450  -0.130179   0.225741  -0.050267  -0.200561
     7  C   -0.108268   0.090546   0.049291  -0.231735  -1.777785   0.354993
     8  S    0.295273   0.825028   0.017610  -0.333449   0.070873  -0.031448
     9  C    0.063454  -0.026539  -0.006920  -0.016859   0.090373  -0.021599
    10  H    0.003156  -0.000825   0.000002  -0.000021   0.000048  -0.000024
    11  S   -0.017271  -0.002681   0.000194  -0.004512  -0.014975   0.002350
    12  O   -0.000988  -0.000027   0.000001  -0.000006  -0.000252   0.000028
    13  O   -0.000333  -0.000098   0.000001   0.000015  -0.000354  -0.000000
    14  N   -0.000331  -0.000096   0.000002  -0.000038  -0.000433   0.000045
    15  H    0.000000  -0.000001   0.000000  -0.000000  -0.000004   0.000001
    16  N   -0.020081   0.101437   0.242180  -0.198662   0.238247   0.119997
    17  C    0.169720  -0.130971  -0.014670  -0.482763  -9.217069   0.127605
    18  N   -0.004216  -0.212460   0.010851   0.590805   0.919489  -0.265906
    19  O    8.631483  -0.207852  -0.000005  -0.063661   0.105039   0.002377
    20  O   -0.207852   8.482916   0.000508  -0.102816  -0.028803   0.006432
    21  H   -0.000005   0.000508   0.335398   0.001439  -0.064125   0.076147
    22  C   -0.063661  -0.102816   0.001439   5.992444   0.185550  -0.150515
    23  C    0.105039  -0.028803  -0.064125   0.185550  16.191763  -0.582701
    24  S    0.002377   0.006432   0.076147  -0.150515  -0.582701  16.817536
    25  C    0.000485   0.003994  -0.014625  -0.006799   0.087860  -0.199195
    26  C    0.000278  -0.000516  -0.002967   0.023757   0.393933  -0.142418
    27  H    0.000533   0.010936   0.000546   0.007072  -0.351503  -0.045045
    28  H    0.000880  -0.001228  -0.000013   0.408269   0.074604  -0.004942
    29  H   -0.000191   0.007663   0.000010   0.336625  -0.129828   0.006934
    30  H    0.013412  -0.004740   0.000002   0.385571   0.004657   0.001250
    31  H   -0.000013  -0.000685   0.000257  -0.007400   0.367841   0.015469
    32  H    0.000127   0.000093  -0.000325  -0.004853   0.389386  -0.062357
    33  H    0.000000   0.000003   0.000026   0.000338   0.020218  -0.044852
    34  H   -0.000001  -0.000037  -0.001130   0.000488  -0.006399  -0.059994
    35  F   -0.000000  -0.000005   0.000006  -0.000890  -0.053041   0.040324
    36  F    0.000000  -0.000019  -0.000021  -0.000651   0.010515   0.012650
    37  F    0.000012  -0.000026  -0.000062  -0.002015   0.005560  -0.010140
              25         26         27         28         29         30
     1  C   -0.019460  -0.005967   0.030829  -0.001001  -0.000192   0.000693
     2  C    0.041264   0.003732  -0.000753   0.000269   0.000060  -0.000296
     3  Cl  -0.000756  -0.000165  -0.000019  -0.000001  -0.000000   0.000001
     4  C    0.029852  -0.010009   0.023486  -0.001369   0.003011   0.000153
     5  H    0.000251   0.000081  -0.000002   0.000000  -0.000000  -0.000000
     6  C   -0.037957   0.034814  -0.079030   0.012407  -0.002120  -0.007297
     7  C   -0.085651  -0.060543   0.104586  -0.033155   0.038659   0.028115
     8  S    0.042664  -0.007274   0.038896   0.020932  -0.001068  -0.044821
     9  C    0.001919   0.005567   0.010588   0.001290  -0.007336   0.003852
    10  H    0.000003   0.000004  -0.000001   0.000000  -0.000000  -0.000001
    11  S   -0.000776  -0.000255  -0.000182  -0.000014  -0.000003   0.000047
    12  O   -0.000009  -0.000003  -0.000001  -0.000000  -0.000000   0.000000
    13  O   -0.000005  -0.000000  -0.000000  -0.000000  -0.000000  -0.000000
    14  N   -0.000029  -0.000006  -0.000001  -0.000000   0.000000   0.000000
    15  H   -0.000000   0.000000   0.000000  -0.000000   0.000000  -0.000000
    16  N    0.051033  -0.016292  -0.082660  -0.011871   0.010461   0.001860
    17  C   -0.263727  -0.391455   0.613541  -0.098005   0.101750   0.042105
    18  N    0.037443   0.051098  -0.112176  -0.032223  -0.043466  -0.080073
    19  O    0.000485   0.000278   0.000533   0.000880  -0.000191   0.013412
    20  O    0.003994  -0.000516   0.010936  -0.001228   0.007663  -0.004740
    21  H   -0.014625  -0.002967   0.000546  -0.000013   0.000010   0.000002
    22  C   -0.006799   0.023757   0.007072   0.408269   0.336625   0.385571
    23  C    0.087860   0.393933  -0.351503   0.074604  -0.129828   0.004657
    24  S   -0.199195  -0.142418  -0.045045  -0.004942   0.006934   0.001250
    25  C    6.454577   0.278579   0.007652   0.000253  -0.001176  -0.000059
    26  C    0.278579   4.392668   0.000468  -0.000278  -0.001015  -0.000226
    27  H    0.007652   0.000468   0.546517  -0.000679   0.005823  -0.000248
    28  H    0.000253  -0.000278  -0.000679   0.503449  -0.040452  -0.018479
    29  H   -0.001176  -0.001015   0.005823  -0.040452   0.471125  -0.023021
    30  H   -0.000059  -0.000226  -0.000248  -0.018479  -0.023021   0.430316
    31  H   -0.019068   0.001624  -0.003841  -0.004084  -0.001541   0.000192
    32  H    0.017487  -0.001853   0.003464  -0.001344   0.000404  -0.000039
    33  H    0.345560  -0.023595   0.000066  -0.000000   0.000000  -0.000000
    34  H    0.363952  -0.033981   0.001829   0.000000  -0.000003   0.000000
    35  F   -0.116546   0.187095  -0.000194   0.000004  -0.000004   0.000000
    36  F   -0.090503   0.181919  -0.000257   0.000000   0.000005   0.000000
    37  F   -0.119654   0.201410   0.001541  -0.000096  -0.000642  -0.000010
              31         32         33         34         35         36
     1  C   -0.000016  -0.000194   0.000034  -0.000191   0.000009  -0.000092
     2  C   -0.000727   0.001866   0.000081  -0.001386  -0.000033  -0.000023
     3  Cl   0.000002  -0.000005   0.000002  -0.000018   0.000000   0.000000
     4  C   -0.000783   0.003041   0.000011  -0.003616  -0.000070  -0.000354
     5  H    0.000000  -0.000001   0.000000   0.000000   0.000000  -0.000000
     6  C   -0.009500   0.008728   0.001113  -0.000054  -0.000256   0.001506
     7  C    0.014275  -0.005285  -0.000003   0.001023   0.000848  -0.000396
     8  S   -0.020957   0.013780   0.000131   0.001596  -0.000464  -0.000054
     9  C   -0.000677   0.000431   0.000012   0.000514  -0.000018  -0.000015
    10  H    0.000000  -0.000000  -0.000000   0.000000  -0.000000   0.000000
    11  S    0.000001  -0.000010   0.000000  -0.000012   0.000000  -0.000000
    12  O   -0.000000  -0.000000   0.000000  -0.000000   0.000000   0.000000
    13  O   -0.000000  -0.000000  -0.000000  -0.000000  -0.000000  -0.000000
    14  N    0.000000  -0.000000   0.000000  -0.000000  -0.000000  -0.000000
    15  H   -0.000000   0.000000   0.000000   0.000000  -0.000000  -0.000000
    16  N    0.009347   0.009987  -0.002232   0.013484  -0.000059   0.000980
    17  C   -0.044797  -0.095067   0.001873  -0.006650   0.039305  -0.015846
    18  N   -0.022331   0.026897   0.000119   0.000942  -0.000844   0.000089
    19  O   -0.000013   0.000127   0.000000  -0.000001  -0.000000   0.000000
    20  O   -0.000685   0.000093   0.000003  -0.000037  -0.000005  -0.000019
    21  H    0.000257  -0.000325   0.000026  -0.001130   0.000006  -0.000021
    22  C   -0.007400  -0.004853   0.000338   0.000488  -0.000890  -0.000651
    23  C    0.367841   0.389386   0.020218  -0.006399  -0.053041   0.010515
    24  S    0.015469  -0.062357  -0.044852  -0.059994   0.040324   0.012650
    25  C   -0.019068   0.017487   0.345560   0.363952  -0.116546  -0.090503
    26  C    0.001624  -0.001853  -0.023595  -0.033981   0.187095   0.181919
    27  H   -0.003841   0.003464   0.000066   0.001829  -0.000194  -0.000257
    28  H   -0.004084  -0.001344  -0.000000   0.000000   0.000004   0.000000
    29  H   -0.001541   0.000404   0.000000  -0.000003  -0.000004   0.000005
    30  H    0.000192  -0.000039  -0.000000   0.000000   0.000000   0.000000
    31  H    0.459758  -0.024248  -0.000095  -0.000385   0.000226  -0.000361
    32  H   -0.024248   0.424345  -0.000034   0.000009  -0.000025   0.000017
    33  H   -0.000095  -0.000034   0.430396  -0.017670  -0.004736  -0.002650
    34  H   -0.000385   0.000009  -0.017670   0.436685   0.007263  -0.000927
    35  F    0.000226  -0.000025  -0.004736   0.007263   9.273009  -0.046971
    36  F   -0.000361   0.000017  -0.002650  -0.000927  -0.046971   9.290755
    37  F   -0.003184   0.000456   0.008033  -0.002853  -0.042560  -0.042887
              37
     1  C   -0.000346
     2  C   -0.000015
     3  Cl  -0.000000
     4  C   -0.001033
     5  H   -0.000000
     6  C    0.007584
     7  C   -0.002820
     8  S    0.007800
     9  C    0.000037
    10  H    0.000000
    11  S   -0.000003
    12  O   -0.000000
    13  O   -0.000000
    14  N   -0.000000
    15  H   -0.000000
    16  N   -0.001317
    17  C    0.009534
    18  N    0.005933
    19  O    0.000012
    20  O   -0.000026
    21  H   -0.000062
    22  C   -0.002015
    23  C    0.005560
    24  S   -0.010140
    25  C   -0.119654
    26  C    0.201410
    27  H    0.001541
    28  H   -0.000096
    29  H   -0.000642
    30  H   -0.000010
    31  H   -0.003184
    32  H    0.000456
    33  H    0.008033
    34  H   -0.002853
    35  F   -0.042560
    36  F   -0.042887
    37  F    9.276733
 Mulliken charges:
               1
     1  C   -2.265939
     2  C    0.863968
     3  Cl   0.227421
     4  C   -0.224588
     5  H    0.205774
     6  C    0.564317
     7  C   -1.010414
     8  S    1.627592
     9  C   -0.120978
    10  H    0.308454
    11  S    1.543417
    12  O   -0.675746
    13  O   -0.516251
    14  N   -0.696545
    15  H    0.341654
    16  N   -0.381186
    17  C   -0.983314
    18  N   -0.471072
    19  O   -0.517786
    20  O   -0.396390
    21  H    0.416156
    22  C   -0.477630
    23  C   -0.174303
    24  S    0.315275
    25  C   -0.788834
    26  C    0.941792
    27  H    0.268221
    28  H    0.226879
    29  H    0.269526
    30  H    0.267086
    31  H    0.295700
    32  H    0.295123
    33  H    0.287848
    34  H    0.307521
    35  F   -0.281373
    36  F   -0.296409
    37  F   -0.294966
 Sum of Mulliken charges =  -1.00000
 Mulliken charges with hydrogens summed into heavy atoms:
               1
     1  C   -2.265939
     2  C    0.863968
     3  Cl   0.227421
     4  C   -0.018813
     6  C    0.564317
     7  C   -1.010414
     8  S    1.627592
     9  C    0.187476
    11  S    1.543417
    12  O   -0.675746
    13  O   -0.516251
    14  N   -0.354891
    16  N    0.034970
    17  C   -0.715093
    18  N   -0.471072
    19  O   -0.517786
    20  O   -0.396390
    22  C    0.285861
    23  C    0.416520
    24  S    0.315275
    25  C   -0.193465
    26  C    0.941792
    35  F   -0.281373
    36  F   -0.296409
    37  F   -0.294966
 Electronic spatial extent (au):  <R**2>=          14038.6768
 Charge=             -1.0000 electrons
 Dipole moment (field-independent basis, Debye):
    X=             24.2802    Y=             -5.3491    Z=             -5.1860  Tot=             25.3975
 Quadrupole moment (field-independent basis, Debye-Ang):
   XX=           -316.4576   YY=           -188.6769   ZZ=           -197.2214
   XY=              9.0648   XZ=             10.5745   YZ=             -5.9639
 Traceless Quadrupole moment (field-independent basis, Debye-Ang):
   XX=            -82.3390   YY=             45.4417   ZZ=             36.8972
   XY=              9.0648   XZ=             10.5745   YZ=             -5.9639
 Octapole moment (field-independent basis, Debye-Ang**2):
  XXX=            704.8056  YYY=            -61.1382  ZZZ=            -12.4712  XYY=             88.6563
  XXY=             -7.3643  XXZ=            -99.6393  XZZ=             93.1791  YZZ=             -0.7300
  YYZ=              1.4862  XYZ=            -12.8282
 Hexadecapole moment (field-independent basis, Debye-Ang**3):
 XXXX=         -18201.2348 YYYY=          -3169.2974 ZZZZ=          -1312.2108 XXXY=            221.1026
 XXXZ=            485.7543 YYYX=             24.7754 YYYZ=            -44.6470 ZZZX=            233.1055
 ZZZY=             -2.0773 XXYY=          -2739.2271 XXZZ=          -2867.6983 YYZZ=           -759.5630
 XXYZ=            -86.6477 YYXZ=             50.2386 ZZXY=            -15.0446
 N-N= 3.125280256483D+03 E-N=-1.299209364742D+04  KE= 2.830498866578D+03
 Calling FoFJK, ICntrl=      2127 FMM=F ISym2X=0 I1Cent= 0 IOpClX= 0 NMat=1 NMatS=1 NMatT=0.
 ***** Axes restored to original set *****
 -------------------------------------------------------------------
 Center     Atomic                   Forces (Hartrees/Bohr)
 Number     Number              X              Y              Z
 -------------------------------------------------------------------
      1        6          -0.004620403   -0.001274782   -0.006392277
      2        6           0.002678151    0.000989850    0.006829392
      3       17           0.000419382    0.000431422   -0.001431470
      4        6           0.006170326   -0.001540935   -0.007369779
      5        1          -0.001219788    0.000499713    0.000554888
      6        6          -0.003370857    0.002515545    0.021011498
      7        6          -0.003611032   -0.000219497   -0.007286570
      8       16           0.013427684    0.000933318    0.030873594
      9        6           0.000614169   -0.000434044   -0.001847828
     10        1          -0.000938599    0.000654613    0.002515414
     11       16           0.005953178    0.017985503    0.038175109
     12        8          -0.007427974   -0.003643776   -0.012726362
     13        8           0.001512030   -0.010735394   -0.010567012
     14        7          -0.001329494   -0.005215695   -0.007693806
     15        1           0.001132432    0.002201870    0.000581768
     16        7           0.002082424   -0.002623636   -0.019798831
     17        6          -0.002009630    0.006482290    0.003188894
     18        7           0.000635217   -0.005041615   -0.013333123
     19        8          -0.005008743   -0.004987995   -0.009774569
     20        8          -0.005098958    0.004690211   -0.009780820
     21        1           0.003448106    0.000828355    0.000975091
     22        6          -0.005020090    0.001590041    0.001593677
     23        6           0.000052831   -0.000661224    0.000167820
     24       16          -0.001441015    0.000532288   -0.001494142
     25        6          -0.000012434    0.001185818    0.000514490
     26        6           0.007544492   -0.004863281   -0.003927629
     27        1           0.002501156   -0.002703620    0.001111399
     28        1           0.000103053    0.000685374   -0.001214954
     29        1           0.001349984   -0.001341839    0.000584115
     30        1          -0.001001896   -0.000320831    0.001860668
     31        1          -0.000271130   -0.000714495   -0.000630005
     32        1          -0.000996762    0.000254258    0.000970616
     33        1           0.000247506    0.000326919    0.000094383
     34        1           0.000139430    0.000153550    0.000343570
     35        9          -0.002078601    0.000783801    0.002250097
     36        9          -0.001743755    0.001680498    0.000306135
     37        9          -0.002810388    0.000917424    0.000766562
 -------------------------------------------------------------------
 Cartesian Forces:  Max     0.038175109 RMS     0.006982794

 GradGradGradGradGradGradGradGradGradGradGradGradGradGradGradGradGradGrad
 Berny optimization.
 FormGI is forming the generalized inverse of G from B-inverse, IUseBI=4.
 Internal  Forces:  Max     0.016083845 RMS     0.003330423
 Search for a local minimum.
 Step number   1 out of a maximum of  207
 All quantities printed in internal units (Hartrees-Bohrs-Radians)
 Mixed Optimization -- RFO/linear search
 Second derivative matrix not updated -- first step.
 ITU=  0
     Eigenvalues ---    0.00230   0.00230   0.00230   0.00427   0.00609
     Eigenvalues ---    0.00667   0.01322   0.01363   0.01504   0.01684
     Eigenvalues ---    0.01732   0.02068   0.02078   0.02116   0.02154
     Eigenvalues ---    0.02192   0.02227   0.02236   0.02682   0.03169
     Eigenvalues ---    0.04524   0.04570   0.04610   0.05042   0.05674
     Eigenvalues ---    0.06126   0.07121   0.07142   0.07633   0.08186
     Eigenvalues ---    0.08429   0.08566   0.10144   0.11173   0.11422
     Eigenvalues ---    0.11609   0.11640   0.11947   0.12554   0.12842
     Eigenvalues ---    0.13948   0.13981   0.15095   0.16000   0.16000
     Eigenvalues ---    0.16000   0.16000   0.16000   0.16000   0.17157
     Eigenvalues ---    0.17306   0.17744   0.20370   0.21720   0.22092
     Eigenvalues ---    0.22112   0.23107   0.23956   0.24391   0.24680
     Eigenvalues ---    0.24991   0.24999   0.25000   0.25000   0.25000
     Eigenvalues ---    0.25000   0.25000   0.25000   0.25064   0.25088
     Eigenvalues ---    0.28965   0.29828   0.31072   0.31606   0.32036
     Eigenvalues ---    0.33392   0.34162   0.34233   0.34354   0.34404
     Eigenvalues ---    0.34445   0.34706   0.34899   0.34990   0.35238
     Eigenvalues ---    0.35293   0.36147   0.37155   0.40526   0.42109
     Eigenvalues ---    0.44008   0.44272   0.44770   0.45462   0.47443
     Eigenvalues ---    0.48416   0.49547   0.55326   0.55604   0.56273
     Eigenvalues ---    0.60178   0.79450   0.81900   0.87148   0.89567
 RFO step:  Lambda=-9.73203730D-03 EMin= 2.30000000D-03
 Linear search not attempted -- first point.
 Iteration  1 RMS(Cart)=  0.04326943 RMS(Int)=  0.00124982
 Iteration  2 RMS(Cart)=  0.00134642 RMS(Int)=  0.00053240
 Iteration  3 RMS(Cart)=  0.00000100 RMS(Int)=  0.00053240
 Variable       Old X    -DE/DX   Delta X   Delta X   Delta X     New X
                                 (Linear)    (Quad)   (Total)
    R1        2.65663  -0.00369   0.00000  -0.00796  -0.00795   2.64867
    R2        2.61654   0.00182   0.00000   0.00397   0.00397   2.62051
    R3        3.42745   0.00775   0.00000   0.02976   0.02976   3.45721
    R4        3.29576  -0.00086   0.00000  -0.00269  -0.00269   3.29307
[...]
 773,-0.00000171,-0.00001243,-0.00001896,-0.00007922,0.00000112,0.00000
 914,0.00002231,0.00002636,0.00000630,-0.00014082,-0.00000502,-0.000003
 38,-0.00001496,0.00000024,-0.00000138,-0.00000236,0.00001786,-0.000005
 84,-0.00002773,-0.00000500,0.00000224,0.00000814,-0.00001060,0.0000090
 2,0.00000663,-0.00000952,-0.00000573,0.00001113,0.00000056,0.00000148,
 -0.00000042,0.00005063,-0.00006964,0.00011195,-0.00014645,0.00008816,-
 0.00043498,0.00003676,-0.00013119,0.00010765,0.00001474,0.00001978,0.0
 0004860,0.00001475,-0.00002538,0.00003997,0.00005746,0.00000238,-0.000
 02489,-0.00005789,0.00010507,0.00001201,-0.00153279,0.00358696,-0.0016
 2765,0.01002857,0.00921353,0.00146881,-0.20409231,-0.13893445,0.007276
 23,-0.01534341,-0.01617991,-0.00359557,0.00000693,-0.00011222,0.000174
 16,-0.00003402,-0.00002565,0.00001794,0.00001706,-0.00003166,0.0000138
 4,0.00000872,-0.00002152,0.00001477,-0.00002769,0.00011323,-0.00007323
 ,0.00110513,0.00066901,0.00061317,0.22116836,0.00001510,-0.00000069,-0
 .00002058,-0.00003101,-0.00000045,0.00001349,0.00003558,-0.00000098,-0
 .00001145,0.00001676,0.00000207,-0.00006079,0.00000539,-0.00001176,0.0
 0000392,0.00001422,0.00003005,0.00015575,-0.00000778,-0.00000153,-0.00
 004910,-0.00001237,-0.00005349,0.00032893,0.00001101,0.00000220,0.0000
 1968,-0.00000031,0.00000104,0.00000462,-0.00002358,0.00000295,0.000065
 81,0.00000114,-0.00000231,-0.00001993,0.00001434,-0.00001262,-0.000017
 80,0.00001609,0.00001628,-0.00002402,-0.00000135,-0.00000231,0.0000014
 1,0.00000678,0.00005312,-0.00025503,0.00019733,0.00008310,0.00067627,-
 0.00008405,0.00006759,-0.00022202,-0.00002557,-0.00001961,-0.00008517,
 -0.00002279,0.00009251,-0.00009707,-0.00006713,-0.00005293,0.00004259,
 0.00005363,-0.00008568,-0.00001480,0.00313974,-0.00534179,0.00251210,-
 0.01437178,-0.01680876,-0.00267817,-0.14663180,-0.17013475,0.00500539,
 0.00325643,0.00399237,0.00086233,-0.00001123,0.00006636,-0.00010920,0.
 00005473,0.00002478,-0.00001172,-0.00000404,0.00001960,-0.00000424,-0.
 00000866,0.00001502,-0.00001455,0.00035390,0.00030722,0.00020220,-0.00
 158142,-0.00066657,-0.00107249,0.14941362,0.18362785,0.00001344,-0.000
 00640,-0.00001607,-0.00001817,0.00000092,-0.00000007,0.00002458,0.0000
 0248,-0.00000792,0.00002171,0.00002062,-0.00005280,0.00000776,-0.00002
 193,0.00000906,-0.00000500,0.00000753,0.00015255,-0.00000737,0.0000155
 8,-0.00004692,-0.00004609,-0.00004587,0.00030743,0.00001094,-0.0000005
 2,0.00001666,-0.00000178,-0.00000093,0.00000333,-0.00002069,-0.0000262
 5,0.00004664,0.00000585,0.00000702,-0.00001194,0.00000588,0.00000802,-
 0.00001363,0.00001615,0.00002939,-0.00001335,-0.00000081,-0.00000488,-
 0.00000186,0.00015253,-0.00008510,-0.00023367,-0.00018728,0.00014342,0
 .00033502,-0.00005007,-0.00013170,-0.00022588,-0.00001240,-0.00001147,
 -0.00007673,0.00000771,0.00007211,-0.00011015,-0.00001856,-0.00013701,
 0.00003628,-0.00002402,0.00003500,-0.00003756,0.00020182,-0.00075143,-
 0.00022594,-0.00029498,0.00126197,-0.00007395,0.00476166,0.00149713,-0
 .04967299,0.02105024,0.02020908,0.00070682,0.00001594,-0.00009242,0.00
 025436,0.00002445,-0.00000551,0.00000439,0.00002727,-0.00001124,0.0000
 0817,0.00000137,-0.00001114,-0.00000343,0.00014307,0.00018660,-0.00009
 959,-0.00003536,-0.00011317,-0.00007873,-0.00924183,-0.00270941,0.0496
 7276,-0.00002333,0.00000234,0.00000386,0.00000662,0.00000308,0.0000215
 1,-0.00001140,-0.00000347,0.00000347,-0.00000664,-0.00001618,0.0000013
 7,-0.00000690,0.00001732,-0.00000910,-0.00000238,0.00000311,0.00004229
 ,-0.00001456,-0.00001201,0.00003854,0.00014594,0.00011972,-0.00022560,
 -0.00000453,-0.00000225,-0.00001904,0.00000389,0.00000128,-0.00000475,
 0.00001825,0.00003265,-0.00002043,-0.00001080,-0.00000884,0.00000473,-
 0.00000112,-0.00001458,0.00000754,-0.00001224,-0.00002487,0.00000414,0
 .00000029,0.00000383,0.00000170,0.00000124,-0.00008255,0.00017815,0.00
 057785,0.00061725,-0.00021494,-0.00023282,-0.00030778,0.00035483,-0.00
 001444,0.00000284,0.00009027,-0.00008798,-0.00000613,0.00010196,-0.000
 11912,0.00023839,-0.00016371,0.00021569,-0.00014774,-0.00007600,-0.000
 06373,-0.00196313,0.00052787,-0.00586158,0.00409734,-0.00665497,-0.130
 40497,0.01149414,-0.12908197,0.01234572,-0.00208563,0.01611474,0.00043
 732,-0.00037852,-0.00015752,-0.00002166,0.00000868,0.00003581,-0.00006
 065,0.00012627,0.00002521,-0.00002721,0.00004023,0.00000508,0.00031243
 ,-0.00000362,0.00023137,-0.00020827,-0.00012389,-0.00012101,-0.0109762
 0,0.00324638,-0.01973527,0.13480868,-0.00002523,0.00000461,0.00004969,
 0.00006655,-0.00000685,-0.00003319,-0.00007257,0.00000316,0.00002258,-
 0.00003759,0.00000124,0.00012541,-0.00000542,0.00000333,-0.00000100,-0
 .00002948,-0.00005451,-0.00034573,0.00000641,-0.00000502,0.00008621,-0
 .00001172,-0.00005491,-0.00079237,-0.00002894,-0.00000637,-0.00003615,
 0.00000061,-0.00000221,-0.00001159,0.00004644,-0.00002135,-0.00016383,
 0.00000634,0.00000857,0.00005174,-0.00003122,0.00003877,0.00004313,-0.
 00003352,-0.00003312,0.00006114,0.00000323,0.00000339,-0.00000533,-0.0
 0045620,0.00055267,0.00020014,0.00041352,-0.00217414,0.00008100,0.0000
 7845,0.00096343,0.00024576,0.00005036,0.00005477,0.00015903,0.00003192
 ,-0.00005728,0.00025342,0.00010974,-0.00006365,0.00026771,-0.00003083,
 -0.00013070,0.00012380,0.00026935,0.00261689,-0.00004476,0.01708632,-0
 .01314834,0.01864468,0.01355549,-0.04322612,0.02558554,-0.00574897,0.0
 0059268,-0.00330639,-0.00049720,0.00003714,-0.00174850,-0.00000383,0.0
 0002607,-0.00001371,-0.00007435,0.00002333,-0.00004350,0.00001062,0.00
 004424,-0.00001970,-0.00058120,-0.00048663,0.00004690,0.00016601,0.000
 52834,0.00025354,-0.01027343,0.00318704,-0.01888440,-0.01557096,0.0509
 2134,-0.00001360,-0.00000046,0.00000974,0.00003281,0.,-0.00000438,-0.0
 0002212,0.00000313,0.00000610,-0.00000052,-0.00000075,0.00000914,0.000
 00218,-0.00000573,0.00000201,0.00005449,-0.00002779,-0.00006420,-0.000
 01879,0.00003569,0.00000909,-0.00003901,-0.00016155,-0.00004185,0.0000
 0433,-0.00000370,-0.00001412,-0.00000169,-0.00000274,-0.00000322,0.000
 01021,-0.00002617,-0.00005566,0.00000723,0.00000892,0.00001985,-0.0000
 1278,0.00002369,0.00001505,-0.00000775,0.00000004,0.00002409,0.0000012
 5,-0.00000028,-0.00000383,-0.00001004,0.00028922,-0.00006142,0.0005585
 8,-0.00097032,0.00074405,-0.00004709,0.00043208,0.00000933,0.00005288,
 0.00006347,0.00001450,0.00002874,0.00022289,0.00002621,0.00007783,-0.0
 0008556,0.00009064,-0.00018537,0.00000427,0.00007552,-0.00040098,-0.00
 024587,-0.00003995,0.00062100,0.00116444,0.00275007,-0.12131888,0.0175
 3249,-0.24800103,-0.01914620,0.00249287,-0.02204682,-0.00030800,-0.000
 92522,-0.00101758,0.00002548,0.00002306,-0.00001127,0.00004934,-0.0000
 3354,0.00002349,0.00002145,-0.00001177,-0.00001444,0.00015121,0.000278
 42,-0.00004316,0.00008052,0.00003431,-0.00015871,0.00192006,-0.0006220
 5,0.00277859,0.13370289,-0.01830367,0.26634332,0.00005679,0.00000380,0
 .00000547,-0.00004835,-0.00001060,-0.00002361,0.00004079,-0.00000156,-
 0.00000649,-0.00002731,0.00001023,0.00000132,0.00001223,-0.00000338,0.
 00000042,0.00005829,0.00000184,-0.00010678,0.00003561,-0.00002019,-0.0
 0002382,-0.00024381,0.00020619,0.00012012,0.00000756,0.00001155,0.0000
 4857,-0.00000563,0.00000341,0.00000749,-0.00005468,0.00000602,-0.00000
 089,0.00003540,-0.00000237,0.00000354,0.00002250,-0.00001271,0.0000015
 6,0.00001829,0.00000711,-0.00000373,0.00000054,-0.00000262,-0.00000069
 ,0.00011604,-0.00001940,-0.00001905,0.00030515,0.00022758,0.00003655,0
 .00029885,-0.00001601,0.00008628,0.00011949,-0.00001437,-0.00000774,0.
 00013720,-0.00013614,-0.00007014,0.00002150,-0.00004316,-0.00012251,-0
 .00032191,0.00021576,0.00015850,-0.00092439,-0.00064119,0.00067960,0.0
 0053316,0.00010517,0.00032993,0.00992393,0.00108770,0.00877035,-0.1136
 9593,-0.00177366,-0.08248391,-0.00002319,0.00002533,-0.00002436,-0.000
 00874,0.00003979,-0.00001110,0.00006850,-0.00013349,0.00005917,0.00004
 180,-0.00003596,0.00000091,0.00014996,0.00055243,0.00035012,0.00014868
 ,0.00000986,-0.00005150,0.00146389,0.00038326,-0.00139949,-0.00070257,
 0.00111880,0.00238801,0.16562026,-0.00000052,-0.00000588,-0.00007201,-
 0.00008416,0.00001558,0.00007029,0.00007896,-0.00000402,-0.00003021,0.
 00008860,-0.00002783,-0.00012213,-0.00001273,-0.00000038,0.00000565,-0
 .00008306,0.00008206,0.00042412,-0.00002414,-0.00000315,-0.00011602,0.
 00009430,-0.00011562,0.00055249,0.00002098,-0.00000147,0.00000861,0.00
 000354,0.00000204,0.00001204,-0.00004655,0.00002685,0.00025009,-0.0000
 2616,-0.00001207,-0.00008267,0.00003665,-0.00004920,-0.00006872,0.0000
 4361,0.00004396,-0.00009511,-0.00000604,-0.00000415,0.00001202,0.00006
 915,-0.00009776,-0.00055382,-0.00012727,-0.00004830,0.00020153,-0.0000
 3741,-0.00006859,-0.00037204,-0.00008750,-0.00005085,-0.00016967,-0.00
 006546,0.00013832,-0.00015898,-0.00007004,0.00002148,0.00015303,-0.000
 03904,-0.00000473,-0.00001778,0.00015794,0.00035523,-0.00033804,-0.001
 02183,0.00088124,-0.00123780,-0.00333906,0.00637719,-0.00826417,0.0000
 2542,-0.07439153,-0.00470830,0.00005510,-0.00009242,0.00004064,0.00001
 878,0.00005520,-0.00000776,0.00003683,-0.00002782,0.00004453,0.0000044
 9,-0.00001368,-0.00001340,0.00011029,0.00017342,0.00016934,0.00003969,
 -0.00000554,-0.00000048,0.00121669,0.00013017,-0.00088829,0.00146157,0
 .00055243,-0.00128367,-0.00120564,0.08032272,0.00003837,-0.00001546,-0
 .00016300,-0.00024856,0.00003813,0.00015836,0.00021956,-0.00001805,-0.
 00007313,0.00017669,-0.00008418,-0.00026970,-0.00002501,0.00002223,0.0
 0000395,-0.00016249,0.00020329,0.00086945,-0.00001102,-0.00007996,-0.0
 0022789,0.00000959,0.00055701,0.00109221,0.00004834,-0.00000063,0.0000
 6077,0.00000678,0.00001666,0.00003533,-0.00014094,0.00019123,0.0005820
 6,-0.00004802,-0.00006699,-0.00019694,0.00012180,-0.00019894,-0.000153
 83,0.00010031,0.00004540,-0.00023230,-0.00001307,-0.00000204,0.0000347
 7,0.00041481,-0.00047174,-0.00091881,-0.00029566,0.00144992,0.00017418
 ,-0.00011246,-0.00068383,-0.00045587,-0.00017264,-0.00030307,-0.000316
 69,-0.00002175,-0.00021260,-0.00038209,-0.00009248,0.00008947,0.000157
 08,-0.00012401,0.00018557,-0.00011538,0.00010760,-0.00071369,0.0006452
 3,-0.00094111,0.00110083,-0.00000895,-0.02622726,0.00026686,-0.0456164
 2,-0.07215723,-0.00975158,-0.26584279,0.00028775,-0.00059992,0.0002909
 0,0.00004666,0.00003243,0.00000388,0.00010021,-0.00008339,0.00006966,0
 .00000866,-0.00004765,-0.00001963,0.00013662,0.00051423,-0.00009210,-0
 .00014159,-0.00018955,-0.00027575,-0.00068418,0.00017229,0.00104623,0.
 00687849,-0.00260570,-0.00595842,0.15360614,-0.00261911,0.33620153,0.0
 0006668,0.00001624,0.00012717,0.00009095,-0.00003137,-0.00014901,-0.00
 008460,0.00000576,0.00004216,-0.00018632,0.00005275,0.00020374,0.00004
 044,-0.00000705,-0.00001070,0.00024398,-0.00016269,-0.00082242,0.00007
 882,0.00000254,0.00017663,-0.00045917,0.00036263,-0.00068082,-0.000019
 22,0.00001712,0.00004509,-0.00001373,0.00000014,-0.00000963,0.00001311
 ,-0.00005824,-0.00040921,0.00008508,0.00002277,0.00014016,-0.00003753,
 0.00007861,0.00011328,-0.00004779,-0.00005394,0.00015145,0.00001044,0.
 00000231,-0.00002114,0.00006777,0.00004249,0.00102444,-0.00001432,0.00
 024805,-0.00058735,0.00042862,-0.00000322,0.00054845,0.00026519,0.0000
 6893,0.00023815,0.00026735,-0.00036757,0.00016408,0.00007281,0.0000380
 9,-0.00054832,-0.00024966,0.00026418,0.00020250,-0.00126372,-0.0001523
 8,-0.00034653,-0.00185399,0.00153704,0.00356261,-0.00786455,0.03195092
 ,0.00047258,-0.11886633,0.08428685,0.00460436,-0.00007591,0.00003160,-
 0.00000493,-0.00005140,-0.00006640,0.00000583,0.00000503,-0.00008669,-
 0.00002229,0.00003181,-0.00001634,0.00003509,0.00023110,0.00012730,0.0
 0032138,0.00037316,0.00008004,0.00022925,0.00138595,0.00025803,-0.0020
 3372,0.00009631,0.00027588,0.00092845,-0.01714243,0.03296203,-0.028446
 32,0.12795094,-0.00003755,-0.00002307,-0.00021344,-0.00020911,0.000047
 29,0.00021562,0.00019785,-0.00000966,-0.00008294,0.00028265,-0.0000737
 0,-0.00035690,-0.00004795,-0.00000337,0.00002071,-0.00029532,0.0002576
 7,0.00128887,-0.00009378,0.00000096,-0.00035029,0.00045586,-0.00052207
 ,0.00151348,0.00005101,-0.00001087,-0.00000906,0.00001422,0.00000093,0
 .00002886,-0.00009755,0.00005310,0.00072300,-0.00009785,-0.00002626,-0
 .00024066,0.00008668,-0.00012114,-0.00020043,0.00011471,0.00013305,-0.
 00026967,-0.00001791,-0.00001173,0.00003379,0.00008485,-0.00011387,-0.
 00180590,0.00020861,-0.00028005,0.00095111,-0.00026777,-0.00000649,-0.
 00096795,-0.00028869,-0.00009647,-0.00046528,-0.00027767,0.00056981,-0
 .00042515,-0.00011334,-0.00009833,0.00067575,-0.00004580,-0.00016052,-
 0.00008230,0.00016487,0.00070746,0.00039682,0.00308678,-0.00065255,-0.
 00350781,0.01595461,-0.02615916,0.00178151,0.08812826,-0.24315741,-0.0
 0368552,0.00009566,-0.00008075,0.00001441,0.00006859,0.00018934,-0.000
 03191,0.00009618,-0.00004351,0.00012757,0.00000281,-0.00002744,-0.0000
 5420,0.00011501,0.00046267,0.00018166,0.00000765,-0.00000447,-0.000168
 36,0.00146484,0.00015805,-0.00014731,-0.00088008,-0.00054696,0.0003487
 0,0.02706400,-0.01306737,0.03160566,-0.11907440,0.35863535,-0.00000506
 ,-0.00001127,-0.00008300,-0.00010481,0.00002047,0.00008857,0.00008985,
 -0.00000698,-0.00003383,0.00010895,-0.00003824,-0.00012621,-0.00002158
 ,0.00000950,0.00000546,-0.00016139,0.00010716,0.00048595,-0.00001818,-
 0.00004020,-0.00011542,0.00011055,0.00016229,0.00039855,0.00001277,-0.
 00000349,0.00000389,0.00000621,0.00000599,0.00001281,-0.00004832,0.000
 08783,0.00028718,-0.00003724,-0.00003110,-0.00009841,0.00004967,-0.000
 09011,-0.00007670,0.00004268,0.00002177,-0.00011288,-0.00000671,-0.000
 00052,0.00001728,0.00006000,-0.00009607,-0.00054469,-0.00006091,0.0001
 9095,0.00021923,-0.00017190,-0.00013359,-0.00025122,-0.00013129,-0.000
 13673,-0.00013774,-0.00005159,-0.00004557,-0.00013324,-0.00003300,-0.0
 0003173,0.00029072,0.00004640,-0.00001059,-0.00010269,0.00042271,0.000
 03277,0.00046840,0.00318579,-0.00163640,-0.00192543,0.01329681,-0.0240
 6702,0.00582679,0.00100971,0.00279313,-0.07850719,0.00004776,-0.000093
 67,0.00003389,0.00003495,-0.00000002,-0.00000038,0.00001627,0.00001344
 ,-0.00000135,-0.00001091,-0.00000503,-0.00001567,-0.00017992,-0.000069
 41,-0.00039531,-0.00020441,-0.00004987,-0.00014190,-0.00012261,0.00006
 525,0.00019957,-0.00068806,-0.00002401,0.00233588,-0.03650698,0.045811
 42,-0.01866355,0.01853329,-0.03728713,0.08022308,0.00011385,0.00001059
 ,0.00003758,-0.00003670,-0.00002644,-0.00009325,0.00003668,0.00000384,
 0.00000053,-0.00008813,0.00004835,0.00005087,0.00003722,-0.00002743,0.
 00000383,0.00018145,-0.00007089,-0.00038199,0.00006500,0.00001627,-0.0
 0003497,-0.00050694,0.00003681,0.00033256,0.00001721,0.00002928,0.0000
 9740,-0.00001570,0.00000066,0.00001187,-0.00008191,-0.00008240,-0.0000
 9327,0.00008054,0.00002487,0.00004100,0.00001103,0.00004613,0.00002462
 ,0.00002532,0.00003819,0.00003368,0.00000297,-0.00000918,-0.00001045,0
 .00016849,0.00009265,0.00013489,0.00025032,-0.00015810,-0.00006396,0.0
 0075127,0.00014208,-0.00001276,0.00028995,0.00008705,-0.00003427,0.000
 27346,-0.00004452,-0.00013991,0.00005961,-0.00014221,-0.00033617,-0.00
 070492,0.00043001,0.00042032,-0.00188870,-0.00010683,-0.00030858,0.001
 11848,-0.00176826,-0.00018426,-0.02980906,-0.02898928,0.00616843,-0.21
 215797,-0.09212584,0.03882504,-0.00011716,0.00012015,-0.00004853,-0.00
 003259,0.00013484,-0.00001432,0.00015425,-0.00024553,0.00020291,0.0000
 9619,-0.00008192,0.00001026,-0.00022637,0.00145492,0.00141020,0.000606
 19,0.00018138,0.00019362,-0.00313199,0.00239142,0.00664055,-0.00009516
 ,0.00021659,0.00081388,-0.04603749,-0.03024801,-0.03224257,0.01642513,
 -0.01590092,0.00149048,0.27416616,0.00003768,-0.00000211,-0.00008516,-
 0.00012286,0.00000764,0.00006291,0.00012536,-0.00000531,-0.00004405,0.
 00008052,-0.00002662,-0.00018281,-0.00000016,-0.00001077,0.00000955,0.
 00003892,0.00014182,0.00045082,-0.00001563,0.00000525,-0.00018540,-0.0
 0002195,-0.00021845,0.00096419,0.00004015,0.00000682,0.00004427,-0.000
 00040,0.00000080,0.00002136,-0.00009321,-0.00000548,0.00031630,-0.0000
 0693,-0.00000233,-0.00010085,0.00005546,-0.00004530,-0.00008764,0.0000
 7021,0.00007978,-0.00011917,-0.00000732,-0.00000954,0.00001214,0.00023
 532,-0.00008205,-0.00115708,0.00073121,-0.00027171,0.00076932,0.000247
 87,0.00010678,-0.00041671,0.00000125,-0.00001157,-0.00025354,-0.000009
 79,0.00026144,-0.00029262,-0.00006115,-0.00010385,0.00002658,-0.000383
 60,0.00009754,0.00020353,-0.00151424,-0.00072549,-0.00036329,-0.000435
 66,0.00107013,-0.00107790,-0.00734453,-0.00130294,0.00034168,-0.099474
 39,-0.14305156,0.02391354,-0.00002711,0.00004550,-0.00007893,0.0000270
 3,0.00020170,-0.00002125,0.00014499,-0.00015240,0.00018050,0.00004566,
 -0.00004966,-0.00003547,0.00201903,0.00016060,0.00011345,0.00073067,-0
 .00000972,-0.00016319,-0.00009054,0.00131685,0.00058954,0.00011582,-0.
 00014527,-0.00024686,-0.02700739,-0.00108553,-0.01774314,-0.03265200,-
 0.07591844,0.01458675,0.16452169,0.21973347,-0.00001161,-0.00001296,-0
 .00008273,-0.00009613,0.00002041,0.00009073,0.00008875,-0.00000935,-0.
 00003420,0.00009847,-0.00004951,-0.00014581,-0.00001813,0.00001602,0.0
 0000189,-0.00007514,0.00014147,0.00047551,-0.00002449,-0.00003004,-0.0
 0009829,0.00011942,0.00020836,0.00046225,0.00002074,-0.00000652,0.0000
 0528,0.00000658,0.00000638,0.00001349,-0.00003955,0.00010081,0.0002903
 1,-0.00004413,-0.00003486,-0.00010019,0.00005047,-0.00009785,-0.000077
 68,0.00003914,0.00001484,-0.00011385,-0.00000671,0.00000116,0.00001818
 ,0.00015842,-0.00019527,-0.00065525,0.00006264,0.00037006,0.00040273,-
 0.00017253,-0.00020011,-0.00019994,-0.00014242,-0.00015076,-0.00014794
 ,-0.00006200,-0.00005854,-0.00016996,-0.00003458,0.00001412,0.00012777
 ,0.00004164,0.00002537,-0.00009565,-0.00045160,-0.00121102,0.00034767,
 -0.00097437,0.00045432,-0.00005770,0.02778687,0.02108160,0.00284888,0.
 03546568,0.01885947,-0.08773830,0.00005687,-0.00013305,0.00011510,0.00
 004435,-0.00000920,-0.00001039,0.00006554,0.00008583,0.00005828,-0.000
 01483,-0.00001844,-0.00001908,0.00142431,-0.00103471,-0.00144668,0.000
 19200,-0.00015535,-0.00033933,0.00416406,-0.00203245,-0.00457471,-0.00
 120346,0.00008211,0.00225336,-0.04579127,-0.02653565,-0.00144235,0.002
 22226,0.01044465,0.01056956,-0.02294526,-0.01995135,0.07946904\\-0.000
 00561,-0.00000123,-0.00000133,0.00000283,0.00000111,-0.00000180,-0.000
 00115,0.00000064,-0.00000070,-0.00000231,0.00000229,0.00000384,0.00000
 078,-0.00000007,-0.00000244,0.00000341,0.00000006,-0.00000044,-0.00000
 456,-0.00000371,-0.00000392,-0.00001017,-0.00000518,-0.00000320,0.0000
 0317,0.00000249,0.00000622,-0.00000161,0.00000076,-0.00000174,-0.00000
 841,-0.00000205,-0.00000267,0.00001037,0.00000218,0.00000442,-0.000005
 50,0.00000596,-0.00000194,-0.00000208,0.,-0.00000571,0.00000080,0.0000
 0292,0.00000090,-0.00000419,0.00000897,0.00000069,0.00000019,-0.000003
 81,-0.00000309,0.00000206,-0.00000159,0.00000555,0.00000680,0.00000925
 ,0.00000362,0.00000161,-0.00000076,-0.00000108,0.00000274,-0.00000470,
 -0.00000104,-0.00000011,-0.00000196,-0.00000216,-0.00000085,-0.0000039
 0,-0.00000019,0.00000230,0.00000100,0.00000273,0.00000223,0.00000056,-
 0.00000204,0.00000426,-0.00000134,0.00000617,0.00000030,0.00000177,0.0
 0000094,-0.00000026,-0.00000041,-0.00000144,0.00000033,0.00000007,0.00
 000041,-0.00000245,0.00000032,0.00000106,0.00000366,0.00000097,0.00000
 091,-0.00000072,-0.00000222,-0.00000124,-0.00000010,-0.00000002,0.0000
 0054,0.00000135,-0.00000308,0.00000036,-0.00000156,-0.00000238,-0.0000
 0209,0.00000070,-0.00000135,0.00000155,0.00000175,-0.00000155,0.000000
 39\\\@
 The archive entry for this job was punched.


 BLACK HOLES SUCK.
 Job cpu time:       0 days  7 hours 58 minutes 15.0 seconds.
 Elapsed time:       0 days  0 hours 29 minutes 59.4 seconds.
 File lengths (MBytes):  RWF=   1147 Int=      0 D2E=      0 Chk=     23 Scr=      1
 Normal termination of Gaussian 16 at Fri Jul  1 23:34:01 2022.
