 Entering Gaussian System, Link 0=g16
 AtFile(1): /home/561/yj5695/Basis/6-31pGd.gbs
 Initial command:
 /apps/gaussian/g16c01/g16/l1.exe "/jobfs/50086565.gadi-pbs/Gau-764631.inp" -scrdir="/jobfs/50086565.gadi-pbs/"
 Entering Link 1 = /apps/gaussian/g16c01/g16/l1.exe PID=    764647.
  
 Copyright (c) 1988-2019, Gaussian, Inc.  All Rights Reserved.
  
 This is part of the Gaussian(R) 16 program.  It is based on
 the Gaussian(R) 09 system (copyright 2009, Gaussian, Inc.),
 the Gaussian(R) 03 system (copyright 2003, Gaussian, Inc.),
 the Gaussian(R) 98 system (copyright 1998, Gaussian, Inc.),
 the Gaussian(R) 94 system (copyright 1995, Gaussian, Inc.),
 the Gaussian 92(TM) system (copyright 1992, Gaussian, Inc.),
 the Gaussian 90(TM) system (copyright 1990, Gaussian, Inc.),
 the Gaussian 88(TM) system (copyright 1988, Gaussian, Inc.),
 the Gaussian 86(TM) system (copyright 1986, Carnegie Mellon
 University), and the Gaussian 82(TM) system (copyright 1983,
 Carnegie Mellon University). Gaussian is a federally registered
 trademark of Gaussian, Inc.
  
 This software contains proprietary and confidential information,
 including trade secrets, belonging to Gaussian, Inc.
  
 This software is provided under written license and may be
 used, copied, transmitted, or stored only in accord with that
 written license.
  
 The following legend is applicable only to US Government
 contracts under FAR:
  
                    RESTRICTED RIGHTS LEGEND
  
 Use, reproduction and disclosure by the US Government is
 subject to restrictions as set forth in subparagraphs (a)
 and (c) of the Commercial Computer Software - Restricted
 Rights clause in FAR 52.227-19.
  
 Gaussian, Inc.
 340 Quinnipiac St., Bldg. 40, Wallingford CT 06492
  
  
 ---------------------------------------------------------------
 Warning -- This program may not be used in any manner that
 competes with the business of Gaussian, Inc. or will provide
 assistance to any competitor of Gaussian, Inc.  The licensee
 of this program is prohibited from giving any competitor of
 Gaussian, Inc. access to this program.  By using this program,
 the user acknowledges that Gaussian, Inc. is engaged in the
 business of creating and licensing software in the field of
 computational chemistry and represents and warrants to the
 licensee that it is not a competitor of Gaussian, Inc. and that
 it will not use this program in any manner prohibited above.
 ---------------------------------------------------------------
  

 Cite this work as:
 Gaussian 16, Revision C.01,
 M. J. Frisch, G. W. Trucks, H. B. Schlegel, G. E. Scuseria, 
 M. A. Robb, J. R. Cheeseman, G. Scalmani, V. Barone, 
 G. A. Petersson, H. Nakatsuji, X. Li, M. Caricato, A. V. Marenich, 
 J. Bloino, B. G. Janesko, R. Gomperts, B. Mennucci, H. P. Hratchian, 
 J. V. Ortiz, A. F. Izmaylov, J. L. Sonnenberg, D. Williams-Young, 
 F. Ding, F. Lipparini, F. Egidi, J. Goings, B. Peng, A. Petrone, 
 T. Henderson, D. Ranasinghe, V. G. Zakrzewski, J. Gao, N. Rega, 
 G. Zheng, W. Liang, M. Hada, M. Ehara, K. Toyota, R. Fukuda, 
 J. Hasegawa, M. Ishida, T. Nakajima, Y. Honda, O. Kitao, H. Nakai, 
 T. Vreven, K. Throssell, J. A. Montgomery, Jr., J. E. Peralta, 
 F. Ogliaro, M. J. Bearpark, J. J. Heyd, E. N. Brothers, K. N. Kudin, 
 V. N. Staroverov, T. A. Keith, R. Kobayashi, J. Normand, 
 K. Raghavachari, A. P. Rendell, J. C. Burant, S. S. Iyengar, 
 J. Tomasi, M. Cossi, J. M. Millam, M. Klene, C. Adamo, R. Cammi, 
 J. W. Ochterski, R. L. Martin, K. Morokuma, O. Farkas, 
 J. B. Foresman, and D. J. Fox, Gaussian, Inc., Wallingford CT, 2019.
 
 ******************************************
 Gaussian 16:  ES64L-G16RevC.01  3-Jul-2019
                 2-Jul-2022 
 ******************************************
 %nproc=16
 Will use up to   16 processors via shared memory.
 %mem=50gb
 --------------------------------------------------
 #M062X/gen 6D INT(grid=ultrafine) OPT Freq=noraman
 --------------------------------------------------
 1/18=20,19=15,26=4,38=1/1,3;
 2/9=110,12=2,17=6,18=5,40=1/2;
 3/5=7,8=2,11=2,25=1,30=1,71=1,74=-55,75=-5/1,2,3;
 4//1;
 5/5=2,38=5/2;
 6/7=2,8=2,9=2,10=2,28=1/1;
 7//1,2,3,16;
 1/18=20,19=15,26=4/3(2);
 2/9=110/2;
 99//99;
 2/9=110/2;
 3/5=7,6=1,8=2,11=2,25=1,30=1,71=1,74=-55,75=-5,82=7/1,2,3;
 4/5=5,16=3,69=1/1;
 5/5=2,38=5/2;
 7//1,2,3,16;
 1/18=20,19=15,26=4/3(-5);
 2/9=110/2;
 6/7=2,8=2,9=2,10=2,19=2,28=1/1;
 99/9=1/99;
 ---------
 A.37.freq
 ---------
 Symbolic Z-matrix:
 Charge = -1 Multiplicity = 1
 C                    -2.15683   0.84677  -1.2259 
 C                    -2.26482   1.89602  -2.14146 
 Cl                   -3.47669   3.13969  -1.96549 
 C                    -1.39764   1.9977   -3.22656 
 H                    -1.5015    2.82199  -3.9246 
 C                    -0.40448   1.0427   -3.40275 
 C                    -0.29017  -0.01943  -2.50495 
 C                    -1.16243  -0.10987  -1.41888 
 S                    -3.23589   0.6935    0.23126 
 O                    -4.59474   0.55189  -0.36602 
 O                    -2.74113  -0.53783   0.89582 
 N                    -3.04015   1.90907   1.18568 
 H                    -3.54507   2.70863   0.79816 
 H                    -1.07014  -0.90869  -0.68993 
 H                     0.27808   1.11833  -4.24343 
 C                     0.80522  -1.01394  -2.73209 
 N                     0.54294  -2.28139  -2.33173 
 O                     1.878    -0.68718  -3.24676 
 N                     1.47233  -3.30602  -2.41185 
 C                     1.76804  -3.82019  -3.78049 
 C                     3.09004  -4.57727  -3.56381 
 C                     3.70628  -3.84621  -2.394 
 C                     2.70839  -3.10188  -1.75678 
 C                     0.63078  -4.65804  -4.32525 
 C                     2.96575  -2.33393  -0.62855 
 C                     4.27494  -2.33044  -0.1326 
 C                     5.28266  -3.07309  -0.75023 
 C                     4.99801  -3.83927  -1.88985 
 H                    -0.37557  -2.53996  -1.98934 
 H                     1.94764  -2.95731  -4.43648 
 H                     3.7142   -4.57651  -4.46065 
 H                     2.88241  -5.62203  -3.29416 
 H                    -0.2919   -4.07243  -4.39681 
 H                     0.44895  -5.52564  -3.68211 
 H                     0.88186  -5.01481  -5.32935 
 H                     2.18241  -1.74706  -0.15565 
 H                     4.50711  -1.73271   0.74437 
 H                     6.29237  -3.0516   -0.35131 
 H                     5.78209  -4.41334  -2.37751 
 

 GradGradGradGradGradGradGradGradGradGradGradGradGradGradGradGradGradGrad
 Berny optimization.
 Initialization pass.
                           ----------------------------
                           !    Initial Parameters    !
                           ! (Angstroms and Degrees)  !
 --------------------------                            --------------------------
 ! Name  Definition              Value          Derivative Info.                !
 --------------------------------------------------------------------------------
 ! R1    R(1,2)                  1.3967         estimate D2E/DX2                !
 ! R2    R(1,8)                  1.3933         estimate D2E/DX2                !
 ! R3    R(1,9)                  1.8197         estimate D2E/DX2                !
 ! R4    R(2,3)                  1.7454         estimate D2E/DX2                !
 ! R5    R(2,4)                  1.3928         estimate D2E/DX2                !
 ! R6    R(4,5)                  1.0851         estimate D2E/DX2                !
 ! R7    R(4,6)                  1.389          estimate D2E/DX2                !
 ! R8    R(6,7)                  1.3954         estimate D2E/DX2                !
 ! R9    R(6,15)                 1.0855         estimate D2E/DX2                !
 ! R10   R(7,8)                  1.3959         estimate D2E/DX2                !
 ! R11   R(7,16)                 1.4968         estimate D2E/DX2                !
 ! R12   R(8,14)                 1.0854         estimate D2E/DX2                !
 ! R13   R(9,10)                 1.4911         estimate D2E/DX2                !
 ! R14   R(9,11)                 1.4841         estimate D2E/DX2                !
 ! R15   R(9,12)                 1.5578         estimate D2E/DX2                !
 ! R16   R(12,13)                1.022          estimate D2E/DX2                !
 ! R17   R(16,17)                1.3548         estimate D2E/DX2                !
 ! R18   R(16,18)                1.2339         estimate D2E/DX2                !
 ! R19   R(17,19)                1.3857         estimate D2E/DX2                !
 ! R20   R(17,29)                1.0138         estimate D2E/DX2                !
 ! R21   R(19,20)                1.4916         estimate D2E/DX2                !
 ! R22   R(19,23)                1.4137         estimate D2E/DX2                !
 ! R23   R(20,21)                1.5388         estimate D2E/DX2                !
 ! R24   R(20,24)                1.514          estimate D2E/DX2                !
 ! R25   R(20,30)                1.0987         estimate D2E/DX2                !
 ! R26   R(21,22)                1.5108         estimate D2E/DX2                !
 ! R27   R(21,31)                1.0927         estimate D2E/DX2                !
 ! R28   R(21,32)                1.0988         estimate D2E/DX2                !
 ! R29   R(22,23)                1.3985         estimate D2E/DX2                !
 ! R30   R(22,28)                1.3866         estimate D2E/DX2                !
 ! R31   R(23,25)                1.3888         estimate D2E/DX2                !
 ! R32   R(24,33)                1.0952         estimate D2E/DX2                !
 ! R33   R(24,34)                1.0952         estimate D2E/DX2                !
 ! R34   R(24,35)                1.0948         estimate D2E/DX2                !
 ! R35   R(25,26)                1.4            estimate D2E/DX2                !
 ! R36   R(25,36)                1.087          estimate D2E/DX2                !
 ! R37   R(26,27)                1.3959         estimate D2E/DX2                !
 ! R38   R(26,37)                1.0864         estimate D2E/DX2                !
 ! R39   R(27,28)                1.4024         estimate D2E/DX2                !
 ! R40   R(27,38)                1.0859         estimate D2E/DX2                !
 ! R41   R(28,39)                1.0873         estimate D2E/DX2                !
 ! A1    A(2,1,8)              118.6978         estimate D2E/DX2                !
 ! A2    A(2,1,9)              122.8434         estimate D2E/DX2                !
 ! A3    A(8,1,9)              118.4446         estimate D2E/DX2                !
 ! A4    A(1,2,3)              121.5258         estimate D2E/DX2                !
 ! A5    A(1,2,4)              121.1586         estimate D2E/DX2                !
 ! A6    A(3,2,4)              117.3125         estimate D2E/DX2                !
 ! A7    A(2,4,5)              119.8047         estimate D2E/DX2                !
 ! A8    A(2,4,6)              119.5913         estimate D2E/DX2                !
 ! A9    A(5,4,6)              120.6039         estimate D2E/DX2                !
 ! A10   A(4,6,7)              120.0178         estimate D2E/DX2                !
 ! A11   A(4,6,15)             119.9939         estimate D2E/DX2                !
 ! A12   A(7,6,15)             119.9866         estimate D2E/DX2                !
 ! A13   A(6,7,8)              119.9145         estimate D2E/DX2                !
 ! A14   A(6,7,16)             117.9064         estimate D2E/DX2                !
 ! A15   A(8,7,16)             122.1607         estimate D2E/DX2                !
 ! A16   A(1,8,7)              120.6138         estimate D2E/DX2                !
 ! A17   A(1,8,14)             118.2302         estimate D2E/DX2                !
 ! A18   A(7,8,14)             121.1376         estimate D2E/DX2                !
 ! A19   A(1,9,10)             103.1583         estimate D2E/DX2                !
 ! A20   A(1,9,11)             103.3424         estimate D2E/DX2                !
 ! A21   A(1,9,12)             110.5103         estimate D2E/DX2                !
 ! A22   A(10,9,11)            113.8521         estimate D2E/DX2                !
 ! A23   A(10,9,12)            115.7241         estimate D2E/DX2                !
 ! A24   A(11,9,12)            109.3393         estimate D2E/DX2                !
 ! A25   A(9,12,13)            108.4262         estimate D2E/DX2                !
 ! A26   A(7,16,17)            115.7889         estimate D2E/DX2                !
 ! A27   A(7,16,18)            121.5734         estimate D2E/DX2                !
 ! A28   A(17,16,18)           122.6369         estimate D2E/DX2                !
 ! A29   A(16,17,19)           123.0136         estimate D2E/DX2                !
 ! A30   A(16,17,29)           120.9175         estimate D2E/DX2                !
 ! A31   A(19,17,29)           116.0163         estimate D2E/DX2                !
 ! A32   A(17,19,20)           116.1621         estimate D2E/DX2                !
 ! A33   A(17,19,23)           116.9275         estimate D2E/DX2                !
 ! A34   A(20,19,23)           107.5536         estimate D2E/DX2                !
 ! A35   A(19,20,21)           102.1637         estimate D2E/DX2                !
 ! A36   A(19,20,24)           111.8387         estimate D2E/DX2                !
 ! A37   A(19,20,30)           108.0299         estimate D2E/DX2                !
 ! A38   A(21,20,24)           115.0711         estimate D2E/DX2                !
 ! A39   A(21,20,30)           109.2716         estimate D2E/DX2                !
 ! A40   A(24,20,30)           110.0347         estimate D2E/DX2                !
 ! A41   A(20,21,22)           102.7902         estimate D2E/DX2                !
 ! A42   A(20,21,31)           112.0142         estimate D2E/DX2                !
 ! A43   A(20,21,32)           109.8788         estimate D2E/DX2                !
 ! A44   A(22,21,31)           113.7146         estimate D2E/DX2                !
 ! A45   A(22,21,32)           110.3129         estimate D2E/DX2                !
 ! A46   A(31,21,32)           108.0609         estimate D2E/DX2                !
 ! A47   A(21,22,23)           108.6201         estimate D2E/DX2                !
 ! A48   A(21,22,28)           131.5972         estimate D2E/DX2                !
 ! A49   A(23,22,28)           119.7596         estimate D2E/DX2                !
 ! A50   A(19,23,22)           109.6258         estimate D2E/DX2                !
 ! A51   A(19,23,25)           128.1901         estimate D2E/DX2                !
 ! A52   A(22,23,25)           122.1552         estimate D2E/DX2                !
 ! A53   A(20,24,33)           111.1284         estimate D2E/DX2                !
 ! A54   A(20,24,34)           110.5992         estimate D2E/DX2                !
 ! A55   A(20,24,35)           109.7603         estimate D2E/DX2                !
 ! A56   A(33,24,34)           108.7894         estimate D2E/DX2                !
 ! A57   A(33,24,35)           107.9116         estimate D2E/DX2                !
 ! A58   A(34,24,35)           108.5733         estimate D2E/DX2                !
 ! A59   A(23,25,26)           117.5447         estimate D2E/DX2                !
 ! A60   A(23,25,36)           121.2241         estimate D2E/DX2                !
 ! A61   A(26,25,36)           121.2266         estimate D2E/DX2                !
 ! A62   A(25,26,27)           121.1337         estimate D2E/DX2                !
 ! A63   A(25,26,37)           119.1553         estimate D2E/DX2                !
 ! A64   A(27,26,37)           119.7097         estimate D2E/DX2                !
 ! A65   A(26,27,28)           120.2435         estimate D2E/DX2                !
 ! A66   A(26,27,38)           119.8817         estimate D2E/DX2                !
 ! A67   A(28,27,38)           119.8731         estimate D2E/DX2                !
 ! A68   A(22,28,27)           119.1606         estimate D2E/DX2                !
 ! A69   A(22,28,39)           120.4023         estimate D2E/DX2                !
 ! A70   A(27,28,39)           120.4346         estimate D2E/DX2                !
 ! D1    D(8,1,2,3)           -179.6208         estimate D2E/DX2                !
 ! D2    D(8,1,2,4)             -0.2746         estimate D2E/DX2                !
 ! D3    D(9,1,2,3)             -1.0148         estimate D2E/DX2                !
 ! D4    D(9,1,2,4)            178.3314         estimate D2E/DX2                !
 ! D5    D(2,1,8,7)              0.1074         estimate D2E/DX2                !
 ! D6    D(2,1,8,14)           178.5655         estimate D2E/DX2                !
 ! D7    D(9,1,8,7)           -178.5606         estimate D2E/DX2                !
 ! D8    D(9,1,8,14)            -0.1026         estimate D2E/DX2                !
 ! D9    D(2,1,9,10)            61.9143         estimate D2E/DX2                !
 ! D10   D(2,1,9,11)          -179.2534         estimate D2E/DX2                !
 ! D11   D(2,1,9,12)           -62.3744         estimate D2E/DX2                !
 ! D12   D(8,1,9,10)          -119.4763         estimate D2E/DX2                !
 ! D13   D(8,1,9,11)            -0.644          estimate D2E/DX2                !
 ! D14   D(8,1,9,12)           116.235          estimate D2E/DX2                !
 ! D15   D(1,2,4,5)            179.9877         estimate D2E/DX2                !
 ! D16   D(1,2,4,6)             -0.1687         estimate D2E/DX2                !
 ! D17   D(3,2,4,5)             -0.6395         estimate D2E/DX2                !
 ! D18   D(3,2,4,6)            179.2042         estimate D2E/DX2                !
 ! D19   D(2,4,6,7)              0.7804         estimate D2E/DX2                !
 ! D20   D(2,4,6,15)          -179.6963         estimate D2E/DX2                !
 ! D21   D(5,4,6,7)           -179.3772         estimate D2E/DX2                !
 ! D22   D(5,4,6,15)             0.1461         estimate D2E/DX2                !
 ! D23   D(4,6,7,8)             -0.9466         estimate D2E/DX2                !
 ! D24   D(4,6,7,16)          -179.4176         estimate D2E/DX2                !
 ! D25   D(15,6,7,8)           179.53           estimate D2E/DX2                !
 ! D26   D(15,6,7,16)            1.059          estimate D2E/DX2                !
 ! D27   D(6,7,8,1)              0.4996         estimate D2E/DX2                !
 ! D28   D(6,7,8,14)          -177.9132         estimate D2E/DX2                !
 ! D29   D(16,7,8,1)           178.9035         estimate D2E/DX2                !
 ! D30   D(16,7,8,14)            0.4907         estimate D2E/DX2                !
 ! D31   D(6,7,16,17)         -149.0946         estimate D2E/DX2                !
 ! D32   D(6,7,16,18)           31.2351         estimate D2E/DX2                !
 ! D33   D(8,7,16,17)           32.4709         estimate D2E/DX2                !
 ! D34   D(8,7,16,18)         -147.1994         estimate D2E/DX2                !
 ! D35   D(1,9,12,13)           77.8305         estimate D2E/DX2                !
 ! D36   D(10,9,12,13)         -38.9143         estimate D2E/DX2                !
 ! D37   D(11,9,12,13)        -169.0646         estimate D2E/DX2                !
 ! D38   D(7,16,17,19)        -176.8344         estimate D2E/DX2                !
 ! D39   D(7,16,17,29)           5.9087         estimate D2E/DX2                !
 ! D40   D(18,16,17,19)          2.832          estimate D2E/DX2                !
 ! D41   D(18,16,17,29)       -174.4248         estimate D2E/DX2                !
 ! D42   D(16,17,19,20)        -72.4239         estimate D2E/DX2                !
 ! D43   D(16,17,19,23)         56.3613         estimate D2E/DX2                !
 ! D44   D(29,17,19,20)        104.9575         estimate D2E/DX2                !
 ! D45   D(29,17,19,23)       -126.2574         estimate D2E/DX2                !
 ! D46   D(17,19,20,21)        162.9874         estimate D2E/DX2                !
 ! D47   D(17,19,20,24)        -73.4142         estimate D2E/DX2                !
 ! D48   D(17,19,20,30)         47.8228         estimate D2E/DX2                !
 ! D49   D(23,19,20,21)         29.7841         estimate D2E/DX2                !
 ! D50   D(23,19,20,24)        153.3825         estimate D2E/DX2                !
 ! D51   D(23,19,20,30)        -85.3805         estimate D2E/DX2                !
 ! D52   D(17,19,23,22)       -152.7194         estimate D2E/DX2                !
 ! D53   D(17,19,23,25)         29.225          estimate D2E/DX2                !
 ! D54   D(20,19,23,22)        -19.9262         estimate D2E/DX2                !
 ! D55   D(20,19,23,25)        162.0182         estimate D2E/DX2                !
 ! D56   D(19,20,21,22)        -27.8333         estimate D2E/DX2                !
 ! D57   D(19,20,21,31)       -150.288          estimate D2E/DX2                !
 ! D58   D(19,20,21,32)         89.5936         estimate D2E/DX2                !
 ! D59   D(24,20,21,22)       -149.2297         estimate D2E/DX2                !
 ! D60   D(24,20,21,31)         88.3156         estimate D2E/DX2                !
 ! D61   D(24,20,21,32)        -31.8028         estimate D2E/DX2                !
 ! D62   D(30,20,21,22)         86.4205         estimate D2E/DX2                !
 ! D63   D(30,20,21,31)        -36.0342         estimate D2E/DX2                !
 ! D64   D(30,20,21,32)       -156.1526         estimate D2E/DX2                !
 ! D65   D(19,20,24,33)         60.5673         estimate D2E/DX2                !
 ! D66   D(19,20,24,34)        -60.3723         estimate D2E/DX2                !
 ! D67   D(19,20,24,35)        179.8532         estimate D2E/DX2                !
 ! D68   D(21,20,24,33)        176.5492         estimate D2E/DX2                !
 ! D69   D(21,20,24,34)         55.6096         estimate D2E/DX2                !
 ! D70   D(21,20,24,35)        -64.1649         estimate D2E/DX2                !
 ! D71   D(30,20,24,33)        -59.5028         estimate D2E/DX2                !
 ! D72   D(30,20,24,34)        179.5576         estimate D2E/DX2                !
 ! D73   D(30,20,24,35)         59.7831         estimate D2E/DX2                !
 ! D74   D(20,21,22,23)         17.4951         estimate D2E/DX2                !
 ! D75   D(20,21,22,28)       -164.3048         estimate D2E/DX2                !
 ! D76   D(31,21,22,23)        138.7968         estimate D2E/DX2                !
 ! D77   D(31,21,22,28)        -43.0031         estimate D2E/DX2                !
 ! D78   D(32,21,22,23)        -99.6238         estimate D2E/DX2                !
 ! D79   D(32,21,22,28)         78.5764         estimate D2E/DX2                !
 ! D80   D(21,22,23,19)          0.8714         estimate D2E/DX2                !
 ! D81   D(21,22,23,25)        179.0664         estimate D2E/DX2                !
 ! D82   D(28,22,23,19)       -177.5782         estimate D2E/DX2                !
 ! D83   D(28,22,23,25)          0.6167         estimate D2E/DX2                !
 ! D84   D(21,22,28,27)       -178.537          estimate D2E/DX2                !
 ! D85   D(21,22,28,39)          2.0259         estimate D2E/DX2                !
 ! D86   D(23,22,28,27)         -0.5018         estimate D2E/DX2                !
 ! D87   D(23,22,28,39)       -179.9389         estimate D2E/DX2                !
 ! D88   D(19,23,25,26)        177.5063         estimate D2E/DX2                !
 ! D89   D(19,23,25,36)         -3.2685         estimate D2E/DX2                !
 ! D90   D(22,23,25,26)         -0.3304         estimate D2E/DX2                !
 ! D91   D(22,23,25,36)        178.8948         estimate D2E/DX2                !
 ! D92   D(23,25,26,27)         -0.0541         estimate D2E/DX2                !
 ! D93   D(23,25,26,37)        179.5374         estimate D2E/DX2                !
 ! D94   D(36,25,26,27)       -179.2792         estimate D2E/DX2                !
 ! D95   D(36,25,26,37)          0.3122         estimate D2E/DX2                !
 ! D96   D(25,26,27,28)          0.1519         estimate D2E/DX2                !
 ! D97   D(25,26,27,38)        179.6887         estimate D2E/DX2                !
 ! D98   D(37,26,27,28)       -179.4373         estimate D2E/DX2                !
 ! D99   D(37,26,27,38)          0.0995         estimate D2E/DX2                !
 ! D100  D(26,27,28,22)          0.1301         estimate D2E/DX2                !
 ! D101  D(26,27,28,39)        179.567          estimate D2E/DX2                !
 ! D102  D(38,27,28,22)       -179.4066         estimate D2E/DX2                !
 ! D103  D(38,27,28,39)          0.0302         estimate D2E/DX2                !
 --------------------------------------------------------------------------------
 Trust Radius=3.00D-01 FncErr=1.00D-07 GrdErr=1.00D-06 EigMax=2.50D+02 EigMin=1.00D-04
 Number of steps in this run=    224 maximum allowed number of steps=    234.
 GradGradGradGradGradGradGradGradGradGradGradGradGradGradGradGradGradGrad

                          Input orientation:                          
 ---------------------------------------------------------------------
 Center     Atomic      Atomic             Coordinates (Angstroms)
 Number     Number       Type             X           Y           Z
 ---------------------------------------------------------------------
      1          6           0       -2.156831    0.846773   -1.225901
      2          6           0       -2.264822    1.896021   -2.141460
      3         17           0       -3.476685    3.139690   -1.965491
      4          6           0       -1.397642    1.997702   -3.226561
      5          1           0       -1.501498    2.821992   -3.924599
      6          6           0       -0.404475    1.042700   -3.402748
      7          6           0       -0.290172   -0.019430   -2.504954
      8          6           0       -1.162433   -0.109872   -1.418877
      9         16           0       -3.235893    0.693505    0.231259
     10          8           0       -4.594742    0.551889   -0.366025
     11          8           0       -2.741133   -0.537834    0.895819
     12          7           0       -3.040147    1.909070    1.185684
     13          1           0       -3.545067    2.708634    0.798159
     14          1           0       -1.070137   -0.908691   -0.689930
     15          1           0        0.278080    1.118334   -4.243427
     16          6           0        0.805216   -1.013942   -2.732092
     17          7           0        0.542940   -2.281395   -2.331726
     18          8           0        1.878001   -0.687181   -3.246758
     19          7           0        1.472329   -3.306017   -2.411849
     20          6           0        1.768039   -3.820189   -3.780495
     21          6           0        3.090038   -4.577272   -3.563808
     22          6           0        3.706277   -3.846211   -2.394001
     23          6           0        2.708393   -3.101879   -1.756777
     24          6           0        0.630783   -4.658040   -4.325250
     25          6           0        2.965749   -2.333934   -0.628545
     26          6           0        4.274940   -2.330440   -0.132604
     27          6           0        5.282663   -3.073092   -0.750228
     28          6           0        4.998010   -3.839269   -1.889848
     29          1           0       -0.375571   -2.539958   -1.989341
     30          1           0        1.947635   -2.957307   -4.436481
     31          1           0        3.714201   -4.576505   -4.460645
     32          1           0        2.882413   -5.622034   -3.294163
     33          1           0       -0.291903   -4.072434   -4.396812
     34          1           0        0.448947   -5.525643   -3.682106
     35          1           0        0.881865   -5.014811   -5.329346
     36          1           0        2.182408   -1.747065   -0.155645
     37          1           0        4.507112   -1.732705    0.744368
     38          1           0        6.292370   -3.051602   -0.351306
     39          1           0        5.782087   -4.413335   -2.377510
 ---------------------------------------------------------------------
                    Distance matrix (angstroms):
                    1          2          3          4          5
     1  C    0.000000
     2  C    1.396722   0.000000
     3  Cl   2.747085   1.745362   0.000000
     4  C    2.429742   1.392761   2.686421   0.000000
     5  H    3.407921   2.149341   2.800072   1.085126   0.000000
     6  C    2.801393   2.404141   3.987675   1.389047   2.154453
     7  C    2.422953   2.774946   4.519394   2.411644   3.399468
     8  C    1.393283   2.400207   4.026686   2.786559   3.871619
     9  S    1.819665   2.831752   3.296591   4.127544   4.980937
    10  O    2.601875   3.222948   3.241150   4.527085   5.233066
    11  O    2.600046   3.921171   4.717235   5.022740   6.005127
    12  N    2.779292   3.416312   3.410996   4.708884   5.414412
    13  H    3.080672   3.307677   2.797900   4.616841   5.147180
    14  H    2.133031   3.376481   4.879336   3.871547   4.956526
    15  H    3.886902   3.389604   4.834578   2.148337   2.484150
    16  C    3.808490   4.271050   6.014567   3.763918   4.632213
    17  N    4.277505   5.036917   6.758674   4.783018   5.723769
    18  O    4.766208   5.005756   6.705166   4.235426   4.918818
    19  N    5.641183   6.410976   8.138741   6.085221   6.977431
    20  C    6.611436   7.185086   8.901757   6.646520   7.404674
    21  C    7.900361   8.520629  10.258069   7.967640   8.715588
    22  C    7.600302   8.288005  10.029027   7.803490   8.598173
    23  C    6.288409   7.061151   8.789536   6.710105   7.583857
    24  C    6.905051   7.490607   9.123834   7.044184   7.788326
    25  C    6.059254   6.894948   8.558793   6.674724   7.576532
    26  C    7.256560   8.041577   9.662789   7.777118   8.619397
    27  C    8.422451   9.142874  10.807484   8.744807   9.531709
    28  C    8.578553   9.257732  10.978709   8.761358   9.526606
    29  H    3.902009   4.823932   6.471157   4.813076   5.810632
    30  H    6.451782   6.823981   8.526571   6.099746   6.749729
    31  H    8.622327   9.111582  10.838556   8.418675   9.068000
    32  H    8.456782   9.183894  10.907397   8.739784   9.535078
    33  H    6.142576   6.678434   8.250387   6.280024   7.015641
    34  H    7.309631   8.051039   9.666713   7.760034   8.575899
    35  H    7.773680   8.235524   9.839124   7.667672   8.310790
    36  H    5.167440   6.082219   7.692935   6.022504   6.975131
    37  H    7.412409   8.206994   9.737792   8.034322   8.868366
    38  H    9.346189  10.045355  11.677848   9.638404  10.392878
    39  H    9.592776  10.228218  11.955869   9.662856  10.382391
                    6          7          8          9         10
     6  C    0.000000
     7  C    1.395428   0.000000
     8  C    2.416333   1.395916   0.000000
     9  S    4.620051   4.083186   2.769043   0.000000
    10  O    5.198165   4.840532   3.650640   1.491065   0.000000
    11  O    5.141569   4.223885   2.834301   1.484123   2.493113
    12  N    5.362003   4.990219   3.792845   1.557832   2.581958
    13  H    5.503296   5.380262   4.305365   2.116059   2.666213
    14  H    3.407405   2.166435   1.085355   2.847125   3.828975
    15  H    1.085516   2.153999   3.400243   5.705375   6.252960
    16  C    2.478489   1.496837   2.532492   5.294090   6.099971
    17  N    3.618603   2.416727   2.908110   5.449633   6.187670
    18  O    2.868191   2.386868   3.594255   6.336782   7.192379
    19  N    4.838968   3.730513   4.259496   6.719342   7.475172
    20  C    5.339494   4.506551   5.285012   7.842636   8.441484
    21  C    6.619792   5.772427   6.530077   9.066478   9.777012
    22  C    6.466630   5.534272   6.214132   8.700272   9.610562
    23  C    5.438447   4.364935   4.904037   7.327466   8.283719
    24  C    5.866959   5.067380   5.687571   8.021969   8.374063
    25  C    5.518720   4.413486   4.755309   6.954496   8.096785
    26  C    6.630900   5.639952   6.012524   8.104891   9.329179
    27  C    7.504608   6.592451   7.125098   9.365702  10.528591
    28  C    7.437025   6.552435   7.216736   9.635471  10.659513
    29  H    3.851492   2.574142   2.617231   4.854667   5.476868
    30  H    4.754060   4.167697   5.185204   7.873068   8.466745
    31  H    7.046850   6.373905   7.279060   9.904079  10.587959
    32  H    7.431965   6.486703   7.089528   9.473558  10.129125
    33  H    5.212047   4.472803   5.032675   7.266381   7.493066
    34  H    6.629441   5.678940   6.086815   8.220114   8.565722
    35  H    6.485360   5.857021   6.597678   8.970013   9.252888
    36  H    5.001842   3.823300   3.932444   5.955171   7.159554
    37  H    7.001795   6.042130   6.281477   8.130431   9.449661
    38  H    8.421541   7.560564   8.085022  10.254414  11.467981
    39  H    8.312219   7.496331   8.225882  10.686882  11.678104
                   11         12         13         14         15
    11  O    0.000000
    12  N    2.482089   0.000000
    13  H    3.345952   1.021970   0.000000
    14  H    2.333316   3.916458   4.628685   0.000000
    15  H    6.186307   6.411798   6.524040   4.307420   0.000000
    16  C    5.095587   6.219307   6.726455   2.774608   2.666197
    17  N    4.923636   6.539930   7.169963   2.679893   3.909336
    18  O    6.206419   7.111627   7.569846   3.908702   2.610168
    19  N    6.029658   7.778291   8.464894   3.895678   4.935158
    20  C    7.278351   8.978084   9.582206   5.107215   5.179120
    21  C    8.379015  10.109870  10.776632   6.246976   6.388185
    22  C    7.958478   9.563035  10.282892   5.860632   6.310279
    23  C    6.580876   8.173946   8.910416   4.497280   5.468094
    24  C    7.456908   9.325935   9.897218   5.492385   5.787710
    25  C    6.173991   7.573988   8.357853   4.280592   5.675305
    26  C    7.314122   8.556975   9.349390   5.558942   6.690874
    27  C    8.574282   9.891353  10.665583   6.711657   7.403806
    28  C    8.863056  10.349602  11.094349   6.844743   7.238432
    29  H    4.234210   6.080675   6.735249   2.198163   4.346408
    30  H    7.501455   8.953677   9.469642   5.228807   4.408575
    31  H    9.309882  10.934575  11.550984   7.110628   6.654720
    32  H    8.661947  10.576544  11.289802   6.679842   7.288087
    33  H    6.819389   8.631078   9.140770   4.935168   5.224221
    34  H    7.484133   9.546942  10.189613   5.707624   6.669835
    35  H    8.480691  10.284353  10.807203   6.495745   6.257735
    36  H    5.177748   6.514719   7.318945   3.401085   5.342933
    37  H    7.347633   8.391567   9.195976   5.817381   7.133809
    38  H    9.459309  10.680191  11.457607   7.675497   8.289069
    39  H    9.918643  11.423702  12.157430   7.879304   8.023409
                   16         17         18         19         20
    16  C    0.000000
    17  N    1.354813   0.000000
    18  O    1.233905   2.271825   0.000000
    19  N    2.408568   1.385653   2.778478   0.000000
    20  C    3.146617   2.442885   3.180048   1.491646   0.000000
    21  C    4.313871   3.643732   4.086852   2.357982   1.538769
    22  C    4.068440   3.529763   3.748234   2.298402   2.383235
    23  C    2.988780   2.385990   2.956410   1.413735   2.344285
    24  C    3.980958   3.103272   4.299584   2.489432   1.513970
    25  C    3.291685   2.962024   3.278724   2.520996   3.684867
    26  C    4.530948   4.332016   4.259527   3.741836   4.670226
    27  C    5.311818   5.058942   4.849428   4.163398   4.700346
    28  C    5.125561   4.740240   4.638030   3.603786   3.742676
    29  H    2.067525   1.013777   3.176864   2.044528   3.072830
    30  H    2.826081   2.619164   2.563935   2.108707   1.098698
    31  H    4.913445   4.456088   4.469004   3.292065   2.195943
    32  H    5.085783   4.190381   5.036255   2.851447   2.173706
    33  H    3.650936   2.858210   4.182230   2.764053   2.164910
    34  H    4.624380   3.515324   5.063836   2.754560   2.158299
    35  H    4.770593   4.070892   4.904880   3.432261   2.147409
    36  H    3.012010   2.776453   3.281919   2.832843   4.196317
    37  H    5.128979   5.047581   4.892283   4.652625   5.686342
    38  H    6.318945   6.129537   5.784530   5.248177   5.728843
    39  H    6.037454   5.656494   5.466416   4.449870   4.293340
                   21         22         23         24         25
    21  C    0.000000
    22  C    1.510843   0.000000
    23  C    2.363852   1.398520   0.000000
    24  C    2.575705   3.721216   3.651734   0.000000
    25  C    3.696455   2.439713   1.388840   4.951683   0.000000
    26  C    4.269122   2.781161   2.384769   6.022946   1.399982
    27  C    3.871226   2.405140   2.764206   6.077239   2.435005
    28  C    2.643321   1.386649   2.409107   5.066976   2.826129
    29  H    4.317411   4.304826   3.143354   3.309908   3.613673
    30  H    2.165855   2.838079   2.789349   2.153826   3.990679
    31  H    1.092656   2.191896   3.239919   3.087466   4.502699
    32  H    1.098793   2.154667   2.957198   2.657492   4.233682
    33  H    3.519415   4.477485   4.112608   1.095173   5.275842
    34  H    2.808695   3.884572   3.832312   1.095186   5.083849
    35  H    2.860873   4.237827   4.445083   1.094777   5.798897
    36  H    4.522105   3.426198   2.162361   5.316665   1.087048
    37  H    5.353507   3.867506   3.371313   7.020295   2.149922
    38  H    4.785684   3.389969   3.850035   7.101159   3.414428
    39  H    2.946405   2.151950   3.398944   5.512668   3.913380
                   26         27         28         29         30
    26  C    0.000000
    27  C    1.395885   0.000000
    28  C    2.426376   1.402422   0.000000
    29  H    5.011848   5.816807   5.529329   0.000000
    30  H    4.932815   4.972351   4.070379   3.399994   0.000000
    31  H    4.908276   4.299712   2.966595   5.194333   2.396485
    32  H    4.771706   4.327807   3.102596   4.670783   3.046223
    33  H    6.486453   6.735878   5.858534   2.855065   2.502122
    34  H    6.119355   6.162445   5.172042   3.529815   3.067816
    35  H    6.762021   6.641206   5.491330   4.343003   2.483224
    36  H    2.172452   3.423953   3.913105   3.245671   4.454813
    37  H    1.086403   2.152192   3.408472   5.653797   5.906925
    38  H    2.153585   1.085868   2.159375   6.885229   5.964417
    39  H    3.413143   2.166501   1.087264   6.448020   4.589379
                   31         32         33         34         35
    31  H    0.000000
    32  H    1.773607   0.000000
    33  H    4.038196   3.700457   0.000000
    34  H    3.488390   2.466080   1.780865   0.000000
    35  H    2.994809   2.917685   1.770713   1.778136   0.000000
    36  H    5.374490   5.035443   5.432960   5.451464   6.255938
    37  H    5.983984   5.837487   7.411923   7.102728   7.797733
    38  H    5.085171   5.186072   7.794926   7.166638   7.609773
    39  H    2.939767   3.272508   6.409925   5.601926   5.752155
                   36         37         38         39
    36  H    0.000000
    37  H    2.492885   0.000000
    38  H    4.316467   2.475305   0.000000
    39  H    5.000337   4.307837   2.494035   0.000000
 Stoichiometry    C16H15ClN3O3S(1-)
 Framework group  C1[X(C16H15ClN3O3S)]
 Deg. of freedom   111
 Full point group                 C1      NOp   1
 Largest Abelian subgroup         C1      NOp   1
 Largest concise Abelian subgroup C1      NOp   1
                         Standard orientation:                         
 ---------------------------------------------------------------------
 Center     Atomic      Atomic             Coordinates (Angstroms)
 Number     Number       Type             X           Y           Z
 ---------------------------------------------------------------------
      1          6           0       -2.785217    0.033732    0.003506
      2          6           0       -3.356298   -0.929575   -0.831203
      3         17           0       -5.084315   -1.037255   -1.051771
      4          6           0       -2.564822   -1.835913   -1.532560
      5          1           0       -3.031751   -2.575429   -2.174893
      6          6           0       -1.182711   -1.781772   -1.404940
      7          6           0       -0.595755   -0.834165   -0.565449
      8          6           0       -1.398232    0.071700    0.130267
      9         16           0       -3.772146    1.267589    0.906141
     10          8           0       -4.624441    0.432399    1.800191
     11          8           0       -2.748234    2.064936    1.626183
     12          7           0       -4.537211    2.189251   -0.089880
     13          1           0       -5.350728    1.680201   -0.441278
     14          1           0       -0.961254    0.838293    0.762231
     15          1           0       -0.559356   -2.481811   -1.952405
     16          6           0        0.898054   -0.809152   -0.473628
     17          7           0        1.408853   -0.411640    0.716575
     18          8           0        1.609553   -1.126691   -1.430425
     19          7           0        2.768257   -0.272245    0.945974
     20          6           0        3.549996   -1.537932    1.055187
     21          6           0        4.994321   -1.044944    0.858467
     22          6           0        4.813528    0.187603    0.003605
     23          6           0        3.477687    0.593946    0.082800
     24          6           0        3.288110   -2.250386    2.365122
     25          6           0        3.005814    1.716754   -0.584669
     26          6           0        3.922758    2.449045   -1.348159
     27          6           0        5.261714    2.063712   -1.433072
     28          6           0        5.713515    0.924529   -0.751218
     29          1           0        0.803652   -0.237099    1.510938
     30          1           0        3.269601   -2.184611    0.212381
     31          1           0        5.628763   -1.807871    0.400951
     32          1           0        5.432434   -0.774913    1.829285
     33          1           0        2.230938   -2.518713    2.464084
     34          1           0        3.571927   -1.616528    3.211943
     35          1           0        3.875227   -3.173407    2.408263
     36          1           0        1.960336    2.008814   -0.526790
     37          1           0        3.580140    3.327799   -1.887302
     38          1           0        5.954458    2.643812   -2.035317
     39          1           0        6.754224    0.617577   -0.820839
 ---------------------------------------------------------------------
 Rotational constants (GHZ):           0.4318608           0.0939845           0.0900807
 General basis read from cards:  (6D, 7F)
 There are   494 symmetry adapted cartesian basis functions of A   symmetry.
 There are   494 symmetry adapted basis functions of A   symmetry.
   494 basis functions,   876 primitive gaussians,   494 cartesian basis functions
    95 alpha electrons       95 beta electrons
       nuclear repulsion energy      2317.7283133500 Hartrees.
 NAtoms=   39 NActive=   39 NUniq=   39 SFac= 1.00D+00 NAtFMM=   60 NAOKFM=F Big=F
 Integral buffers will be    131072 words long.
 Raffenetti 2 integral format.
 Two-electron integral symmetry is turned on.
 One-electron integrals computed using PRISM.
 NBasis=   494 RedAO= T EigKep=  1.33D-06  NBF=   494
 NBsUse=   490 1.00D-06 EigRej=  9.57D-07 NBFU=   490
 ExpMin= 4.05D-02 ExpMax= 2.52D+04 ExpMxC= 3.78D+03 IAcc=3 IRadAn=         5 AccDes= 0.00D+00
 Harris functional with IExCor= 1009 and IRadAn=       5 diagonalized for initial guess.
 HarFok:  IExCor= 1009 AccDes= 0.00D+00 IRadAn=         5 IDoV= 1 UseB2=F ITyADJ=14
 ICtDFT=  3500011 ScaDFX=  1.000000  1.000000  1.000000  1.000000
 FoFCou: FMM=F IPFlag=           0 FMFlag=      100000 FMFlg1=           0
         NFxFlg=           0 DoJE=T BraDBF=F KetDBF=T FulRan=T
         wScrn=  0.000000 ICntrl=       500 IOpCl=  0 I1Cent=   200000004 NGrid=           0
         NMat0=    1 NMatS0=      1 NMatT0=    0 NMatD0=    1 NMtDS0=    0 NMtDT0=    0
 Petite list used in FoFCou.
 Requested convergence on RMS density matrix=1.00D-08 within 128 cycles.
 Requested convergence on MAX density matrix=1.00D-06.
 Requested convergence on             energy=1.00D-06.
 No special actions if energy rises.
 SCF Done:  E(RM062X) =  -1866.58637824     A.U. after   18 cycles
            NFock= 18  Conv=0.28D-08     -V/T= 2.0060

 **********************************************************************

            Population analysis using the SCF Density.

 **********************************************************************

 Orbital symmetries:
       Occupied  (A) (A) (A) (A) (A) (A) (A) (A) (A) (A) (A) (A)
                 (A) (A) (A) (A) (A) (A) (A) (A) (A) (A) (A) (A)
                 (A) (A) (A) (A) (A) (A) (A) (A) (A) (A) (A) (A)
                 (A) (A) (A) (A) (A) (A) (A) (A) (A) (A) (A) (A)
                 (A) (A) (A) (A) (A) (A) (A) (A) (A) (A) (A) (A)
                 (A) (A) (A) (A) (A) (A) (A) (A) (A) (A) (A) (A)
                 (A) (A) (A) (A) (A) (A) (A) (A) (A) (A) (A) (A)
                 (A) (A) (A) (A) (A) (A) (A) (A) (A) (A) (A)
       Virtual   (A) (A) (A) (A) (A) (A) (A) (A) (A) (A) (A) (A)
                 (A) (A) (A) (A) (A) (A) (A) (A) (A) (A) (A) (A)
                 (A) (A) (A) (A) (A) (A) (A) (A) (A) (A) (A) (A)
                 (A) (A) (A) (A) (A) (A) (A) (A) (A) (A) (A) (A)
                 (A) (A) (A) (A) (A) (A) (A) (A) (A) (A) (A) (A)
                 (A) (A) (A) (A) (A) (A) (A) (A) (A) (A) (A) (A)
                 (A) (A) (A) (A) (A) (A) (A) (A) (A) (A) (A) (A)
                 (A) (A) (A) (A) (A) (A) (A) (A) (A) (A) (A) (A)
                 (A) (A) (A) (A) (A) (A) (A) (A) (A) (A) (A) (A)
                 (A) (A) (A) (A) (A) (A) (A) (A) (A) (A) (A) (A)
                 (A) (A) (A) (A) (A) (A) (A) (A) (A) (A) (A) (A)
                 (A) (A) (A) (A) (A) (A) (A) (A) (A) (A) (A) (A)
                 (A) (A) (A) (A) (A) (A) (A) (A) (A) (A) (A) (A)
                 (A) (A) (A) (A) (A) (A) (A) (A) (A) (A) (A) (A)
                 (A) (A) (A) (A) (A) (A) (A) (A) (A) (A) (A) (A)
                 (A) (A) (A) (A) (A) (A) (A) (A) (A) (A) (A) (A)
                 (A) (A) (A) (A) (A) (A) (A) (A) (A) (A) (A) (A)
                 (A) (A) (A) (A) (A) (A) (A) (A) (A) (A) (A) (A)
                 (A) (A) (A) (A) (A) (A) (A) (A) (A) (A) (A) (A)
                 (A) (A) (A) (A) (A) (A) (A) (A) (A) (A) (A) (A)
                 (A) (A) (A) (A) (A) (A) (A) (A) (A) (A) (A) (A)
                 (A) (A) (A) (A) (A) (A) (A) (A) (A) (A) (A) (A)
                 (A) (A) (A) (A) (A) (A) (A) (A) (A) (A) (A) (A)
                 (A) (A) (A) (A) (A) (A) (A) (A) (A) (A) (A) (A)
                 (A) (A) (A) (A) (A) (A) (A) (A) (A) (A) (A) (A)
                 (A) (A) (A) (A) (A) (A) (A) (A) (A) (A) (A) (A)
                 (A) (A) (A) (A) (A) (A) (A) (A) (A) (A) (A) (A)
                 (A) (A) (A) (A) (A) (A) (A) (A) (A) (A) (A) (A)
                 (A) (A) (A) (A) (A) (A) (A) (A) (A) (A) (A) (A)
                 (A) (A) (A) (A) (A) (A) (A) (A) (A) (A) (A) (A)
                 (A) (A) (A) (A) (A) (A) (A) (A) (A) (A) (A) (A)
                 (A) (A) (A) (A) (A) (A) (A) (A) (A) (A) (A) (A)
                 (A) (A) (A) (A) (A) (A) (A) (A) (A) (A) (A)
 The electronic state is 1-A.
 Alpha  occ. eigenvalues -- -102.57286 -89.98397 -19.53946 -19.46074 -19.45955
 Alpha  occ. eigenvalues --  -14.74825 -14.74144 -14.56782 -10.58300 -10.52749
 Alpha  occ. eigenvalues --  -10.52207 -10.51551 -10.49402 -10.48793 -10.48626
 Alpha  occ. eigenvalues --  -10.48427 -10.48132 -10.48093 -10.47987 -10.47887
 Alpha  occ. eigenvalues --  -10.47813 -10.47700 -10.47398 -10.47245  -9.71925
 Alpha  occ. eigenvalues --   -8.29189  -7.44329  -7.43676  -7.43641  -6.21401
 Alpha  occ. eigenvalues --   -6.21372  -6.21279  -1.10092  -1.05105  -1.04057
 Alpha  occ. eigenvalues --   -0.93152  -0.92887  -0.90437  -0.87122  -0.84924
 Alpha  occ. eigenvalues --   -0.81427  -0.80928  -0.78594  -0.76697  -0.76242
 Alpha  occ. eigenvalues --   -0.73983  -0.71011  -0.65578  -0.62196  -0.61941
 Alpha  occ. eigenvalues --   -0.60908  -0.60147  -0.58573  -0.56329  -0.53430
 Alpha  occ. eigenvalues --   -0.51117  -0.49971  -0.48395  -0.46531  -0.45761
 Alpha  occ. eigenvalues --   -0.45275  -0.44936  -0.43624  -0.43360  -0.42445
 Alpha  occ. eigenvalues --   -0.42049  -0.40940  -0.40640  -0.40346  -0.39544
 Alpha  occ. eigenvalues --   -0.38018  -0.37805  -0.37082  -0.36036  -0.35809
 Alpha  occ. eigenvalues --   -0.35503  -0.35008  -0.33781  -0.33435  -0.32641
 Alpha  occ. eigenvalues --   -0.30354  -0.29321  -0.28699  -0.26344  -0.25752
 Alpha  occ. eigenvalues --   -0.25454  -0.23513  -0.23111  -0.22608  -0.21588
 Alpha  occ. eigenvalues --   -0.20797  -0.19349  -0.18524  -0.16976  -0.14245
 Alpha virt. eigenvalues --    0.07529   0.07579   0.08218   0.08440   0.09241
 Alpha virt. eigenvalues --    0.09795   0.10042   0.10436   0.10651   0.10864
 Alpha virt. eigenvalues --    0.10958   0.11814   0.12082   0.12928   0.13080
 Alpha virt. eigenvalues --    0.13504   0.14012   0.14948   0.15119   0.15371
 Alpha virt. eigenvalues --    0.16206   0.16606   0.16886   0.16926   0.17407
 Alpha virt. eigenvalues --    0.17605   0.18076   0.18360   0.18930   0.19073
 Alpha virt. eigenvalues --    0.19561   0.19912   0.20375   0.21114   0.21508
 Alpha virt. eigenvalues --    0.21670   0.21798   0.22222   0.22400   0.22638
 Alpha virt. eigenvalues --    0.23157   0.23940   0.24071   0.24307   0.24828
 Alpha virt. eigenvalues --    0.24916   0.25330   0.25620   0.26170   0.26293
 Alpha virt. eigenvalues --    0.26341   0.26966   0.27231   0.27393   0.27893
 Alpha virt. eigenvalues --    0.28282   0.28711   0.29123   0.29487   0.29559
 Alpha virt. eigenvalues --    0.29684   0.30086   0.30317   0.30402   0.30662
 Alpha virt. eigenvalues --    0.30921   0.31193   0.31487   0.31703   0.31909
 Alpha virt. eigenvalues --    0.32429   0.32516   0.32950   0.32985   0.33602
 Alpha virt. eigenvalues --    0.33606   0.34047   0.34382   0.34790   0.35258
 Alpha virt. eigenvalues --    0.35471   0.36017   0.36433   0.36564   0.37055
 Alpha virt. eigenvalues --    0.37792   0.38061   0.38428   0.38753   0.39147
 Alpha virt. eigenvalues --    0.39292   0.39844   0.40036   0.40408   0.40546
 Alpha virt. eigenvalues --    0.41022   0.41355   0.41804   0.42096   0.42735
 Alpha virt. eigenvalues --    0.43118   0.43384   0.43973   0.44273   0.44823
 Alpha virt. eigenvalues --    0.45229   0.45577   0.45817   0.46079   0.46411
 Alpha virt. eigenvalues --    0.47196   0.47473   0.47885   0.48120   0.48616
 Alpha virt. eigenvalues --    0.48744   0.49156   0.49661   0.49923   0.50717
 Alpha virt. eigenvalues --    0.50978   0.52116   0.52673   0.53050   0.53232
 Alpha virt. eigenvalues --    0.53380   0.54972   0.55160   0.57028   0.57398
 Alpha virt. eigenvalues --    0.58865   0.60263   0.60839   0.62326   0.63194
 Alpha virt. eigenvalues --    0.66790   0.68960   0.69086   0.70365   0.74186
 Alpha virt. eigenvalues --    0.75027   0.76990   0.77146   0.77630   0.78502
 Alpha virt. eigenvalues --    0.78908   0.79799   0.80662   0.81399   0.81862
 Alpha virt. eigenvalues --    0.82348   0.82976   0.83644   0.84317   0.84505
 Alpha virt. eigenvalues --    0.85346   0.85484   0.86281   0.86634   0.87245
 Alpha virt. eigenvalues --    0.87571   0.87845   0.88756   0.89265   0.90858
 Alpha virt. eigenvalues --    0.91477   0.92201   0.92368   0.92919   0.93684
 Alpha virt. eigenvalues --    0.93960   0.94324   0.94961   0.96416   0.96781
 Alpha virt. eigenvalues --    0.97223   0.99124   0.99549   1.00915   1.01858
 Alpha virt. eigenvalues --    1.02854   1.03318   1.04276   1.05475   1.06145
 Alpha virt. eigenvalues --    1.06791   1.07053   1.07757   1.08471   1.09050
 Alpha virt. eigenvalues --    1.09145   1.10603   1.11539   1.11859   1.12819
 Alpha virt. eigenvalues --    1.13503   1.14654   1.15400   1.16513   1.16975
 Alpha virt. eigenvalues --    1.17625   1.17861   1.18866   1.19084   1.20319
 Alpha virt. eigenvalues --    1.20984   1.21875   1.22969   1.23416   1.24251
 Alpha virt. eigenvalues --    1.26124   1.26251   1.26998   1.27268   1.27707
 Alpha virt. eigenvalues --    1.28336   1.28657   1.29056   1.30284   1.31000
 Alpha virt. eigenvalues --    1.31381   1.34105   1.34525   1.34988   1.35138
 Alpha virt. eigenvalues --    1.36547   1.37736   1.38099   1.38534   1.39631
 Alpha virt. eigenvalues --    1.40037   1.40788   1.42911   1.44902   1.46083
 Alpha virt. eigenvalues --    1.48144   1.48716   1.49225   1.50468   1.51004
 Alpha virt. eigenvalues --    1.52126   1.53010   1.53786   1.55367   1.55907
 Alpha virt. eigenvalues --    1.56907   1.56967   1.57635   1.58612   1.59103
 Alpha virt. eigenvalues --    1.59621   1.59868   1.60158   1.60955   1.61827
 Alpha virt. eigenvalues --    1.63014   1.63755   1.64616   1.65311   1.65724
 Alpha virt. eigenvalues --    1.66746   1.69104   1.69796   1.70572   1.71427
 Alpha virt. eigenvalues --    1.74917   1.77527   1.82330   1.85248   1.87021
 Alpha virt. eigenvalues --    1.88800   1.90343   1.92186   1.93030   1.93804
 Alpha virt. eigenvalues --    1.94286   1.94711   1.96498   1.97552   1.98211
 Alpha virt. eigenvalues --    1.99284   1.99860   2.00642   2.01246   2.01902
 Alpha virt. eigenvalues --    2.03191   2.04074   2.04836   2.05026   2.05931
 Alpha virt. eigenvalues --    2.06340   2.07985   2.09708   2.10962   2.11172
 Alpha virt. eigenvalues --    2.11948   2.12619   2.13954   2.14515   2.16216
 Alpha virt. eigenvalues --    2.17337   2.18006   2.18745   2.19752   2.20980
 Alpha virt. eigenvalues --    2.22645   2.24038   2.25254   2.27573   2.28478
 Alpha virt. eigenvalues --    2.28646   2.29039   2.30641   2.31191   2.31840
 Alpha virt. eigenvalues --    2.32317   2.34199   2.35475   2.36924   2.38115
 Alpha virt. eigenvalues --    2.39099   2.40546   2.40954   2.41304   2.42988
 Alpha virt. eigenvalues --    2.43669   2.44139   2.46288   2.46503   2.47305
 Alpha virt. eigenvalues --    2.50561   2.51511   2.54271   2.56075   2.58770
 Alpha virt. eigenvalues --    2.59682   2.61720   2.62668   2.66266   2.69530
 Alpha virt. eigenvalues --    2.71066   2.73728   2.75217   2.75531   2.75671
 Alpha virt. eigenvalues --    2.76655   2.78038   2.79893   2.80279   2.81890
 Alpha virt. eigenvalues --    2.84161   2.84418   2.88065   2.89179   2.90610
 Alpha virt. eigenvalues --    2.92595   2.93623   2.95707   2.99136   3.03776
 Alpha virt. eigenvalues --    3.04900   3.06546   3.08309   3.11005   3.13484
 Alpha virt. eigenvalues --    3.21682   3.27666   3.32899   3.41141   3.49704
 Alpha virt. eigenvalues --    3.51852   4.17359   4.24454   4.30442   4.36600
 Alpha virt. eigenvalues --    4.38264   4.39542   4.40743   4.41580   4.43483
 Alpha virt. eigenvalues --    4.44469   4.46702   4.48292   4.49372   4.50826
 Alpha virt. eigenvalues --    4.54620   4.55754   4.59048   4.60614   4.63693
 Alpha virt. eigenvalues --    4.67835   4.78431   4.82531   4.86032   4.92342
          Condensed to atoms (all electrons):
               1          2          3          4          5          6
     1  C   33.425309 -16.865552   0.457844  -2.130545   0.086572  -2.368040
     2  C  -16.865552  52.656138  -0.688852 -14.973953   0.047891   0.341615
     3  Cl   0.457844  -0.688852  17.209787  -0.167179  -0.009560   0.240501
     4  C   -2.130545 -14.973953  -0.167179  18.568440   0.318816  -1.111732
     5  H    0.086572   0.047891  -0.009560   0.318816   0.485135  -0.183550
     6  C   -2.368040   0.341615   0.240501  -1.111732  -0.183550  13.056219
     7  C   -2.609051  -4.308449  -0.209483   2.295025   0.053776  -2.099423
     8  C    3.350072  -2.401603   0.005412  -2.173698  -0.004508   0.185299
     9  S   -0.988349  -0.380139   0.058302   0.182863  -0.000649   0.415388
    10  O   -0.403703   0.341277  -0.085163  -0.051231  -0.000029   0.035755
    11  O   -0.873978  -0.134557  -0.002721   0.117065   0.000020  -0.002397
    12  N   -0.050424  -0.030233  -0.026853   0.021090  -0.000134  -0.013822
    13  H   -0.099768  -0.057771   0.017909   0.021896  -0.000001   0.005176
    14  H   -0.112400  -0.011584  -0.000982   0.008003   0.000014  -0.021703
    15  H    0.031705  -0.037217   0.001344  -0.153195  -0.003491   0.403318
    16  C   -2.523097  -8.788942  -0.016481   5.331703  -0.003703  -2.362274
    17  N   -0.115245  -0.013271  -0.001463   0.169625   0.000118   0.134043
    18  O   -0.025921   0.011330   0.000063   0.044889   0.000075  -0.087804
    19  N    0.120879   0.014441  -0.001003  -0.113910  -0.000002  -0.168671
    20  C   -0.121044  -0.070968   0.000302   0.115677   0.000005  -0.011732
    21  C    0.028754   0.028908  -0.000049  -0.006772  -0.000000   0.050721
    22  C   -0.013235   0.022942   0.000115   0.004764  -0.000018  -0.106261
    23  C   -0.158387  -0.150898   0.001432   0.113693  -0.000005  -0.000731
    24  C    0.021596  -0.007843   0.000007  -0.018302  -0.000003  -0.021405
    25  C    0.027818   0.036584  -0.000781  -0.049240  -0.000011   0.025010
    26  C    0.061037   0.029005  -0.000392  -0.015469  -0.000005   0.057385
    27  C   -0.010076  -0.001365   0.000008   0.003501  -0.000000  -0.005129
    28  C   -0.014332  -0.010129  -0.000004   0.001732   0.000001  -0.005833
    29  H    0.013499   0.004853   0.000004  -0.012193   0.000000  -0.008348
    30  H   -0.000063  -0.000944   0.000000  -0.000598  -0.000000  -0.006157
    31  H    0.000009   0.000009  -0.000000  -0.000021   0.000000   0.000001
    32  H    0.000014  -0.000004   0.000000  -0.000010   0.000000  -0.000226
    33  H    0.000360  -0.000044   0.000001  -0.000401  -0.000000  -0.000853
    34  H    0.000007  -0.000019  -0.000000   0.000041   0.000000  -0.000067
    35  H    0.000005  -0.000007   0.000000  -0.000071   0.000000  -0.000400
    36  H   -0.001219  -0.001059  -0.000002   0.000504  -0.000000  -0.001563
    37  H   -0.000059  -0.000021  -0.000000   0.000029   0.000000   0.000085
    38  H    0.000001   0.000000   0.000000  -0.000001   0.000000  -0.000000
    39  H    0.000001  -0.000000   0.000000  -0.000001  -0.000000  -0.000028
               7          8          9         10         11         12
     1  C   -2.609051   3.350072  -0.988349  -0.403703  -0.873978  -0.050424
     2  C   -4.308449  -2.401603  -0.380139   0.341277  -0.134557  -0.030233
     3  Cl  -0.209483   0.005412   0.058302  -0.085163  -0.002721  -0.026853
     4  C    2.295025  -2.173698   0.182863  -0.051231   0.117065   0.021090
     5  H    0.053776  -0.004508  -0.000649  -0.000029   0.000020  -0.000134
     6  C   -2.099423   0.185299   0.415388   0.035755  -0.002397  -0.013822
     7  C   16.668789  -2.656709  -0.987408  -0.034069   0.192218   0.102880
     8  C   -2.656709  15.532269   0.177529   0.034818   0.311664  -0.047101
     9  S   -0.987408   0.177529  15.655137   0.181648   0.266446   0.095368
    10  O   -0.034069   0.034818   0.181648   8.863186  -0.114546  -0.196946
    11  O    0.192218   0.311664   0.266446  -0.114546   8.984687  -0.151112
    12  N    0.102880  -0.047101   0.095368  -0.196946  -0.151112   7.826737
    13  H   -0.003513   0.021759   0.123082  -0.015138   0.021840   0.187230
    14  H    0.058202   0.299473  -0.011872   0.000555  -0.000626  -0.000441
    15  H   -0.017641   0.035248   0.001160  -0.000001   0.000006   0.000020
    16  C    0.525831  -6.033259  -0.127608  -0.017299   0.066205   0.016094
    17  N   -0.646037  -0.078799  -0.002801   0.001702  -0.000759  -0.000338
    18  O   -0.169689   0.082136  -0.000693  -0.000031  -0.000117  -0.000093
    19  N    0.121410   0.250459  -0.000779   0.000186   0.000269   0.000029
    20  C   -0.529905  -0.054081  -0.003413  -0.000189  -0.001172  -0.000271
    21  C    0.215691  -0.059257  -0.001739   0.000011   0.000007   0.000011
    22  C   -0.813156   0.836997   0.001296  -0.000176  -0.000346  -0.000158
    23  C    0.374301  -1.377776  -0.007847  -0.000960  -0.005310   0.000249
    24  C    0.053691  -0.001354   0.001812   0.000049   0.000312   0.000054
    25  C   -0.039763   0.346037   0.007094   0.001068   0.003543  -0.000296
    26  C    0.458758  -0.332631  -0.000958   0.000255   0.002228   0.000267
    27  C   -0.083006   0.037045   0.000055  -0.000003  -0.000019  -0.000019
    28  C   -0.026169  -0.081366   0.000266   0.000002   0.000008   0.000013
    29  H   -0.038052   0.109693   0.000776  -0.000038  -0.000144  -0.000040
    30  H   -0.004137  -0.018562  -0.000010   0.000000   0.000000   0.000000
    31  H    0.000736   0.000550  -0.000000  -0.000000   0.000000  -0.000000
    32  H    0.000318  -0.000573   0.000000   0.000000  -0.000000   0.000000
    33  H    0.001985   0.003838   0.000024   0.000000   0.000000   0.000000
    34  H   -0.000369  -0.002690  -0.000006  -0.000000   0.000000   0.000000
    35  H    0.001018   0.000032   0.000001   0.000000  -0.000000   0.000000
    36  H    0.016971  -0.026007  -0.000173   0.000000  -0.000007   0.000010
    37  H   -0.000401  -0.000726  -0.000003   0.000000  -0.000000   0.000000
    38  H    0.000100   0.000041   0.000000  -0.000000   0.000000  -0.000000
    39  H    0.000128  -0.000041  -0.000000   0.000000  -0.000000   0.000000
              13         14         15         16         17         18
     1  C   -0.099768  -0.112400   0.031705  -2.523097  -0.115245  -0.025921
     2  C   -0.057771  -0.011584  -0.037217  -8.788942  -0.013271   0.011330
     3  Cl   0.017909  -0.000982   0.001344  -0.016481  -0.001463   0.000063
     4  C    0.021896   0.008003  -0.153195   5.331703   0.169625   0.044889
     5  H   -0.000001   0.000014  -0.003491  -0.003703   0.000118   0.000075
     6  C    0.005176  -0.021703   0.403318  -2.362274   0.134043  -0.087804
     7  C   -0.003513   0.058202  -0.017641   0.525831  -0.646037  -0.169689
     8  C    0.021759   0.299473   0.035248  -6.033259  -0.078799   0.082136
     9  S    0.123082  -0.011872   0.001160  -0.127608  -0.002801  -0.000693
    10  O   -0.015138   0.000555  -0.000001  -0.017299   0.001702  -0.000031
    11  O    0.021840  -0.000626   0.000006   0.066205  -0.000759  -0.000117
    12  N    0.187230  -0.000441   0.000020   0.016094  -0.000338  -0.000093
    13  H    0.432239  -0.000018  -0.000000   0.000456   0.000017  -0.000000
    14  H   -0.000018   0.437238  -0.000125   0.064364   0.018746  -0.001198
    15  H   -0.000000  -0.000125   0.475911   0.032223   0.001667  -0.000031
    16  C    0.000456   0.064364   0.032223  20.163623  -1.997987   0.654177
    17  N    0.000017   0.018746   0.001667  -1.997987  11.958916  -0.237461
    18  O   -0.000000  -0.001198  -0.000031   0.654177  -0.237461   8.079400
    19  N    0.000001   0.000883   0.000141   1.841487  -3.976533   0.111389
    20  C   -0.000002   0.000923   0.000113  -0.690895   1.352231  -0.082589
    21  C   -0.000000   0.000493  -0.000324   0.117846  -0.332287  -0.016981
    22  C   -0.000001  -0.001015   0.000565   0.235985  -0.350788  -0.027461
    23  C   -0.000022   0.022198   0.000158  -0.613094   2.885611  -0.020292
    24  C    0.000000   0.000182   0.000078   0.173250  -0.100747   0.006911
    25  C    0.000025  -0.014582   0.000741  -0.068507  -0.933901   0.008713
    26  C    0.000007  -0.005056  -0.000126  -0.144643  -0.182348   0.003241
    27  C    0.000000  -0.000257   0.000057   0.003454   0.027707   0.004047
    28  C    0.000000  -0.000102   0.000010   0.137162  -0.250242   0.025243
    29  H   -0.000000   0.001952  -0.000005  -0.024699   0.113804   0.003890
    30  H    0.000000  -0.000000   0.000007   0.002142  -0.026068  -0.006912
    31  H    0.000000   0.000000  -0.000000   0.006767   0.004523   0.000132
    32  H    0.000000  -0.000000  -0.000000  -0.003301  -0.007660  -0.000273
    33  H    0.000000   0.000001  -0.000000  -0.018949   0.029070   0.000137
    34  H   -0.000000  -0.000000   0.000000   0.004646  -0.006382  -0.000083
    35  H   -0.000000   0.000000  -0.000000   0.000332  -0.006181   0.000107
    36  H   -0.000000  -0.000073   0.000000   0.000051   0.044278  -0.001793
    37  H   -0.000000   0.000000   0.000000   0.001241   0.000947  -0.000088
    38  H    0.000000  -0.000000  -0.000000  -0.000023  -0.000031  -0.000008
    39  H   -0.000000   0.000000  -0.000000  -0.000231   0.000253  -0.000026
              19         20         21         22         23         24
     1  C    0.120879  -0.121044   0.028754  -0.013235  -0.158387   0.021596
     2  C    0.014441  -0.070968   0.028908   0.022942  -0.150898  -0.007843
     3  Cl  -0.001003   0.000302  -0.000049   0.000115   0.001432   0.000007
     4  C   -0.113910   0.115677  -0.006772   0.004764   0.113693  -0.018302
     5  H   -0.000002   0.000005  -0.000000  -0.000018  -0.000005  -0.000003
     6  C   -0.168671  -0.011732   0.050721  -0.106261  -0.000731  -0.021405
     7  C    0.121410  -0.529905   0.215691  -0.813156   0.374301   0.053691
     8  C    0.250459  -0.054081  -0.059257   0.836997  -1.377776  -0.001354
     9  S   -0.000779  -0.003413  -0.001739   0.001296  -0.007847   0.001812
    10  O    0.000186  -0.000189   0.000011  -0.000176  -0.000960   0.000049
    11  O    0.000269  -0.001172   0.000007  -0.000346  -0.005310   0.000312
    12  N    0.000029  -0.000271   0.000011  -0.000158   0.000249   0.000054
    13  H    0.000001  -0.000002  -0.000000  -0.000001  -0.000022   0.000000
    14  H    0.000883   0.000923   0.000493  -0.001015   0.022198   0.000182
    15  H    0.000141   0.000113  -0.000324   0.000565   0.000158   0.000078
    16  C    1.841487  -0.690895   0.117846   0.235985  -0.613094   0.173250
    17  N   -3.976533   1.352231  -0.332287  -0.350788   2.885611  -0.100747
    18  O    0.111389  -0.082589  -0.016981  -0.027461  -0.020292   0.006911
    19  N   11.230259  -1.353373   0.438976   1.115714  -3.960180   0.074222
    20  C   -1.353373   9.654461  -2.276929   1.156427  -0.474807  -0.539849
    21  C    0.438976  -2.276929  10.246089  -0.766749  -1.371300  -0.119919
    22  C    1.115714   1.156427  -0.766749  20.523249 -11.174124  -0.169602
    23  C   -3.960180  -0.474807  -1.371300 -11.174124  27.302228   0.038958
    24  C    0.074222  -0.539849  -0.119919  -0.169602   0.038958   6.263639
    25  C    0.962476   0.375942  -0.457355   0.834211  -5.857856  -0.125280
    26  C    0.029617  -0.013633  -0.043822  -2.929794   1.735403   0.008546
    27  C    0.014175   0.005980   0.084737   1.333529  -1.561497  -0.022634
    28  C    0.130867  -0.280286  -0.148466  -4.870537   1.029821  -0.042867
    29  H    0.125615  -0.019558  -0.006160   0.029438  -0.082130   0.002359
    30  H   -0.019786   0.317470   0.051272  -0.035978   0.104202  -0.053414
    31  H    0.016935  -0.106296   0.564261  -0.121737  -0.055324  -0.009795
    32  H    0.033398  -0.182018   0.565874  -0.122403   0.009093   0.028875
    33  H   -0.024279  -0.094807   0.009844  -0.008667   0.000426   0.448603
    34  H    0.017479  -0.094404   0.016514  -0.018775  -0.006948   0.435644
    35  H    0.009528  -0.051126  -0.013379   0.004393   0.009283   0.380857
    36  H   -0.037023   0.001272   0.003642  -0.046982   0.125223   0.000723
    37  H   -0.001944   0.000238   0.001411  -0.004177   0.042228  -0.000001
    38  H    0.000272   0.000243   0.000804   0.020840   0.000314   0.000039
    39  H   -0.001762   0.003241  -0.035456   0.011169   0.145532  -0.000562
              25         26         27         28         29         30
     1  C    0.027818   0.061037  -0.010076  -0.014332   0.013499  -0.000063
     2  C    0.036584   0.029005  -0.001365  -0.010129   0.004853  -0.000944
     3  Cl  -0.000781  -0.000392   0.000008  -0.000004   0.000004   0.000000
     4  C   -0.049240  -0.015469   0.003501   0.001732  -0.012193  -0.000598
     5  H   -0.000011  -0.000005  -0.000000   0.000001   0.000000  -0.000000
     6  C    0.025010   0.057385  -0.005129  -0.005833  -0.008348  -0.006157
     7  C   -0.039763   0.458758  -0.083006  -0.026169  -0.038052  -0.004137
     8  C    0.346037  -0.332631   0.037045  -0.081366   0.109693  -0.018562
     9  S    0.007094  -0.000958   0.000055   0.000266   0.000776  -0.000010
    10  O    0.001068   0.000255  -0.000003   0.000002  -0.000038   0.000000
    11  O    0.003543   0.002228  -0.000019   0.000008  -0.000144   0.000000
    12  N   -0.000296   0.000267  -0.000019   0.000013  -0.000040   0.000000
    13  H    0.000025   0.000007   0.000000   0.000000  -0.000000   0.000000
    14  H   -0.014582  -0.005056  -0.000257  -0.000102   0.001952  -0.000000
    15  H    0.000741  -0.000126   0.000057   0.000010  -0.000005   0.000007
    16  C   -0.068507  -0.144643   0.003454   0.137162  -0.024699   0.002142
    17  N   -0.933901  -0.182348   0.027707  -0.250242   0.113804  -0.026068
    18  O    0.008713   0.003241   0.004047   0.025243   0.003890  -0.006912
    19  N    0.962476   0.029617   0.014175   0.130867   0.125615  -0.019786
    20  C    0.375942  -0.013633   0.005980  -0.280286  -0.019558   0.317470
    21  C   -0.457355  -0.043822   0.084737  -0.148466  -0.006160   0.051272
    22  C    0.834211  -2.929794   1.333529  -4.870537   0.029438  -0.035978
    23  C   -5.857856   1.735403  -1.561497   1.029821  -0.082130   0.104202
    24  C   -0.125280   0.008546  -0.022634  -0.042867   0.002359  -0.053414
    25  C   10.572089  -1.176585   0.240066   0.988065   0.015873  -0.031847
    26  C   -1.176585   8.565621  -0.327272   0.409939  -0.004162   0.000289
    27  C    0.240066  -0.327272   6.087392   0.000274   0.000167  -0.000412
    28  C    0.988065   0.409939   0.000274   9.334032  -0.000016   0.000806
    29  H    0.015873  -0.004162   0.000167  -0.000016   0.300337  -0.000753
    30  H   -0.031847   0.000289  -0.000412   0.000806  -0.000753   0.472255
    31  H   -0.002795   0.000286   0.003372   0.021652   0.000002  -0.005406
    32  H   -0.021436   0.001881  -0.002637  -0.004994  -0.000008   0.003874
    33  H    0.002617   0.000287  -0.000103   0.000183   0.000006  -0.003184
    34  H   -0.003148   0.000419  -0.000301   0.000033  -0.000054   0.003502
    35  H    0.001106  -0.000180   0.000175   0.003926  -0.000027  -0.001031
    36  H    0.203215   0.040160  -0.011936  -0.013779  -0.000258  -0.000000
    37  H    0.019877   0.267048  -0.019079   0.000686  -0.000000   0.000000
    38  H    0.008480   0.023386   0.274801  -0.022258   0.000000   0.000000
    39  H   -0.053779   0.020276  -0.059675   0.264325  -0.000000  -0.000004
              31         32         33         34         35         36
     1  C    0.000009   0.000014   0.000360   0.000007   0.000005  -0.001219
     2  C    0.000009  -0.000004  -0.000044  -0.000019  -0.000007  -0.001059
     3  Cl  -0.000000   0.000000   0.000001  -0.000000   0.000000  -0.000002
     4  C   -0.000021  -0.000010  -0.000401   0.000041  -0.000071   0.000504
     5  H    0.000000   0.000000  -0.000000   0.000000   0.000000  -0.000000
     6  C    0.000001  -0.000226  -0.000853  -0.000067  -0.000400  -0.001563
     7  C    0.000736   0.000318   0.001985  -0.000369   0.001018   0.016971
     8  C    0.000550  -0.000573   0.003838  -0.002690   0.000032  -0.026007
     9  S   -0.000000   0.000000   0.000024  -0.000006   0.000001  -0.000173
    10  O   -0.000000   0.000000   0.000000  -0.000000   0.000000   0.000000
    11  O    0.000000  -0.000000   0.000000   0.000000  -0.000000  -0.000007
    12  N   -0.000000   0.000000   0.000000   0.000000   0.000000   0.000010
    13  H    0.000000   0.000000   0.000000  -0.000000  -0.000000  -0.000000
    14  H    0.000000  -0.000000   0.000001  -0.000000   0.000000  -0.000073
    15  H   -0.000000  -0.000000  -0.000000   0.000000  -0.000000   0.000000
    16  C    0.006767  -0.003301  -0.018949   0.004646   0.000332   0.000051
    17  N    0.004523  -0.007660   0.029070  -0.006382  -0.006181   0.044278
    18  O    0.000132  -0.000273   0.000137  -0.000083   0.000107  -0.001793
    19  N    0.016935   0.033398  -0.024279   0.017479   0.009528  -0.037023
    20  C   -0.106296  -0.182018  -0.094807  -0.094404  -0.051126   0.001272
    21  C    0.564261   0.565874   0.009844   0.016514  -0.013379   0.003642
    22  C   -0.121737  -0.122403  -0.008667  -0.018775   0.004393  -0.046982
    23  C   -0.055324   0.009093   0.000426  -0.006948   0.009283   0.125223
    24  C   -0.009795   0.028875   0.448603   0.435644   0.380857   0.000723
    25  C   -0.002795  -0.021436   0.002617  -0.003148   0.001106   0.203215
    26  C    0.000286   0.001881   0.000287   0.000419  -0.000180   0.040160
    27  C    0.003372  -0.002637  -0.000103  -0.000301   0.000175  -0.011936
    28  C    0.021652  -0.004994   0.000183   0.000033   0.003926  -0.013779
    29  H    0.000002  -0.000008   0.000006  -0.000054  -0.000027  -0.000258
    30  H   -0.005406   0.003874  -0.003184   0.003502  -0.001031  -0.000000
    31  H    0.484616  -0.032992  -0.000093   0.000101   0.000458   0.000002
    32  H   -0.032992   0.502917   0.000076   0.003022  -0.000293   0.000002
    33  H   -0.000093   0.000076   0.474546  -0.025486  -0.024648   0.000000
    34  H    0.000101   0.003022  -0.025486   0.477606  -0.027345  -0.000000
    35  H    0.000458  -0.000293  -0.024648  -0.027345   0.500100   0.000000
    36  H    0.000002   0.000002   0.000000  -0.000000   0.000000   0.469270
    37  H    0.000000   0.000000  -0.000000  -0.000000   0.000000  -0.003196
    38  H    0.000000   0.000001   0.000000  -0.000000  -0.000000  -0.000132
    39  H    0.001036   0.000232   0.000000  -0.000000   0.000000   0.000016
              37         38         39
     1  C   -0.000059   0.000001   0.000001
     2  C   -0.000021   0.000000  -0.000000
     3  Cl  -0.000000   0.000000   0.000000
     4  C    0.000029  -0.000001  -0.000001
     5  H    0.000000   0.000000  -0.000000
     6  C    0.000085  -0.000000  -0.000028
     7  C   -0.000401   0.000100   0.000128
     8  C   -0.000726   0.000041  -0.000041
     9  S   -0.000003   0.000000  -0.000000
    10  O    0.000000  -0.000000   0.000000
    11  O   -0.000000   0.000000  -0.000000
    12  N    0.000000  -0.000000   0.000000
    13  H   -0.000000   0.000000  -0.000000
    14  H    0.000000  -0.000000   0.000000
    15  H    0.000000  -0.000000  -0.000000
    16  C    0.001241  -0.000023  -0.000231
    17  N    0.000947  -0.000031   0.000253
    18  O   -0.000088  -0.000008  -0.000026
    19  N   -0.001944   0.000272  -0.001762
    20  C    0.000238   0.000243   0.003241
    21  C    0.001411   0.000804  -0.035456
    22  C   -0.004177   0.020840   0.011169
    23  C    0.042228   0.000314   0.145532
    24  C   -0.000001   0.000039  -0.000562
    25  C    0.019877   0.008480  -0.053779
    26  C    0.267048   0.023386   0.020276
    27  C   -0.019079   0.274801  -0.059675
    28  C    0.000686  -0.022258   0.264325
    29  H   -0.000000   0.000000  -0.000000
    30  H    0.000000   0.000000  -0.000004
    31  H    0.000000   0.000000   0.001036
    32  H    0.000000   0.000001   0.000232
    33  H   -0.000000   0.000000   0.000000
    34  H   -0.000000  -0.000000  -0.000000
    35  H    0.000000  -0.000000   0.000000
    36  H   -0.003196  -0.000132   0.000016
    37  H    0.500155  -0.003680  -0.000141
    38  H   -0.003680   0.512546  -0.003309
    39  H   -0.000141  -0.003309   0.516056
 Mulliken charges:
               1
     1  C   -2.140993
     2  C    1.400430
     3  Cl   0.217936
     4  C   -0.340833
     5  H    0.213248
     6  C   -0.362368
     7  C    0.134602
     8  C   -0.269631
     9  S    1.346199
    10  O   -0.540990
    11  O   -0.678708
    12  N   -0.731770
    13  H    0.344596
    14  H    0.268806
    15  H    0.227684
    16  C    0.055950
    17  N   -0.475928
    18  O   -0.356333
    19  N   -0.001859
    20  C    0.068823
    21  C   -0.768922
    22  C    1.450511
    23  C   -1.060864
    24  C   -0.706831
    25  C    0.156511
    26  C   -0.538262
    27  C   -0.015123
    28  C   -0.577665
    29  H    0.474377
    30  H    0.259448
    31  H    0.229009
    32  H    0.229249
    33  H    0.229511
    34  H    0.227066
    35  H    0.213368
    36  H    0.239862
    37  H    0.199571
    38  H    0.187572
    39  H    0.192751
 Sum of Mulliken charges =  -1.00000
 Mulliken charges with hydrogens summed into heavy atoms:
               1
     1  C   -2.140993
     2  C    1.400430
     3  Cl   0.217936
     4  C   -0.127585
     6  C   -0.134684
     7  C    0.134602
     8  C   -0.000825
     9  S    1.346199
    10  O   -0.540990
    11  O   -0.678708
    12  N   -0.387175
    16  C    0.055950
    17  N   -0.001550
    18  O   -0.356333
    19  N   -0.001859
    20  C    0.328271
    21  C   -0.310664
    22  C    1.450511
    23  C   -1.060864
    24  C   -0.036887
    25  C    0.396373
    26  C   -0.338691
    27  C    0.172450
    28  C   -0.384914
 Electronic spatial extent (au):  <R**2>=          11877.9037
 Charge=             -1.0000 electrons
 Dipole moment (field-independent basis, Debye):
    X=             15.1353    Y=             -7.7571    Z=             -2.4958  Tot=             17.1895
 Quadrupole moment (field-independent basis, Debye-Ang):
   XX=           -236.0681   YY=           -176.0810   ZZ=           -174.1840
   XY=             22.4820   XZ=             26.6502   YZ=            -10.3906
 Traceless Quadrupole moment (field-independent basis, Debye-Ang):
   XX=            -40.6237   YY=             19.3634   ZZ=             21.2604
   XY=             22.4820   XZ=             26.6502   YZ=            -10.3906
 Octapole moment (field-independent basis, Debye-Ang**2):
  XXX=            282.7732  YYY=            -63.6150  ZZZ=              0.0188  XYY=             66.9740
  XXY=           -125.4158  XXZ=            -83.8687  XZZ=             27.8734  YZZ=            -14.2975
  YYZ=            -22.4399  XYZ=             -4.3114
 Hexadecapole moment (field-independent basis, Debye-Ang**3):
 XXXX=         -13999.7840 YYYY=          -2216.6415 ZZZZ=          -1509.1398 XXXY=            180.5162
 XXXZ=            378.2707 YYYX=            166.5679 YYYZ=            -20.0963 ZZZX=            106.8252
 ZZZY=             -1.8404 XXYY=          -2813.5291 XXZZ=          -2638.4843 YYZZ=           -588.4338
 XXYZ=           -128.2650 YYXZ=              6.0970 ZZXY=             66.2731
 N-N= 2.317728313350D+03 E-N=-9.041023041722D+03  KE= 1.855370283718D+03
 Calling FoFJK, ICntrl=      2127 FMM=F ISym2X=0 I1Cent= 0 IOpClX= 0 NMat=1 NMatS=1 NMatT=0.
 ***** Axes restored to original set *****
 -------------------------------------------------------------------
 Center     Atomic                   Forces (Hartrees/Bohr)
 Number     Number              X              Y              Z
 -------------------------------------------------------------------
      1        6          -0.000497507    0.002208941   -0.001075081
      2        6           0.000538022   -0.001639811    0.001011840
      3       17           0.000560651   -0.000515678   -0.000956257
      4        6           0.001398811   -0.001471372   -0.000250143
      5        1          -0.000393274    0.000406949    0.000167889
      6        6          -0.000194883    0.001641319   -0.002246122
      7        6           0.000253082   -0.002485287    0.000426970
      8        6           0.001391763    0.001280364   -0.004716008
      9       16          -0.024877412   -0.014577950    0.023537065
     10        8           0.012248276    0.004740938   -0.004012783
     11        8           0.005132414    0.006065085   -0.009900070
     12        7           0.005863039    0.003652333   -0.004304176
     13        1          -0.001040133   -0.002145155   -0.000278012
     14        1          -0.002561235    0.001016561    0.003239969
     15        1           0.001378841   -0.000975659    0.000862692
     16        6           0.015041013    0.023433092   -0.011373758
     17        7          -0.003949210   -0.015375232    0.004316286
[...]
 0001061,-0.00000180,0.00002576,0.00002838,-0.00003715,0.00002584,-0.00
 006789,0.00002190,-0.00000926,-0.00001505,-0.00000315,-0.00008086,0.00
 000753,0.00003892,0.00004700,0.00000199,0.00000725,0.00002928,0.000002
 85,-0.00001854,0.00001953,-0.00001283,-0.00002506,-0.00000266,0.000000
 04,0.00000342,-0.00001632,-0.00000919,0.00002753,-0.00001374,-0.000002
 21,-0.00000933,0.00031912,0.00083260,-0.00036587,-0.00052781,-0.000152
 50,-0.00012953,-0.00023794,-0.00012405,0.00029799,-0.00370937,-0.00098
 710,-0.00139737,0.00576307,-0.00612935,-0.01510029,0.00045763,0.000513
 47,0.00025833,-0.00005556,-0.00023873,0.00001770,0.00074627,-0.0007299
 5,-0.00061659,0.01236794,-0.08851408,-0.09374427,-0.00042586,0.0000848
 0,-0.00010368,0.00007119,-0.00007247,-0.00007195,-0.00005030,0.0000157
 4,-0.00001554,-0.00000348,0.00001901,0.00006514,0.00002283,-0.00004139
 ,0.00023654,0.00040723,-0.00007927,0.00048460,-0.00030045,0.00018730,-
 0.00001949,-0.00019730,-0.00002883,0.00010711,0.00137543,-0.00780258,-
 0.01781570,-0.00296894,0.01155925,0.02277960,-0.01306008,0.09180521,0.
 00001509,-0.00003663,0.00000676,-0.00003529,0.00004116,0.00000230,0.00
 003850,-0.00004624,-0.00000157,0.00002384,-0.00001670,-0.00000447,0.00
 000376,-0.00001069,-0.00000049,0.00003807,0.00002059,-0.00002674,0.000
 02165,-0.00009097,0.00002995,-0.00000785,-0.00000194,-0.00000743,-0.00
 011463,0.00005747,0.00004055,0.00006661,-0.00000852,0.00001089,0.00004
 664,-0.00003179,-0.00001521,0.00002675,-0.00003305,-0.00003777,-0.0000
 0366,-0.00000076,0.00000572,-0.00001589,-0.00000502,0.00002193,-0.0000
 1095,0.00000611,-0.00000581,0.00014497,0.00049916,-0.00031328,-0.00029
 308,-0.00008083,0.00018733,-0.00011212,-0.00019265,0.00016077,-0.00297
 408,-0.00152572,-0.00015774,0.00312929,-0.00073805,-0.00759966,0.00043
 123,0.00018914,0.00056980,-0.00034277,-0.00002573,-0.00018246,0.001192
 24,-0.00064851,0.00044864,0.03243441,-0.09467548,-0.27368275,-0.000370
 68,0.00000072,-0.00013135,0.00011390,0.00001203,-0.00003677,-0.0001253
 9,-0.00001028,-0.00005030,0.00012040,0.00007546,0.00006991,0.00006175,
 0.00012103,0.00004654,-0.00037576,-0.00017928,0.00031932,-0.00045736,-
 0.00004042,-0.00004766,-0.00018181,0.00013289,-0.00026948,0.00014500,0
 .00113265,0.00157181,0.00248470,-0.00900409,-0.01750760,-0.03504653,0.
 10510983,0.29655958,-0.00000737,-0.00001076,0.00003642,-0.00003903,0.0
 0001834,0.00001035,0.00002966,-0.00004262,-0.00000213,0.00003345,-0.00
 004400,-0.00001378,0.00000562,-0.00000633,0.00000427,0.00000576,0.0000
 4941,-0.00002141,0.00008917,-0.00005862,0.00006272,0.00007045,0.000063
 02,0.00000043,-0.00009847,0.00010131,0.00005663,0.00004704,-0.00001789
 ,-0.00000398,0.00006205,-0.00004584,-0.00001223,0.00001110,-0.00005361
 ,-0.00004749,0.00000156,0.00000158,0.00000540,-0.00006552,-0.00006307,
 0.00002469,0.00000112,-0.00000011,0.00001614,0.00037387,0.00087864,-0.
 00098988,-0.00018659,-0.00116438,-0.00002440,-0.00050191,-0.00029117,0
 .00042246,-0.00094673,0.00011548,0.00091868,0.00023563,-0.00001017,-0.
 00008573,0.00022882,-0.00035104,-0.00030320,0.00001917,-0.00027496,-0.
 00250749,0.01135314,-0.00490592,-0.00348336,-0.00002713,0.00001307,0.0
 0004641,-0.18238161,0.11630378,0.08391491,-0.01351588,0.01792892,0.015
 25784,-0.00385781,-0.00011339,-0.00377250,-0.00013464,-0.00051510,-0.0
 0050861,-0.00017306,0.00002535,-0.00012764,0.00000129,0.00001539,0.000
 01955,-0.00006297,-0.00004190,-0.00007394,-0.00002201,-0.00001656,-0.0
 0002893,-0.00000722,-0.00001097,-0.00001068,0.00000355,0.00000156,0.00
 000001,0.00001814,0.00001372,0.00001082,0.18936214,0.00001184,-0.00004
 982,0.00002449,0.00001350,-0.00000048,-0.00000295,-0.00000733,0.000001
 67,0.00000243,-0.00001100,-0.00001467,0.00001246,0.00000415,-0.0000009
 5,0.00000585,-0.00000661,-0.00005816,0.00000126,-0.00004228,-0.0000680
 0,-0.00000642,-0.00000308,0.00004416,-0.00008631,0.00001317,0.00018309
 ,-0.00008702,-0.00000728,-0.00003872,0.00002029,0.00003924,-0.00013070
 ,0.00006011,-0.00002134,-0.00005490,0.00001607,0.00000702,-0.00000271,
 -0.00000239,-0.00003040,0.00003347,-0.00002568,0.00000064,0.00000126,0
 .00001441,0.00069073,0.00117765,-0.00069370,0.00002364,-0.00055032,0.0
 0168076,-0.00068197,-0.00023638,0.00008346,0.00030408,-0.00128762,0.00
 204184,0.00024720,-0.00045743,-0.00002102,0.00036686,-0.00048531,-0.00
 020341,-0.00087731,0.00263835,-0.00462844,0.01331825,-0.00624834,-0.00
 785401,-0.00000259,0.00004521,-0.00001758,0.11699727,-0.14940133,-0.09
 124064,-0.00134845,0.00329050,0.00070900,0.00029330,0.00460894,-0.0024
 8530,-0.00081109,-0.00031756,-0.00005238,-0.00034167,0.00008988,-0.000
 42324,-0.00003650,0.00008523,0.00005511,-0.00008187,-0.00010366,-0.000
 11054,-0.00008664,-0.00013333,-0.00017399,-0.00003784,-0.00000469,-0.0
 0001196,0.00000991,-0.00001238,0.00000112,-0.00000513,-0.00000255,-0.0
 0000343,-0.12724148,0.14976143,0.00002627,-0.00004414,-0.00002182,-0.0
 0006405,0.00007375,0.00001111,0.00008390,-0.00009495,-0.00001148,0.000
 05686,-0.00002028,-0.00004609,0.00000620,-0.00001551,-0.00000213,0.000
 05668,0.00010961,-0.00005016,0.00004124,0.00000592,-0.00002898,-0.0000
 4962,-0.00003623,0.00003416,-0.00018191,-0.00008118,0.00029457,0.00009
 563,0.00002401,-0.00005502,0.00002649,0.00009260,-0.00013133,0.0000341
 7,-0.00003018,-0.00013175,-0.00001277,0.00000580,0.00001042,-0.0000518
 1,-0.00001410,0.00005542,-0.00001638,0.00002309,-0.00002142,-0.0012443
 9,0.00069665,-0.00083972,0.00041799,0.00061836,0.00081409,0.00040432,-
 0.00000326,0.00038589,0.00176041,0.00117460,-0.00077031,0.00008645,-0.
 00001774,-0.00025324,0.00105473,-0.00027547,-0.00064787,-0.00329752,-0
 .00500709,-0.00002787,0.01730070,-0.01407411,-0.00547649,-0.00005079,0
 .00007102,0.00006874,0.08415156,-0.09068029,-0.11124686,-0.00637628,0.
 00679522,0.00808067,-0.00311860,-0.00261245,0.00296030,-0.00097831,0.0
 0003998,-0.00082438,-0.00035529,-0.00006311,-0.00007480,0.00000628,-0.
 00008276,-0.00004109,-0.00022444,-0.00019993,-0.00026282,-0.00005232,-
 0.00001142,-0.00001724,-0.00007379,-0.00001908,-0.00003467,0.00000541,
 -0.00000002,-0.00001253,0.00000280,0.00002017,0.00003322,-0.09027516,0
 .10075956,0.10960692,-0.00000451,0.00001097,0.00000919,0.00000519,-0.0
 0000497,-0.00000611,-0.00001400,0.00001607,0.00000365,-0.00001392,0.00
 001007,0.00000941,-0.00000414,0.00000265,-0.00000132,-0.00001204,-0.00
 000623,0.00002141,-0.00001286,0.00005739,-0.00000580,0.00000408,0.0000
 1830,0.00000865,0.00000482,-0.00000504,-0.00009632,0.00000291,0.000001
 47,0.00003011,0.00000747,-0.00000935,0.00003931,0.00001026,0.00001981,
 0.00003908,0.00000141,-0.00000186,0.00000031,0.00000377,-0.00000351,-0
 .00002127,0.00000183,-0.00000951,-0.00000201,-0.00000959,-0.00034526,0
 .00013200,0.00013061,0.00014334,-0.00005951,0.00002404,0.00014294,-0.0
 0005626,0.00045832,-0.00103321,-0.00138887,-0.00050038,0.00000273,0.00
 019922,0.00008562,-0.00014898,0.00005468,-0.00127844,0.00045691,0.0003
 1276,-0.00548665,0.00154226,-0.00198767,0.00008309,-0.00005317,-0.0001
 8291,-0.00429516,-0.01807946,-0.02341110,-0.08443111,-0.04600782,-0.06
 813664,0.01064893,0.01238218,0.01660232,-0.00214266,0.00353594,0.00128
 583,-0.00001442,0.00001949,-0.00005208,0.00001191,0.00000335,-0.000045
 51,-0.00001855,-0.00001646,-0.00003910,-0.00002239,-0.00005590,-0.0000
 2251,0.00000279,0.00001229,0.00000734,0.00000416,-0.00000282,0.0000107
 1,-0.00005564,-0.00004373,-0.00003200,0.00087602,-0.00051130,0.0010317
 7,0.08502111,-0.00000650,0.00000667,0.00000704,0.00001373,-0.00001768,
 -0.00000015,-0.00001707,0.00001922,0.00000271,-0.00000958,0.00000023,0
 .00000579,-0.00000048,0.00000201,0.00000090,-0.00001133,-0.00001186,0.
 00000660,-0.00001744,0.00002427,0.00000130,0.00000041,0.00000630,-0.00
 000442,0.00004904,0.00002233,-0.00006930,-0.00002582,-0.00000577,0.000
 01237,-0.00000981,-0.00002472,0.00003265,-0.00001505,0.00000482,0.0000
 3349,0.00000431,-0.00000088,-0.00000352,0.00000842,0.00000337,-0.00001
 070,0.00000505,-0.00000398,0.00000647,0.00011361,-0.00005431,-0.000010
 19,0.00001042,0.00000183,-0.00005291,-0.00010187,0.00002290,-0.0000364
 5,-0.00010344,0.00017314,0.00002238,-0.00006963,-0.00009150,0.00006300
 ,-0.00016495,-0.00038010,0.00021912,0.00056369,-0.00035082,0.00076702,
 0.00172881,0.00469615,-0.00225672,0.00000622,0.00001982,-0.00002237,0.
 00126601,0.00400133,0.00090834,-0.04598380,-0.14231611,-0.13591585,-0.
 00763933,-0.00619744,-0.01344063,0.00400435,0.00228197,-0.00408724,0.0
 0000732,0.00001532,-0.00001334,-0.00000186,0.00002007,-0.00000295,-0.0
 0001012,0.00004598,0.00006938,-0.00003420,-0.00008529,-0.00005609,-0.0
 0000578,0.00000551,-0.00000183,0.00000615,-0.00000951,0.00000591,-0.00
 000366,-0.00000760,-0.00000301,-0.00104355,-0.00194874,0.00218435,0.04
 838341,0.14244158,-0.00000519,0.00002099,-0.00000376,0.00001171,-0.000
 01531,-0.00000321,-0.00001512,0.00002053,0.00000150,-0.00000870,0.0000
 1663,0.00000728,-0.00000605,0.00000418,-0.00000387,-0.00001596,-0.0000
 0687,0.00002278,-0.00000841,0.00004918,-0.00000719,0.00000224,0.000003
 37,0.00000610,0.00002048,-0.00005407,-0.00003046,-0.00000838,0.0000125
 5,0.00000766,-0.00001359,0.00002843,0.00000580,0.00000336,0.00002963,0
 .00002102,-0.00000184,-0.00000146,-0.00000187,0.00000752,0.00000122,-0
 .00001228,-0.00000220,-0.00000941,-0.00000914,-0.00011892,-0.00038923,
 0.00022142,0.00003272,0.00023463,-0.00015184,0.00013129,0.00016515,-0.
 00005373,0.00005009,-0.00059409,-0.00039850,-0.00009764,0.00014795,0.0
 0012699,0.00005536,0.00046066,-0.00020898,0.00021429,0.00061371,0.0000
 5616,-0.00227665,-0.00240390,0.00371075,0.00001352,-0.00000108,-0.0000
 4727,-0.00102880,-0.00528741,-0.00282120,-0.06830168,-0.13553149,-0.21
 557786,-0.00636872,-0.00738959,-0.00716751,0.00196179,-0.00423115,0.00
 263643,0.00000687,0.00001526,-0.00001373,0.00000611,-0.00002839,-0.000
 05754,0.00003915,-0.00005792,-0.00004858,0.00003587,0.00005545,0.00006
 147,-0.00001688,-0.00000242,0.00000561,-0.00000037,0.00000540,0.000006
 98,-0.00001320,-0.00001530,-0.00001706,0.00055584,0.00229491,-0.001339
 32,0.07460493,0.14994260,0.22281422,-0.00001151,0.00002691,-0.00000072
 ,0.00003016,-0.00003685,-0.00000026,-0.00003259,0.00003952,0.00000302,
 -0.00001764,0.00000794,0.00000947,-0.00000361,0.00000594,-0.00000140,-
 0.00001697,-0.00001943,0.00002259,-0.00003073,0.00004124,0.00000076,0.
 00000527,0.00000146,-0.00000319,0.00008947,-0.00003210,-0.00006665,-0.
 00004891,0.00000538,0.00000480,-0.00003541,0.00000718,0.00002318,-0.00
 002208,0.00002923,0.00004432,0.00000293,-0.00000143,-0.00000673,0.0000
 1938,0.00000738,-0.00001304,0.00000476,-0.00000914,0.00000268,0.000092
 83,-0.00030113,0.00012137,-0.00010005,0.00007056,-0.00016720,-0.000030
 63,0.00010417,-0.00005786,0.00006722,-0.00006546,-0.00003553,-0.000074
 98,-0.00016157,-0.00001851,-0.00011983,0.00038869,0.00015144,0.0016971
 3,-0.00047098,-0.00195252,0.00058448,0.00014480,0.00068005,-0.00004251
 ,0.00006554,-0.00001650,-0.00042736,0.00367241,0.00203185,-0.01550825,
 -0.00211334,-0.00797147,-0.31955914,0.00616892,-0.08382000,-0.00478385
 ,0.00142341,-0.00040393,0.00003851,0.00003055,0.00001046,-0.00002060,0
 .00001513,-0.00001233,-0.00002792,-0.00001833,-0.00005175,-0.00005485,
 -0.00003773,-0.00003543,-0.00003004,-0.00001531,-0.00000401,0.00000446
 ,-0.00000772,0.00000842,0.00000317,-0.00001069,-0.00001255,-0.00079476
 ,-0.00007495,-0.00049081,0.00058404,-0.00056559,0.00088798,0.33810065,
 -0.00000106,-0.00000385,0.00000587,-0.00000092,0.00000114,-0.00000091,
 -0.00000014,-0.00000129,0.00000090,-0.00000143,-0.00000282,0.00000179,
 0.00000143,-0.00000088,0.00000106,0.00000118,-0.00000022,-0.00000363,-
 0.00000075,-0.00000117,0.00000621,0.00000141,0.00000787,0.00000158,-0.
 00000053,0.00002344,-0.00002050,-0.00000011,-0.00000512,0.00000616,0.0
 0000635,-0.00001673,0.00001193,-0.00000144,-0.00000635,0.00000522,0.00
 000181,0.00000005,0.00000004,-0.00000505,-0.00000212,-0.00000347,0.000
 00136,-0.00000042,0.00000216,0.00001773,0.00003463,-0.00013337,-0.0000
 1632,-0.00007371,0.00011571,-0.00003334,-0.00000121,0.00005434,-0.0001
 8269,-0.00016618,0.00030619,-0.00014008,-0.00028954,-0.00010105,-0.000
 57452,0.00076799,-0.00023519,0.00035796,0.00134649,-0.00556601,0.00012
 868,-0.00108123,-0.00054928,-0.00005140,0.00007762,0.00000760,0.002937
 55,0.00148982,-0.00492167,0.01810772,0.00305395,0.00698993,0.00584382,
 -0.04418508,-0.01188453,-0.01841324,0.00318990,-0.00412158,-0.00001003
 ,0.00002249,-0.00001676,-0.00004172,0.00004675,0.00001779,-0.00004514,
 -0.00001038,-0.00002351,0.00000657,-0.00000927,0.00004402,-0.00003684,
 -0.00002846,-0.00001081,0.00000036,-0.00000780,0.00000761,0.00001139,0
 .00000948,-0.00000001,0.00091970,0.00029550,0.00012377,-0.00111577,-0.
 00193346,0.00234057,-0.00737950,0.03921329,-0.00000181,0.00000601,-0.0
 0000208,0.00000267,-0.00000412,-0.00000091,-0.00000238,0.00000416,0.00
 000003,-0.00000022,0.00000395,0.00000081,-0.00000198,0.00000116,-0.000
 00111,-0.00000702,0.00000124,0.00000701,-0.00000702,0.00001778,-0.0000
 1167,0.00000226,0.00000348,0.00000025,-0.00000125,-0.00001978,0.000003
 86,0.00000055,0.00000555,-0.00000018,-0.00000108,0.00001348,-0.0000029
 2,0.00000181,0.00000692,0.00000031,-0.00000077,-0.00000009,-0.00000009
 ,-0.00000263,-0.00000127,-0.00000374,-0.00000157,-0.00000274,-0.000002
 08,-0.00006134,-0.00006971,0.00004828,0.00002024,0.00021205,0.00005521
 ,0.00003992,0.00006112,0.00000659,0.00022303,0.00030807,0.00000117,0.0
 0007135,-0.00033438,-0.00032443,-0.00098331,0.00026367,0.00044518,-0.0
 0138910,-0.00599238,-0.00108189,0.00036495,-0.00050545,-0.00113631,-0.
 00011970,0.00014862,0.00004448,0.00121098,-0.00468483,0.00156802,0.015
 37496,0.00069460,0.00761464,-0.08376550,-0.01181958,-0.07308032,-0.023
 69065,0.00215979,-0.00325362,-0.00003293,-0.00001954,-0.00003040,0.000
 00126,-0.00001043,0.00000331,0.00007527,0.00001305,-0.00001291,-0.0000
 8273,-0.00009252,-0.00007693,-0.00006890,-0.00001735,-0.00001581,0.000
 01335,-0.00000318,-0.00000796,0.00001731,-0.00000198,0.00000879,0.0006
 7413,-0.00019031,0.00045282,0.00024015,0.00248798,-0.00128443,0.090890
 77,0.01512190,0.07101928,-0.00000691,0.00001714,0.00000065,0.00002550,
 -0.00002396,-0.00000576,-0.00002692,0.00003204,0.00000212,-0.00002250,
 0.00001126,0.00000852,-0.00000334,0.00000600,-0.00000021,-0.00001935,-
 0.00002118,0.00002309,-0.00001621,0.00006813,-0.00000051,0.00000041,0.
 00001052,-0.00000043,0.00007610,-0.00000850,-0.00004810,-0.00004334,-0
 .00000083,-0.00000059,-0.00002746,-0.00000342,0.00001892,-0.00001896,0
 .00001557,0.00003035,0.00000314,-0.00000047,-0.00000457,0.00001448,0.0
 0000552,-0.00001656,0.00000611,-0.00000514,0.00000429,-0.00005514,-0.0
 0039610,0.00025816,-0.00062495,0.00006048,-0.00026886,0.00006061,0.000
 09942,-0.00016335,-0.00046487,0.00100003,0.00077498,-0.00009428,0.0003
 7012,0.00031893,0.00167137,-0.00081259,0.00120152,-0.01491743,0.018808
 63,0.01666688,-0.00357660,0.00004020,-0.00360767,0.00006017,-0.0000622
 8,-0.00008763,-0.00072358,-0.00061425,-0.00076330,0.00090882,-0.000640
 99,-0.00256770,0.00996680,-0.00607950,-0.00497890,-0.18141969,0.110999
 05,0.08546751,-0.00006228,0.00009891,-0.00008525,0.00005383,-0.0000210
 9,-0.00008033,-0.00031202,-0.00016753,-0.00061005,-0.00043930,-0.00027
 891,-0.00030109,0.00002771,0.00001267,0.00001888,-0.00000476,0.0000075
 9,0.00001647,-0.00002846,-0.00002200,-0.00003722,-0.00000606,-0.000072
 68,0.00026437,0.00034410,-0.00033009,-0.00033283,0.00046975,-0.0002930
 2,0.00099690,0.18922554,0.00000650,-0.00001379,0.00000462,-0.00001622,
 0.00001766,0.00000031,0.00001482,-0.00001856,-0.00000050,0.00000965,-0
 .00000487,-0.00000074,0.00000272,-0.00000425,0.00000043,0.00001068,0.0
 0000658,-0.00002090,0.00000591,-0.00003544,0.00001146,-0.00000582,-0.0
 0000026,0.00000432,-0.00004005,0.00002424,0.00000893,0.00002332,-0.000
 00482,0.00000504,0.00001803,-0.00001286,-0.00000119,0.00001048,-0.0000
 1290,-0.00001202,-0.00000070,0.00000018,0.00000270,-0.00000877,-0.0000
 0338,0.00000434,-0.00000194,0.00000336,-0.00000227,0.00007169,0.000203
 10,-0.00013069,-0.00014780,-0.00024821,0.00027183,-0.00004316,-0.00007
 979,0.00012153,-0.00003608,0.00014437,-0.00007858,0.00001795,0.0001232
 6,0.00014593,-0.00038506,-0.00227029,0.00194198,0.00033416,0.00321974,
 -0.00064871,0.00064687,0.00533155,-0.00333685,0.00001538,-0.00004553,0
 .00000063,-0.00049481,-0.00025501,0.00037567,-0.00129529,0.00252019,-0
 .00557221,0.01334058,-0.00617457,-0.00665498,0.11000951,-0.14103766,-0
 .08809324,-0.00003483,0.00000415,-0.00003020,0.00003735,-0.00000917,0.
 00003660,0.00039484,0.00043601,0.00060266,-0.00031235,-0.00040418,-0.0
 0019196,0.00002636,0.00001413,-0.00000660,0.00000381,0.00000531,-0.000
 00838,-0.00000086,0.00000631,0.00001158,-0.00012584,-0.00064759,0.0005
 6485,0.00069280,-0.00037503,-0.00044390,-0.00093512,-0.00175308,0.0022
 3507,-0.12180873,0.14135106,0.00000569,-0.00000988,-0.00000072,-0.0000
 1137,0.00001692,0.00000014,0.00001396,-0.00001627,-0.00000145,0.000005
 08,-0.00000098,-0.00000489,0.00000019,-0.00000207,-0.00000019,0.000007
 92,0.00000827,-0.00000268,0.00001878,-0.00001182,-0.00000128,-0.000001
 20,-0.00000151,-0.00000032,-0.00004399,0.00000282,0.00002639,0.0000254
 6,0.00000057,-0.00000002,0.00001624,0.00000334,-0.00001040,0.00001325,
 -0.00000754,-0.00001755,-0.00000218,0.00000032,0.00000340,-0.00000654,
 -0.00000349,0.00000388,-0.00000270,0.00000339,-0.00000190,-0.00006962,
 0.00005595,0.00000119,-0.00013059,-0.00002935,-0.00008370,0.00004103,-
 0.00002101,-0.00004402,0.00009940,0.00055841,0.00040805,0.00001540,0.0
 0003839,-0.00019805,0.00088300,0.00209082,-0.00059724,-0.00636435,0.00
 520834,0.00818713,-0.00352579,-0.00334270,0.00313569,0.00000607,-0.000
 03712,0.00000912,-0.00063075,0.00036680,-0.00045200,-0.00345036,-0.005
 31375,-0.00057310,0.01809197,-0.01283692,-0.00617295,0.08494154,-0.087
 99419,-0.11497797,-0.00002378,0.00001407,0.00002027,-0.00001016,-0.000
 01894,-0.00000084,0.00036202,-0.00012462,-0.00050712,0.00042316,0.0003
 5029,0.00042527,0.00001886,-0.00000300,0.00000614,-0.00000501,0.000000
 90,0.00000020,-0.00000718,0.00000633,0.00000179,0.00025483,0.00053759,
 -0.00043897,0.00090419,-0.00079173,-0.00045287,0.00024919,0.00241992,-
 0.00095023,-0.09211165,0.09888345,0.11326178\\-0.00000812,-0.00001831,
 0.00001368,-0.00001110,0.00001795,0.00000203,0.00000985,-0.00000465,-0
 .00000814,0.00000090,-0.00000389,-0.00000062,0.00000205,0.00000330,-0.
 00000043,0.00000414,-0.00000008,-0.00000427,-0.00000780,0.00000149,0.0
 0000355,0.00000648,-0.00000666,0.00000326,-0.00000176,0.00001684,-0.00
 002504,0.00001416,0.00002164,-0.00000088,0.00000673,-0.00001616,0.0000
 2542,-0.00001284,0.00000374,-0.00000526,-0.00000060,-0.00001541,0.0000
 0811,0.00000199,0.00000440,-0.00000538,-0.00000158,0.00000202,-0.00000
 142,-0.00000859,-0.00001196,0.00000580,-0.00000839,-0.00000860,-0.0000
 0598,0.00000901,0.00000835,-0.00000013,0.00001884,0.00001673,-0.000007
 41,-0.00000270,0.00001433,0.00000518,-0.00000146,-0.00000913,0.0000050
 9,0.00000607,0.00000364,0.00000310,-0.00001479,-0.00001719,-0.00001723
 ,-0.00000236,0.00000676,0.00000393,0.00001067,0.00000948,0.00000885,-0
 .00000095,-0.00000804,-0.00000803,0.00000347,0.00001508,0.00001662,-0.
 00001727,-0.00000975,-0.00001047,0.00000823,0.00000150,0.00000052,-0.0
 0000623,-0.00001697,0.00000279,-0.00000158,0.00000159,-0.00000051,0.00
 000192,0.00000334,-0.00000048,0.00000068,-0.00000147,-0.00000078,-0.00
 000065,-0.00000106,-0.00000476,0.00000130,-0.00000257,-0.00000045,0.00
 000413,-0.00000332,0.00000344,-0.00000138,0.00000249,-0.00000002,-0.00
 000080,-0.00000131,-0.00000326,0.00000034,0.00000186,-0.00000044\\\@
 The archive entry for this job was punched.


 ASKING DUMB QUESTIONS IS EASIER THAN CORECTING DUMB MISTAKES.
 Job cpu time:       0 days  7 hours 50 minutes 19.2 seconds.
 Elapsed time:       0 days  0 hours 42 minutes  0.1 seconds.
 File lengths (MBytes):  RWF=   1037 Int=      0 D2E=      0 Chk=     21 Scr=      1
 Normal termination of Gaussian 16 at Sat Jul  2 18:54:21 2022.
