 Entering Gaussian System, Link 0=g16
 AtFile(1): /home/561/yj5695/Basis/6-31pGd.gbs
 Initial command:
 /apps/gaussian/g16c01/g16/l1.exe "/jobfs/50065313.gadi-pbs/Gau-175482.inp" -scrdir="/jobfs/50065313.gadi-pbs/"
 Entering Link 1 = /apps/gaussian/g16c01/g16/l1.exe PID=    175491.
  
 Copyright (c) 1988-2019, Gaussian, Inc.  All Rights Reserved.
  
 This is part of the Gaussian(R) 16 program.  It is based on
 the Gaussian(R) 09 system (copyright 2009, Gaussian, Inc.),
 the Gaussian(R) 03 system (copyright 2003, Gaussian, Inc.),
 the Gaussian(R) 98 system (copyright 1998, Gaussian, Inc.),
 the Gaussian(R) 94 system (copyright 1995, Gaussian, Inc.),
 the Gaussian 92(TM) system (copyright 1992, Gaussian, Inc.),
 the Gaussian 90(TM) system (copyright 1990, Gaussian, Inc.),
 the Gaussian 88(TM) system (copyright 1988, Gaussian, Inc.),
 the Gaussian 86(TM) system (copyright 1986, Carnegie Mellon
 University), and the Gaussian 82(TM) system (copyright 1983,
 Carnegie Mellon University). Gaussian is a federally registered
 trademark of Gaussian, Inc.
  
 This software contains proprietary and confidential information,
 including trade secrets, belonging to Gaussian, Inc.
  
 This software is provided under written license and may be
 used, copied, transmitted, or stored only in accord with that
 written license.
  
 The following legend is applicable only to US Government
 contracts under FAR:
  
                    RESTRICTED RIGHTS LEGEND
  
 Use, reproduction and disclosure by the US Government is
 subject to restrictions as set forth in subparagraphs (a)
 and (c) of the Commercial Computer Software - Restricted
 Rights clause in FAR 52.227-19.
  
 Gaussian, Inc.
 340 Quinnipiac St., Bldg. 40, Wallingford CT 06492
  
  
 ---------------------------------------------------------------
 Warning -- This program may not be used in any manner that
 competes with the business of Gaussian, Inc. or will provide
 assistance to any competitor of Gaussian, Inc.  The licensee
 of this program is prohibited from giving any competitor of
 Gaussian, Inc. access to this program.  By using this program,
 the user acknowledges that Gaussian, Inc. is engaged in the
 business of creating and licensing software in the field of
 computational chemistry and represents and warrants to the
 licensee that it is not a competitor of Gaussian, Inc. and that
 it will not use this program in any manner prohibited above.
 ---------------------------------------------------------------
  

 Cite this work as:
 Gaussian 16, Revision C.01,
 M. J. Frisch, G. W. Trucks, H. B. Schlegel, G. E. Scuseria, 
 M. A. Robb, J. R. Cheeseman, G. Scalmani, V. Barone, 
 G. A. Petersson, H. Nakatsuji, X. Li, M. Caricato, A. V. Marenich, 
 J. Bloino, B. G. Janesko, R. Gomperts, B. Mennucci, H. P. Hratchian, 
 J. V. Ortiz, A. F. Izmaylov, J. L. Sonnenberg, D. Williams-Young, 
 F. Ding, F. Lipparini, F. Egidi, J. Goings, B. Peng, A. Petrone, 
 T. Henderson, D. Ranasinghe, V. G. Zakrzewski, J. Gao, N. Rega, 
 G. Zheng, W. Liang, M. Hada, M. Ehara, K. Toyota, R. Fukuda, 
 J. Hasegawa, M. Ishida, T. Nakajima, Y. Honda, O. Kitao, H. Nakai, 
 T. Vreven, K. Throssell, J. A. Montgomery, Jr., J. E. Peralta, 
 F. Ogliaro, M. J. Bearpark, J. J. Heyd, E. N. Brothers, K. N. Kudin, 
 V. N. Staroverov, T. A. Keith, R. Kobayashi, J. Normand, 
 K. Raghavachari, A. P. Rendell, J. C. Burant, S. S. Iyengar, 
 J. Tomasi, M. Cossi, J. M. Millam, M. Klene, C. Adamo, R. Cammi, 
 J. W. Ochterski, R. L. Martin, K. Morokuma, O. Farkas, 
 J. B. Foresman, and D. J. Fox, Gaussian, Inc., Wallingford CT, 2019.
 
 ******************************************
 Gaussian 16:  ES64L-G16RevC.01  3-Jul-2019
                 2-Jul-2022 
 ******************************************
 %nproc=16
 Will use up to   16 processors via shared memory.
 %mem=50gb
 --------------------------------------------------
 #M062X/gen 6D INT(grid=ultrafine) OPT Freq=noraman
 --------------------------------------------------
 1/18=20,19=15,26=4,38=1/1,3;
 2/9=110,12=2,17=6,18=5,40=1/2;
 3/5=7,8=2,11=2,25=1,30=1,71=1,74=-55,75=-5/1,2,3;
 4//1;
 5/5=2,38=5/2;
 6/7=2,8=2,9=2,10=2,28=1/1;
 7//1,2,3,16;
 1/18=20,19=15,26=4/3(2);
 2/9=110/2;
 99//99;
 2/9=110/2;
 3/5=7,6=1,8=2,11=2,25=1,30=1,71=1,74=-55,75=-5,82=7/1,2,3;
 4/5=5,16=3,69=1/1;
 5/5=2,38=5/2;
 7//1,2,3,16;
 1/18=20,19=15,26=4/3(-5);
 2/9=110/2;
 6/7=2,8=2,9=2,10=2,19=2,28=1/1;
 99/9=1/99;
 ---------
 A.39.freq
 ---------
 Symbolic Z-matrix:
 Charge = -1 Multiplicity = 1
 S                    -2.19733   1.37059  -1.0361 
 O                    -2.17257   2.85464  -1.19391 
 O                    -3.55482   0.81765  -0.73444 
 N                    -1.07084   0.93236  -0.04661 
 H                    -1.22977  -0.04659   0.202 
 C                    -1.82522   0.81039  -2.72586 
 N                    -1.75753  -0.64134  -2.816 
 C                    -1.06221  -1.07892  -4.05732 
 C                    -2.17138  -1.13666  -5.07181 
 C                    -3.35717  -1.16736  -4.35117 
 O                    -3.12973  -1.09613  -2.98941 
 C                    -2.20377  -1.21578  -6.45576 
 C                    -3.44914  -1.32781  -7.08824 
 C                    -4.62768  -1.36406  -6.33915 
 C                    -4.60415  -1.28201  -4.94149 
 H                    -0.83783   1.222    -2.94382 
 H                    -2.5703    1.25139  -3.39967 
 H                    -0.25872  -0.3803   -4.29271 
 H                    -1.2859   -1.19595  -7.03644 
 H                    -3.49827  -1.38625  -8.17118 
 H                    -5.58399  -1.44937  -6.84673 
 H                    -5.51273  -1.3019   -4.34853 
 H                    -0.63128  -2.07098  -3.89035 
 

 GradGradGradGradGradGradGradGradGradGradGradGradGradGradGradGradGradGrad
 Berny optimization.
 Initialization pass.
                           ----------------------------
                           !    Initial Parameters    !
                           ! (Angstroms and Degrees)  !
 --------------------------                            --------------------------
 ! Name  Definition              Value          Derivative Info.                !
 --------------------------------------------------------------------------------
 ! R1    R(1,2)                  1.4926         estimate D2E/DX2                !
 ! R2    R(1,3)                  1.4965         estimate D2E/DX2                !
 ! R3    R(1,4)                  1.5621         estimate D2E/DX2                !
 ! R4    R(1,6)                  1.8187         estimate D2E/DX2                !
 ! R5    R(4,5)                  1.0225         estimate D2E/DX2                !
 ! R6    R(6,7)                  1.4561         estimate D2E/DX2                !
 ! R7    R(6,16)                 1.0917         estimate D2E/DX2                !
 ! R8    R(6,17)                 1.0971         estimate D2E/DX2                !
 ! R9    R(7,8)                  1.4886         estimate D2E/DX2                !
 ! R10   R(7,11)                 1.456          estimate D2E/DX2                !
 ! R11   R(8,9)                  1.5043         estimate D2E/DX2                !
 ! R12   R(8,18)                 1.0904         estimate D2E/DX2                !
 ! R13   R(8,23)                 1.0944         estimate D2E/DX2                !
 ! R14   R(9,10)                 1.3879         estimate D2E/DX2                !
 ! R15   R(9,12)                 1.3866         estimate D2E/DX2                !
 ! R16   R(10,11)                1.3825         estimate D2E/DX2                !
 ! R17   R(10,15)                1.3844         estimate D2E/DX2                !
 ! R18   R(12,13)                1.4013         estimate D2E/DX2                !
 ! R19   R(12,19)                1.0863         estimate D2E/DX2                !
 ! R20   R(13,14)                1.3969         estimate D2E/DX2                !
 ! R21   R(13,20)                1.0856         estimate D2E/DX2                !
 ! R22   R(14,15)                1.4003         estimate D2E/DX2                !
 ! R23   R(14,21)                1.086          estimate D2E/DX2                !
 ! R24   R(15,22)                1.0851         estimate D2E/DX2                !
 ! A1    A(2,1,3)              113.8114         estimate D2E/DX2                !
 ! A2    A(2,1,4)              109.5079         estimate D2E/DX2                !
 ! A3    A(2,1,6)              101.8079         estimate D2E/DX2                !
 ! A4    A(3,1,4)              115.0122         estimate D2E/DX2                !
 ! A5    A(3,1,6)              105.0152         estimate D2E/DX2                !
 ! A6    A(4,1,6)              110.7676         estimate D2E/DX2                !
 ! A7    A(1,4,5)              108.0912         estimate D2E/DX2                !
 ! A8    A(1,6,7)              111.9705         estimate D2E/DX2                !
 ! A9    A(1,6,16)             104.7387         estimate D2E/DX2                !
 ! A10   A(1,6,17)             107.931          estimate D2E/DX2                !
 ! A11   A(7,6,16)             108.7534         estimate D2E/DX2                !
 ! A12   A(7,6,17)             113.2225         estimate D2E/DX2                !
 ! A13   A(16,6,17)            109.8803         estimate D2E/DX2                !
 ! A14   A(6,7,8)              111.4948         estimate D2E/DX2                !
 ! A15   A(6,7,11)             105.9613         estimate D2E/DX2                !
 ! A16   A(8,7,11)             104.4235         estimate D2E/DX2                !
 ! A17   A(7,8,9)              103.2535         estimate D2E/DX2                !
 ! A18   A(7,8,18)             109.6251         estimate D2E/DX2                !
 ! A19   A(7,8,23)             108.8549         estimate D2E/DX2                !
 ! A20   A(9,8,18)             114.9815         estimate D2E/DX2                !
 ! A21   A(9,8,23)             111.0036         estimate D2E/DX2                !
 ! A22   A(18,8,23)            108.8774         estimate D2E/DX2                !
 ! A23   A(8,9,10)             106.2985         estimate D2E/DX2                !
 ! A24   A(8,9,12)             133.8323         estimate D2E/DX2                !
 ! A25   A(10,9,12)            119.8023         estimate D2E/DX2                !
 ! A26   A(9,10,11)            111.7            estimate D2E/DX2                !
 ! A27   A(9,10,15)            123.3655         estimate D2E/DX2                !
 ! A28   A(11,10,15)           124.9232         estimate D2E/DX2                !
 ! A29   A(7,11,10)            106.7663         estimate D2E/DX2                !
 ! A30   A(9,12,13)            118.4136         estimate D2E/DX2                !
 ! A31   A(9,12,19)            120.8469         estimate D2E/DX2                !
 ! A32   A(13,12,19)           120.7389         estimate D2E/DX2                !
 ! A33   A(12,13,14)           120.6533         estimate D2E/DX2                !
 ! A34   A(12,13,20)           119.6548         estimate D2E/DX2                !
 ! A35   A(14,13,20)           119.6919         estimate D2E/DX2                !
 ! A36   A(13,14,15)           121.3019         estimate D2E/DX2                !
 ! A37   A(13,14,21)           119.6243         estimate D2E/DX2                !
 ! A38   A(15,14,21)           119.0719         estimate D2E/DX2                !
 ! A39   A(10,15,14)           116.4618         estimate D2E/DX2                !
 ! A40   A(10,15,22)           121.5132         estimate D2E/DX2                !
 ! A41   A(14,15,22)           122.0244         estimate D2E/DX2                !
 ! D1    D(2,1,4,5)            168.039          estimate D2E/DX2                !
 ! D2    D(3,1,4,5)             38.4012         estimate D2E/DX2                !
 ! D3    D(6,1,4,5)            -80.4596         estimate D2E/DX2                !
 ! D4    D(2,1,6,7)            178.3998         estimate D2E/DX2                !
 ! D5    D(2,1,6,16)            60.7158         estimate D2E/DX2                !
 ! D6    D(2,1,6,17)           -56.33           estimate D2E/DX2                !
 ! D7    D(3,1,6,7)            -62.7113         estimate D2E/DX2                !
 ! D8    D(3,1,6,16)           179.6047         estimate D2E/DX2                !
 ! D9    D(3,1,6,17)            62.5588         estimate D2E/DX2                !
 ! D10   D(4,1,6,7)             62.0316         estimate D2E/DX2                !
 ! D11   D(4,1,6,16)           -55.6524         estimate D2E/DX2                !
 ! D12   D(4,1,6,17)          -172.6982         estimate D2E/DX2                !
 ! D13   D(1,6,7,8)           -162.6967         estimate D2E/DX2                !
 ! D14   D(1,6,7,11)            84.2819         estimate D2E/DX2                !
 ! D15   D(16,6,7,8)           -47.4392         estimate D2E/DX2                !
 ! D16   D(16,6,7,11)         -160.4606         estimate D2E/DX2                !
 ! D17   D(17,6,7,8)            75.0037         estimate D2E/DX2                !
 ! D18   D(17,6,7,11)          -38.0177         estimate D2E/DX2                !
 ! D19   D(6,7,8,9)            -87.5788         estimate D2E/DX2                !
 ! D20   D(6,7,8,18)            35.4203         estimate D2E/DX2                !
 ! D21   D(6,7,8,23)           154.4162         estimate D2E/DX2                !
 ! D22   D(11,7,8,9)            26.403          estimate D2E/DX2                !
 ! D23   D(11,7,8,18)          149.4021         estimate D2E/DX2                !
 ! D24   D(11,7,8,23)          -91.602          estimate D2E/DX2                !
 ! D25   D(6,7,11,10)           91.5795         estimate D2E/DX2                !
 ! D26   D(8,7,11,10)          -26.265          estimate D2E/DX2                !
 ! D27   D(7,8,9,10)           -17.7262         estimate D2E/DX2                !
 ! D28   D(7,8,9,12)           165.3746         estimate D2E/DX2                !
 ! D29   D(18,8,9,10)         -137.0936         estimate D2E/DX2                !
 ! D30   D(18,8,9,12)           46.0072         estimate D2E/DX2                !
 ! D31   D(23,8,9,10)           98.7659         estimate D2E/DX2                !
 ! D32   D(23,8,9,12)          -78.1333         estimate D2E/DX2                !
 ! D33   D(8,9,10,11)            1.7633         estimate D2E/DX2                !
 ! D34   D(8,9,10,15)         -177.068          estimate D2E/DX2                !
 ! D35   D(12,9,10,11)         179.1859         estimate D2E/DX2                !
 ! D36   D(12,9,10,15)           0.3547         estimate D2E/DX2                !
 ! D37   D(8,9,12,13)          176.4627         estimate D2E/DX2                !
 ! D38   D(8,9,12,19)           -3.2675         estimate D2E/DX2                !
 ! D39   D(10,9,12,13)          -0.1071         estimate D2E/DX2                !
 ! D40   D(10,9,12,19)        -179.8373         estimate D2E/DX2                !
 ! D41   D(9,10,11,7)           15.584          estimate D2E/DX2                !
 ! D42   D(15,10,11,7)        -165.6065         estimate D2E/DX2                !
 ! D43   D(9,10,15,14)          -0.2195         estimate D2E/DX2                !
 ! D44   D(9,10,15,22)        -179.9296         estimate D2E/DX2                !
 ! D45   D(11,10,15,14)       -178.8951         estimate D2E/DX2                !
 ! D46   D(11,10,15,22)          1.3949         estimate D2E/DX2                !
 ! D47   D(9,12,13,14)          -0.2529         estimate D2E/DX2                !
 ! D48   D(9,12,13,20)         179.7008         estimate D2E/DX2                !
 ! D49   D(19,12,13,14)        179.4777         estimate D2E/DX2                !
 ! D50   D(19,12,13,20)         -0.5686         estimate D2E/DX2                !
 ! D51   D(12,13,14,15)          0.3908         estimate D2E/DX2                !
 ! D52   D(12,13,14,21)        179.8877         estimate D2E/DX2                !
 ! D53   D(20,13,14,15)       -179.5628         estimate D2E/DX2                !
 ! D54   D(20,13,14,21)         -0.066          estimate D2E/DX2                !
 ! D55   D(13,14,15,10)         -0.153          estimate D2E/DX2                !
 ! D56   D(13,14,15,22)        179.5555         estimate D2E/DX2                !
 ! D57   D(21,14,15,10)       -179.6526         estimate D2E/DX2                !
 ! D58   D(21,14,15,22)          0.0559         estimate D2E/DX2                !
 --------------------------------------------------------------------------------
 Trust Radius=3.00D-01 FncErr=1.00D-07 GrdErr=1.00D-06 EigMax=2.50D+02 EigMin=1.00D-04
 Number of steps in this run=    133 maximum allowed number of steps=    138.
 GradGradGradGradGradGradGradGradGradGradGradGradGradGradGradGradGradGrad

                          Input orientation:                          
 ---------------------------------------------------------------------
 Center     Atomic      Atomic             Coordinates (Angstroms)
 Number     Number       Type             X           Y           Z
 ---------------------------------------------------------------------
      1         16           0       -2.197328    1.370589   -1.036099
      2          8           0       -2.172565    2.854635   -1.193905
      3          8           0       -3.554824    0.817645   -0.734435
      4          7           0       -1.070840    0.932361   -0.046610
      5          1           0       -1.229768   -0.046590    0.201995
      6          6           0       -1.825220    0.810393   -2.725858
      7          7           0       -1.757532   -0.641337   -2.815998
      8          6           0       -1.062214   -1.078918   -4.057318
      9          6           0       -2.171378   -1.136661   -5.071810
     10          6           0       -3.357173   -1.167360   -4.351165
     11          8           0       -3.129733   -1.096130   -2.989410
     12          6           0       -2.203772   -1.215780   -6.455761
     13          6           0       -3.449135   -1.327815   -7.088240
     14          6           0       -4.627678   -1.364062   -6.339150
     15          6           0       -4.604152   -1.282009   -4.941487
     16          1           0       -0.837835    1.222004   -2.943819
     17          1           0       -2.570300    1.251386   -3.399673
     18          1           0       -0.258723   -0.380300   -4.292709
     19          1           0       -1.285904   -1.195950   -7.036440
     20          1           0       -3.498266   -1.386249   -8.171181
     21          1           0       -5.583990   -1.449371   -6.846735
     22          1           0       -5.512732   -1.301898   -4.348530
     23          1           0       -0.631278   -2.070985   -3.890353
 ---------------------------------------------------------------------
                    Distance matrix (angstroms):
                    1          2          3          4          5
     1  S    0.000000
     2  O    1.492618   0.000000
     3  O    1.496510   2.504213   0.000000
     4  N    1.562084   2.495040   2.580008   0.000000
     5  H    2.115998   3.354775   2.651357   1.022452   0.000000
     6  C    1.818673   2.578072   2.637678   2.786097   3.108264
     7  N    2.722005   3.876243   3.113164   3.258463   3.120984
     8  C    4.051708   4.990476   4.566356   4.486769   4.385832
     9  C    4.751204   5.564943   4.954397   5.544787   5.466983
    10  C    4.333139   5.248622   4.130381   5.307103   5.149102
    11  O    3.281692   4.443934   2.988001   4.124789   3.859594
    12  C    6.005171   6.652547   6.220428   6.853850   6.829451
    13  C    6.743650   7.339325   6.707086   7.768477   7.727526
    14  C    6.442613   7.092145   6.109311   7.584241   7.487863
    15  C    5.299164   6.088416   4.817564   6.430206   6.274403
    16  H    2.347274   2.740290   3.525183   2.920959   3.414541
    17  H    2.395788   2.755723   2.874180   3.686894   4.056326
    18  H    4.174843   4.871364   4.996065   4.517960   4.610494
    19  H    6.589531   7.164400   6.994128   7.309835   7.329333
    20  H    7.758995   8.271938   7.756645   8.790734   8.777862
    21  H    7.292815   7.881419   6.827670   8.501933   8.403073
    22  H    5.395025   6.195574   4.624667   6.574864   6.373920
    23  H    4.737480   5.823069   5.181807   4.897720   4.604745
                    6          7          8          9         10
     6  C    0.000000
     7  N    1.456100   0.000000
     8  C    2.434021   1.488563   0.000000
     9  C    3.068279   2.346338   1.504252   0.000000
    10  C    2.983288   2.278660   2.315385   1.387941   0.000000
    11  O    2.325089   1.455968   2.327093   2.292700   1.382454
    12  C    4.261555   3.711737   2.659777   1.386589   2.400417
    13  C    5.122441   4.645947   3.865984   2.394826   2.743315
    14  C    5.063388   4.601377   4.242711   2.773313   2.367479
    15  C    4.124272   3.609904   3.656272   2.440593   1.384406
    16  H    1.091724   2.081880   2.566022   3.445285   3.746565
    17  H    1.097108   2.140951   2.852568   2.942440   2.715666
    18  H    2.515290   2.120199   1.090446   2.199394   3.197386
    19  H    4.785122   4.282775   2.989800   2.155772   3.391412
    20  H    6.105396   5.680056   4.790895   3.380685   3.828883
    21  H    6.018015   5.616186   5.325837   3.859283   3.356503
    22  H    4.548910   4.109321   4.465606   3.422730   2.159755
    23  H    3.329247   2.113428   1.094431   2.154231   2.908503
                   11         12         13         14         15
    11  O    0.000000
    12  C    3.589889   0.000000
    13  C    4.117779   1.401253   0.000000
    14  C    3.679182   2.431235   1.396929   0.000000
    15  C    2.453379   2.838878   2.438177   1.400267   0.000000
    16  H    3.260156   4.488019   5.522381   5.707795   4.944280
    17  H    2.447879   3.944734   4.585865   4.440033   3.596086
    18  H    3.233218   3.026555   4.346436   4.923766   4.485169
    19  H    4.448384   1.086308   2.167866   3.417883   3.925175
    20  H    5.202955   2.155793   1.085629   2.152302   3.415373
    21  H    4.585533   3.410762   2.151907   1.086026   2.148967
    22  H    2.751042   3.923907   3.430031   2.179392   1.085132
    23  H    2.829190   3.128167   4.326558   4.739996   4.184626
                   16         17         18         19         20
    16  H    0.000000
    17  H    1.791676   0.000000
    18  H    2.173075   2.967037   0.000000
    19  H    4.774601   4.567845   3.041126   0.000000
    20  H    6.419206   5.530419   5.152584   2.493671   0.000000
    21  H    6.700372   5.315887   6.002036   4.309728   2.471515
    22  H    5.495267   4.009675   5.334517   5.010206   4.321788
    23  H    3.432546   3.877980   1.777386   3.330479   5.197498
                   21         22         23
    21  H    0.000000
    22  H    2.503568   0.000000
    23  H    5.801375   4.962864   0.000000
 Stoichiometry    C8H9N2O3S(1-)
 Framework group  C1[X(C8H9N2O3S)]
 Deg. of freedom    63
 Full point group                 C1      NOp   1
 Largest Abelian subgroup         C1      NOp   1
 Largest concise Abelian subgroup C1      NOp   1
                         Standard orientation:                         
 ---------------------------------------------------------------------
 Center     Atomic      Atomic             Coordinates (Angstroms)
 Number     Number       Type             X           Y           Z
 ---------------------------------------------------------------------
      1         16           0        2.667051   -0.211406    0.209559
      2          8           0        3.217568   -0.364543    1.588468
      3          8           0        2.374512   -1.511189   -0.472003
      4          7           0        3.565536    0.773624   -0.604411
      5          1           0        3.295433    0.710301   -1.588506
      6          6           0        1.037166    0.525052    0.539220
      7          7           0        0.308355    0.807333   -0.689348
      8          6           0       -0.808141    1.763257   -0.453831
      9          6           0       -1.951908    0.867994   -0.062580
     10          6           0       -1.606373   -0.410033   -0.479273
     11          8           0       -0.351366   -0.437014   -1.058419
     12          6           0       -3.186749    1.090082    0.527735
     13          6           0       -4.056511    0.002554    0.683644
     14          6           0       -3.687439   -1.272627    0.248773
     15          6           0       -2.441397   -1.506169   -0.345857
     16          1           0        1.255523    1.468903    1.042536
     17          1           0        0.495583   -0.143945    1.219497
     18          1           0       -0.513542    2.491274    0.302657
     19          1           0       -3.475698    2.083896    0.857746
     20          1           0       -5.026410    0.152675    1.147703
     21          1           0       -4.373854   -2.103995    0.379592
     22          1           0       -2.139864   -2.493074   -0.681426
     23          1           0       -1.024827    2.291042   -1.387785
 ---------------------------------------------------------------------
 Rotational constants (GHZ):           1.6454253           0.3378662           0.3171247
 General basis read from cards:  (6D, 7F)
 There are   288 symmetry adapted cartesian basis functions of A   symmetry.
 There are   288 symmetry adapted basis functions of A   symmetry.
   288 basis functions,   508 primitive gaussians,   288 cartesian basis functions
    56 alpha electrons       56 beta electrons
       nuclear repulsion energy      1030.3167636166 Hartrees.
 NAtoms=   23 NActive=   23 NUniq=   23 SFac= 1.00D+00 NAtFMM=   60 NAOKFM=F Big=F
 Integral buffers will be    131072 words long.
 Raffenetti 2 integral format.
 Two-electron integral symmetry is turned on.
 One-electron integrals computed using PRISM.
 NBasis=   288 RedAO= T EigKep=  2.22D-06  NBF=   288
 NBsUse=   288 1.00D-06 EigRej= -1.00D+00 NBFU=   288
 ExpMin= 4.05D-02 ExpMax= 2.19D+04 ExpMxC= 3.30D+03 IAcc=3 IRadAn=         5 AccDes= 0.00D+00
 Harris functional with IExCor= 1009 and IRadAn=       5 diagonalized for initial guess.
 HarFok:  IExCor= 1009 AccDes= 0.00D+00 IRadAn=         5 IDoV= 1 UseB2=F ITyADJ=14
 ICtDFT=  3500011 ScaDFX=  1.000000  1.000000  1.000000  1.000000
 FoFCou: FMM=F IPFlag=           0 FMFlag=      100000 FMFlg1=           0
         NFxFlg=           0 DoJE=T BraDBF=F KetDBF=T FulRan=T
         wScrn=  0.000000 ICntrl=       500 IOpCl=  0 I1Cent=   200000004 NGrid=           0
         NMat0=    1 NMatS0=      1 NMatT0=    0 NMatD0=    1 NMtDS0=    0 NMtDT0=    0
 Petite list used in FoFCou.
 Requested convergence on RMS density matrix=1.00D-08 within 128 cycles.
 Requested convergence on MAX density matrix=1.00D-06.
 Requested convergence on             energy=1.00D-06.
 No special actions if energy rises.
 SCF Done:  E(RM062X) =  -1043.26279449     A.U. after   15 cycles
            NFock= 15  Conv=0.97D-08     -V/T= 2.0066

 **********************************************************************

            Population analysis using the SCF Density.

 **********************************************************************

 Orbital symmetries:
       Occupied  (A) (A) (A) (A) (A) (A) (A) (A) (A) (A) (A) (A)
                 (A) (A) (A) (A) (A) (A) (A) (A) (A) (A) (A) (A)
                 (A) (A) (A) (A) (A) (A) (A) (A) (A) (A) (A) (A)
                 (A) (A) (A) (A) (A) (A) (A) (A) (A) (A) (A) (A)
                 (A) (A) (A) (A) (A) (A) (A) (A)
       Virtual   (A) (A) (A) (A) (A) (A) (A) (A) (A) (A) (A) (A)
                 (A) (A) (A) (A) (A) (A) (A) (A) (A) (A) (A) (A)
                 (A) (A) (A) (A) (A) (A) (A) (A) (A) (A) (A) (A)
                 (A) (A) (A) (A) (A) (A) (A) (A) (A) (A) (A) (A)
                 (A) (A) (A) (A) (A) (A) (A) (A) (A) (A) (A) (A)
                 (A) (A) (A) (A) (A) (A) (A) (A) (A) (A) (A) (A)
                 (A) (A) (A) (A) (A) (A) (A) (A) (A) (A) (A) (A)
                 (A) (A) (A) (A) (A) (A) (A) (A) (A) (A) (A) (A)
                 (A) (A) (A) (A) (A) (A) (A) (A) (A) (A) (A) (A)
                 (A) (A) (A) (A) (A) (A) (A) (A) (A) (A) (A) (A)
                 (A) (A) (A) (A) (A) (A) (A) (A) (A) (A) (A) (A)
                 (A) (A) (A) (A) (A) (A) (A) (A) (A) (A) (A) (A)
                 (A) (A) (A) (A) (A) (A) (A) (A) (A) (A) (A) (A)
                 (A) (A) (A) (A) (A) (A) (A) (A) (A) (A) (A) (A)
                 (A) (A) (A) (A) (A) (A) (A) (A) (A) (A) (A) (A)
                 (A) (A) (A) (A) (A) (A) (A) (A) (A) (A) (A) (A)
                 (A) (A) (A) (A) (A) (A) (A) (A) (A) (A) (A) (A)
                 (A) (A) (A) (A) (A) (A) (A) (A) (A) (A) (A) (A)
                 (A) (A) (A) (A) (A) (A) (A) (A) (A) (A) (A) (A)
                 (A) (A) (A) (A)
 The electronic state is 1-A.
 Alpha  occ. eigenvalues --  -89.95291 -19.59308 -19.43321 -19.43302 -14.71765
 Alpha  occ. eigenvalues --  -14.54345 -10.52173 -10.49841 -10.48418 -10.48223
 Alpha  occ. eigenvalues --  -10.47625 -10.47616 -10.47497 -10.45670  -8.26197
 Alpha  occ. eigenvalues --   -6.18399  -6.18346  -6.18292  -1.12236  -1.01957
 Alpha  occ. eigenvalues --   -0.90082  -0.88809  -0.87841  -0.78977  -0.77910
 Alpha  occ. eigenvalues --   -0.75989  -0.70222  -0.62710  -0.60960  -0.59557
 Alpha  occ. eigenvalues --   -0.51870  -0.50604  -0.47852  -0.46452  -0.44857
 Alpha  occ. eigenvalues --   -0.43373  -0.40975  -0.40846  -0.39704  -0.38691
 Alpha  occ. eigenvalues --   -0.37110  -0.35429  -0.34325  -0.33774  -0.32799
 Alpha  occ. eigenvalues --   -0.31744  -0.30850  -0.23226  -0.22816  -0.22721
 Alpha  occ. eigenvalues --   -0.19999  -0.18487  -0.18336  -0.16679  -0.14402
 Alpha  occ. eigenvalues --   -0.12098
 Alpha virt. eigenvalues --    0.08369   0.09166   0.09662   0.10869   0.11128
 Alpha virt. eigenvalues --    0.12350   0.13031   0.13402   0.14625   0.15341
 Alpha virt. eigenvalues --    0.15757   0.16935   0.17694   0.18711   0.19156
 Alpha virt. eigenvalues --    0.19477   0.19942   0.20706   0.21128   0.21503
 Alpha virt. eigenvalues --    0.22066   0.22677   0.23667   0.23798   0.24517
 Alpha virt. eigenvalues --    0.25317   0.25851   0.26228   0.26655   0.27463
 Alpha virt. eigenvalues --    0.27753   0.27822   0.29065   0.29691   0.30097
 Alpha virt. eigenvalues --    0.30289   0.30930   0.31170   0.31580   0.32187
 Alpha virt. eigenvalues --    0.32702   0.33031   0.33973   0.35039   0.35221
 Alpha virt. eigenvalues --    0.35649   0.36022   0.36514   0.37153   0.37523
 Alpha virt. eigenvalues --    0.38777   0.39190   0.40040   0.40109   0.40804
 Alpha virt. eigenvalues --    0.41340   0.42448   0.43005   0.43318   0.43422
 Alpha virt. eigenvalues --    0.43794   0.46082   0.46651   0.47313   0.48096
 Alpha virt. eigenvalues --    0.48623   0.49301   0.49571   0.50030   0.50689
 Alpha virt. eigenvalues --    0.50956   0.51249   0.52203   0.52848   0.54125
 Alpha virt. eigenvalues --    0.55542   0.55882   0.56361   0.58747   0.59490
 Alpha virt. eigenvalues --    0.63742   0.71906   0.74830   0.76962   0.78268
 Alpha virt. eigenvalues --    0.79028   0.81232   0.81706   0.82859   0.84135
 Alpha virt. eigenvalues --    0.86076   0.86279   0.87422   0.87604   0.88110
 Alpha virt. eigenvalues --    0.89462   0.91441   0.92290   0.94301   0.95476
 Alpha virt. eigenvalues --    0.95790   0.97268   0.98517   1.01636   1.03351
 Alpha virt. eigenvalues --    1.04082   1.07025   1.08625   1.08962   1.09809
 Alpha virt. eigenvalues --    1.11635   1.15053   1.15611   1.16742   1.17178
 Alpha virt. eigenvalues --    1.19560   1.20653   1.21691   1.22379   1.23028
 Alpha virt. eigenvalues --    1.25301   1.26938   1.27425   1.28005   1.28718
 Alpha virt. eigenvalues --    1.32394   1.33239   1.33729   1.36545   1.37762
 Alpha virt. eigenvalues --    1.39193   1.39711   1.40509   1.41964   1.43813
 Alpha virt. eigenvalues --    1.47317   1.51304   1.52023   1.53074   1.54142
 Alpha virt. eigenvalues --    1.54813   1.55752   1.55897   1.58081   1.59393
 Alpha virt. eigenvalues --    1.59685   1.60196   1.61029   1.62096   1.62904
 Alpha virt. eigenvalues --    1.65377   1.68405   1.70637   1.75175   1.78026
 Alpha virt. eigenvalues --    1.83297   1.85251   1.87013   1.92633   1.95081
 Alpha virt. eigenvalues --    1.95555   1.96308   1.99479   1.99841   2.01919
 Alpha virt. eigenvalues --    2.04644   2.06290   2.07483   2.08399   2.09244
 Alpha virt. eigenvalues --    2.09643   2.10371   2.11374   2.12278   2.14761
 Alpha virt. eigenvalues --    2.16040   2.17680   2.19903   2.21512   2.23086
 Alpha virt. eigenvalues --    2.25174   2.25968   2.27595   2.28272   2.33332
 Alpha virt. eigenvalues --    2.34205   2.36947   2.37915   2.38504   2.40490
 Alpha virt. eigenvalues --    2.40975   2.42275   2.45729   2.50368   2.50862
 Alpha virt. eigenvalues --    2.52617   2.61726   2.63282   2.65981   2.66939
 Alpha virt. eigenvalues --    2.68664   2.75341   2.77591   2.78210   2.80782
 Alpha virt. eigenvalues --    2.81555   2.85406   2.86929   2.91007   2.96688
 Alpha virt. eigenvalues --    2.97340   3.05498   3.07605   3.14547   3.15549
 Alpha virt. eigenvalues --    3.20895   3.32164   3.54077   4.17222   4.24463
 Alpha virt. eigenvalues --    4.30749   4.34511   4.37108   4.38925   4.41000
 Alpha virt. eigenvalues --    4.46374   4.52371   4.58232   4.60012   4.65576
 Alpha virt. eigenvalues --    4.79641   4.97766
          Condensed to atoms (all electrons):
               1          2          3          4          5          6
     1  S   14.680822   0.381116   0.151240   0.013224   0.129561  -0.702905
     2  O    0.381116   8.958064  -0.164114  -0.211098   0.018656  -0.290893
     3  O    0.151240  -0.164114   8.924957  -0.185778  -0.016732  -0.095050
     4  N    0.013224  -0.211098  -0.185778   8.112388   0.153449  -0.082736
     5  H    0.129561   0.018656  -0.016732   0.153449   0.441512  -0.065294
     6  C   -0.702905  -0.290893  -0.095050  -0.082736  -0.065294   7.746217
     7  N    0.126880   0.005260   0.034233   0.077289   0.002094  -0.038967
     8  C   -0.209730  -0.022479   0.008824   0.007586  -0.005043   0.016956
     9  C    0.119853  -0.003179   0.057336   0.094106  -0.004609  -0.623152
    10  C    0.009695   0.028785   0.010320  -0.081196   0.007146   0.362617
    11  O   -0.018336  -0.002118   0.005176  -0.013412  -0.000392  -0.075972
    12  C   -0.008662  -0.015708   0.005450   0.008463  -0.000447  -0.256814
    13  C    0.008587   0.001269  -0.000510   0.001800  -0.000042  -0.020039
    14  C   -0.014614  -0.003026   0.003522  -0.002221   0.000092   0.054735
    15  C    0.044194   0.004207  -0.064787  -0.009027   0.000529   0.031533
    16  H    0.012618   0.004249   0.005294  -0.009128   0.000491   0.360714
    17  H    0.004216   0.005828  -0.007889   0.007529  -0.000064   0.258113
    18  H   -0.001368   0.000069  -0.000133   0.000383   0.000006   0.002165
    19  H    0.000034  -0.000000  -0.000001   0.000001   0.000000   0.000009
    20  H   -0.000013  -0.000000  -0.000000   0.000000  -0.000000  -0.000050
    21  H   -0.000032  -0.000000   0.000000   0.000000  -0.000000  -0.000146
    22  H   -0.000199  -0.000001  -0.000025   0.000002  -0.000000   0.000749
    23  H    0.003108   0.000010   0.000078   0.000232  -0.000001   0.002621
               7          8          9         10         11         12
     1  S    0.126880  -0.209730   0.119853   0.009695  -0.018336  -0.008662
     2  O    0.005260  -0.022479  -0.003179   0.028785  -0.002118  -0.015708
     3  O    0.034233   0.008824   0.057336   0.010320   0.005176   0.005450
     4  N    0.077289   0.007586   0.094106  -0.081196  -0.013412   0.008463
     5  H    0.002094  -0.005043  -0.004609   0.007146  -0.000392  -0.000447
     6  C   -0.038967   0.016956  -0.623152   0.362617  -0.075972  -0.256814
     7  N    7.794300  -0.162267  -1.303262   2.072897  -0.084776  -0.867878
     8  C   -0.162267   8.209551  -0.278074  -1.686228  -0.052938   0.901318
     9  C   -1.303262  -0.278074  24.069236  -7.466631   0.556887  -5.709636
    10  C    2.072897  -1.686228  -7.466631  23.755508  -0.165233  -3.578141
    11  O   -0.084776  -0.052938   0.556887  -0.165233   8.222662   0.248018
    12  C   -0.867878   0.901318  -5.709636  -3.578141   0.248018  18.127074
    13  C   -0.202725  -0.155620   1.143518  -2.606310   0.017345  -0.759986
    14  C    0.069181   0.065248  -2.271212   1.064076  -0.034314   1.449554
    15  C   -0.014804  -1.078462  -3.137942  -5.396020  -0.541390  -2.723252
    16  H   -0.058684   0.020203  -0.095661   0.064211   0.007489  -0.023425
    17  H   -0.021883  -0.026179   0.156104  -0.139422  -0.010804  -0.011213
    18  H   -0.059074   0.402414  -0.053991  -0.040043   0.010225   0.026529
    19  H    0.001736  -0.005982   0.101962   0.060824  -0.000694   0.185707
    20  H   -0.000061   0.002251   0.034534  -0.013997   0.000156  -0.019982
    21  H    0.000333   0.001024  -0.007308   0.017072  -0.000580   0.004420
    22  H    0.000962   0.006174   0.046896   0.042196  -0.002551  -0.021063
    23  H   -0.069721   0.446808   0.013163  -0.136969   0.012191   0.055891
              13         14         15         16         17         18
     1  S    0.008587  -0.014614   0.044194   0.012618   0.004216  -0.001368
     2  O    0.001269  -0.003026   0.004207   0.004249   0.005828   0.000069
     3  O   -0.000510   0.003522  -0.064787   0.005294  -0.007889  -0.000133
     4  N    0.001800  -0.002221  -0.009027  -0.009128   0.007529   0.000383
     5  H   -0.000042   0.000092   0.000529   0.000491  -0.000064   0.000006
     6  C   -0.020039   0.054735   0.031533   0.360714   0.258113   0.002165
     7  N   -0.202725   0.069181  -0.014804  -0.058684  -0.021883  -0.059074
     8  C   -0.155620   0.065248  -1.078462   0.020203  -0.026179   0.402414
     9  C    1.143518  -2.271212  -3.137942  -0.095661   0.156104  -0.053991
    10  C   -2.606310   1.064076  -5.396020   0.064211  -0.139422  -0.040043
    11  O    0.017345  -0.034314  -0.541390   0.007489  -0.010804   0.010225
    12  C   -0.759986   1.449554  -2.723252  -0.023425  -0.011213   0.026529
    13  C    7.063287  -0.060219   1.354992  -0.001490   0.027045   0.011071
    14  C   -0.060219   6.415247  -0.684262   0.001428  -0.021812  -0.002911
    15  C    1.354992  -0.684262  17.641785   0.007891   0.061438   0.019127
    16  H   -0.001490   0.001428   0.007891   0.494055  -0.031058   0.003367
    17  H    0.027045  -0.021812   0.061438  -0.031058   0.490952   0.001267
    18  H    0.011071  -0.002911   0.019127   0.003367   0.001267   0.488831
    19  H   -0.028482   0.000224  -0.020331  -0.000003   0.000001   0.000649
    20  H    0.291629   0.009300   0.003688  -0.000000  -0.000000   0.000000
    21  H    0.007800   0.291676  -0.007440   0.000000  -0.000001  -0.000000
    22  H   -0.000675  -0.045705   0.276304  -0.000000  -0.000038   0.000002
    23  H   -0.005692   0.002767  -0.032013  -0.000026  -0.000351  -0.033485
              19         20         21         22         23
     1  S    0.000034  -0.000013  -0.000032  -0.000199   0.003108
     2  O   -0.000000  -0.000000  -0.000000  -0.000001   0.000010
     3  O   -0.000001  -0.000000   0.000000  -0.000025   0.000078
     4  N    0.000001   0.000000   0.000000   0.000002   0.000232
     5  H    0.000000  -0.000000  -0.000000  -0.000000  -0.000001
     6  C    0.000009  -0.000050  -0.000146   0.000749   0.002621
     7  N    0.001736  -0.000061   0.000333   0.000962  -0.069721
     8  C   -0.005982   0.002251   0.001024   0.006174   0.446808
     9  C    0.101962   0.034534  -0.007308   0.046896   0.013163
    10  C    0.060824  -0.013997   0.017072   0.042196  -0.136969
    11  O   -0.000694   0.000156  -0.000580  -0.002551   0.012191
    12  C    0.185707  -0.019982   0.004420  -0.021063   0.055891
    13  C   -0.028482   0.291629   0.007800  -0.000675  -0.005692
    14  C    0.000224   0.009300   0.291676  -0.045705   0.002767
    15  C   -0.020331   0.003688  -0.007440   0.276304  -0.032013
    16  H   -0.000003  -0.000000   0.000000  -0.000000  -0.000026
    17  H    0.000001  -0.000000  -0.000001  -0.000038  -0.000351
    18  H    0.000649   0.000000  -0.000000   0.000002  -0.033485
    19  H    0.510449  -0.003290  -0.000140   0.000015   0.000320
    20  H   -0.003290   0.515049  -0.003887  -0.000116   0.000002
    21  H   -0.000140  -0.003887   0.509464  -0.003194   0.000000
    22  H    0.000015  -0.000116  -0.003194   0.471340   0.000004
    23  H    0.000320   0.000002   0.000000   0.000004   0.507873
 Mulliken charges:
               1
     1  S    1.270710
     2  O   -0.694898
     3  O   -0.671411
     4  N   -0.881858
     5  H    0.339087
     6  C   -0.584411
     7  N   -0.301061
     8  C   -0.405356
     9  C    0.561063
    10  C   -0.185159
    11  O   -0.076639
    12  C   -1.016216
    13  C   -0.086554
    14  C   -0.286756
    15  C    0.264041
    16  H    0.237465
    17  H    0.258221
    18  H    0.224899
    19  H    0.196992
    20  H    0.184788
    21  H    0.190938
    22  H    0.228924
    23  H    0.233190
 Sum of Mulliken charges =  -1.00000
 Mulliken charges with hydrogens summed into heavy atoms:
               1
     1  S    1.270710
     2  O   -0.694898
     3  O   -0.671411
     4  N   -0.542771
     6  C   -0.088725
     7  N   -0.301061
     8  C    0.052734
     9  C    0.561063
    10  C   -0.185159
    11  O   -0.076639
    12  C   -0.819224
    13  C    0.098234
    14  C   -0.095817
    15  C    0.492965
 Electronic spatial extent (au):  <R**2>=           3492.9188
 Charge=             -1.0000 electrons
 Dipole moment (field-independent basis, Debye):
    X=            -15.4529    Y=              3.1700    Z=             -0.5263  Tot=             15.7835
 Quadrupole moment (field-independent basis, Debye-Ang):
   XX=           -149.8226   YY=            -94.6195   ZZ=           -101.1421
   XY=              3.1100   XZ=             -8.0724   YZ=              1.3094
 Traceless Quadrupole moment (field-independent basis, Debye-Ang):
   XX=            -34.6278   YY=             20.5752   ZZ=             14.0526
   XY=              3.1100   XZ=             -8.0724   YZ=              1.3094
 Octapole moment (field-independent basis, Debye-Ang**2):
  XXX=           -179.3067  YYY=              1.7364  ZZZ=            -18.2291  XYY=            -32.6387
  XXY=            -10.6285  XXZ=            -15.8947  XZZ=             -5.9024  YZZ=              5.6034
  YYZ=              3.4333  XYZ=              0.3541
 Hexadecapole moment (field-independent basis, Debye-Ang**3):
 XXXX=          -4569.6361 YYYY=           -654.1470 ZZZZ=           -398.3580 XXXY=            -51.8846
 XXXZ=           -139.9557 YYYX=              3.8318 YYYZ=             12.0779 ZZZX=            -31.1565
 ZZZY=             -0.0130 XXYY=           -791.9030 XXZZ=           -778.5944 YYZZ=           -176.3128
 XXYZ=             20.4759 YYXZ=             15.1509 ZZXY=              3.0180
 N-N= 1.030316763617D+03 E-N=-4.526262611671D+03  KE= 1.036449085788D+03
 Calling FoFJK, ICntrl=      2127 FMM=F ISym2X=0 I1Cent= 0 IOpClX= 0 NMat=1 NMatS=1 NMatT=0.
 ***** Axes restored to original set *****
 -------------------------------------------------------------------
 Center     Atomic                   Forces (Hartrees/Bohr)
 Number     Number              X              Y              Z
 -------------------------------------------------------------------
      1       16          -0.022042663    0.020907984    0.028303783
      2        8           0.004059662   -0.012583247   -0.007514592
      3        8           0.011734468   -0.001437099   -0.008711792
      4        7           0.006968037   -0.004423448   -0.005176002
      5        1          -0.002313497    0.000734015   -0.001310671
      6        6           0.001293979    0.002534636   -0.000966812
      7        7          -0.001479381   -0.002412081   -0.006750313
      8        6          -0.004663359    0.000387870    0.005383504
      9        6           0.001731379   -0.000511885   -0.006990400
     10        6           0.003169850    0.001847936    0.022614889
     11        8           0.001158421   -0.002408001   -0.016358385
     12        6          -0.001999364   -0.000169967    0.002366608
     13        6          -0.000265181   -0.000140834   -0.001349851
     14        6           0.001199373   -0.000119767    0.001697678
     15        6          -0.001150480   -0.001061365   -0.004181671
     16        1           0.000910515   -0.000336025    0.000664947
     17        1          -0.000892146   -0.000698616   -0.000935824
     18        1           0.000632513    0.000731656    0.000033405
     19        1           0.000274249    0.000111208   -0.000624673
     20        1          -0.000161567    0.000058253   -0.000458106
     21        1          -0.000233879    0.000116790   -0.000492106
     22        1           0.001215925    0.000632893    0.000595668
     23        1           0.000853145   -0.001760906    0.000160714
 -------------------------------------------------------------------
 Cartesian Forces:  Max     0.028303783 RMS     0.006901214

 GradGradGradGradGradGradGradGradGradGradGradGradGradGradGradGradGradGrad
 Berny optimization.
 FormGI is forming the generalized inverse of G from B-inverse, IUseBI=4.
 Internal  Forces:  Max     0.015393686 RMS     0.003442369
 Search for a local minimum.
 Step number   1 out of a maximum of  133
 All quantities printed in internal units (Hartrees-Bohrs-Radians)
 Mixed Optimization -- RFO/linear search
 Second derivative matrix not updated -- first step.
 ITU=  0
     Eigenvalues ---    0.00230   0.00801   0.00950   0.01510   0.01733
     Eigenvalues ---    0.02094   0.02109   0.02111   0.02169   0.02183
     Eigenvalues ---    0.02203   0.02216   0.03120   0.04280   0.04936
     Eigenvalues ---    0.05421   0.05738   0.07247   0.08268   0.08532
     Eigenvalues ---    0.09075   0.09251   0.10002   0.12728   0.15788
     Eigenvalues ---    0.15999   0.16000   0.16000   0.16000   0.16000
     Eigenvalues ---    0.16759   0.18741   0.21463   0.22000   0.22069
     Eigenvalues ---    0.22621   0.24040   0.24632   0.24699   0.25000
     Eigenvalues ---    0.30950   0.31693   0.34004   0.34306   0.34614
     Eigenvalues ---    0.34761   0.35243   0.35276   0.35323   0.35381
     Eigenvalues ---    0.35497   0.37457   0.40963   0.42304   0.43949
     Eigenvalues ---    0.45153   0.45788   0.46931   0.47127   0.47878
     Eigenvalues ---    0.59309   0.77844   0.79174
 RFO step:  Lambda=-6.38271506D-03 EMin= 2.30000000D-03
 Linear search not attempted -- first point.
 Iteration  1 RMS(Cart)=  0.04019428 RMS(Int)=  0.00180164
 Iteration  2 RMS(Cart)=  0.00188505 RMS(Int)=  0.00064461
 Iteration  3 RMS(Cart)=  0.00000357 RMS(Int)=  0.00064460
 Iteration  4 RMS(Cart)=  0.00000001 RMS(Int)=  0.00064460
 Variable       Old X    -DE/DX   Delta X   Delta X   Delta X     New X
                                 (Linear)    (Quad)   (Total)
    R1        2.82064  -0.01165   0.00000  -0.01460  -0.01460   2.80604
    R2        2.82799  -0.01187   0.00000  -0.01512  -0.01512   2.81287
    R3        2.95191   0.00028   0.00000   0.00047   0.00047   2.95238
    R4        3.43679   0.00651   0.00000   0.02568   0.02568   3.46247
    R5        1.93215  -0.00066   0.00000  -0.00149  -0.00149   1.93066
    R6        2.75163   0.00497   0.00000   0.01305   0.01305   2.76468
    R7        2.06306   0.00056   0.00000   0.00160   0.00160   2.06466
    R8        2.07323   0.00090   0.00000   0.00260   0.00260   2.07584
    R9        2.81298  -0.00345   0.00000  -0.00959  -0.00953   2.80344
   R10        2.75138  -0.00271   0.00000  -0.00830  -0.00826   2.74312
   R11        2.84262   0.00026   0.00000   0.00276   0.00274   2.84536
   R12        2.06064   0.00093   0.00000   0.00263   0.00263   2.06327
   R13        2.06818   0.00195   0.00000   0.00559   0.00559   2.07377
   R14        2.62283   0.00158   0.00000   0.00371   0.00365   2.62648
   R15        2.62027  -0.00053   0.00000  -0.00095  -0.00095   2.61932
   R16        2.61246  -0.01539   0.00000  -0.03231  -0.03233   2.58013
   R17        2.61615   0.00138   0.00000   0.00283   0.00284   2.61899
   R18        2.64798  -0.00006   0.00000  -0.00014  -0.00015   2.64784
   R19        2.05282   0.00057   0.00000   0.00158   0.00158   2.05441
   R20        2.63981  -0.00059   0.00000  -0.00142  -0.00142   2.63839
   R21        2.05154   0.00046   0.00000   0.00128   0.00128   2.05282
   R22        2.64612  -0.00057   0.00000  -0.00140  -0.00140   2.64472
   R23        2.05229   0.00043   0.00000   0.00119   0.00119   2.05348
   R24        2.05060  -0.00070   0.00000  -0.00195  -0.00195   2.04865
    A1        1.98638   0.00670   0.00000   0.05885   0.05577   2.04215
    A2        1.91127   0.00844   0.00000   0.04345   0.03975   1.95102
    A3        1.77688  -0.00942   0.00000  -0.05310  -0.05297   1.72392
    A4        2.00734   0.00751   0.00000   0.03331   0.02967   2.03702
    A5        1.83286  -0.00582   0.00000  -0.04011  -0.04025   1.79261
    A6        1.93326  -0.01119   0.00000  -0.06313  -0.06364   1.86962
    A7        1.88655  -0.00508   0.00000  -0.03051  -0.03051   1.85604
    A8        1.95425   0.00462   0.00000   0.02102   0.02096   1.97522
    A9        1.82804  -0.00196   0.00000  -0.01475  -0.01461   1.81343
   A10        1.88375  -0.00036   0.00000   0.00857   0.00847   1.89222
   A11        1.89810  -0.00159   0.00000  -0.01582  -0.01573   1.88237
   A12        1.97611  -0.00177   0.00000  -0.00365  -0.00391   1.97220
   A13        1.91777   0.00106   0.00000   0.00387   0.00386   1.92163
   A14        1.94595   0.00214   0.00000   0.01689   0.01677   1.96272
   A15        1.84937   0.00170   0.00000   0.02171   0.02159   1.87096
   A16        1.82253  -0.00181   0.00000  -0.00593  -0.00614   1.81640
   A17        1.80211   0.00025   0.00000   0.00356   0.00366   1.80578
   A18        1.91332  -0.00058   0.00000  -0.00329  -0.00334   1.90998
   A19        1.89988   0.00035   0.00000   0.00099   0.00098   1.90086
   A20        2.00681   0.00044   0.00000   0.00094   0.00093   2.00774
   A21        1.93738  -0.00049   0.00000  -0.00157  -0.00161   1.93576
   A22        1.90027   0.00003   0.00000  -0.00050  -0.00048   1.89979
   A23        1.85526  -0.00427   0.00000  -0.01453  -0.01455   1.84070
   A24        2.33581   0.00309   0.00000   0.01066   0.01067   2.34648
   A25        2.09094   0.00117   0.00000   0.00388   0.00389   2.09484
   A26        1.94953   0.00260   0.00000   0.00803   0.00800   1.95753
   A27        2.15313  -0.00306   0.00000  -0.01073  -0.01071   2.14242
   A28        2.18032   0.00045   0.00000   0.00259   0.00258   2.18291
   A29        1.86342   0.00269   0.00000   0.00437   0.00448   1.86790
   A30        2.06671   0.00086   0.00000   0.00398   0.00397   2.07068
   A31        2.10918  -0.00004   0.00000   0.00032   0.00032   2.10950
   A32        2.10729  -0.00081   0.00000  -0.00429  -0.00429   2.10300
   A33        2.10580  -0.00118   0.00000  -0.00567  -0.00568   2.10011
   A34        2.08837   0.00073   0.00000   0.00368   0.00369   2.09206
   A35        2.08902   0.00045   0.00000   0.00199   0.00199   2.09101
   A36        2.11712   0.00067   0.00000   0.00216   0.00216   2.11928
   A37        2.08784  -0.00066   0.00000  -0.00307  -0.00308   2.08476
   A38        2.07820  -0.00001   0.00000   0.00087   0.00087   2.07906
   A39        2.03264   0.00154   0.00000   0.00636   0.00636   2.03900
   A40        2.12080  -0.00202   0.00000  -0.01068  -0.01070   2.11011
   A41        2.12973   0.00047   0.00000   0.00428   0.00426   2.13399
    D1        2.93283   0.01163   0.00000   0.06581   0.06838   3.00122
    D2        0.67023  -0.01163   0.00000  -0.08331  -0.08571   0.58451
    D3       -1.40428  -0.00093   0.00000  -0.00727  -0.00744  -1.41173
    D4        3.11366  -0.00113   0.00000  -0.05555  -0.05511   3.05855
    D5        1.05969  -0.00042   0.00000  -0.03862  -0.03810   1.02159
    D6       -0.98314  -0.00050   0.00000  -0.03967  -0.03908  -1.02222
    D7       -1.09452   0.00005   0.00000  -0.02841  -0.02899  -1.12351
    D8        3.13469   0.00076   0.00000  -0.01149  -0.01197   3.12272
    D9        1.09186   0.00068   0.00000  -0.01254  -0.01295   1.07890
   D10        1.08266  -0.00115   0.00000  -0.05092  -0.05103   1.03162
   D11       -0.97132  -0.00044   0.00000  -0.03400  -0.03402  -1.00533
   D12       -3.01415  -0.00052   0.00000  -0.03505  -0.03500  -3.04915
   D13       -2.83959   0.00100   0.00000   0.03649   0.03667  -2.80292
   D14        1.47100   0.00117   0.00000   0.02346   0.02332   1.49432
   D15       -0.82797   0.00026   0.00000   0.02084   0.02094  -0.80703
   D16       -2.80057   0.00043   0.00000   0.00780   0.00759  -2.79297
   D17        1.30906  -0.00072   0.00000   0.01187   0.01206   1.32113
   D18       -0.66353  -0.00056   0.00000  -0.00116  -0.00128  -0.66482
   D19       -1.52854  -0.00157   0.00000  -0.02382  -0.02378  -1.55232
   D20        0.61820  -0.00120   0.00000  -0.02233  -0.02229   0.59591
   D21        2.69507  -0.00129   0.00000  -0.02428  -0.02425   2.67082
   D22        0.46082   0.00041   0.00000   0.00602   0.00595   0.46677
   D23        2.60756   0.00078   0.00000   0.00750   0.00745   2.61501
   D24       -1.59876   0.00069   0.00000   0.00556   0.00548  -1.59327
   D25        1.59836   0.00105   0.00000   0.01630   0.01623   1.61460
   D26       -0.45841  -0.00129   0.00000  -0.00967  -0.00964  -0.46806
   D27       -0.30938  -0.00052   0.00000  -0.00133  -0.00137  -0.31075
   D28        2.88633  -0.00032   0.00000  -0.00144  -0.00146   2.88487
   D29       -2.39273  -0.00021   0.00000  -0.00017  -0.00021  -2.39295
   D30        0.80298  -0.00001   0.00000  -0.00029  -0.00031   0.80267
   D31        1.72379  -0.00020   0.00000   0.00106   0.00104   1.72484
   D32       -1.36368  -0.00000   0.00000   0.00094   0.00095  -1.36273
   D33        0.03078  -0.00015   0.00000  -0.00519  -0.00520   0.02558
   D34       -3.09042   0.00013   0.00000   0.00058   0.00059  -3.08983
   D35        3.12738  -0.00020   0.00000  -0.00473  -0.00475   3.12263
   D36        0.00619   0.00007   0.00000   0.00104   0.00103   0.00722
   D37        3.07986  -0.00029   0.00000  -0.00011  -0.00012   3.07973
   D38       -0.05703  -0.00034   0.00000  -0.00336  -0.00338  -0.06041
   D39       -0.00187   0.00004   0.00000   0.00015   0.00016  -0.00171
   D40       -3.13875  -0.00001   0.00000  -0.00310  -0.00310   3.14133
   D41        0.27199   0.00094   0.00000   0.00976   0.00983   0.28182
   D42       -2.89038   0.00061   0.00000   0.00370   0.00370  -2.88668
   D43       -0.00383  -0.00013   0.00000  -0.00150  -0.00149  -0.00532
   D44       -3.14036   0.00015   0.00000   0.00708   0.00705  -3.13332
   D45       -3.12231   0.00016   0.00000   0.00501   0.00502  -3.11729
   D46        0.02435   0.00044   0.00000   0.01359   0.01356   0.03790
   D47       -0.00441  -0.00009   0.00000  -0.00083  -0.00083  -0.00525
   D48        3.13637  -0.00011   0.00000  -0.00383  -0.00383   3.13254
   D49        3.13248  -0.00004   0.00000   0.00243   0.00243   3.13490
   D50       -0.00992  -0.00006   0.00000  -0.00056  -0.00057  -0.01050
   D51        0.00682   0.00003   0.00000   0.00034   0.00034   0.00716
   D52        3.13963  -0.00009   0.00000  -0.00479  -0.00480   3.13484
   D53       -3.13396   0.00005   0.00000   0.00334   0.00333  -3.13063
   D54       -0.00115  -0.00007   0.00000  -0.00180  -0.00180  -0.00295
   D55       -0.00267   0.00008   0.00000   0.00079   0.00080  -0.00187
   D56        3.13383  -0.00021   0.00000  -0.00788  -0.00791   3.12592
   D57       -3.13553   0.00020   0.00000   0.00592   0.00593  -3.12959
   D58        0.00098  -0.00009   0.00000  -0.00275  -0.00278  -0.00180
         Item               Value     Threshold  Converged?
 Maximum Force            0.015394     0.000450     NO 
 RMS     Force            0.003442     0.000300     NO 
 Maximum Displacement     0.200188     0.001800     NO 
 RMS     Displacement     0.039930     0.001200     NO 
 Predicted change in Energy=-3.426020D-03
 GradGradGradGradGradGradGradGradGradGradGradGradGradGradGradGradGradGrad

                          Input orientation:                          
 ---------------------------------------------------------------------
 Center     Atomic      Atomic             Coordinates (Angstroms)
 Number     Number       Type             X           Y           Z
 ---------------------------------------------------------------------
      1         16           0       -2.187687    1.404781   -0.988255
      2          8           0       -2.066630    2.868288   -1.208266
      3          8           0       -3.552782    0.870822   -0.729300
      4          7           0       -1.036355    0.856978   -0.085350
      5          1           0       -1.272103   -0.115038    0.122983
      6          6           0       -1.849983    0.836410   -2.697081
      7          7           0       -1.783621   -0.620185   -2.816746
      8          6           0       -1.076269   -1.056138   -4.045739
      9          6           0       -2.173676   -1.131047   -5.073954
     10          6           0       -3.358783   -1.170722   -4.348905
     11          8           0       -3.141676   -1.097857   -3.002903
     12          6           0       -2.203564   -1.217029   -6.457048
     13          6           0       -3.444294   -1.345418   -7.095327
     14          6           0       -4.621295   -1.391439   -6.345758
     15          6           0       -4.600908   -1.303237   -4.949161
     16          1           0       -0.856763    1.235990   -2.915158
     17          1           0       -2.594208    1.288590   -3.366657
     18          1           0       -0.276227   -0.349244   -4.274528
     19          1           0       -1.284955   -1.187161   -7.037692
     20          1           0       -3.491496   -1.405935   -8.178920
     21          1           0       -5.576219   -1.484888   -6.855862
     22          1           0       -5.507247   -1.323169   -4.354668
     23          1           0       -0.635600   -2.045750   -3.870397
 ---------------------------------------------------------------------
                    Distance matrix (angstroms):
                    1          2          3          4          5
     1  S    0.000000
     2  O    1.484895   0.000000
     3  O    1.488508   2.535335   0.000000
     4  N    1.562334   2.523444   2.597550   0.000000
     5  H    2.093560   3.362102   2.626747   1.021663   0.000000
     6  C    1.832260   2.528247   2.602474   2.735608   3.031825
     7  N    2.758103   3.851849   3.116161   3.193891   3.026356
     8  C    4.079165   4.942994   4.565640   4.398442   4.278115
     9  C    4.808696   5.563243   4.978497   5.489254   5.371523
    10  C    4.393023   5.277013   4.160178   5.261477   5.046433
    11  O    3.351432   4.484054   3.035453   4.094615   3.772585
    12  C    6.064803   6.652689   6.243925   6.801648   6.736379
    13  C    6.814615   7.369583   6.741646   7.732302   7.637817
    14  C    6.514916   7.146006   6.148508   7.556446   7.395329
    15  C    5.370826   6.149673   4.861309   6.405406   6.182184
    16  H    2.347936   2.653612   3.489963   2.860720   3.350834
    17  H    2.415690   2.726249   2.837084   3.657891   3.986944
    18  H    4.186868   4.791660   4.979258   4.425152   4.514944
    19  H    6.642950   7.144221   7.012428   7.250888   7.240503
    20  H    7.829796   8.299954   7.790007   8.755247   8.689862
    21  H    7.366217   7.947496   6.868656   8.481423   8.313013
    22  H    5.458381   6.269449   4.666564   6.555073   6.280556
    23  H    4.756246   5.769103   5.184866   4.786754   4.481056
                    6          7          8          9         10
     6  C    0.000000
     7  N    1.463008   0.000000
     8  C    2.449337   1.483519   0.000000
     9  C    3.102449   2.346936   1.505702   0.000000
    10  C    3.005591   2.265334   2.305409   1.389873   0.000000
    11  O    2.345930   1.451598   2.314121   2.286346   1.365345
    12  C    4.298718   3.712731   2.666662   1.386086   2.404359
    13  C    5.162050   4.646510   3.871848   2.397160   2.753301
    14  C    5.094735   4.593599   4.239071   2.770583   2.372778
    15  C    4.149403   3.598730   3.646959   2.436530   1.385908
    16  H    1.092570   2.077051   2.565200   3.463744   3.756061
    17  H    1.098485   2.145431   2.874551   2.991045   2.756374
    18  H    2.524048   2.114421   1.091838   2.202410   3.191004
    19  H    4.822344   4.287951   3.002083   2.156211   3.395675
    20  H    6.145993   5.682178   4.799881   3.384232   3.839525
    21  H    6.047208   5.607671   5.322609   3.857163   3.361630
    22  H    4.559271   4.089594   4.449754   3.415696   2.153873
    23  H    3.340396   2.111959   1.097390   2.156597   2.900064
                   11         12         13         14         15
    11  O    0.000000
    12  C    3.581253   0.000000
    13  C    4.111058   1.401176   0.000000
    14  C    3.667444   2.426568   1.396175   0.000000
    15  C    2.441200   2.833446   2.438353   1.399528   0.000000
    16  H    3.267318   4.513995   5.552728   5.730978   4.960188
    17  H    2.475311   3.997654   4.643664   4.490733   3.639880
    18  H    3.223080   3.038268   4.357283   4.925016   4.479743
    19  H    4.442400   1.087144   2.165897   3.413455   3.920585
    20  H    5.196964   2.158541   1.086307   2.153402   3.416531
    21  H    4.574067   3.406700   2.149861   1.086655   2.149358
    22  H    2.733854   3.917345   3.430377   2.180369   1.084098
    23  H    2.816286   3.136248   4.333521   4.737226   4.175970
                   16         17         18         19         20
    16  H    0.000000
    17  H    1.795922   0.000000
    18  H    2.167458   2.979893   0.000000
    19  H    4.801073   4.617357   3.058548   0.000000
    20  H    6.452036   5.587795   5.167091   2.493809   0.000000
    21  H    6.723510   5.362753   6.003573   4.305421   2.470382
    22  H    5.499862   4.035250   5.321515   5.004485   4.323772
    23  H    3.425086   3.899708   1.780619   3.345235   5.208539
                   21         22         23
    21  H    0.000000
    22  H    2.507366   0.000000
    23  H    5.799767   4.948696   0.000000
 Stoichiometry    C8H9N2O3S(1-)
 Framework group  C1[X(C8H9N2O3S)]
 Deg. of freedom    63
 Full point group                 C1      NOp   1
 Largest Abelian subgroup         C1      NOp   1
 Largest concise Abelian subgroup C1      NOp   1
                         Standard orientation:                         
 ---------------------------------------------------------------------
 Center     Atomic      Atomic             Coordinates (Angstroms)
 Number     Number       Type             X           Y           Z
 ---------------------------------------------------------------------
      1         16           0        2.718950   -0.227335    0.208509
      2          8           0        3.232741   -0.246963    1.601544
      3          8           0        2.388828   -1.540986   -0.408740
      4          7           0        3.499123    0.791249   -0.682954
      5          1           0        3.176460    0.641183   -1.640640
      6          6           0        1.065556    0.493584    0.530595
      7          7           0        0.305404    0.759054   -0.690916
      8          6           0       -0.792173    1.733451   -0.474804
      9          6           0       -1.955239    0.867244   -0.069709
     10          6           0       -1.616817   -0.419422   -0.471839
     11          8           0       -0.379214   -0.470668   -1.046188
     12          6           0       -3.188775    1.109517    0.514180
     13          6           0       -4.073953    0.036653    0.683645
     14          6           0       -3.715598   -1.245964    0.264384
     15          6           0       -2.471575   -1.500313   -0.324168
     16          1           0        1.285399    1.453613    1.003586
     17          1           0        0.532758   -0.160626    1.234019
     18          1           0       -0.482972    2.469663    0.269841
     19          1           0       -3.467503    2.110472    0.833998
     20          1           0       -5.042545    0.202448    1.146683
     21          1           0       -4.410579   -2.068791    0.408524
     22          1           0       -2.173626   -2.493139   -0.641644
     23          1           0       -0.999681    2.250859   -1.420052
 ---------------------------------------------------------------------
 Rotational constants (GHZ):           1.6530352           0.3349596           0.3151250
 Basis read from rwf:  (6D, 7F)
 There are   288 symmetry adapted cartesian basis functions of A   symmetry.
 There are   288 symmetry adapted basis functions of A   symmetry.
   288 basis functions,   508 primitive gaussians,   288 cartesian basis functions
    56 alpha electrons       56 beta electrons
       nuclear repulsion energy      1029.5365826853 Hartrees.
 NAtoms=   23 NActive=   23 NUniq=   23 SFac= 1.00D+00 NAtFMM=   60 NAOKFM=F Big=F
 Integral buffers will be    131072 words long.
 Raffenetti 2 integral format.
 Two-electron integral symmetry is turned on.
 One-electron integrals computed using PRISM.
 NBasis=   288 RedAO= T EigKep=  2.22D-06  NBF=   288
 NBsUse=   288 1.00D-06 EigRej= -1.00D+00 NBFU=   288
 Initial guess from the checkpoint file:  "/jobfs/50065313.gadi-pbs/Gau-175491.chk"
 B after Tr=    -0.000000   -0.000000    0.000000
         Rot=    0.999898    0.014189   -0.001411    0.000382 Ang=   1.63 deg.
 ExpMin= 4.05D-02 ExpMax= 2.19D+04 ExpMxC= 3.30D+03 IAcc=3 IRadAn=         5 AccDes= 0.00D+00
 Harris functional with IExCor= 1009 and IRadAn=       5 diagonalized for initial guess.
 HarFok:  IExCor= 1009 AccDes= 0.00D+00 IRadAn=         5 IDoV= 1 UseB2=F ITyADJ=14
 ICtDFT=  3500011 ScaDFX=  1.000000  1.000000  1.000000  1.000000
 FoFCou: FMM=F IPFlag=           0 FMFlag=      100000 FMFlg1=           0
         NFxFlg=           0 DoJE=T BraDBF=F KetDBF=T FulRan=T
         wScrn=  0.000000 ICntrl=       500 IOpCl=  0 I1Cent=   200000004 NGrid=           0
         NMat0=    1 NMatS0=      1 NMatT0=    0 NMatD0=    1 NMtDS0=    0 NMtDT0=    0
 Petite list used in FoFCou.
 Requested convergence on RMS density matrix=1.00D-08 within 128 cycles.
 Requested convergence on MAX density matrix=1.00D-06.
 Requested convergence on             energy=1.00D-06.
 No special actions if energy rises.
 SCF Done:  E(RM062X) =  -1043.26530829     A.U. after   14 cycles
            NFock= 14  Conv=0.47D-08     -V/T= 2.0065
 Calling FoFJK, ICntrl=      2127 FMM=F ISym2X=0 I1Cent= 0 IOpClX= 0 NMat=1 NMatS=1 NMatT=0.
 ***** Axes restored to original set *****
 -------------------------------------------------------------------
 Center     Atomic                   Forces (Hartrees/Bohr)
 Number     Number              X              Y              Z
 -------------------------------------------------------------------
      1       16          -0.003368312   -0.000296165   -0.007746002
      2        8          -0.001330161   -0.004339051    0.005900523
      3        8           0.004716707    0.003863492    0.002960400
      4        7           0.000082193    0.002198983    0.002076537
      5        1          -0.001129306    0.000096153    0.000620661
      6        6           0.000993932   -0.000989643   -0.002518799
      7        7           0.000700352   -0.000242012   -0.002129199
      8        6          -0.000828002    0.000605161    0.003190486
      9        6           0.001451245   -0.000076298   -0.004270968
     10        6           0.000248613    0.000489068    0.009391026
     11        8          -0.000247371    0.000677905   -0.005925242
     12        6          -0.000331453    0.000099587    0.001439077
     13        6          -0.000147709   -0.000089469   -0.000629601
     14        6          -0.000119726    0.000051513    0.000899803
     15        6          -0.000618388   -0.000503957   -0.002665793
     16        1           0.000052335   -0.000385057   -0.000112884
     17        1          -0.000447034   -0.001015429   -0.000590260
     18        1           0.000113846   -0.000101831   -0.000074530
     19        1           0.000080915    0.000038205   -0.000059736
     20        1           0.000018114   -0.000005453    0.000110335
     21        1          -0.000108989   -0.000016779   -0.000029243
     22        1          -0.000063099    0.000180063    0.000342096
     23        1           0.000281297   -0.000238985   -0.000178688
 -------------------------------------------------------------------
 Cartesian Forces:  Max     0.009391026 RMS     0.002303198

 GradGradGradGradGradGradGradGradGradGradGradGradGradGradGradGradGradGrad
 Berny optimization.
 Using GEDIIS/GDIIS optimizer.
 FormGI is forming the generalized inverse of G from B-inverse, IUseBI=4.
 Internal  Forces:  Max     0.006988165 RMS     0.001576510
 Search for a local minimum.
 Step number   2 out of a maximum of  133
 All quantities printed in internal units (Hartrees-Bohrs-Radians)
 Mixed Optimization -- RFO/linear search
 Update second derivatives using D2CorX and points    1    2
 DE= -2.51D-03 DEPred=-3.43D-03 R= 7.34D-01
 TightC=F SS=  1.41D+00  RLast= 2.23D-01 DXNew= 5.0454D-01 6.6872D-01
 Trust test= 7.34D-01 RLast= 2.23D-01 DXMaxT set to 5.05D-01
 ITU=  1  0
 Use linear search instead of GDIIS.
     Eigenvalues ---    0.00232   0.00804   0.00949   0.01508   0.01739
     Eigenvalues ---    0.02094   0.02109   0.02111   0.02169   0.02183
     Eigenvalues ---    0.02202   0.02215   0.03104   0.04136   0.04815
     Eigenvalues ---    0.05341   0.05734   0.07226   0.08563   0.09184
     Eigenvalues ---    0.09244   0.09316   0.10681   0.12834   0.15627
     Eigenvalues ---    0.15828   0.15998   0.15999   0.16000   0.16000
     Eigenvalues ---    0.18843   0.20780   0.21718   0.22006   0.22358
     Eigenvalues ---    0.23196   0.23958   0.24615   0.24750   0.26541
     Eigenvalues ---    0.30843   0.31631   0.33994   0.34274   0.34615
     Eigenvalues ---    0.34757   0.35238   0.35273   0.35324   0.35379
     Eigenvalues ---    0.35395   0.37516   0.40982   0.42281   0.43500
     Eigenvalues ---    0.43965   0.45573   0.46001   0.47124   0.47873
     Eigenvalues ---    0.59309   0.75366   0.78656
 RFO step:  Lambda=-7.97573928D-04 EMin= 2.32407255D-03
 Quartic linear search produced a step of -0.17535.
 Iteration  1 RMS(Cart)=  0.02235283 RMS(Int)=  0.00033740
 Iteration  2 RMS(Cart)=  0.00040057 RMS(Int)=  0.00006050
 Iteration  3 RMS(Cart)=  0.00000013 RMS(Int)=  0.00006050
 Variable       Old X    -DE/DX   Delta X   Delta X   Delta X     New X
                                 (Linear)    (Quad)   (Total)
    R1        2.80604  -0.00526   0.00256  -0.00983  -0.00727   2.79877
    R2        2.81287  -0.00520   0.00265  -0.01002  -0.00737   2.80551
    R3        2.95238  -0.00002  -0.00008   0.00012   0.00004   2.95242
    R4        3.46247   0.00422  -0.00450   0.02176   0.01726   3.47973
    R5        1.93066   0.00029   0.00026   0.00010   0.00036   1.93102
    R6        2.76468  -0.00080  -0.00229   0.00221  -0.00007   2.76461
    R7        2.06466  -0.00007  -0.00028   0.00032   0.00004   2.06469
    R8        2.07584   0.00025  -0.00046   0.00138   0.00092   2.07676
    R9        2.80344  -0.00185   0.00167  -0.00729  -0.00563   2.79781
   R10        2.74312  -0.00051   0.00145  -0.00404  -0.00260   2.74053
   R11        2.84536   0.00089  -0.00048   0.00360   0.00312   2.84849
   R12        2.06327   0.00004  -0.00046   0.00088   0.00042   2.06369
   R13        2.07377   0.00030  -0.00098   0.00241   0.00142   2.07519
   R14        2.62648   0.00203  -0.00064   0.00491   0.00428   2.63076
   R15        2.61932  -0.00100   0.00017  -0.00194  -0.00177   2.61755
   R16        2.58013  -0.00569   0.00567  -0.01956  -0.01389   2.56624
   R17        2.61899   0.00143  -0.00050   0.00340   0.00291   2.62189
   R18        2.64784   0.00039   0.00003   0.00055   0.00057   2.64841
   R19        2.05441   0.00010  -0.00028   0.00071   0.00044   2.05484
   R20        2.63839   0.00018   0.00025  -0.00029  -0.00004   2.63835
   R21        2.05282  -0.00011  -0.00022   0.00013  -0.00009   2.05273
   R22        2.64472  -0.00072   0.00024  -0.00178  -0.00153   2.64319
   R23        2.05348   0.00011  -0.00021   0.00062   0.00041   2.05389
   R24        2.04865   0.00024   0.00034  -0.00004   0.00030   2.04895
    A1        2.04215  -0.00229  -0.00978   0.00012  -0.00963   2.03253
    A2        1.95102  -0.00382  -0.00697  -0.00829  -0.01489   1.93614
    A3        1.72392   0.00562   0.00929   0.01101   0.02027   1.74419
    A4        2.03702  -0.00351  -0.00520  -0.00739  -0.01225   2.02477
    A5        1.79261   0.00452   0.00706   0.01183   0.01890   1.81152
    A6        1.86962   0.00324   0.01116  -0.00107   0.01022   1.87984
    A7        1.85604  -0.00118   0.00535  -0.01540  -0.01005   1.84599
    A8        1.97522   0.00012  -0.00368   0.00641   0.00274   1.97796
    A9        1.81343   0.00009   0.00256  -0.00260  -0.00006   1.81336
   A10        1.89222   0.00075  -0.00149   0.00806   0.00660   1.89882
   A11        1.88237  -0.00018   0.00276  -0.00719  -0.00445   1.87793
   A12        1.97220  -0.00090   0.00069  -0.00834  -0.00762   1.96458
   A13        1.92163   0.00021  -0.00068   0.00410   0.00340   1.92503
   A14        1.96272   0.00079  -0.00294   0.00857   0.00565   1.96837
   A15        1.87096  -0.00080  -0.00378   0.00249  -0.00128   1.86968
   A16        1.81640   0.00020   0.00108  -0.00051   0.00060   1.81700
   A17        1.80578  -0.00035  -0.00064   0.00172   0.00105   1.80683
   A18        1.90998   0.00023   0.00059  -0.00020   0.00040   1.91038
   A19        1.90086   0.00022  -0.00017   0.00173   0.00156   1.90242
   A20        2.00774   0.00006  -0.00016   0.00004  -0.00013   2.00761
   A21        1.93576   0.00002   0.00028  -0.00134  -0.00105   1.93471
   A22        1.89979  -0.00016   0.00008  -0.00162  -0.00154   1.89824
   A23        1.84070  -0.00130   0.00255  -0.00761  -0.00505   1.83565
   A24        2.34648   0.00107  -0.00187   0.00580   0.00393   2.35042
   A25        2.09484   0.00023  -0.00068   0.00179   0.00111   2.09594
   A26        1.95753   0.00054  -0.00140   0.00419   0.00279   1.96033
   A27        2.14242  -0.00118   0.00188  -0.00663  -0.00475   2.13767
   A28        2.18291   0.00064  -0.00045   0.00237   0.00192   2.18483
   A29        1.86790   0.00096  -0.00078   0.00369   0.00288   1.87078
   A30        2.07068   0.00034  -0.00070   0.00248   0.00179   2.07247
   A31        2.10950  -0.00017  -0.00006  -0.00050  -0.00056   2.10894
   A32        2.10300  -0.00018   0.00075  -0.00198  -0.00123   2.10178
   A33        2.10011  -0.00003   0.00100  -0.00238  -0.00138   2.09873
   A34        2.09206   0.00000  -0.00065   0.00139   0.00075   2.09280
   A35        2.09101   0.00002  -0.00035   0.00098   0.00063   2.09164
   A36        2.11928   0.00010  -0.00038   0.00062   0.00024   2.11952
   A37        2.08476  -0.00002   0.00054  -0.00079  -0.00025   2.08452
   A38        2.07906  -0.00008  -0.00015   0.00014  -0.00001   2.07905
   A39        2.03900   0.00053  -0.00112   0.00411   0.00299   2.04200
   A40        2.11011  -0.00054   0.00188  -0.00579  -0.00391   2.10619
   A41        2.13399   0.00001  -0.00075   0.00162   0.00087   2.13486
    D1        3.00122  -0.00699  -0.01199  -0.02913  -0.04131   2.95991
    D2        0.58451   0.00544   0.01503  -0.01063   0.00455   0.58907
    D3       -1.41173  -0.00048   0.00131  -0.02055  -0.01921  -1.43094
    D4        3.05855  -0.00050   0.00966  -0.04653  -0.03699   3.02156
    D5        1.02159  -0.00040   0.00668  -0.03954  -0.03299   0.98861
    D6       -1.02222  -0.00101   0.00685  -0.04655  -0.03984  -1.06206
    D7       -1.12351   0.00043   0.00508  -0.03885  -0.03364  -1.15715
    D8        3.12272   0.00054   0.00210  -0.03185  -0.02964   3.09308
    D9        1.07890  -0.00008   0.00227  -0.03887  -0.03649   1.04241
   D10        1.03162   0.00028   0.00895  -0.04172  -0.03274   0.99888
   D11       -1.00533   0.00039   0.00596  -0.03472  -0.02874  -1.03407
   D12       -3.04915  -0.00023   0.00614  -0.04173  -0.03560  -3.08475
   D13       -2.80292   0.00028  -0.00643   0.02041   0.01394  -2.78898
   D14        1.49432   0.00010  -0.00409   0.01509   0.01103   1.50535
   D15       -0.80703   0.00034  -0.00367   0.01632   0.01262  -0.79441
   D16       -2.79297   0.00016  -0.00133   0.01101   0.00971  -2.78327
   D17        1.32113  -0.00011  -0.00212   0.01110   0.00896   1.33009
   D18       -0.66482  -0.00029   0.00023   0.00578   0.00604  -0.65877
   D19       -1.55232   0.00023   0.00417  -0.00958  -0.00542  -1.55774
   D20        0.59591   0.00021   0.00391  -0.00865  -0.00475   0.59116
   D21        2.67082   0.00029   0.00425  -0.00971  -0.00546   2.66535
   D22        0.46677  -0.00023  -0.00104  -0.00285  -0.00388   0.46290
   D23        2.61501  -0.00024  -0.00131  -0.00191  -0.00321   2.61180
   D24       -1.59327  -0.00017  -0.00096  -0.00297  -0.00392  -1.59719
   D25        1.61460   0.00041  -0.00285   0.01239   0.00956   1.62415
   D26       -0.46806  -0.00023   0.00169   0.00169   0.00338  -0.46467
   D27       -0.31075   0.00008   0.00024   0.00207   0.00231  -0.30843
   D28        2.88487   0.00006   0.00026   0.00248   0.00274   2.88761
   D29       -2.39295   0.00000   0.00004   0.00114   0.00118  -2.39177
   D30        0.80267  -0.00002   0.00005   0.00155   0.00161   0.80428
   D31        1.72484   0.00015  -0.00018   0.00440   0.00422   1.72906
   D32       -1.36273   0.00013  -0.00017   0.00482   0.00465  -1.35808
   D33        0.02558  -0.00000   0.00091  -0.00084   0.00007   0.02565
   D34       -3.08983  -0.00001  -0.00010   0.00150   0.00140  -3.08844
   D35        3.12263   0.00005   0.00083  -0.00097  -0.00014   3.12249
   D36        0.00722   0.00005  -0.00018   0.00137   0.00119   0.00841
   D37        3.07973  -0.00007   0.00002  -0.00224  -0.00221   3.07752
   D38       -0.06041  -0.00004   0.00059  -0.00253  -0.00193  -0.06234
   D39       -0.00171  -0.00006  -0.00003  -0.00159  -0.00162  -0.00333
   D40        3.14133  -0.00003   0.00054  -0.00188  -0.00133   3.14000
   D41        0.28182  -0.00010  -0.00172  -0.00094  -0.00267   0.27915
   D42       -2.88668  -0.00013  -0.00065  -0.00351  -0.00416  -2.89084
   D43       -0.00532  -0.00001   0.00026  -0.00048  -0.00022  -0.00554
   D44       -3.13332   0.00006  -0.00124   0.00476   0.00352  -3.12980
   D45       -3.11729  -0.00001  -0.00088   0.00217   0.00129  -3.11600
   D46        0.03790   0.00006  -0.00238   0.00741   0.00503   0.04293
   D47       -0.00525   0.00004   0.00015   0.00096   0.00110  -0.00414
   D48        3.13254   0.00003   0.00067  -0.00057   0.00010   3.13264
   D49        3.13490   0.00000  -0.00043   0.00125   0.00082   3.13572
   D50       -0.01050  -0.00001   0.00010  -0.00028  -0.00018  -0.01068
   D51        0.00716   0.00000  -0.00006  -0.00009  -0.00015   0.00701
   D52        3.13484  -0.00002   0.00084  -0.00253  -0.00168   3.13315
   D53       -3.13063   0.00001  -0.00058   0.00144   0.00085  -3.12978
   D54       -0.00295  -0.00001   0.00032  -0.00100  -0.00068  -0.00363
   D55       -0.00187  -0.00001  -0.00014  -0.00015  -0.00029  -0.00216
   D56        3.12592  -0.00009   0.00139  -0.00553  -0.00414   3.12179
   D57       -3.12959   0.00001  -0.00104   0.00228   0.00124  -3.12836
   D58       -0.00180  -0.00006   0.00049  -0.00309  -0.00261  -0.00441
         Item               Value     Threshold  Converged?
 Maximum Force            0.006988     0.000450     NO 
 RMS     Force            0.001577     0.000300     NO 
[...]
 910,-0.00019493,0.00010628,-0.00135719,0.00141116,0.00049506,-0.000166
 03,-0.00068205,-0.00021117,0.00130634,-0.00376761,-0.00155754,-0.00496
 301,0.00051165,-0.00506598,0.00037705,0.00516448,-0.00042051,-0.001969
 57,0.00636427,0.00255348,-0.01209339,-0.06297136,0.00089485,0.04369021
 ,0.14194231,-0.00085973,-0.00003354,0.00029352,0.00015275,-0.00006479,
 -0.00005785,0.00060574,0.00022656,0.00001024,0.00020447,-0.00008485,-0
 .00011549,-0.00004573,0.00001130,0.00001751,0.00123446,0.00009555,-0.0
 0069204,-0.00107276,0.00104820,-0.00028574,0.00096712,0.00227144,0.001
 74907,0.03131389,-0.00401269,-0.05608163,-0.09480962,-0.00807106,-0.02
 466704,0.00647713,-0.00305034,0.00544906,0.03172528,0.00722991,0.06557
 975,0.06015822,-0.00363378,-0.18686921,0.02427728,0.04255140,0.6887915
 8,0.00112795,0.00034501,-0.00027060,-0.00015662,-0.00017962,0.00007699
 ,-0.00070638,-0.00044484,-0.00010615,-0.00026905,0.00002255,0.00009735
 ,0.00005418,-0.00001123,0.00002419,-0.00136716,0.00038961,0.00058991,0
 .00524140,-0.00048507,0.00357980,-0.00270005,-0.00220565,0.00085243,-0
 .04664338,0.00052057,0.02441956,-0.32152879,-0.03190370,-0.10461388,-0
 .00075199,0.00229723,-0.01946643,-0.02114335,-0.00386723,-0.02703817,0
 .04012224,0.00356536,0.02161937,-0.12916949,-0.00165053,0.03826392,0.7
 4752315,0.00003571,0.00017932,0.00023053,-0.00004095,-0.00011711,-0.00
 005714,-0.00008290,0.00000705,-0.00007947,-0.00001677,0.00001185,-0.00
 013655,-0.00000820,-0.00003232,0.00000115,0.00029599,0.00062898,0.0002
 7308,-0.00172799,0.00116258,-0.00173336,0.00018179,0.00376761,-0.00128
 639,-0.00448174,0.00649839,0.00656712,-0.02384137,-0.06622602,-0.01468
 735,-0.00297416,0.00531704,-0.00361991,-0.00458358,-0.00332217,-0.0056
 0321,0.00898582,0.00739091,-0.00219745,-0.00683201,-0.05907709,-0.0191
 3935,0.03935205,0.13061559,0.00030783,0.00055113,0.00084557,-0.0000071
 8,-0.00052346,-0.00022227,-0.00004045,-0.00029528,-0.00033563,-0.00018
 429,-0.00004875,-0.00030591,0.00001689,-0.00001476,0.00013130,-0.00201
 352,0.00123761,0.00089020,0.00285787,-0.00055877,-0.00372559,0.0042527
 0,-0.00197284,-0.00491658,-0.02319132,0.00370989,0.06475793,-0.0379012
 4,-0.01093164,-0.15520809,-0.04728374,-0.00418342,-0.02402086,-0.03468
 695,-0.00651622,-0.05057311,0.07856736,0.00215822,-0.03169807,-0.03261
 585,-0.02357728,-0.34512408,-0.04466867,0.04454040,0.70007270,-0.00793
 338,-0.00394182,-0.00171151,0.00144206,0.00141155,-0.00070987,0.000845
 50,0.00063406,0.00263520,0.00149856,0.00018025,-0.00061196,0.00001335,
 -0.00001395,-0.00024421,-0.27897932,-0.09399494,0.05635131,-0.00069718
 ,0.00127205,-0.00082500,-0.00032422,0.00194720,0.00161203,-0.00002136,
 0.00057440,-0.00066984,0.00049502,0.00016372,0.00155632,0.00141384,-0.
 00082971,0.00020669,0.00006232,0.00003926,0.00012479,-0.00008411,-0.00
 003456,-0.00012025,0.00008903,0.00000594,0.00003551,-0.00003190,-0.000
 12590,-0.00005436,0.29576238,0.00570194,0.00381685,-0.00000155,-0.0004
 4027,-0.00096971,-0.00022834,0.00136658,0.00041133,-0.00279967,-0.0003
 7527,-0.00062287,0.00002911,0.00002367,-0.00009847,0.00011208,-0.08299
 595,-0.08377434,0.02397665,-0.02853821,-0.01296442,0.00569320,-0.00306
 390,-0.00023018,-0.00008695,0.00045290,-0.00011322,-0.00046136,0.00035
 370,-0.00048978,0.00333045,-0.00288351,-0.00749731,-0.00208027,-0.0001
 1720,0.00008053,-0.00006462,0.00023710,0.00001289,-0.00025994,-0.00013
 968,0.00011764,0.00039385,-0.00038374,0.00003927,-0.00076799,0.0985416
 3,0.09651822,0.02723718,0.01114271,-0.00659612,-0.00356610,-0.00048732
 ,0.00155087,0.00459084,-0.00119473,-0.00805133,-0.00283865,-0.00104081
 ,0.00143552,0.00017227,-0.00026382,0.00046519,0.06066116,0.02934459,-0
 .05599723,-0.00317798,-0.00247761,-0.00055906,-0.00023287,-0.00149979,
 0.00017003,-0.00021125,0.00010065,0.00022264,-0.00021810,-0.00014802,0
 .00091525,-0.00187830,-0.00316171,-0.00102393,0.00004876,-0.00010485,-
 0.00009111,0.00008290,0.00004083,-0.00002823,-0.00006287,-0.00003564,0
 .00010027,-0.00000343,0.00018567,-0.00018675,-0.06417480,-0.02121595,0
 .06243939,0.00165317,-0.00016966,0.00328020,-0.00017190,-0.00116918,0.
 00011370,0.00011632,0.00011178,-0.00018215,0.00202913,-0.00016259,0.00
 143531,0.00013015,-0.00010083,-0.00018880,-0.18412278,0.07242638,-0.10
 974820,-0.00161737,0.00089026,-0.00246519,0.00001224,-0.00005418,-0.00
 015563,-0.00032583,-0.00025247,0.00017900,0.00088056,-0.00025650,-0.00
 137895,0.00211887,-0.00149634,0.00361996,0.00012716,-0.00001556,0.0003
 5333,-0.00017835,-0.00001741,0.00013575,0.00013138,-0.00000687,-0.0002
 3327,0.00027678,0.00004880,0.00044322,-0.01499307,0.01101181,-0.016747
 19,0.19390474,-0.00477886,0.00382959,-0.00136853,0.00024028,-0.0005758
 6,0.00024704,0.00056105,-0.00036872,0.00031137,-0.00077684,0.00029764,
 -0.00301508,0.00006153,-0.00014206,-0.00013520,0.06816352,-0.08431492,
 0.05732012,0.02437737,-0.02981689,0.01847429,-0.00086791,0.00014304,0.
 00331784,0.00015338,-0.00028134,-0.00032959,-0.00054498,-0.00071994,-0
 .00080102,0.00209456,0.00463587,-0.00061792,-0.00023651,0.00010663,-0.
 00011945,0.00004254,-0.00004723,-0.00004167,-0.00014802,0.00001110,-0.
 00001265,-0.00012514,-0.00010780,-0.00038592,-0.00729126,0.00598055,-0
 .00759714,-0.08153043,0.10145439,-0.02330382,0.01267002,-0.01123859,0.
 00262329,-0.00227750,0.00280132,0.00385381,-0.00068012,0.00264987,-0.0
 0153505,-0.00063263,-0.00778069,-0.00017720,-0.00027608,-0.00026121,-0
 .11417215,0.05998439,-0.13744480,0.00465794,-0.00000730,0.00380461,-0.
 00025366,0.00016395,0.00034732,-0.00000246,-0.00074239,-0.00019411,-0.
 00009571,0.00007053,0.00092412,0.00012641,-0.00031048,0.00017162,0.000
 11980,0.00011909,0.00027224,-0.00016598,-0.00001283,-0.00008091,0.0000
 3701,-0.00006743,-0.00005663,0.00010472,0.00014537,-0.00007879,0.00659
 458,-0.00450457,0.00584099,0.12140886,-0.06388960,0.14058744,0.0000509
 8,0.00017883,0.00106847,0.00000386,-0.00008758,-0.00012578,0.00049252,
 0.00020114,-0.00039999,-0.00013621,0.00007274,-0.00023073,-0.00000318,
 0.00000036,-0.00002405,-0.00036883,-0.00252699,-0.00195035,-0.01263309
 ,-0.00794007,0.00209513,-0.19259859,-0.12878824,0.04363034,-0.01391531
 ,-0.01077840,0.00332151,-0.00170798,-0.00030667,0.00032601,-0.00321297
 ,-0.00116016,0.00155347,0.00098180,0.00051234,0.00140726,-0.00084113,0
 .00061222,-0.00039987,0.00039406,-0.00000837,-0.00021395,-0.00065055,0
 .00043401,0.00048002,0.00102867,0.00085206,0.00023904,-0.00002487,0.00
 027148,0.00000363,0.21232176,0.00009473,0.00013333,-0.00035162,-0.0000
 1167,0.00003108,0.00017311,-0.00004324,-0.00008002,0.00002262,0.000210
 58,-0.00016873,0.00015826,-0.00002448,-0.00000265,0.00002599,0.0016881
 5,-0.00063407,-0.00261690,0.00758143,0.00658495,-0.00109519,-0.1374758
 9,-0.16888114,0.03949019,0.00232780,0.00152248,-0.00109590,-0.00035251
 ,-0.00028144,-0.00108175,0.00460048,-0.00023110,-0.00133927,-0.0000154
 1,0.00059643,0.00048277,-0.00064777,-0.00008150,-0.00011932,0.00030293
 ,-0.00001951,-0.00062088,0.00047006,0.00013816,0.00052734,0.00123320,-
 0.00063071,-0.00166780,0.00035964,0.00019658,0.00019671,0.14143940,0.1
 8049620,0.00021213,0.00009324,-0.00036274,-0.00004510,0.00010973,0.000
 05949,-0.00038487,-0.00023397,0.00015552,-0.00018537,0.00005337,0.0001
 2695,0.00000652,-0.00001105,0.00002227,0.00194780,0.00187622,0.0015285
 3,0.02094418,0.01583219,-0.00476486,0.03786415,0.03254003,-0.05943468,
 -0.01796696,-0.01662613,0.00880346,-0.00403747,-0.00052503,-0.00622624
 ,0.00392200,-0.00089543,-0.00342648,0.00094285,0.00074053,0.00152560,-
 0.00061308,0.00051293,0.00022772,0.00011193,-0.00016326,-0.00066192,-0
 .00011779,0.00107114,0.00144279,0.00010049,-0.00117826,-0.00039884,-0.
 00004165,-0.00039529,-0.00007687,-0.04728076,-0.03686438,0.06212010,-0
 .00004976,-0.00012480,-0.00015940,0.00001277,0.00012069,0.00003312,0.0
 0000757,0.00004413,0.00006183,0.00004135,0.00001738,0.00007607,-0.0000
 0163,0.00000229,-0.00002201,0.00002124,-0.00012915,0.00000141,-0.00003
 058,-0.00002552,0.00019274,0.00032032,0.00051924,0.00004623,0.00441203
 ,-0.00012161,-0.00057807,0.00149925,-0.00064771,-0.00125183,0.00019672
 ,0.00015916,0.00008647,-0.26382639,-0.00585892,0.12501446,-0.01748078,
 -0.00004721,0.01743801,-0.00327570,-0.00097948,-0.00421567,0.00030951,
 0.00005982,-0.00061827,0.00001370,0.00001210,0.00000973,-0.00003295,0.
 00000560,0.00001356,0.00010505,-0.00013729,0.00054569,0.27785548,0.000
 04465,0.00004540,-0.00007867,-0.00001189,-0.00004807,0.00002472,-0.000
 03238,-0.00003243,0.00000889,0.00001286,-0.00002870,0.00002884,-0.0000
 0336,0.00000075,0.00000565,-0.00003478,0.00015603,0.00003212,-0.000475
 50,-0.00001352,-0.00013047,0.00062405,-0.00384778,0.00017409,0.0024796
 0,0.00385209,-0.00182774,-0.00100521,0.00845025,-0.00115254,0.00042758
 ,-0.00045714,0.00000193,-0.00557312,-0.03784146,0.00160791,-0.00294519
 ,0.00307761,0.00175005,-0.00072527,0.00675118,-0.00109041,0.00014202,-
 0.00078456,0.00015082,-0.00000458,-0.00000810,-0.00001777,0.00005801,0
 .00000261,0.00002412,-0.00061009,-0.00014385,-0.00037942,0.00670836,0.
 02577982,0.00014967,0.00010939,0.00004889,-0.00003185,-0.00006303,-0.0
 0000534,-0.00008692,-0.00008195,-0.00004768,-0.00006441,0.,-0.00004001
 ,0.00000942,-0.00000576,0.00001049,-0.00008114,0.00005663,0.00011018,0
 .00041078,0.00021206,0.00020294,0.00029268,0.00046122,0.00192662,0.028
 44456,0.00073805,-0.01106805,-0.00181013,-0.00094176,-0.00450341,0.001
 30099,-0.00015129,-0.00157333,0.12641731,0.00080298,-0.13762786,-0.012
 94439,-0.00020271,0.01211976,-0.00314640,-0.00075448,-0.00049739,-0.00
 073406,-0.00007920,-0.00110933,-0.00003355,-0.00005694,-0.00002738,0.0
 0001355,0.00001853,-0.00001378,-0.00044977,-0.00022606,-0.00039434,-0.
 13742431,-0.00034632,0.14166295,-0.00007184,0.00004105,0.00015276,0.00
 001220,-0.00007092,-0.00003604,0.00007979,0.00001071,-0.00003841,0.000
 00068,-0.00000979,-0.00005237,-0.00000373,0.00000042,0.00001480,0.0000
 3625,0.00012307,-0.00007767,-0.00031171,-0.00005075,-0.00052659,0.0008
 6247,-0.00017418,-0.00060988,-0.00503997,-0.00077830,-0.00227404,-0.00
 181065,-0.00006948,-0.00012990,0.00043254,-0.00001951,0.00016538,0.003
 88313,-0.00192554,-0.02864854,-0.05893297,-0.00269540,-0.00877618,0.00
 535275,0.00223963,0.02799176,-0.00438515,-0.00061641,0.00217846,0.0000
 0408,0.00000868,0.00001095,0.00000061,-0.00002274,0.00000379,-0.000008
 89,-0.00002837,0.00001024,0.00095100,0.00038960,0.00060848,0.05801454,
 -0.00002946,0.00007693,0.00003161,0.00000657,-0.00005792,0.00000747,0.
 00002078,-0.00001954,-0.00000437,0.00000622,-0.00001286,-0.00000599,-0
 .00000158,-0.00000089,0.00000227,-0.00010184,-0.00001307,0.00005470,0.
 00016183,-0.00041017,0.00002534,0.00014768,0.00083438,0.00007230,-0.00
 115774,0.00619312,-0.00056494,-0.00012444,-0.00078154,-0.00010427,0.00
 037515,-0.00011139,0.00009710,0.00000060,0.00138861,-0.00308558,-0.002
 44272,-0.03380373,-0.02249589,-0.00007418,0.00165747,0.00109204,-0.000
 50228,0.00638748,-0.00049205,-0.00000398,-0.00003574,0.00001538,0.0000
 0213,-0.00001534,-0.00000437,0.00000125,-0.00003882,0.00007825,0.00031
 464,-0.00384692,0.00040292,0.00319004,0.02625865,0.00002411,0.00017064
 ,0.00029356,-0.00000644,-0.00016878,-0.00006500,0.00003109,-0.00004340
 ,-0.00010350,-0.00005421,-0.00001908,-0.00012629,0.00000080,-0.0000029
 5,0.00003136,0.00000164,0.00014177,-0.00005258,-0.00020564,0.00002465,
 -0.00037911,0.00059969,-0.00012923,-0.00001301,-0.00309592,-0.00052574
 ,0.00054619,0.00016456,0.00015563,0.00070563,-0.00000283,-0.00008834,0
 .00010259,0.00235110,-0.00070010,-0.01031297,-0.00861945,-0.02258816,-
 0.34312811,-0.00347116,-0.00124615,-0.01234839,0.00332762,-0.00016376,
 0.00047468,-0.00000311,-0.00000666,0.00000224,0.00001279,-0.00001075,-
 0.00001184,-0.00003581,-0.00001558,-0.00001976,-0.00036641,0.00028978,
 0.00065400,0.00932497,0.02464781,0.36380376,-0.00000614,0.00012635,0.0
 0021103,0.00000494,-0.00011339,-0.00004692,0.00004169,-0.00003243,-0.0
 0007880,-0.00002952,-0.00001529,-0.00009151,-0.00000040,-0.00000092,0.
 00002282,-0.00002036,0.00008845,-0.00001668,0.00009373,0.00002083,-0.0
 0007716,0.00008798,-0.00004720,-0.00000999,0.00031345,0.00020105,0.000
 90320,0.00180535,-0.00031530,0.00095440,-0.00004884,-0.00002008,-0.000
 25764,-0.00316253,-0.00034393,0.00414760,-0.01806380,-0.00259006,-0.01
 568822,-0.27663034,-0.02493394,-0.11836870,0.00323911,0.00007709,0.001
 57600,-0.00000213,-0.00001257,0.00000168,0.00000496,-0.00000255,-0.000
 00480,0.00000059,0.00001301,0.00002952,-0.00111800,-0.00015667,-0.0007
 5834,0.00083252,0.00035077,0.00033136,0.29209138,-0.00003700,0.0000555
 5,0.00001807,0.00001430,-0.00004325,0.00000461,0.00002313,-0.00002033,
 -0.00000029,0.00001314,-0.00001135,0.00000321,-0.00000142,-0.00000005,
 -0.00000112,-0.00000481,-0.00005931,0.00000294,0.00022499,-0.00017324,
 0.00022071,0.00012400,-0.00040446,0.00010865,0.00001052,-0.00080742,-0
 .00004886,-0.00013270,0.00723156,-0.00087717,-0.00020250,0.00015658,-0
 .00019723,-0.00035370,0.00663759,-0.00003708,-0.00080613,0.00301908,-0
 .00034868,-0.02468968,-0.03931507,-0.01429466,-0.00216766,0.00315326,-
 0.00127604,0.00001561,-0.00001574,-0.00001440,0.00001109,-0.00000438,-
 0.00003976,-0.00009732,-0.00000495,-0.00001581,-0.00007918,0.00019167,
 -0.00005895,0.00033562,-0.00413435,0.00036945,0.02741197,0.02868133,-0
 .00006227,0.00014321,0.00026343,0.00001751,-0.00013675,-0.00006034,0.0
 0008212,-0.00003371,-0.00009641,-0.00002135,-0.00002559,-0.00011332,-0
 .00000370,-0.00000034,0.00003106,-0.00003945,0.00017364,0.00000049,-0.
 00009854,0.00012266,-0.00036794,0.00003132,-0.00007188,0.00000782,0.00
 073054,-0.00000779,-0.00105820,0.00132579,-0.00078940,-0.00564827,-0.0
 0182838,-0.00052259,-0.00003814,0.00324268,-0.00028149,-0.00109100,0.0
 1537957,0.00173672,0.01192558,-0.11841004,-0.01436200,-0.12414938,-0.0
 2866121,-0.00272915,-0.00988623,-0.00000858,-0.00003480,-0.00001780,0.
 00002097,-0.00001712,-0.00001825,-0.00004844,-0.00000736,-0.00001264,0
 .00086154,0.00006901,0.00043983,-0.00055724,0.00028959,0.00072239,0.12
 766397,0.01597918,0.12811044,-0.00035301,-0.00006772,0.00015875,0.0000
 6944,-0.00000187,-0.00003923,0.00028636,0.00010968,0.00000085,0.000094
 88,-0.00001848,-0.00003233,-0.00001772,0.00000863,0.00000982,0.0000275
 7,0.00012373,-0.00011653,-0.00047680,-0.00021027,-0.00030559,-0.000830
 12,-0.00004754,0.00115760,-0.00307393,-0.00084356,-0.00333077,-0.01847
 898,0.00007196,0.01768872,0.00207311,0.00052915,0.00113269,-0.00022190
 ,-0.00008180,-0.00144126,0.00199613,-0.00037838,-0.00100879,0.00578663
 ,0.00001622,-0.00216664,-0.26913544,-0.00378212,0.13148388,0.00004639,
 0.00001292,0.00001016,-0.00002194,-0.00003351,0.00004808,-0.00015424,0
 .00003213,-0.00030485,-0.00003030,0.00010171,0.00013212,0.00018996,-0.
 00000672,-0.00022920,0.00057749,0.00032523,0.00042400,0.28176706,-0.00
 024307,0.00002773,-0.00010690,0.00006710,-0.00002816,0.00003482,0.0001
 7693,-0.00003328,0.00007392,0.00011671,-0.00005189,0.00006928,-0.00000
 958,0.00000808,0.00000156,-0.00025143,0.00024094,-0.00011423,0.0006364
 9,-0.00037675,-0.00026706,-0.00019420,-0.00055811,0.00049628,-0.001259
 32,0.00642674,-0.00097225,-0.00255484,0.00516738,0.00279710,0.00014103
 ,-0.00359921,0.00024520,-0.00007557,-0.00058240,-0.00035183,-0.0002882
 9,0.00704838,-0.00095698,0.00235538,0.00205876,-0.00086826,-0.00336941
 ,-0.03543374,-0.00155018,0.00000664,-0.00003357,0.00001460,0.00002068,
 -0.00002669,0.00011145,-0.00008854,-0.00002040,-0.00017267,0.00008213,
 -0.00117956,0.00011682,0.00008792,0.00048153,-0.00009790,0.00028537,-0
 .00412084,0.00047757,0.00418634,0.02456780,-0.00021304,-0.00013142,0.0
 0005356,0.00003331,0.00007450,-0.00001655,0.00017396,0.00011539,0.0000
 1284,0.00006323,0.00000900,0.00000713,-0.00001208,0.00000765,-0.000006
 53,0.00007248,-0.00003454,-0.00002313,0.00007218,-0.00015901,-0.000049
 55,-0.00077256,0.00003427,0.00052393,-0.00269539,-0.00078893,-0.001227
 66,-0.01278102,-0.00026066,0.01261446,0.00154169,0.00069206,0.00111104
 ,-0.00072914,-0.00007014,-0.00058454,-0.00184684,-0.00110483,-0.004970
 23,0.02713408,0.00076748,-0.00967946,0.13226143,-0.00070278,-0.1418185
 8,0.00000848,0.00002667,0.00000239,-0.00000716,0.00000574,0.00001476,-
 0.00014631,0.00001534,-0.00016462,0.00009245,0.00012230,0.00010549,0.0
 0133642,0.00001244,-0.00067078,-0.00043667,0.00043349,0.00106588,-0.14
 310553,0.00094881,0.14374821,0.00019930,0.00032194,-0.00079600,-0.0000
 0759,0.00024588,0.00032672,-0.00006350,-0.00010681,0.00004802,0.000067
 61,-0.00001675,0.00017374,0.00000974,-0.00000109,-0.00002591,-0.001299
 30,-0.00073137,0.00038699,-0.00412100,0.01755106,0.00607771,-0.0879934
 5,0.08664327,-0.01799852,-0.01131501,0.01920596,-0.01054875,-0.0018686
 2,-0.00027457,-0.00293084,-0.00001920,-0.00154219,0.00020883,0.0001803
 0,0.00042198,0.00208023,-0.00181990,-0.00111337,-0.00024860,0.00057682
 ,-0.00010650,-0.00142149,0.00074495,-0.00035701,0.00110161,0.00035174,
 0.00037521,0.00004686,0.00010300,0.00038745,0.00011533,0.01087657,-0.0
 2161691,0.00434041,0.00010009,0.00058963,-0.00021431,-0.00008761,-0.00
 013272,-0.00007957,-0.00001113,0.00006251,-0.00004082,-0.00012062,0.00
 017149,-0.00004397,0.09551680,0.00022487,0.00005516,0.00222349,-0.0000
 4818,-0.00056811,-0.00052336,0.00034849,0.00008285,-0.00057524,-0.0004
 6626,0.00016679,-0.00054181,0.00007845,-0.00003404,0.00002864,0.001794
 98,0.00105391,-0.00228364,0.00282001,-0.00934377,-0.00690075,0.0847550
 9,-0.25988326,0.04528849,-0.00027968,0.00612110,0.00226249,-0.00043066
 ,-0.00010561,-0.00083615,0.00224548,-0.00030254,0.00088509,0.00014520,
 0.00005346,-0.00085756,0.00062090,-0.00010201,0.00050353,-0.00045024,-
 0.00003376,0.00005700,0.00019166,-0.00019668,0.00021919,0.00021519,0.0
 0050690,0.00008292,0.00029144,-0.00023682,-0.00004059,0.00781660,-0.01
 848031,0.00455307,0.00010534,-0.00007532,0.00004985,0.00003467,0.00000
 411,0.00000685,0.00000945,-0.00001188,0.00002838,-0.00004571,0.0000172
 3,-0.00001283,-0.09997709,0.28131261,-0.00003296,-0.00055336,0.0022481
 6,-0.00002156,-0.00063440,-0.00073216,0.00035635,0.00028962,-0.0003625
 8,-0.00036629,0.00024095,-0.00043933,0.00004173,-0.00000529,-0.0000317
 9,0.00423905,-0.00120378,-0.00271691,0.01060786,-0.03270788,-0.0034095
 8,-0.02026295,0.05277985,-0.05348115,-0.01221429,0.02076919,-0.0053849
 2,0.00002713,-0.00009936,-0.00427668,0.00197434,0.00109415,0.00328902,
 -0.00067141,-0.00050729,0.00091035,-0.00051686,-0.00117798,0.00024550,
 -0.00023904,0.00009260,-0.00070475,0.00046311,-0.00079942,0.00059469,-
 0.00005836,0.00018584,-0.00016701,0.00013154,-0.00095801,-0.00015782,-
 0.00281908,0.00600968,-0.00006846,0.00016266,0.00073311,-0.00037326,-0
 .00007115,-0.00007177,-0.00010508,-0.00000616,0.00006975,-0.00000899,-
 0.00016596,0.00007085,-0.00004805,0.01944232,-0.04361707,0.06518078\\-
 0.00001041,0.00001619,0.00000157,-0.00000092,-0.00001764,0.00000062,0.
 00001089,0.00000331,-0.00000456,0.00000135,-0.00000111,-0.00000111,0.0
 0000346,0.00000061,0.00000243,0.00000247,-0.00000618,-0.00001396,-0.00
 001729,-0.00000293,-0.00000240,0.00000077,0.00001517,0.00001653,0.0000
 1264,-0.00000992,-0.00002104,-0.00001353,-0.00000198,0.00000103,0.0000
 2643,0.00000943,0.00001121,-0.00000493,0.00000412,0.00000525,-0.000001
 81,-0.00000036,0.00000033,-0.00000209,-0.00000013,0.00000220,0.0000014
 7,-0.00000167,-0.00000351,-0.00000158,-0.00000194,-0.00000142,-0.00000
 203,0.00000321,0.00000332,0.00000039,-0.00000332,-0.00000057,-0.000001
 61,-0.00000040,-0.00000104,-0.00000169,-0.00000122,0.00000137,-0.00000
 007,-0.00000223,0.00000124,-0.00000015,-0.00000038,0.00000446,-0.00000
 175,-0.00000062,-0.00000194\\\@
 The archive entry for this job was punched.


 NEVER TEACH A PIG TO SING.
 IT WASTES YOUR TIME AND ANNOYS THE PIG.
     -- SEEN ON A GREETING CARD
 Job cpu time:       0 days  1 hours 28 minutes 56.2 seconds.
 Elapsed time:       0 days  0 hours  5 minutes 43.4 seconds.
 File lengths (MBytes):  RWF=    219 Int=      0 D2E=      0 Chk=      8 Scr=      1
 Normal termination of Gaussian 16 at Sat Jul  2 11:44:49 2022.
