 Entering Gaussian System, Link 0=g16
 AtFile(1): /home/561/yj5695/Basis/6-31pGd.gbs
 Initial command:
 /apps/gaussian/g16c01/g16/l1.exe "/jobfs/40763172.gadi-pbs/Gau-404800.inp" -scrdir="/jobfs/40763172.gadi-pbs/"
 Entering Link 1 = /apps/gaussian/g16c01/g16/l1.exe PID=    404801.
  
 Copyright (c) 1988-2019, Gaussian, Inc.  All Rights Reserved.
  
 This is part of the Gaussian(R) 16 program.  It is based on
 the Gaussian(R) 09 system (copyright 2009, Gaussian, Inc.),
 the Gaussian(R) 03 system (copyright 2003, Gaussian, Inc.),
 the Gaussian(R) 98 system (copyright 1998, Gaussian, Inc.),
 the Gaussian(R) 94 system (copyright 1995, Gaussian, Inc.),
 the Gaussian 92(TM) system (copyright 1992, Gaussian, Inc.),
 the Gaussian 90(TM) system (copyright 1990, Gaussian, Inc.),
 the Gaussian 88(TM) system (copyright 1988, Gaussian, Inc.),
 the Gaussian 86(TM) system (copyright 1986, Carnegie Mellon
 University), and the Gaussian 82(TM) system (copyright 1983,
 Carnegie Mellon University). Gaussian is a federally registered
 trademark of Gaussian, Inc.
  
 This software contains proprietary and confidential information,
 including trade secrets, belonging to Gaussian, Inc.
  
 This software is provided under written license and may be
 used, copied, transmitted, or stored only in accord with that
 written license.
  
 The following legend is applicable only to US Government
 contracts under FAR:
  
                    RESTRICTED RIGHTS LEGEND
  
 Use, reproduction and disclosure by the US Government is
 subject to restrictions as set forth in subparagraphs (a)
 and (c) of the Commercial Computer Software - Restricted
 Rights clause in FAR 52.227-19.
  
 Gaussian, Inc.
 340 Quinnipiac St., Bldg. 40, Wallingford CT 06492
  
  
 ---------------------------------------------------------------
 Warning -- This program may not be used in any manner that
 competes with the business of Gaussian, Inc. or will provide
 assistance to any competitor of Gaussian, Inc.  The licensee
 of this program is prohibited from giving any competitor of
 Gaussian, Inc. access to this program.  By using this program,
 the user acknowledges that Gaussian, Inc. is engaged in the
 business of creating and licensing software in the field of
 computational chemistry and represents and warrants to the
 licensee that it is not a competitor of Gaussian, Inc. and that
 it will not use this program in any manner prohibited above.
 ---------------------------------------------------------------
  

 Cite this work as:
 Gaussian 16, Revision C.01,
 M. J. Frisch, G. W. Trucks, H. B. Schlegel, G. E. Scuseria, 
 M. A. Robb, J. R. Cheeseman, G. Scalmani, V. Barone, 
 G. A. Petersson, H. Nakatsuji, X. Li, M. Caricato, A. V. Marenich, 
 J. Bloino, B. G. Janesko, R. Gomperts, B. Mennucci, H. P. Hratchian, 
 J. V. Ortiz, A. F. Izmaylov, J. L. Sonnenberg, D. Williams-Young, 
 F. Ding, F. Lipparini, F. Egidi, J. Goings, B. Peng, A. Petrone, 
 T. Henderson, D. Ranasinghe, V. G. Zakrzewski, J. Gao, N. Rega, 
 G. Zheng, W. Liang, M. Hada, M. Ehara, K. Toyota, R. Fukuda, 
 J. Hasegawa, M. Ishida, T. Nakajima, Y. Honda, O. Kitao, H. Nakai, 
 T. Vreven, K. Throssell, J. A. Montgomery, Jr., J. E. Peralta, 
 F. Ogliaro, M. J. Bearpark, J. J. Heyd, E. N. Brothers, K. N. Kudin, 
 V. N. Staroverov, T. A. Keith, R. Kobayashi, J. Normand, 
 K. Raghavachari, A. P. Rendell, J. C. Burant, S. S. Iyengar, 
 J. Tomasi, M. Cossi, J. M. Millam, M. Klene, C. Adamo, R. Cammi, 
 J. W. Ochterski, R. L. Martin, K. Morokuma, O. Farkas, 
 J. B. Foresman, and D. J. Fox, Gaussian, Inc., Wallingford CT, 2019.
 
 ******************************************
 Gaussian 16:  ES64L-G16RevC.01  3-Jul-2019
                20-May-2022 
 ******************************************
 %nproc=16
 Will use up to   16 processors via shared memory.
 %mem=20gb
 --------------------------------------------------
 #M062X/gen 6D INT(grid=ultrafine) OPT Freq=noraman
 --------------------------------------------------
 1/18=20,19=15,26=4,38=1/1,3;
 2/9=110,12=2,17=6,18=5,40=1/2;
 3/5=7,8=2,11=2,25=1,30=1,71=1,74=-55,75=-5/1,2,3;
 4//1;
 5/5=2,38=5/2;
 6/7=2,8=2,9=2,10=2,28=1/1;
 7//1,2,3,16;
 1/18=20,19=15,26=4/3(2);
 2/9=110/2;
 99//99;
 2/9=110/2;
 3/5=7,6=1,8=2,11=2,25=1,30=1,71=1,74=-55,75=-5,82=7/1,2,3;
 4/5=5,16=3,69=1/1;
 5/5=2,38=5/2;
 7//1,2,3,16;
 1/18=20,19=15,26=4/3(-5);
 2/9=110/2;
 6/7=2,8=2,9=2,10=2,19=2,28=1/1;
 99/9=1/99;
 ---------------
 A.4.a2b2c2.freq
 ---------------
 Symbolic Z-matrix:
 Charge = -1 Multiplicity = 1
 C                    -1.36642   0.71308  -0.90116 
 C                    -2.54915   0.95698  -1.59518 
 H                    -3.48068   1.0745   -1.04907 
 C                    -2.53895   1.05216  -2.98339 
 H                    -3.46177   1.24744  -3.52377 
 C                    -1.34257   0.89624  -3.69926 
 N                    -1.31714   1.05031  -5.08053 
 C                    -0.15489   0.64589  -2.98823 
 H                     0.77687   0.52536  -3.53516 
 C                    -0.1685    0.55468  -1.60365 
 H                     0.75777   0.36183  -1.06883 
 S                    -1.37736   0.53833   0.8835 
 O                    -1.20778  -0.92363   1.14279 
 O                    -0.18907   1.3383    1.32781 
 N                    -2.74913   1.00094   1.46904 
 H                    -2.80532   2.01944   1.38693 
 H                    -2.20289   0.86767  -5.5414 
 H                    -0.54919   0.57532  -5.54406 
 

 GradGradGradGradGradGradGradGradGradGradGradGradGradGradGradGradGradGrad
 Berny optimization.
 Initialization pass.
                           ----------------------------
                           !    Initial Parameters    !
                           ! (Angstroms and Degrees)  !
 --------------------------                            --------------------------
 ! Name  Definition              Value          Derivative Info.                !
 --------------------------------------------------------------------------------
 ! R1    R(1,2)                  1.3928         estimate D2E/DX2                !
 ! R2    R(1,10)                 1.3977         estimate D2E/DX2                !
 ! R3    R(1,12)                 1.7932         estimate D2E/DX2                !
 ! R4    R(2,3)                  1.0862         estimate D2E/DX2                !
 ! R5    R(2,4)                  1.3915         estimate D2E/DX2                !
 ! R6    R(4,5)                  1.0871         estimate D2E/DX2                !
 ! R7    R(4,6)                  1.4029         estimate D2E/DX2                !
 ! R8    R(6,7)                  1.3901         estimate D2E/DX2                !
 ! R9    R(6,8)                  1.4067         estimate D2E/DX2                !
 ! R10   R(7,17)                 1.015          estimate D2E/DX2                !
 ! R11   R(7,18)                 1.015          estimate D2E/DX2                !
 ! R12   R(8,9)                  1.0871         estimate D2E/DX2                !
 ! R13   R(8,10)                 1.3876         estimate D2E/DX2                !
 ! R14   R(10,11)                1.0868         estimate D2E/DX2                !
 ! R15   R(12,13)                1.4944         estimate D2E/DX2                !
 ! R16   R(12,14)                1.4998         estimate D2E/DX2                !
 ! R17   R(12,15)                1.5616         estimate D2E/DX2                !
 ! R18   R(15,16)                1.0233         estimate D2E/DX2                !
 ! A1    A(2,1,10)             119.8139         estimate D2E/DX2                !
 ! A2    A(2,1,12)             120.5156         estimate D2E/DX2                !
 ! A3    A(10,1,12)            119.6295         estimate D2E/DX2                !
 ! A4    A(1,2,3)              119.7803         estimate D2E/DX2                !
 ! A5    A(1,2,4)              120.1886         estimate D2E/DX2                !
 ! A6    A(3,2,4)              120.031          estimate D2E/DX2                !
 ! A7    A(2,4,5)              120.1316         estimate D2E/DX2                !
 ! A8    A(2,4,6)              120.5123         estimate D2E/DX2                !
 ! A9    A(5,4,6)              119.3561         estimate D2E/DX2                !
 ! A10   A(4,6,7)              120.6866         estimate D2E/DX2                !
 ! A11   A(4,6,8)              118.8075         estimate D2E/DX2                !
 ! A12   A(7,6,8)              120.433          estimate D2E/DX2                !
 ! A13   A(6,7,17)             114.5354         estimate D2E/DX2                !
 ! A14   A(6,7,18)             114.568          estimate D2E/DX2                !
 ! A15   A(17,7,18)            111.6337         estimate D2E/DX2                !
 ! A16   A(6,8,9)              119.2796         estimate D2E/DX2                !
 ! A17   A(6,8,10)             120.5139         estimate D2E/DX2                !
 ! A18   A(9,8,10)             120.2064         estimate D2E/DX2                !
 ! A19   A(1,10,8)             120.1625         estimate D2E/DX2                !
 ! A20   A(1,10,11)            120.2136         estimate D2E/DX2                !
 ! A21   A(8,10,11)            119.6237         estimate D2E/DX2                !
 ! A22   A(1,12,13)            105.5048         estimate D2E/DX2                !
 ! A23   A(1,12,14)            103.7697         estimate D2E/DX2                !
 ! A24   A(1,12,15)            110.4666         estimate D2E/DX2                !
 ! A25   A(13,12,14)           112.3641         estimate D2E/DX2                !
 ! A26   A(13,12,15)           108.931          estimate D2E/DX2                !
 ! A27   A(14,12,15)           115.27           estimate D2E/DX2                !
 ! A28   A(12,15,16)           108.24           estimate D2E/DX2                !
 ! D1    D(10,1,2,3)           179.6618         estimate D2E/DX2                !
 ! D2    D(10,1,2,4)            -0.4385         estimate D2E/DX2                !
 ! D3    D(12,1,2,3)             2.0            estimate D2E/DX2                !
 ! D4    D(12,1,2,4)          -178.1002         estimate D2E/DX2                !
 ! D5    D(2,1,10,8)             0.2906         estimate D2E/DX2                !
 ! D6    D(2,1,10,11)         -179.8568         estimate D2E/DX2                !
 ! D7    D(12,1,10,8)          177.9732         estimate D2E/DX2                !
 ! D8    D(12,1,10,11)          -2.1742         estimate D2E/DX2                !
 ! D9    D(2,1,12,13)          105.2519         estimate D2E/DX2                !
 ! D10   D(2,1,12,14)         -136.4195         estimate D2E/DX2                !
 ! D11   D(2,1,12,15)          -12.3227         estimate D2E/DX2                !
 ! D12   D(10,1,12,13)         -72.4141         estimate D2E/DX2                !
 ! D13   D(10,1,12,14)          45.9145         estimate D2E/DX2                !
 ! D14   D(10,1,12,15)         170.0113         estimate D2E/DX2                !
 ! D15   D(1,2,4,5)           -179.6966         estimate D2E/DX2                !
 ! D16   D(1,2,4,6)              0.3796         estimate D2E/DX2                !
 ! D17   D(3,2,4,5)              0.203          estimate D2E/DX2                !
 ! D18   D(3,2,4,6)           -179.7209         estimate D2E/DX2                !
 ! D19   D(2,4,6,7)           -177.0776         estimate D2E/DX2                !
 ! D20   D(2,4,6,8)             -0.169          estimate D2E/DX2                !
 ! D21   D(5,4,6,7)              2.998          estimate D2E/DX2                !
 ! D22   D(5,4,6,8)            179.9066         estimate D2E/DX2                !
 ! D23   D(4,6,7,17)           -25.7885         estimate D2E/DX2                !
 ! D24   D(4,6,7,18)          -156.6543         estimate D2E/DX2                !
 ! D25   D(8,6,7,17)           157.3531         estimate D2E/DX2                !
 ! D26   D(8,6,7,18)            26.4874         estimate D2E/DX2                !
 ! D27   D(4,6,8,9)           -179.9041         estimate D2E/DX2                !
 ! D28   D(4,6,8,10)             0.021          estimate D2E/DX2                !
 ! D29   D(7,6,8,9)             -2.9874         estimate D2E/DX2                !
 ! D30   D(7,6,8,10)           176.9377         estimate D2E/DX2                !
 ! D31   D(6,8,10,1)            -0.0826         estimate D2E/DX2                !
 ! D32   D(6,8,10,11)         -179.9361         estimate D2E/DX2                !
 ! D33   D(9,8,10,1)           179.8417         estimate D2E/DX2                !
 ! D34   D(9,8,10,11)           -0.0117         estimate D2E/DX2                !
 ! D35   D(1,12,15,16)         -71.2548         estimate D2E/DX2                !
 ! D36   D(13,12,15,16)        173.2995         estimate D2E/DX2                !
 ! D37   D(14,12,15,16)         45.9467         estimate D2E/DX2                !
 --------------------------------------------------------------------------------
 Trust Radius=3.00D-01 FncErr=1.00D-07 GrdErr=1.00D-06 EigMax=2.50D+02 EigMin=1.00D-04
 Number of steps in this run=     93 maximum allowed number of steps=    108.
 GradGradGradGradGradGradGradGradGradGradGradGradGradGradGradGradGradGrad

                          Input orientation:                          
 ---------------------------------------------------------------------
 Center     Atomic      Atomic             Coordinates (Angstroms)
 Number     Number       Type             X           Y           Z
 ---------------------------------------------------------------------
      1          6           0       -1.366415    0.713077   -0.901164
      2          6           0       -2.549146    0.956977   -1.595176
      3          1           0       -3.480679    1.074504   -1.049066
      4          6           0       -2.538950    1.052157   -2.983386
      5          1           0       -3.461769    1.247440   -3.523772
      6          6           0       -1.342574    0.896244   -3.699259
      7          7           0       -1.317138    1.050306   -5.080528
      8          6           0       -0.154885    0.645887   -2.988230
      9          1           0        0.776868    0.525361   -3.535165
     10          6           0       -0.168504    0.554684   -1.603652
     11          1           0        0.757766    0.361835   -1.068832
     12         16           0       -1.377362    0.538326    0.883496
     13          8           0       -1.207783   -0.923634    1.142791
     14          8           0       -0.189069    1.338302    1.327814
     15          7           0       -2.749125    1.000943    1.469035
     16          1           0       -2.805324    2.019440    1.386929
     17          1           0       -2.202892    0.867667   -5.541398
     18          1           0       -0.549192    0.575317   -5.544062
 ---------------------------------------------------------------------
                    Distance matrix (angstroms):
                    1          2          3          4          5
     1  C    0.000000
     2  C    1.392836   0.000000
     3  H    2.150026   1.086187   0.000000
     4  C    2.413600   1.391507   2.151499   0.000000
     5  H    3.399135   2.153307   2.480813   1.087082   0.000000
     6  C    2.804186   2.426247   3.409809   1.402890   2.155254
     7  N    4.193237   3.697869   4.575388   2.427103   2.657403
     8  C    2.414159   2.787447   3.873625   2.418438   3.403549
     9  H    3.401008   3.874560   4.960740   3.402443   4.299717
    10  C    1.397702   2.414409   3.398276   2.787501   3.874580
    11  H    2.159544   3.401015   4.297989   3.874326   4.961402
    12  S    1.793229   2.773474   2.906239   4.070146   4.926622
    13  O    2.623308   3.582237   3.736690   4.764567   5.618792
    14  O    2.597190   3.776141   4.068641   4.918361   5.852923
    15  N    2.759094   3.071044   2.623245   4.457673   5.049430
    16  H    3.002068   3.176068   2.698718   4.483999   5.014169
    17  H    4.717559   3.962390   4.675101   2.586580   2.408280
    18  H    4.716284   4.442880   5.389601   3.277739   3.607828
                    6          7          8          9         10
     6  C    0.000000
     7  N    1.390066   0.000000
     8  C    1.406714   2.427364   0.000000
     9  H    2.157896   2.654916   1.087119   0.000000
    10  C    2.426247   3.695088   1.387646   2.150658   0.000000
    11  H    3.408251   4.568690   2.144227   2.471822   1.086830
    12  S    4.596843   5.986262   4.061562   4.915835   2.765413
    13  O    5.174513   6.529786   4.542833   5.284099   3.287625
    14  O    5.176626   6.513243   4.371367   5.024189   3.034464
    15  N    5.357296   6.704461   5.169464   6.140099   4.037346
    16  H    5.410224   6.706856   5.296555   6.268283   4.247576
    17  H    2.033332   1.015046   3.280576   3.608478   4.443258
    18  H    2.033653   1.014997   2.587032   2.407613   3.958811
                   11         12         13         14         15
    11  H    0.000000
    12  S    2.898535   0.000000
    13  O    3.226002   1.494429   0.000000
    14  O    2.755703   1.499807   2.487643   0.000000
    15  N    4.375788   1.561603   2.487201   2.586048   0.000000
    16  H    4.634008   2.118069   3.357592   2.704114   1.023345
    17  H    5.387505   6.486080   6.991237   7.173776   7.032944
    18  H    4.667055   6.480798   6.884374   6.923476   7.362364
                   16         17         18
    16  H    0.000000
    17  H    7.049200   0.000000
    18  H    7.430630   1.679345   0.000000
 Stoichiometry    C6H7N2O2S(1-)
 Framework group  C1[X(C6H7N2O2S)]
 Deg. of freedom    48
 Full point group                 C1      NOp   1
 Largest Abelian subgroup         C1      NOp   1
 Largest concise Abelian subgroup C1      NOp   1
                         Standard orientation:                         
 ---------------------------------------------------------------------
 Center     Atomic      Atomic             Coordinates (Angstroms)
 Number     Number       Type             X           Y           Z
 ---------------------------------------------------------------------
      1          6           0        0.140800    0.006081   -0.027428
      2          6           0       -0.553713    1.213080    0.000819
      3          1           0       -0.005556    2.150678    0.016132
      4          6           0       -1.945189    1.219715    0.007329
      5          1           0       -2.486327    2.162383    0.024404
      6          6           0       -2.663294    0.014627   -0.006401
      7          7           0       -4.052289    0.017091   -0.060915
      8          6           0       -1.951408   -1.198420   -0.030472
      9          1           0       -2.500174   -2.136786   -0.042824
     10          6           0       -0.563797   -1.200963   -0.039988
     11          1           0       -0.028429   -2.146581   -0.059673
     12         16           0        1.933408   -0.014187    0.015168
     13          8           0        2.295251   -0.449035    1.398387
     14          8           0        2.303549   -1.035226   -1.019190
     15          7           0        2.501669    1.419519   -0.230129
     16          1           0        2.347060    1.661630   -1.212327
     17          1           0       -4.487349    0.854014    0.314052
     18          1           0       -4.490209   -0.825252    0.298115
 ---------------------------------------------------------------------
 Rotational constants (GHZ):           2.6347962           0.5624671           0.5106718
 General basis read from cards:  (6D, 7F)
 There are   227 symmetry adapted cartesian basis functions of A   symmetry.
 There are   227 symmetry adapted basis functions of A   symmetry.
   227 basis functions,   404 primitive gaussians,   227 cartesian basis functions
    45 alpha electrons       45 beta electrons
       nuclear repulsion energy       709.4599120845 Hartrees.
 NAtoms=   18 NActive=   18 NUniq=   18 SFac= 1.00D+00 NAtFMM=   60 NAOKFM=F Big=F
 Integral buffers will be    131072 words long.
 Raffenetti 2 integral format.
 Two-electron integral symmetry is turned on.
 One-electron integrals computed using PRISM.
 NBasis=   227 RedAO= T EigKep=  2.79D-06  NBF=   227
 NBsUse=   227 1.00D-06 EigRej= -1.00D+00 NBFU=   227
 ExpMin= 4.05D-02 ExpMax= 2.19D+04 ExpMxC= 3.30D+03 IAcc=3 IRadAn=         5 AccDes= 0.00D+00
 Harris functional with IExCor= 1009 and IRadAn=       5 diagonalized for initial guess.
 HarFok:  IExCor= 1009 AccDes= 0.00D+00 IRadAn=         5 IDoV= 1 UseB2=F ITyADJ=14
 ICtDFT=  3500011 ScaDFX=  1.000000  1.000000  1.000000  1.000000
 FoFCou: FMM=F IPFlag=           0 FMFlag=      100000 FMFlg1=           0
         NFxFlg=           0 DoJE=T BraDBF=F KetDBF=T FulRan=T
         wScrn=  0.000000 ICntrl=       500 IOpCl=  0 I1Cent=   200000004 NGrid=           0
         NMat0=    1 NMatS0=      1 NMatT0=    0 NMatD0=    1 NMtDS0=    0 NMtDT0=    0
 Petite list used in FoFCou.
 Requested convergence on RMS density matrix=1.00D-08 within 128 cycles.
 Requested convergence on MAX density matrix=1.00D-06.
 Requested convergence on             energy=1.00D-06.
 No special actions if energy rises.
 SCF Done:  E(RM062X) =  -890.744021265     A.U. after   16 cycles
            NFock= 16  Conv=0.96D-08     -V/T= 2.0063

 **********************************************************************

            Population analysis using the SCF Density.

 **********************************************************************

 Orbital symmetries:
       Occupied  (A) (A) (A) (A) (A) (A) (A) (A) (A) (A) (A) (A)
                 (A) (A) (A) (A) (A) (A) (A) (A) (A) (A) (A) (A)
                 (A) (A) (A) (A) (A) (A) (A) (A) (A) (A) (A) (A)
                 (A) (A) (A) (A) (A) (A) (A) (A) (A)
       Virtual   (A) (A) (A) (A) (A) (A) (A) (A) (A) (A) (A) (A)
                 (A) (A) (A) (A) (A) (A) (A) (A) (A) (A) (A) (A)
                 (A) (A) (A) (A) (A) (A) (A) (A) (A) (A) (A) (A)
                 (A) (A) (A) (A) (A) (A) (A) (A) (A) (A) (A) (A)
                 (A) (A) (A) (A) (A) (A) (A) (A) (A) (A) (A) (A)
                 (A) (A) (A) (A) (A) (A) (A) (A) (A) (A) (A) (A)
                 (A) (A) (A) (A) (A) (A) (A) (A) (A) (A) (A) (A)
                 (A) (A) (A) (A) (A) (A) (A) (A) (A) (A) (A) (A)
                 (A) (A) (A) (A) (A) (A) (A) (A) (A) (A) (A) (A)
                 (A) (A) (A) (A) (A) (A) (A) (A) (A) (A) (A) (A)
                 (A) (A) (A) (A) (A) (A) (A) (A) (A) (A) (A) (A)
                 (A) (A) (A) (A) (A) (A) (A) (A) (A) (A) (A) (A)
                 (A) (A) (A) (A) (A) (A) (A) (A) (A) (A) (A) (A)
                 (A) (A) (A) (A) (A) (A) (A) (A) (A) (A) (A) (A)
                 (A) (A) (A) (A) (A) (A) (A) (A) (A) (A) (A) (A)
                 (A) (A)
 The electronic state is 1-A.
 Alpha  occ. eigenvalues --  -89.95609 -19.43417 -19.43092 -14.68338 -14.54615
 Alpha  occ. eigenvalues --  -10.49191 -10.44451 -10.44382 -10.44143 -10.43968
 Alpha  occ. eigenvalues --  -10.43226  -8.26465  -6.18667  -6.18625  -6.18576
 Alpha  occ. eigenvalues --   -1.01955  -0.93972  -0.89818  -0.83469  -0.78703
 Alpha  occ. eigenvalues --   -0.73448  -0.71538  -0.59165  -0.58921  -0.51790
 Alpha  occ. eigenvalues --   -0.49037  -0.48891  -0.43177  -0.39935  -0.39275
 Alpha  occ. eigenvalues --   -0.37921  -0.36687  -0.35672  -0.33519  -0.33229
 Alpha  occ. eigenvalues --   -0.29178  -0.27834  -0.23102  -0.20481  -0.19559
 Alpha  occ. eigenvalues --   -0.19286  -0.17268  -0.15021  -0.14344  -0.12231
 Alpha virt. eigenvalues --    0.08929   0.10970   0.12297   0.12946   0.13603
 Alpha virt. eigenvalues --    0.15310   0.15935   0.17121   0.18339   0.18865
 Alpha virt. eigenvalues --    0.19535   0.19650   0.20021   0.21365   0.22501
 Alpha virt. eigenvalues --    0.22873   0.23492   0.24218   0.24993   0.26035
 Alpha virt. eigenvalues --    0.26292   0.27182   0.27467   0.28866   0.28995
 Alpha virt. eigenvalues --    0.29388   0.30677   0.30839   0.31593   0.32462
 Alpha virt. eigenvalues --    0.32925   0.33154   0.33604   0.33666   0.34680
 Alpha virt. eigenvalues --    0.36184   0.36301   0.37441   0.38720   0.38931
 Alpha virt. eigenvalues --    0.39527   0.39953   0.40942   0.41224   0.42542
 Alpha virt. eigenvalues --    0.43649   0.43882   0.44612   0.44807   0.45594
 Alpha virt. eigenvalues --    0.46254   0.47954   0.48343   0.49478   0.50525
 Alpha virt. eigenvalues --    0.50781   0.51943   0.53529   0.53995   0.55731
 Alpha virt. eigenvalues --    0.57124   0.60645   0.63413   0.71291   0.74821
 Alpha virt. eigenvalues --    0.78846   0.80671   0.81849   0.82850   0.83623
 Alpha virt. eigenvalues --    0.86264   0.87149   0.87611   0.88101   0.88725
 Alpha virt. eigenvalues --    0.90555   0.91732   0.94445   0.95405   0.96065
 Alpha virt. eigenvalues --    0.99221   1.05271   1.05983   1.08071   1.09601
 Alpha virt. eigenvalues --    1.10370   1.12068   1.12596   1.12845   1.15691
 Alpha virt. eigenvalues --    1.19423   1.19725   1.21823   1.23164   1.24296
 Alpha virt. eigenvalues --    1.25831   1.27353   1.28199   1.30564   1.30950
 Alpha virt. eigenvalues --    1.31626   1.35450   1.36167   1.36980   1.38993
 Alpha virt. eigenvalues --    1.42586   1.43399   1.44913   1.49471   1.51763
 Alpha virt. eigenvalues --    1.52379   1.54500   1.56478   1.57202   1.59150
 Alpha virt. eigenvalues --    1.60229   1.62608   1.64266   1.65147   1.65532
 Alpha virt. eigenvalues --    1.67660   1.70610   1.73769   1.74070   1.81507
 Alpha virt. eigenvalues --    1.92747   1.95392   1.98228   2.01049   2.01431
 Alpha virt. eigenvalues --    2.01895   2.06933   2.07208   2.08559   2.09389
 Alpha virt. eigenvalues --    2.09799   2.10963   2.15745   2.17366   2.18816
 Alpha virt. eigenvalues --    2.20675   2.21651   2.24532   2.29331   2.29829
 Alpha virt. eigenvalues --    2.31732   2.35431   2.36397   2.39066   2.40652
 Alpha virt. eigenvalues --    2.43298   2.45573   2.46257   2.52189   2.61076
 Alpha virt. eigenvalues --    2.61319   2.61903   2.66599   2.76125   2.78661
 Alpha virt. eigenvalues --    2.80243   2.83039   2.89470   2.89644   2.91342
 Alpha virt. eigenvalues --    3.00716   3.07188   3.07936   3.11526   3.23742
 Alpha virt. eigenvalues --    3.51590   4.13662   4.20386   4.26466   4.30409
 Alpha virt. eigenvalues --    4.39159   4.40038   4.46931   4.51699   4.56188
 Alpha virt. eigenvalues --    4.61155   4.85670
          Condensed to atoms (all electrons):
               1          2          3          4          5          6
     1  C   22.798576  -3.025976   0.034803  -2.491572   0.076282  -3.255703
     2  C   -3.025976  31.404049   0.331824  -6.171437   0.057854   0.671245
     3  H    0.034803   0.331824   0.457943  -0.043774  -0.003903  -0.003419
     4  C   -2.491572  -6.171437  -0.043774  17.419890   0.268305   0.255081
     5  H    0.076282   0.057854  -0.003903   0.268305   0.544276  -0.093516
     6  C   -3.255703   0.671245  -0.003419   0.255081  -0.093516   8.257517
     7  N   -0.023683  -0.019035  -0.000990  -0.013237  -0.011851  -0.061875
     8  C   -2.388546  -2.297017  -0.018864  -1.954341  -0.004721  -0.031988
     9  H    0.062718   0.001117   0.000014  -0.006698  -0.000140  -0.075700
    10  C   -3.928361 -14.118752   0.007027  -1.409737  -0.006412   0.011475
    11  H    0.149174   0.047271  -0.000131  -0.015223   0.000016  -0.033877
    12  S   -1.069076  -0.705230  -0.008614  -0.018579   0.000780   0.009088
    13  O    0.248085   0.241976  -0.000504  -0.088614   0.000031   0.025500
    14  O    0.120124   0.192280   0.001038   0.178197   0.000015  -0.043509
    15  N   -0.528043   0.232271   0.005297   0.114928   0.000579   0.044822
    16  H    0.101914  -0.166984  -0.000927  -0.054587  -0.000001  -0.000667
    17  H   -0.000452   0.033709  -0.000004  -0.223044   0.005013   0.037393
    18  H   -0.000200  -0.020738   0.000003   0.166926  -0.000032   0.038271
               7          8          9         10         11         12
     1  C   -0.023683  -2.388546   0.062718  -3.928361   0.149174  -1.069076
     2  C   -0.019035  -2.297017   0.001117 -14.118752   0.047271  -0.705230
     3  H   -0.000990  -0.018864   0.000014   0.007027  -0.000131  -0.008614
     4  C   -0.013237  -1.954341  -0.006698  -1.409737  -0.015223  -0.018579
     5  H   -0.011851  -0.004721  -0.000140  -0.006412   0.000016   0.000780
     6  C   -0.061875  -0.031988  -0.075700   0.011475  -0.033877   0.009088
     7  N    7.450417   0.007585  -0.012036  -0.042853  -0.000795   0.009753
     8  C    0.007585  17.595572   0.276548  -5.397232  -0.141275   0.182734
     9  H   -0.012036   0.276548   0.542005   0.040625  -0.003947   0.001815
    10  C   -0.042853  -5.397232   0.040625  30.624239   0.277362   0.960361
    11  H   -0.000795  -0.141275  -0.003947   0.277362   0.467006   0.012419
    12  S    0.009753   0.182734   0.001815   0.960361   0.012419  14.669364
    13  O   -0.000007  -0.115406   0.000019  -0.366340   0.000397   0.362143
    14  O    0.000378   0.115424   0.000007  -0.585607   0.005179   0.093521
    15  N   -0.000186  -0.025975   0.000091   0.132486   0.001179   0.037213
    16  H    0.000004  -0.001519   0.000000   0.090380  -0.000001   0.093104
    17  H    0.294697   0.156909  -0.000025  -0.014719   0.000003   0.000271
    18  H    0.294041  -0.213277   0.004883   0.019068  -0.000004   0.000219
              13         14         15         16         17         18
     1  C    0.248085   0.120124  -0.528043   0.101914  -0.000452  -0.000200
     2  C    0.241976   0.192280   0.232271  -0.166984   0.033709  -0.020738
     3  H   -0.000504   0.001038   0.005297  -0.000927  -0.000004   0.000003
     4  C   -0.088614   0.178197   0.114928  -0.054587  -0.223044   0.166926
     5  H    0.000031   0.000015   0.000579  -0.000001   0.005013  -0.000032
     6  C    0.025500  -0.043509   0.044822  -0.000667   0.037393   0.038271
     7  N   -0.000007   0.000378  -0.000186   0.000004   0.294697   0.294041
     8  C   -0.115406   0.115424  -0.025975  -0.001519   0.156909  -0.213277
     9  H    0.000019   0.000007   0.000091   0.000000  -0.000025   0.004883
    10  C   -0.366340  -0.585607   0.132486   0.090380  -0.014719   0.019068
    11  H    0.000397   0.005179   0.001179  -0.000001   0.000003  -0.000004
    12  S    0.362143   0.093521   0.037213   0.093104   0.000271   0.000219
    13  O    8.708443  -0.212103  -0.204886   0.018690  -0.000001  -0.000000
    14  O   -0.212103   8.930017  -0.163025  -0.018050   0.000000   0.000001
    15  N   -0.204886  -0.163025   8.099305   0.149663   0.000007  -0.000000
    16  H    0.018690  -0.018050   0.149663   0.455904  -0.000000  -0.000000
    17  H   -0.000001   0.000000   0.000007  -0.000000   0.370359  -0.035161
    18  H   -0.000000   0.000001  -0.000000  -0.000000  -0.035161   0.371299
 Mulliken charges:
               1
     1  C   -0.880065
     2  C   -0.688425
     3  H    0.243181
     4  C    0.087515
     5  H    0.167426
     6  C    0.249862
     7  N   -0.870327
     8  C    0.255388
     9  H    0.168706
    10  C   -0.293011
    11  H    0.235248
    12  S    1.368714
    13  O   -0.617423
    14  O   -0.613887
    15  N   -0.895726
    16  H    0.333078
    17  H    0.375045
    18  H    0.374701
 Sum of Mulliken charges =  -1.00000
 Mulliken charges with hydrogens summed into heavy atoms:
               1
     1  C   -0.880065
     2  C   -0.445244
     4  C    0.254941
     6  C    0.249862
     7  N   -0.120582
     8  C    0.424094
    10  C   -0.057763
    12  S    1.368714
    13  O   -0.617423
    14  O   -0.613887
    15  N   -0.562648
 Electronic spatial extent (au):  <R**2>=           2203.1917
 Charge=             -1.0000 electrons
 Dipole moment (field-independent basis, Debye):
    X=            -12.6177    Y=              0.5154    Z=             -0.5115  Tot=             12.6386
 Quadrupole moment (field-independent basis, Debye-Ang):
   XX=           -103.6392   YY=            -77.4800   ZZ=            -85.7963
   XY=              0.5773   XZ=             -9.5188   YZ=             -3.1405
 Traceless Quadrupole moment (field-independent basis, Debye-Ang):
   XX=            -14.6674   YY=             11.4918   ZZ=              3.1756
   XY=              0.5773   XZ=             -9.5188   YZ=             -3.1405
 Octapole moment (field-independent basis, Debye-Ang**2):
  XXX=           -116.3280  YYY=            -11.6608  ZZZ=             -5.3451  XYY=            -31.1918
  XXY=             -5.4901  XXZ=             18.7455  XZZ=             -4.8691  YZZ=              7.2136
  YYZ=             -0.5036  XYZ=             -8.1741
 Hexadecapole moment (field-independent basis, Debye-Ang**3):
 XXXX=          -2361.8851 YYYY=           -493.8318 ZZZZ=           -228.9048 XXXY=            -33.3856
 XXXZ=           -143.1867 YYYX=            -28.3494 YYYZ=             -9.8659 ZZZX=            -18.9571
 ZZZY=             -4.9964 XXYY=           -479.9120 XXZZ=           -485.3355 YYZZ=           -125.5613
 XXYZ=            -16.4987 YYXZ=             -7.8557 ZZXY=             16.3643
 N-N= 7.094599120845D+02 E-N=-3.526981090560D+03  KE= 8.851575450534D+02
 Calling FoFJK, ICntrl=      2127 FMM=F ISym2X=0 I1Cent= 0 IOpClX= 0 NMat=1 NMatS=1 NMatT=0.
 ***** Axes restored to original set *****
 -------------------------------------------------------------------
 Center     Atomic                   Forces (Hartrees/Bohr)
 Number     Number              X              Y              Z
 -------------------------------------------------------------------
      1        6          -0.000577411    0.000365165   -0.005342992
      2        6           0.003359852   -0.000070508   -0.000661834
      3        1           0.001102922   -0.001091206    0.002821473
      4        6           0.005491213   -0.000985770   -0.004163670
      5        1          -0.001087557    0.000496222   -0.000918346
      6        6          -0.000631542   -0.001235606    0.016380024
      7        7           0.000397577    0.002235439   -0.015737392
      8        6          -0.005261700    0.000693329   -0.003125041
      9        1           0.001178282    0.000174460   -0.000833139
     10        6          -0.002374341    0.000359970   -0.000547775
     11        1          -0.001909848    0.000491126    0.002479882
     12       16           0.017353146   -0.017470693    0.038355662
     13        8          -0.003186666    0.012885230   -0.011644440
     14        8          -0.008536495   -0.000050130   -0.012281493
     15        7          -0.007977905    0.003822382   -0.008162759
     16        1           0.002772783    0.000149689    0.001727992
     17        1           0.002467428   -0.000815297    0.000825493
     18        1          -0.002579739    0.000046198    0.000828353
 -------------------------------------------------------------------
 Cartesian Forces:  Max     0.038355662 RMS     0.008009730

 GradGradGradGradGradGradGradGradGradGradGradGradGradGradGradGradGradGrad
 Berny optimization.
 FormGI is forming the generalized inverse of G from B-inverse, IUseBI=4.
 Internal  Forces:  Max     0.014986375 RMS     0.004263204
 Search for a local minimum.
 Step number   1 out of a maximum of   93
 All quantities printed in internal units (Hartrees-Bohrs-Radians)
 Mixed Optimization -- RFO/linear search
 Second derivative matrix not updated -- first step.
 ITU=  0
     Eigenvalues ---    0.00460   0.01477   0.01823   0.01977   0.02052
     Eigenvalues ---    0.02114   0.02131   0.02166   0.02167   0.02193
     Eigenvalues ---    0.02199   0.03127   0.04547   0.10189   0.11800
     Eigenvalues ---    0.16000   0.16000   0.16000   0.16000   0.16000
     Eigenvalues ---    0.16000   0.16000   0.17289   0.21740   0.22000
     Eigenvalues ---    0.22964   0.23987   0.24961   0.24979   0.25000
     Eigenvalues ---    0.26657   0.35148   0.35152   0.35182   0.35257
     Eigenvalues ---    0.41677   0.42125   0.43809   0.45138   0.45146
     Eigenvalues ---    0.45414   0.45681   0.46716   0.47307   0.47463
     Eigenvalues ---    0.59422   0.76740   0.78551
 RFO step:  Lambda=-6.56808529D-03 EMin= 4.59872073D-03
 Linear search not attempted -- first point.
 Iteration  1 RMS(Cart)=  0.03926757 RMS(Int)=  0.00157464
 Iteration  2 RMS(Cart)=  0.00142847 RMS(Int)=  0.00075278
 Iteration  3 RMS(Cart)=  0.00000168 RMS(Int)=  0.00075278
 Iteration  4 RMS(Cart)=  0.00000000 RMS(Int)=  0.00075278
 Variable       Old X    -DE/DX   Delta X   Delta X   Delta X     New X
                                 (Linear)    (Quad)   (Total)
    R1        2.63208  -0.00351   0.00000  -0.00739  -0.00738   2.62469
    R2        2.64127  -0.00368   0.00000  -0.00793  -0.00793   2.63334
    R3        3.38871   0.00802   0.00000   0.02936   0.02936   3.41807
    R4        2.05260   0.00035   0.00000   0.00099   0.00099   2.05358
    R5        2.62957   0.00379   0.00000   0.00797   0.00798   2.63754
    R6        2.05429   0.00147   0.00000   0.00410   0.00410   2.05839
    R7        2.65108  -0.00414   0.00000  -0.00900  -0.00900   2.64208
    R8        2.62684   0.01416   0.00000   0.02953   0.02953   2.65637
    R9        2.65830  -0.00365   0.00000  -0.00808  -0.00808   2.65022
   R10        1.91816  -0.00238   0.00000  -0.00520  -0.00520   1.91296
   R11        1.91807  -0.00235   0.00000  -0.00514  -0.00514   1.91293
   R12        2.05436   0.00141   0.00000   0.00394   0.00394   2.05829
   R13        2.62227   0.00298   0.00000   0.00612   0.00612   2.62839
   R14        2.05381  -0.00049   0.00000  -0.00138  -0.00138   2.05243
   R15        2.82406  -0.01499   0.00000  -0.01892  -0.01892   2.80514
   R16        2.83422  -0.01043   0.00000  -0.01347  -0.01347   2.82075
   R17        2.95100   0.00333   0.00000   0.00555   0.00555   2.95655
   R18        1.93384  -0.00014   0.00000  -0.00032  -0.00032   1.93353
    A1        2.09115  -0.00265   0.00000  -0.01077  -0.01076   2.08038
    A2        2.10339   0.00195   0.00000   0.00779   0.00778   2.11118
    A3        2.08793   0.00071   0.00000   0.00297   0.00296   2.09089
    A4        2.09056  -0.00398   0.00000  -0.02251  -0.02254   2.06802
    A5        2.09769   0.00155   0.00000   0.00656   0.00654   2.10423
    A6        2.09494   0.00243   0.00000   0.01597   0.01594   2.11088
    A7        2.09669   0.00011   0.00000   0.00097   0.00097   2.09766
    A8        2.10334   0.00026   0.00000   0.00096   0.00097   2.10431
    A9        2.08316  -0.00037   0.00000  -0.00194  -0.00194   2.08122
   A10        2.10638   0.00068   0.00000   0.00292   0.00290   2.10928
   A11        2.07358  -0.00125   0.00000  -0.00495  -0.00496   2.06862
   A12        2.10195   0.00058   0.00000   0.00254   0.00252   2.10448
   A13        1.99902  -0.00028   0.00000  -0.00728  -0.00743   1.99159
   A14        1.99959  -0.00030   0.00000  -0.00740  -0.00755   1.99204
   A15        1.94838  -0.00080   0.00000  -0.01314  -0.01336   1.93501
   A16        2.08182  -0.00041   0.00000  -0.00188  -0.00188   2.07994
   A17        2.10336   0.00048   0.00000   0.00167   0.00167   2.10504
   A18        2.09800  -0.00007   0.00000   0.00021   0.00021   2.09820
   A19        2.09723   0.00161   0.00000   0.00654   0.00654   2.10377
   A20        2.09812  -0.00400   0.00000  -0.02246  -0.02247   2.07565
   A21        2.08783   0.00239   0.00000   0.01591   0.01590   2.10373
   A22        1.84141  -0.00927   0.00000  -0.04894  -0.04870   1.79271
   A23        1.81112  -0.00855   0.00000  -0.05415  -0.05469   1.75644
   A24        1.92801  -0.00871   0.00000  -0.05289  -0.05338   1.87463
   A25        1.96112   0.00797   0.00000   0.06307   0.05974   2.02086
   A26        1.90120   0.00923   0.00000   0.05071   0.04790   1.94910
   A27        2.01184   0.00639   0.00000   0.02616   0.02238   2.03422
   A28        1.88914  -0.00347   0.00000  -0.02080  -0.02080   1.86834
    D1        3.13569  -0.00029   0.00000  -0.01077  -0.01064   3.12505
    D2       -0.00765   0.00010   0.00000   0.00293   0.00292  -0.00473
    D3        0.03491  -0.00031   0.00000  -0.01038  -0.01026   0.02465
    D4       -3.10843   0.00009   0.00000   0.00331   0.00330  -3.10514
    D5        0.00507  -0.00006   0.00000  -0.00159  -0.00157   0.00350
    D6       -3.13909  -0.00021   0.00000  -0.00686  -0.00681   3.13728
    D7        3.10622  -0.00002   0.00000  -0.00186  -0.00183   3.10439
    D8       -0.03795  -0.00016   0.00000  -0.00713  -0.00706  -0.04501
    D9        1.83699  -0.00050   0.00000  -0.05185  -0.05158   1.78541
   D10       -2.38097   0.00065   0.00000  -0.02622  -0.02688  -2.40785
   D11       -0.21507  -0.00174   0.00000  -0.05723  -0.05683  -0.27190
   D12       -1.26386  -0.00044   0.00000  -0.05115  -0.05089  -1.31475
   D13        0.80136   0.00071   0.00000  -0.02551  -0.02618   0.77518
   D14        2.96726  -0.00167   0.00000  -0.05653  -0.05613   2.91112
   D15       -3.13630  -0.00010   0.00000  -0.00360  -0.00365  -3.13995
   D16        0.00663  -0.00004   0.00000  -0.00135  -0.00137   0.00526
   D17        0.00354   0.00029   0.00000   0.01009   0.01020   0.01374
   D18       -3.13672   0.00035   0.00000   0.01234   0.01248  -3.12424
   D19       -3.09059  -0.00034   0.00000  -0.01245  -0.01244  -3.10303
   D20       -0.00295  -0.00003   0.00000  -0.00144  -0.00143  -0.00438
   D21        0.05232  -0.00028   0.00000  -0.01022  -0.01018   0.04214
   D22        3.13996   0.00003   0.00000   0.00079   0.00083   3.14079
   D23       -0.45009  -0.00075   0.00000  -0.01120  -0.01111  -0.46120
   D24       -2.73413   0.00103   0.00000   0.02299   0.02293  -2.71120
   D25        2.74633  -0.00100   0.00000  -0.02217  -0.02211   2.72422
   D26        0.46229   0.00077   0.00000   0.01203   0.01193   0.47422
   D27       -3.13992   0.00012   0.00000   0.00448   0.00450  -3.13542
   D28        0.00037   0.00007   0.00000   0.00278   0.00279   0.00315
   D29       -0.05214   0.00043   0.00000   0.01548   0.01549  -0.03665
   D30        3.08814   0.00038   0.00000   0.01378   0.01378   3.10192
   D31       -0.00144  -0.00003   0.00000  -0.00130  -0.00132  -0.00276
   D32       -3.14048   0.00012   0.00000   0.00399   0.00406  -3.13642
   D33        3.13883  -0.00008   0.00000  -0.00302  -0.00305   3.13578
   D34       -0.00020   0.00007   0.00000   0.00228   0.00233   0.00212
   D35       -1.24363  -0.00088   0.00000  -0.03378  -0.03410  -1.27773
   D36        3.02465   0.00982   0.00000   0.02540   0.02795   3.05260
   D37        0.80192  -0.01397   0.00000  -0.12447  -0.12670   0.67522
         Item               Value     Threshold  Converged?
 Maximum Force            0.014986     0.000450     NO 
 RMS     Force            0.004263     0.000300     NO 
 Maximum Displacement     0.147951     0.001800     NO 
 RMS     Displacement     0.039226     0.001200     NO 
 Predicted change in Energy=-3.530561D-03
 GradGradGradGradGradGradGradGradGradGradGradGradGradGradGradGradGradGrad

                          Input orientation:                          
 ---------------------------------------------------------------------
 Center     Atomic      Atomic             Coordinates (Angstroms)
 Number     Number       Type             X           Y           Z
 ---------------------------------------------------------------------
      1          6           0       -1.371833    0.704579   -0.885046
      2          6           0       -2.548454    0.938389   -1.585060
      3          1           0       -3.475732    1.026860   -1.025360
      4          6           0       -2.537537    1.042348   -2.976868
      5          1           0       -3.463681    1.227326   -3.519558
      6          6           0       -1.343030    0.906675   -3.690668
      7          7           0       -1.317406    1.055970   -5.088174
      8          6           0       -0.159425    0.669792   -2.976668
      9          1           0        0.778101    0.568167   -3.521717
     10          6           0       -0.177239    0.568767   -1.589571
     11          1           0        0.740845    0.390065   -1.037483
     12         16           0       -1.381591    0.512225    0.913436
     13          8           0       -1.265433   -0.957609    1.085446
     14          8           0       -0.172850    1.306676    1.282050
     15          7           0       -2.756211    1.048105    1.434044
     16          1           0       -2.727031    2.068354    1.362387
     17          1           0       -2.196508    0.843538   -5.542920
     18          1           0       -0.551158    0.574606   -5.541893
 ---------------------------------------------------------------------
                    Distance matrix (angstroms):
                    1          2          3          4          5
     1  C    0.000000
     2  C    1.388928   0.000000
     3  H    2.133060   1.086710   0.000000
     4  C    2.418403   1.395728   2.165372   0.000000
     5  H    3.404371   2.159492   2.502271   1.089253   0.000000
     6  C    2.813039   2.426445   3.415660   1.398129   2.151571
     7  N    4.218142   3.714985   4.600618   2.438548   2.663909
     8  C    2.417855   2.777800   3.864323   2.407117   3.394654
     9  H    3.404828   3.866997   4.953513   3.393400   4.292692
    10  C    1.393505   2.399854   3.377609   2.778468   3.867719
    11  H    2.141393   3.379347   4.264408   3.864515   4.953760
    12  S    1.808765   2.790280   2.899863   4.092885   4.949535
    13  O    2.580123   3.517465   3.644043   4.703241   5.550883
    14  O    2.548802   3.741584   4.038746   4.878525   5.821624
    15  N    2.722626   3.028233   2.562583   4.416333   5.007076
    16  H    2.957600   3.161669   2.710460   4.462928   5.008330
    17  H    4.732355   3.974609   4.698763   2.596237   2.418060
    18  H    4.730394   4.447253   5.399699   3.277780   3.605367
                    6          7          8          9         10
     6  C    0.000000
     7  N    1.405692   0.000000
     8  C    1.402437   2.438957   0.000000
     9  H    2.154606   2.661370   1.089202   0.000000
    10  C    2.426491   3.711816   1.390885   2.155426   0.000000
    11  H    3.413035   4.592159   2.156194   2.490888   1.086100
    12  S    4.621131   6.026533   4.080615   4.933353   2.778255
    13  O    5.127655   6.493905   4.513586   5.265926   3.266452
    14  O    5.124183   6.477085   4.306098   4.952361   2.964918
    15  N    5.317872   6.679039   5.132329   6.105839   4.002888
    16  H    5.366407   6.679948   5.232205   6.196045   4.179026
    17  H    2.040404   1.012295   3.281088   3.606853   4.447686
    18  H    2.040678   1.012279   2.596709   2.418282   3.969975
                   11         12         13         14         15
    11  H    0.000000
    12  S    2.885436   0.000000
    13  O    3.216862   1.484417   0.000000
    14  O    2.656172   1.492677   2.521781   0.000000
    15  N    4.332536   1.564539   2.523258   2.600715   0.000000
    16  H    4.538964   2.105541   3.371857   2.666543   1.023178
    17  H    5.397466   6.516010   6.931542   7.133716   7.002367
    18  H    4.689674   6.508823   6.839554   6.873518   7.331451
                   16         17         18
    16  H    0.000000
    17  H    7.033128   0.000000
    18  H    7.391535   1.667184   0.000000
 Stoichiometry    C6H7N2O2S(1-)
 Framework group  C1[X(C6H7N2O2S)]
 Deg. of freedom    48
 Full point group                 C1      NOp   1
 Largest Abelian subgroup         C1      NOp   1
 Largest concise Abelian subgroup C1      NOp   1
                         Standard orientation:                         
 ---------------------------------------------------------------------
 Center     Atomic      Atomic             Coordinates (Angstroms)
 Number     Number       Type             X           Y           Z
 ---------------------------------------------------------------------
      1          6           0        0.159180    0.004986   -0.026342
      2          6           0       -0.538748    1.205522    0.000713
      3          1           0        0.026533    2.133158    0.030515
      4          6           0       -1.934438    1.215159    0.003929
      5          1           0       -2.475582    2.160276    0.023661
      6          6           0       -2.653807    0.016425   -0.013700
      7          7           0       -4.058826    0.019428   -0.057101
      8          6           0       -1.941808   -1.191546   -0.040018
      9          1           0       -2.491640   -2.131575   -0.059796
     10          6           0       -0.550932   -1.193874   -0.044563
     11          1           0       -0.000772   -2.129983   -0.069793
     12         16           0        1.966997   -0.021785    0.025730
     13          8           0        2.247804   -0.390716    1.435883
     14          8           0        2.256339   -1.075534   -0.991117
     15          7           0        2.466217    1.423902   -0.303740
     16          1           0        2.317250    1.571751   -1.305161
     17          1           0       -4.482966    0.849323    0.338020
     18          1           0       -4.486336   -0.817743    0.318516
 ---------------------------------------------------------------------
 Rotational constants (GHZ):           2.6190725           0.5655843           0.5143432
 Basis read from rwf:  (6D, 7F)
 There are   227 symmetry adapted cartesian basis functions of A   symmetry.
 There are   227 symmetry adapted basis functions of A   symmetry.
   227 basis functions,   404 primitive gaussians,   227 cartesian basis functions
    45 alpha electrons       45 beta electrons
       nuclear repulsion energy       710.4432930977 Hartrees.
 NAtoms=   18 NActive=   18 NUniq=   18 SFac= 1.00D+00 NAtFMM=   60 NAOKFM=F Big=F
 Integral buffers will be    131072 words long.
 Raffenetti 2 integral format.
 Two-electron integral symmetry is turned on.
 One-electron integrals computed using PRISM.
 NBasis=   227 RedAO= T EigKep=  2.76D-06  NBF=   227
 NBsUse=   227 1.00D-06 EigRej= -1.00D+00 NBFU=   227
 Initial guess from the checkpoint file:  "/jobfs/40763172.gadi-pbs/Gau-404801.chk"
 B after Tr=    -0.000000    0.000000   -0.000000
         Rot=    0.999950    0.010004    0.000100    0.000354 Ang=   1.15 deg.
 ExpMin= 4.05D-02 ExpMax= 2.19D+04 ExpMxC= 3.30D+03 IAcc=3 IRadAn=         5 AccDes= 0.00D+00
 Harris functional with IExCor= 1009 and IRadAn=       5 diagonalized for initial guess.
 HarFok:  IExCor= 1009 AccDes= 0.00D+00 IRadAn=         5 IDoV= 1 UseB2=F ITyADJ=14
 ICtDFT=  3500011 ScaDFX=  1.000000  1.000000  1.000000  1.000000
 FoFCou: FMM=F IPFlag=           0 FMFlag=      100000 FMFlg1=           0
         NFxFlg=           0 DoJE=T BraDBF=F KetDBF=T FulRan=T
         wScrn=  0.000000 ICntrl=       500 IOpCl=  0 I1Cent=   200000004 NGrid=           0
         NMat0=    1 NMatS0=      1 NMatT0=    0 NMatD0=    1 NMtDS0=    0 NMtDT0=    0
 Petite list used in FoFCou.
 Requested convergence on RMS density matrix=1.00D-08 within 128 cycles.
 Requested convergence on MAX density matrix=1.00D-06.
 Requested convergence on             energy=1.00D-06.
 No special actions if energy rises.
 SCF Done:  E(RM062X) =  -890.746804175     A.U. after   14 cycles
            NFock= 14  Conv=0.96D-08     -V/T= 2.0063
 Calling FoFJK, ICntrl=      2127 FMM=F ISym2X=0 I1Cent= 0 IOpClX= 0 NMat=1 NMatS=1 NMatT=0.
 ***** Axes restored to original set *****
 -------------------------------------------------------------------
 Center     Atomic                   Forces (Hartrees/Bohr)
 Number     Number              X              Y              Z
 -------------------------------------------------------------------
      1        6          -0.001264986   -0.000014149   -0.004468643
      2        6          -0.000232786   -0.000776794   -0.002236859
      3        1          -0.000034606    0.000084580    0.000633180
      4        6           0.000418487    0.000037267   -0.001288644
      5        1          -0.000213443    0.000202708    0.000099853
      6        6          -0.000322223   -0.001635077    0.006197010
      7        7           0.000662618    0.003705502   -0.004372765
      8        6          -0.000235661    0.000029858   -0.001253183
      9        1           0.000261293    0.000101568    0.000063031
     10        6           0.000329114    0.000375804   -0.001906879
     11        1           0.000134691    0.000184378    0.000431648
     12       16           0.006130813   -0.002958730   -0.003397951
     13        8          -0.001595194    0.008632452    0.003946559
     14        8          -0.004598010   -0.003323274    0.003328954
     15        7          -0.001411826   -0.001810088    0.001176679
     16        1           0.002380636   -0.000428116    0.002321769
     17        1          -0.000386212   -0.001155809    0.000361082
     18        1          -0.000022706   -0.001252079    0.000365159
 -------------------------------------------------------------------
 Cartesian Forces:  Max     0.008632452 RMS     0.002452831

 GradGradGradGradGradGradGradGradGradGradGradGradGradGradGradGradGradGrad
 Berny optimization.
 Using GEDIIS/GDIIS optimizer.
 FormGI is forming the generalized inverse of G from B-inverse, IUseBI=4.
 Internal  Forces:  Max     0.008214666 RMS     0.002159519
 Search for a local minimum.
 Step number   2 out of a maximum of   93
 All quantities printed in internal units (Hartrees-Bohrs-Radians)
 Mixed Optimization -- RFO/linear search
 Update second derivatives using D2CorX and points    1    2
 DE= -2.78D-03 DEPred=-3.53D-03 R= 7.88D-01
 TightC=F SS=  1.41D+00  RLast= 2.31D-01 DXNew= 5.0454D-01 6.9442D-01
 Trust test= 7.88D-01 RLast= 2.31D-01 DXMaxT set to 5.05D-01
 ITU=  1  0
 Use linear search instead of GDIIS.
     Eigenvalues ---    0.00453   0.01470   0.01823   0.01975   0.02050
     Eigenvalues ---    0.02114   0.02131   0.02166   0.02167   0.02194
     Eigenvalues ---    0.02200   0.02913   0.04655   0.11277   0.12530
     Eigenvalues ---    0.15388   0.15999   0.16000   0.16000   0.16000
     Eigenvalues ---    0.16000   0.16002   0.21110   0.22000   0.22591
     Eigenvalues ---    0.23810   0.23916   0.24960   0.24975   0.25063
     Eigenvalues ---    0.29326   0.35130   0.35150   0.35195   0.35259
     Eigenvalues ---    0.41591   0.42090   0.43801   0.45080   0.45142
     Eigenvalues ---    0.45238   0.45431   0.46107   0.46795   0.47532
     Eigenvalues ---    0.59444   0.74066   0.77533
 RFO step:  Lambda=-1.57650964D-03 EMin= 4.52704009D-03
 Quartic linear search produced a step of -0.13298.
 Iteration  1 RMS(Cart)=  0.05275342 RMS(Int)=  0.00152112
 Iteration  2 RMS(Cart)=  0.00171521 RMS(Int)=  0.00008624
 Iteration  3 RMS(Cart)=  0.00000123 RMS(Int)=  0.00008624
 Iteration  4 RMS(Cart)=  0.00000000 RMS(Int)=  0.00008624
 Variable       Old X    -DE/DX   Delta X   Delta X   Delta X     New X
                                 (Linear)    (Quad)   (Total)
    R1        2.62469   0.00103   0.00098  -0.00066   0.00032   2.62502
    R2        2.63334   0.00130   0.00105  -0.00031   0.00074   2.63408
    R3        3.41807   0.00732  -0.00390   0.03398   0.03007   3.44815
    R4        2.05358   0.00036  -0.00013   0.00123   0.00110   2.05469
    R5        2.63754  -0.00005  -0.00106   0.00278   0.00172   2.63926
    R6        2.05839   0.00017  -0.00055   0.00189   0.00134   2.05973
    R7        2.64208  -0.00092   0.00120  -0.00513  -0.00394   2.63814
    R8        2.65637   0.00377  -0.00393   0.01745   0.01353   2.66990
    R9        2.65022  -0.00093   0.00107  -0.00484  -0.00377   2.64645
   R10        1.91296   0.00042   0.00069  -0.00109  -0.00040   1.91256
   R11        1.91293   0.00041   0.00068  -0.00107  -0.00039   1.91254
   R12        2.05829   0.00018  -0.00052   0.00187   0.00134   2.05964
   R13        2.62839  -0.00011  -0.00081   0.00201   0.00120   2.62959
   R14        2.05243   0.00030   0.00018   0.00023   0.00042   2.05285
   R15        2.80514  -0.00821   0.00252  -0.01575  -0.01324   2.79191
   R16        2.82075  -0.00467   0.00179  -0.01005  -0.00826   2.81249
   R17        2.95655  -0.00046  -0.00074   0.00135   0.00061   2.95716
   R18        1.93353  -0.00052   0.00004  -0.00113  -0.00108   1.93244
    A1        2.08038  -0.00106   0.00143  -0.00703  -0.00560   2.07478
    A2        2.11118   0.00073  -0.00104   0.00502   0.00398   2.11516
    A3        2.09089   0.00033  -0.00039   0.00190   0.00151   2.09240
    A4        2.06802  -0.00071   0.00300  -0.01183  -0.00883   2.05918
    A5        2.10423   0.00038  -0.00087   0.00412   0.00325   2.10748
    A6        2.11088   0.00033  -0.00212   0.00770   0.00559   2.11647
    A7        2.09766  -0.00001  -0.00013   0.00018   0.00005   2.09771
    A8        2.10431  -0.00039  -0.00013  -0.00144  -0.00157   2.10273
    A9        2.08122   0.00040   0.00026   0.00127   0.00153   2.08274
   A10        2.10928  -0.00051  -0.00039  -0.00046  -0.00084   2.10844
   A11        2.06862   0.00111   0.00066   0.00147   0.00213   2.07075
   A12        2.10448  -0.00060  -0.00034  -0.00092  -0.00125   2.10323
   A13        1.99159  -0.00121   0.00099  -0.01474  -0.01401   1.97759
   A14        1.99204  -0.00122   0.00100  -0.01486  -0.01411   1.97793
   A15        1.93501   0.00027   0.00178  -0.01218  -0.01081   1.92420
   A16        2.07994   0.00040   0.00025   0.00123   0.00148   2.08142
   A17        2.10504  -0.00046  -0.00022  -0.00141  -0.00163   2.10340
   A18        2.09820   0.00006  -0.00003   0.00017   0.00014   2.09835
   A19        2.10377   0.00042  -0.00087   0.00428   0.00341   2.10718
   A20        2.07565  -0.00052   0.00299  -0.01079  -0.00780   2.06785
   A21        2.10373   0.00010  -0.00211   0.00647   0.00435   2.10808
   A22        1.79271   0.00396   0.00648   0.00286   0.00933   1.80204
   A23        1.75644   0.00573   0.00727   0.01154   0.01890   1.77533
   A24        1.87463   0.00438   0.00710   0.00321   0.01042   1.88504
   A25        2.02086  -0.00161  -0.00794   0.00670  -0.00111   2.01974
   A26        1.94910  -0.00462  -0.00637  -0.00828  -0.01443   1.93468
   A27        2.03422  -0.00433  -0.00298  -0.01137  -0.01406   2.02016
   A28        1.86834  -0.00266   0.00277  -0.02164  -0.01888   1.84946
    D1        3.12505   0.00009   0.00141  -0.00146  -0.00007   3.12498
    D2       -0.00473  -0.00003  -0.00039  -0.00039  -0.00078  -0.00551
    D3        0.02465   0.00013   0.00136   0.00161   0.00295   0.02760
    D4       -3.10514   0.00002  -0.00044   0.00268   0.00225  -3.10289
    D5        0.00350  -0.00002   0.00021  -0.00070  -0.00050   0.00300
    D6        3.13728  -0.00012   0.00091  -0.00639  -0.00548   3.13181
    D7        3.10439  -0.00005   0.00024  -0.00366  -0.00342   3.10097
    D8       -0.04501  -0.00015   0.00094  -0.00935  -0.00840  -0.05341
    D9        1.78541  -0.00157   0.00686  -0.09219  -0.08541   1.70000
   D10       -2.40785   0.00016   0.00357  -0.07972  -0.07606  -2.48391
   D11       -0.27190  -0.00008   0.00756  -0.08554  -0.07800  -0.34991
   D12       -1.31475  -0.00150   0.00677  -0.08889  -0.08219  -1.39694
   D13        0.77518   0.00024   0.00348  -0.07642  -0.07285   0.70233
   D14        2.91112  -0.00000   0.00746  -0.08225  -0.07478   2.83634
   D15       -3.13995   0.00012   0.00049   0.00309   0.00358  -3.13637
   D16        0.00526   0.00008   0.00018   0.00259   0.00277   0.00803
   D17        0.01374   0.00001  -0.00136   0.00432   0.00295   0.01669
   D18       -3.12424  -0.00003  -0.00166   0.00382   0.00214  -3.12209
   D19       -3.10303  -0.00003   0.00165  -0.00614  -0.00448  -3.10751
   D20       -0.00438  -0.00009   0.00019  -0.00359  -0.00340  -0.00778
   D21        0.04214  -0.00007   0.00135  -0.00663  -0.00528   0.03687
   D22        3.14079  -0.00012  -0.00011  -0.00408  -0.00419   3.13659
   D23       -0.46120  -0.00094   0.00148  -0.02038  -0.01876  -0.47996
   D24       -2.71120   0.00096  -0.00305   0.02493   0.02172  -2.68948
   D25        2.72422  -0.00092   0.00294  -0.02303  -0.01994   2.70428
   D26        0.47422   0.00097  -0.00159   0.02227   0.02054   0.49476
   D27       -3.13542   0.00013  -0.00060   0.00631   0.00572  -3.12971
   D28        0.00315   0.00004  -0.00037   0.00251   0.00214   0.00529
   D29       -0.03665   0.00007  -0.00206   0.00886   0.00680  -0.02985
   D30        3.10192  -0.00001  -0.00183   0.00506   0.00323   3.10515
   D31       -0.00276   0.00001   0.00018  -0.00039  -0.00021  -0.00297
   D32       -3.13642   0.00011  -0.00054   0.00547   0.00494  -3.13148
   D33        3.13578  -0.00008   0.00041  -0.00423  -0.00381   3.13197
   D34        0.00212   0.00003  -0.00031   0.00163   0.00133   0.00346
   D35       -1.27773  -0.00281   0.00453  -0.06822  -0.06362  -1.34135
   D36        3.05260  -0.00764  -0.00372  -0.06927  -0.07315   2.97946
   D37        0.67522   0.00487   0.01685  -0.05789  -0.04096   0.63427
         Item               Value     Threshold  Converged?
 Maximum Force            0.008215     0.000450     NO 
 RMS     Force            0.002160     0.000300     NO 
 Maximum Displacement     0.214072     0.001800     NO 
 RMS     Displacement     0.052703     0.001200     NO 
 Predicted change in Energy=-8.982097D-04
 GradGradGradGradGradGradGradGradGradGradGradGradGradGradGradGradGradGrad

                          Input orientation:                          
 ---------------------------------------------------------------------
 Center     Atomic      Atomic             Coordinates (Angstroms)
 Number     Number       Type             X           Y           Z
 ---------------------------------------------------------------------
      1          6           0       -1.383360    0.703470   -0.895542
      2          6           0       -2.559195    0.911708   -1.605222
      3          1           0       -3.488633    0.976760   -1.044759
      4          6           0       -2.543283    1.019866   -2.997573
      5          1           0       -3.470727    1.188106   -3.544893
      6          6           0       -1.343295    0.910716   -3.702598
      7          7           0       -1.313255    1.059772   -5.107241
      8          6           0       -0.159456    0.700689   -2.984507
      9          1           0        0.784534    0.625164   -3.524034
     10          6           0       -0.183571    0.597039   -1.597062
     11          1           0        0.733260    0.443471   -1.034985
     12         16           0       -1.397372    0.500659    0.917777
     13          8           0       -1.369459   -0.965858    1.094693
     14          8           0       -0.157135    1.222610    1.312298
     15          7           0       -2.735973    1.101836    1.461401
     16          1           0       -2.613749    2.117039    1.449397
     17          1           0       -2.184842    0.807284   -5.555457
     18          1           0       -0.540664    0.574501   -5.545314
 ---------------------------------------------------------------------
                    Distance matrix (angstroms):
                    1          2          3          4          5
     1  C    0.000000
     2  C    1.389099   0.000000
     3  H    2.128175   1.087293   0.000000
     4  C    2.421583   1.396637   2.170030   0.000000
     5  H    3.407497   2.160929   2.509115   1.089962   0.000000
     6  C    2.814981   2.424335   3.416276   1.396046   2.151228
     7  N    4.227325   3.720004   4.609005   2.442388   2.666850
     8  C    2.421099   2.775914   3.862933   2.405135   3.393541
     9  H    3.408059   3.865808   4.952816   3.392243   4.292387
    10  C    1.393897   2.396387   3.372337   2.776410   3.866368
    11  H    2.137083   3.374118   4.255452   3.862605   4.952537
    12  S    1.824680   2.807902   2.907162   4.112500   4.968582
    13  O    2.597669   3.497179   3.583562   4.697617   5.529977
    14  O    2.578312   3.791895   4.088403   4.930497   5.879914
    15  N    2.746532   3.077592   2.619729   4.463888   5.060661
    16  H    3.001795   3.284280   2.878623   4.580862   5.151724
    17  H    4.729478   3.969308   4.698403   2.591610   2.416794
    18  H    4.727277   4.439877   5.395121   3.271057   3.600481
                    6          7          8          9         10
     6  C    0.000000
     7  N    1.412849   0.000000
     8  C    1.400443   2.442579   0.000000
     9  H    2.154317   2.663859   1.089914   0.000000
    10  C    2.424177   3.716405   1.391520   2.156674   0.000000
    11  H    3.412705   4.599056   2.159569   2.496198   1.086321
    12  S    4.638851   6.051490   4.098813   4.950344   2.794104
    13  O    5.151331   6.524594   4.569612   5.338883   3.330844
    14  O    5.162697   6.524846   4.328388   4.963244   2.975973
    15  N    5.351912   6.721083   5.154168   6.121744   4.015441
    16  H    5.441721   6.767467   5.262044   6.205565   4.182951
    17  H    2.037642   1.012083   3.274650   3.602366   4.440516
    18  H    2.037857   1.012073   2.592099   2.417496   3.964432
                   11         12         13         14         15
    11  H    0.000000
    12  S    2.890700   0.000000
    13  O    3.308045   1.477413   0.000000
    14  O    2.628612   1.488304   2.511269   0.000000
    15  N    4.324461   1.564861   2.505433   2.585966   0.000000
    16  H    4.491710   2.091621   3.343400   2.617968   1.022604
    17  H    5.392805   6.528162   6.930612   7.172876   7.044629
    18  H    4.688616   6.520042   6.866535   6.898839   7.361489
                   16         17         18
    16  H    0.000000
    17  H    7.139146   0.000000
    18  H    7.456748   1.660606   0.000000
 Stoichiometry    C6H7N2O2S(1-)
 Framework group  C1[X(C6H7N2O2S)]
 Deg. of freedom    48
 Full point group                 C1      NOp   1
 Largest Abelian subgroup         C1      NOp   1
 Largest concise Abelian subgroup C1      NOp   1
                         Standard orientation:                         
 ---------------------------------------------------------------------
 Center     Atomic      Atomic             Coordinates (Angstroms)
 Number     Number       Type             X           Y           Z
 ---------------------------------------------------------------------
      1          6           0        0.148456    0.006014   -0.029161
      2          6           0       -0.553428    1.204506   -0.005237
      3          1           0        0.017343    2.129499    0.023282
      4          6           0       -1.950031    1.214235   -0.004286
      5          1           0       -2.491549    2.160057    0.009667
      6          6           0       -2.666484    0.016129   -0.017766
      7          7           0       -4.078752    0.018033   -0.058249
      8          6           0       -1.956223   -1.190600   -0.041770
      9          1           0       -2.505585   -2.131679   -0.063760
     10          6           0       -0.564709   -1.191515   -0.045569
     11          1           0       -0.009416   -2.124766   -0.073590
     12         16           0        1.971964   -0.022478    0.029693
     13          8           0        2.260852   -0.268749    1.457504
     14          8           0        2.286796   -1.144588   -0.895941
     15          7           0        2.492145    1.386759   -0.408773
     16          1           0        2.399678    1.416515   -1.426753
     17          1           0       -4.490074    0.845558    0.354462
     18          1           0       -4.492243   -0.814993    0.340981
 ---------------------------------------------------------------------
 Rotational constants (GHZ):           2.6384114           0.5589477           0.5091064
 Basis read from rwf:  (6D, 7F)
 There are   227 symmetry adapted cartesian basis functions of A   symmetry.
 There are   227 symmetry adapted basis functions of A   symmetry.
   227 basis functions,   404 primitive gaussians,   227 cartesian basis functions
    45 alpha electrons       45 beta electrons
       nuclear repulsion energy       709.0907556017 Hartrees.
 NAtoms=   18 NActive=   18 NUniq=   18 SFac= 1.00D+00 NAtFMM=   60 NAOKFM=F Big=F
 Integral buffers will be    131072 words long.
 Raffenetti 2 integral format.
 Two-electron integral symmetry is turned on.
 One-electron integrals computed using PRISM.
 NBasis=   227 RedAO= T EigKep=  2.83D-06  NBF=   227
 NBsUse=   227 1.00D-06 EigRej= -1.00D+00 NBFU=   227
 Initial guess from the checkpoint file:  "/jobfs/40763172.gadi-pbs/Gau-404801.chk"
 B after Tr=     0.000000   -0.000000   -0.000000
         Rot=    0.999785    0.020708    0.000498    0.000079 Ang=   2.37 deg.
 ExpMin= 4.05D-02 ExpMax= 2.19D+04 ExpMxC= 3.30D+03 IAcc=3 IRadAn=         5 AccDes= 0.00D+00
 Harris functional with IExCor= 1009 and IRadAn=       5 diagonalized for initial guess.
 HarFok:  IExCor= 1009 AccDes= 0.00D+00 IRadAn=         5 IDoV= 1 UseB2=F ITyADJ=14
 ICtDFT=  3500011 ScaDFX=  1.000000  1.000000  1.000000  1.000000
 FoFCou: FMM=F IPFlag=           0 FMFlag=      100000 FMFlg1=           0
         NFxFlg=           0 DoJE=T BraDBF=F KetDBF=T FulRan=T
         wScrn=  0.000000 ICntrl=       500 IOpCl=  0 I1Cent=   200000004 NGrid=           0
         NMat0=    1 NMatS0=      1 NMatT0=    0 NMatD0=    1 NMtDS0=    0 NMtDT0=    0
 Petite list used in FoFCou.
 Requested convergence on RMS density matrix=1.00D-08 within 128 cycles.
 Requested convergence on MAX density matrix=1.00D-06.
 Requested convergence on             energy=1.00D-06.
 No special actions if energy rises.
 SCF Done:  E(RM062X) =  -890.747863822     A.U. after   15 cycles
            NFock= 15  Conv=0.52D-08     -V/T= 2.0063
 Calling FoFJK, ICntrl=      2127 FMM=F ISym2X=0 I1Cent= 0 IOpClX= 0 NMat=1 NMatS=1 NMatT=0.
 ***** Axes restored to original set *****
 -------------------------------------------------------------------
 Center     Atomic                   Forces (Hartrees/Bohr)
 Number     Number              X              Y              Z
 -------------------------------------------------------------------
      1        6           0.001085634   -0.000178878   -0.001099130
      2        6          -0.001560321   -0.001047379   -0.000324126
      3        1          -0.000380737    0.000758452   -0.000072513
      4        6          -0.001372937    0.000074260    0.000705736
      5        1           0.000226159   -0.000025271    0.000435867
      6        6           0.000451497   -0.001230213    0.001239253
      7        7           0.000368939    0.002929900    0.000116510
      8        6           0.000919243    0.000073732   -0.000534612
      9        1          -0.000230126    0.000013693    0.000333001
     10        6           0.000825683    0.000502227    0.000105719
     11        1           0.000529650    0.000036476   -0.000155139
     12       16           0.000934966   -0.001323330   -0.000590532
     13        8           0.000271379    0.001198660    0.000377543
     14        8          -0.000894624   -0.000737383   -0.000346735
     15        7          -0.001198173    0.000609933   -0.001781112
     16        1           0.000334307    0.000469811    0.001903433
     17        1          -0.001016632   -0.000934935   -0.000172647
     18        1           0.000706094   -0.001189755   -0.000140517
 -------------------------------------------------------------------
 Cartesian Forces:  Max     0.002929900 RMS     0.000890773

 GradGradGradGradGradGradGradGradGradGradGradGradGradGradGradGradGradGrad
 Berny optimization.
 Using GEDIIS/GDIIS optimizer.
 FormGI is forming the generalized inverse of G from B-inverse, IUseBI=4.
 Internal  Forces:  Max     0.002099970 RMS     0.000645559
 Search for a local minimum.
 Step number   3 out of a maximum of   93
 All quantities printed in internal units (Hartrees-Bohrs-Radians)
 Mixed Optimization -- En-DIIS/RFO-DIIS
 Update second derivatives using D2CorX and points    1    2    3
 DE= -1.06D-03 DEPred=-8.98D-04 R= 1.18D+00
 TightC=F SS=  1.41D+00  RLast= 2.31D-01 DXNew= 8.4853D-01 6.9318D-01
 Trust test= 1.18D+00 RLast= 2.31D-01 DXMaxT set to 6.93D-01
 ITU=  1  1  0
 Use linear search instead of GDIIS.
     Eigenvalues ---    0.00376   0.01466   0.01823   0.01975   0.01993
     Eigenvalues ---    0.02098   0.02115   0.02157   0.02168   0.02181
     Eigenvalues ---    0.02205   0.02339   0.04769   0.11106   0.12579
     Eigenvalues ---    0.15721   0.15999   0.16000   0.16000   0.16000
     Eigenvalues ---    0.16002   0.16443   0.21164   0.21999   0.22739
     Eigenvalues ---    0.23859   0.24427   0.24757   0.24977   0.25365
     Eigenvalues ---    0.32484   0.35149   0.35170   0.35230   0.35308
     Eigenvalues ---    0.41867   0.42066   0.43901   0.44995   0.45142
     Eigenvalues ---    0.45383   0.45845   0.46179   0.47077   0.48124
     Eigenvalues ---    0.59600   0.73619   0.77759
 RFO step:  Lambda=-5.44801958D-04 EMin= 3.76055009D-03
 Quartic linear search produced a step of  0.31744.
 Iteration  1 RMS(Cart)=  0.06286164 RMS(Int)=  0.00229726
 Iteration  2 RMS(Cart)=  0.00260480 RMS(Int)=  0.00012611
 Iteration  3 RMS(Cart)=  0.00000329 RMS(Int)=  0.00012611
 Iteration  4 RMS(Cart)=  0.00000000 RMS(Int)=  0.00012611
 Variable       Old X    -DE/DX   Delta X   Delta X   Delta X     New X
                                 (Linear)    (Quad)   (Total)
    R1        2.62502   0.00087   0.00010   0.00167   0.00177   2.62679
    R2        2.63408   0.00082   0.00024   0.00157   0.00181   2.63589
    R3        3.44815  -0.00045   0.00955   0.00083   0.01037   3.45852
    R4        2.05469   0.00033   0.00035   0.00138   0.00173   2.05642
    R5        2.63926  -0.00151   0.00055  -0.00351  -0.00296   2.63630
    R6        2.05973  -0.00042   0.00043  -0.00113  -0.00071   2.05902
    R7        2.63814   0.00096  -0.00125   0.00179   0.00054   2.63868
    R8        2.66990   0.00028   0.00429   0.00408   0.00838   2.67827
    R9        2.64645   0.00030  -0.00120   0.00001  -0.00119   2.64527
   R10        1.91256   0.00119  -0.00013   0.00296   0.00283   1.91539
   R11        1.91254   0.00117  -0.00012   0.00292   0.00279   1.91533
   R12        2.05964  -0.00037   0.00043  -0.00096  -0.00054   2.05910
   R13        2.62959  -0.00049   0.00038  -0.00061  -0.00024   2.62935
   R14        2.05285   0.00036   0.00013   0.00123   0.00136   2.05421
   R15        2.79191  -0.00114  -0.00420  -0.00404  -0.00824   2.78367
   R16        2.81249  -0.00119  -0.00262  -0.00359  -0.00621   2.80628
   R17        2.95716   0.00119   0.00019   0.00334   0.00353   2.96069
   R18        1.93244   0.00049  -0.00034   0.00148   0.00113   1.93357
    A1        2.07478   0.00138  -0.00178   0.00667   0.00490   2.07968
    A2        2.11516  -0.00210   0.00126  -0.01076  -0.00950   2.10566
    A3        2.09240   0.00072   0.00048   0.00394   0.00441   2.09681
    A4        2.05918   0.00074  -0.00280   0.00284   0.00000   2.05918
    A5        2.10748  -0.00076   0.00103  -0.00366  -0.00265   2.10483
    A6        2.11647   0.00001   0.00177   0.00096   0.00270   2.11916
    A7        2.09771  -0.00009   0.00002  -0.00105  -0.00105   2.09666
    A8        2.10273  -0.00036  -0.00050  -0.00208  -0.00257   2.10016
    A9        2.08274   0.00045   0.00048   0.00314   0.00362   2.08636
   A10        2.10844  -0.00065  -0.00027  -0.00333  -0.00361   2.10482
   A11        2.07075   0.00115   0.00068   0.00564   0.00631   2.07707
   A12        2.10323  -0.00051  -0.00040  -0.00264  -0.00305   2.10018
   A13        1.97759  -0.00077  -0.00445  -0.01257  -0.01745   1.96013
   A14        1.97793  -0.00081  -0.00448  -0.01285  -0.01777   1.96016
   A15        1.92420   0.00016  -0.00343  -0.00853  -0.01271   1.91149
   A16        2.08142   0.00045   0.00047   0.00270   0.00317   2.08459
   A17        2.10340  -0.00054  -0.00052  -0.00263  -0.00315   2.10025
   A18        2.09835   0.00009   0.00004  -0.00007  -0.00003   2.09832
   A19        2.10718  -0.00087   0.00108  -0.00396  -0.00288   2.10431
   A20        2.06785   0.00085  -0.00248   0.00338   0.00090   2.06876
   A21        2.10808   0.00002   0.00138   0.00058   0.00196   2.11003
   A22        1.80204   0.00005   0.00296  -0.00496  -0.00199   1.80004
   A23        1.77533   0.00053   0.00600  -0.00285   0.00315   1.77848
   A24        1.88504  -0.00009   0.00331  -0.00561  -0.00229   1.88275
   A25        2.01974  -0.00039  -0.00035   0.00274   0.00229   2.02203
   A26        1.93468   0.00021  -0.00458   0.00684   0.00221   1.93688
   A27        2.02016  -0.00022  -0.00446   0.00093  -0.00361   2.01655
   A28        1.84946   0.00084  -0.00599   0.00488  -0.00111   1.84835
    D1        3.12498   0.00036  -0.00002   0.02043   0.02039  -3.13781
    D2       -0.00551   0.00009  -0.00025   0.00556   0.00532  -0.00019
    D3        0.02760   0.00039   0.00094   0.02410   0.02502   0.05262
    D4       -3.10289   0.00012   0.00071   0.00923   0.00994  -3.09295
    D5        0.00300  -0.00007  -0.00016  -0.00490  -0.00505  -0.00205
    D6        3.13181  -0.00006  -0.00174  -0.00461  -0.00633   3.12547
    D7        3.10097  -0.00018  -0.00108  -0.00890  -0.01001   3.09096
    D8       -0.05341  -0.00016  -0.00267  -0.00861  -0.01129  -0.06470
    D9        1.70000  -0.00019  -0.02711  -0.08291  -0.11003   1.58997
   D10       -2.48391  -0.00039  -0.02415  -0.08290  -0.10704  -2.59095
   D11       -0.34991  -0.00041  -0.02476  -0.08583  -0.11058  -0.46049
   D12       -1.39694  -0.00017  -0.02609  -0.07927  -0.10537  -1.50232
   D13        0.70233  -0.00037  -0.02312  -0.07926  -0.10238   0.59995
   D14        2.83634  -0.00040  -0.02374  -0.08219  -0.10592   2.73042
   D15       -3.13637   0.00009   0.00114   0.00513   0.00626  -3.13011
   D16        0.00803  -0.00002   0.00088  -0.00091  -0.00003   0.00800
   D17        0.01669  -0.00020   0.00094  -0.01024  -0.00932   0.00737
   D18       -3.12209  -0.00031   0.00068  -0.01628  -0.01561  -3.13770
   D19       -3.10751   0.00010  -0.00142   0.00465   0.00324  -3.10428
   D20       -0.00778  -0.00007  -0.00108  -0.00449  -0.00558  -0.01336
   D21        0.03687  -0.00001  -0.00167  -0.00133  -0.00301   0.03385
   D22        3.13659  -0.00018  -0.00133  -0.01047  -0.01182   3.12477
   D23       -0.47996  -0.00062  -0.00595  -0.02077  -0.02643  -0.50638
   D24       -2.68948   0.00051   0.00690   0.01282   0.01945  -2.67003
   D25        2.70428  -0.00049  -0.00633  -0.01167  -0.01773   2.68656
   D26        0.49476   0.00064   0.00652   0.02193   0.02815   0.52291
   D27       -3.12971   0.00008   0.00181   0.00516   0.00699  -3.12272
   D28        0.00529   0.00008   0.00068   0.00514   0.00583   0.01113
   D29       -0.02985  -0.00009   0.00216  -0.00396  -0.00181  -0.03166
   D30        3.10515  -0.00009   0.00102  -0.00398  -0.00297   3.10218
   D31       -0.00297  -0.00001  -0.00007  -0.00044  -0.00051  -0.00348
   D32       -3.13148  -0.00003   0.00157  -0.00076   0.00081  -3.13067
   D33        3.13197  -0.00000  -0.00121  -0.00046  -0.00167   3.13030
   D34        0.00346  -0.00002   0.00042  -0.00077  -0.00035   0.00311
   D35       -1.34135  -0.00128  -0.02020  -0.05283  -0.07302  -1.41438
   D36        2.97946  -0.00140  -0.02322  -0.04737  -0.07053   2.90893
   D37        0.63427  -0.00081  -0.01300  -0.05957  -0.07264   0.56163
         Item               Value     Threshold  Converged?
 Maximum Force            0.002100     0.000450     NO 
 RMS     Force            0.000646     0.000300     NO 
 Maximum Displacement     0.256082     0.001800     NO 
 RMS     Displacement     0.062818     0.001200     NO 
 Predicted change in Energy=-3.432976D-04
 GradGradGradGradGradGradGradGradGradGradGradGradGradGradGradGradGradGrad

                          Input orientation:                          
 ---------------------------------------------------------------------
 Center     Atomic      Atomic             Coordinates (Angstroms)
 Number     Number       Type             X           Y           Z
 ---------------------------------------------------------------------
[...]
 225413,0.0101626,-0.0630894,0.1060178,-0.017519,-0.036824,0.0081963,-0
 .0704351,-0.004585,-0.0265729,-0.0120494,-0.0118945,-0.0036128,0.00635
 12,-0.0297537,0.0114307,0.1132017,-0.0072556,-0.0495137,0.0035707,0.11
 06741,1.9771302,-0.0854767,-0.1233633,-0.0957907,2.2189742,0.1254142,-
 0.112839,0.1396289,2.6682812,-0.6218145,-0.1863149,0.115045,-0.1513,-1
 .3682131,0.4065223,0.0724725,0.0842145,-0.9836154,-1.345025,-0.0241851
 ,-0.4389864,-0.1214999,-0.7055231,-0.0928557,-0.2024879,-0.055743,-1.0
 32938,-0.8786046,0.4169986,0.3836693,0.4219916,-0.888491,-0.3126487,0.
 194186,-0.1615123,-1.2492547,0.1126453,-0.1482888,0.0033992,-0.0924872
 ,0.0062133,-0.0102358,0.0164517,0.0097782,0.3030878,0.0913493,-0.06704
 09,-0.0120757,-0.0862814,0.2316094,-0.214624,0.0290648,-0.0303477,0.17
 54802,0.0949457,0.0711394,0.0062801,0.0998462,0.2281262,-0.2070885,-0.
 0334919,-0.0269411,0.1757959\Polar=116.7001578,-2.2741604,81.2353534,-
 4.8378471,-3.5363542,158.8443691\Quadrupole=6.4431893,2.929696,-9.3728
 853,-0.6385545,2.2430778,8.3906383\PG=C01 [X(C6H7N2O2S1)]\NImag=0\\0.6
 9075474,-0.00923230,0.14828718,-0.00180727,-0.04243139,0.54885445,-0.2
 8174265,0.01456975,-0.12277699,0.72324234,0.01227235,-0.06676371,0.013
 30458,-0.01350139,0.14630543,-0.06226717,0.01238233,-0.17511914,-0.036
 59933,-0.04762756,0.70665740,-0.02000922,-0.00029106,0.01294910,-0.274
 46297,-0.00207860,0.12280831,0.29194604,0.00226056,0.00430382,-0.00137
 168,-0.00116695,-0.04011515,0.00332399,0.00125363,0.02697507,-0.012633
 89,-0.00077044,0.01329120,0.12427093,0.00341777,-0.12833602,-0.1319515
 3,-0.00488915,0.13087836,0.04120260,0.00285470,-0.02502936,-0.12928308
 ,0.00291705,-0.03121169,0.00501076,-0.00257517,0.02627111,0.70851833,0
 .00513079,0.00870993,0.00386111,-0.00221730,-0.06191880,0.02748231,0.0
 0020343,0.00384425,0.00055401,-0.01779437,0.12976742,-0.08325024,0.005
 09164,-0.03025635,0.04324718,0.02534587,-0.35768559,-0.00234599,0.0012
 5333,-0.00973691,0.02773660,-0.05179532,0.71726770,0.00197177,0.000174
 83,0.00010545,0.00382093,-0.00016827,0.00135182,0.00061392,-0.00013029
 ,-0.00032948,-0.26239572,0.01744548,-0.11926723,0.27838462,-0.00018777
 ,0.00736883,0.00080522,0.00248673,0.00242315,0.00119908,-0.00027498,-0
 .00430781,-0.00033478,0.01819531,-0.03453101,0.01194400,-0.01947786,0.
 02463810,0.00148322,0.00127340,-0.00623450,-0.02908514,0.00211948,-0.0
 1101193,0.00039193,-0.00050957,0.00111864,-0.12002424,0.01144109,-0.12
 935095,0.13119785,-0.01329475,0.13521372,-0.08995752,0.00240387,-0.002
 99822,0.04515211,-0.00693733,0.09365449,0.00173655,0.00031788,-0.00145
 106,-0.28391493,0.00276484,0.03330633,-0.01965287,-0.00110326,0.012773
 94,0.71457935,0.00171981,-0.00614408,-0.00098719,-0.00434264,0.0038622
 0,-0.00011583,0.00046435,0.00751859,0.00105640,-0.00353202,-0.06728865
 ,0.00741232,0.00220540,0.00354394,-0.00082876,-0.01064156,0.16234605,-
 0.00175118,-0.00019224,0.00605852,0.03064088,0.00120168,-0.02494904,-0
 .00124951,0.00102638,-0.00469588,0.11752614,0.00467491,-0.16406411,-0.
 01869825,0.00010909,0.00879691,0.00305716,-0.03371427,0.69385450,0.006
 55523,-0.00014559,0.00036143,-0.00891774,-0.00040127,-0.00566646,0.000
 15853,-0.00017759,0.00139435,0.00099868,-0.00458036,0.04442369,0.00177
 712,0.00087445,0.00071112,-0.11523453,0.00025340,0.00265127,0.74641194
 ,-0.00001999,-0.00061390,0.00264248,0.00204083,0.00526307,-0.00068099,
 -0.00005477,0.00019174,-0.00024234,-0.00398314,0.00590491,0.00277827,-
 0.00038790,-0.00306545,-0.00015637,0.00110343,-0.04316230,-0.01161741,
 -0.00863344,0.18518254,-0.00031267,-0.00106355,-0.00641964,-0.00067466
 ,-0.00075335,0.00323618,0.00006716,0.00025757,-0.00038659,0.00887228,0
 .00365760,-0.03355824,-0.00087519,0.00011642,0.00224593,0.00324593,0.0
 4300174,-0.28194445,0.00422274,0.14361507,0.59396579,0.03496414,-0.004
 87309,0.02877981,-0.02166737,0.00259595,-0.03206235,0.00027846,0.00009
 370,-0.00066214,-0.05333432,-0.00103394,0.02527335,-0.00313080,0.00006
 993,0.00301795,-0.28310290,0.01220163,-0.12440599,0.00321712,0.0042774
 8,-0.00762160,0.71551423,-0.00680854,0.00770832,0.00184520,0.00258897,
 -0.00454070,0.00462676,0.00004954,-0.00069650,0.00004528,0.00409642,0.
 00811282,-0.00501755,-0.00018971,0.00552980,0.00051587,0.00575841,-0.0
 6701120,0.00995404,0.00465956,0.00580647,0.00422818,-0.00541120,0.1274
 9804,0.08665980,0.00023252,-0.02421566,-0.03235782,0.00408093,-0.05796
 421,-0.00109230,-0.00002416,-0.00066534,-0.02982764,-0.00370650,0.0643
 5016,0.00443296,0.00059434,-0.00069215,-0.04035106,0.00920013,-0.17228
 779,-0.04303626,0.00477629,-0.03533875,-0.02568701,-0.05077066,0.70783
 539,0.00203120,-0.00002624,0.00021590,0.00014059,0.00004729,-0.0009849
 6,-0.00001829,-0.00001866,0.00008723,-0.00283786,0.00052941,-0.0045141
 7,-0.00125257,-0.00002138,0.00076088,-0.01994464,-0.00119277,0.0176694
 8,0.00172808,0.00018115,0.00087677,-0.27160245,-0.00768644,0.11421214,
 0.28868141,0.00038440,0.00692275,0.00095032,0.00002812,-0.00085602,-0.
 00024150,-0.00005118,-0.00095550,-0.00008080,0.00026533,0.00575369,0.0
 0075315,0.00008228,0.00028318,0.00000573,0.00204303,0.00365469,-0.0005
 8252,-0.00106757,-0.00322538,0.00008201,-0.00841224,-0.03309761,0.0065
 0316,0.00867700,0.02328292,-0.00092064,0.00133975,-0.00632037,-0.00086
 967,0.00003856,-0.00107432,0.00011781,-0.00010782,0.00004410,-0.003045
 59,0.00067615,-0.00096443,-0.00081750,0.00003026,0.00056037,-0.0138343
 5,-0.00030219,0.00895244,-0.00077126,-0.00012671,0.00226866,0.11509577
 ,0.00598790,-0.12049906,-0.12579772,-0.00731901,0.12541780,-0.29407730
 ,-0.00558642,0.12245324,-0.05758152,0.00271880,-0.02840738,-0.00372293
 ,0.00034901,-0.00359721,-0.02380621,-0.00178257,0.03286013,0.00010041,
 0.00000074,0.00089349,0.04863305,0.00246105,-0.02795509,-0.00899245,-0
 .00153210,0.00049129,-0.12813489,0.00425036,-0.03412408,0.00264243,-0.
 00258703,0.02960671,0.72830702,-0.00253456,-0.06121151,0.00812889,0.00
 026185,0.00696569,-0.00316918,0.00069662,0.00663303,0.00070844,-0.0021
 3446,-0.00451516,0.00252073,-0.00008528,-0.00070065,0.00000142,0.00533
 018,0.00244587,0.00271606,0.00094789,0.00555404,-0.00078984,-0.0008318
 7,-0.06062242,0.02712503,0.00005987,0.00235281,0.00081327,-0.01279986,
 0.14254572,0.06234490,0.01063937,-0.17205425,0.02519132,-0.00440253,0.
 07066031,-0.00347615,0.00077443,-0.00196333,0.03370662,0.00283228,-0.0
 5602374,0.00102686,-0.00020886,-0.00106452,-0.09147045,0.00413139,-0.0
 2889459,0.00535717,-0.00098392,0.00319462,0.04022293,0.02600898,-0.347
 65317,-0.00078280,0.00110179,-0.00986522,0.03373353,-0.05098485,0.6981
 5515,-0.02002686,0.00149695,-0.01377094,-0.00405046,-0.00014635,0.0034
 3336,-0.00099297,0.00009609,-0.00094507,0.00013849,-0.00008693,0.00116
 469,-0.00000253,0.00000516,-0.00013170,0.00162990,-0.00019596,0.001554
 01,0.00023146,0.00008946,-0.00001477,0.00607717,-0.00038262,0.00301354
 ,0.00061705,0.00001880,-0.00048443,-0.26591183,0.01437678,-0.12875721,
 0.28266354,-0.00052766,0.00463898,-0.00088405,0.00003471,0.00672620,0.
 00056026,-0.00010019,-0.00025084,0.00000372,-0.00028087,-0.00076743,0.
 00008652,-0.00001534,-0.00092581,-0.00009333,0.00012622,0.00733107,0.0
 0094197,0.00014862,0.00023976,0.00023085,0.00228451,0.00339523,0.00097
 591,-0.00004960,-0.00413597,-0.00050689,0.01359135,-0.04078248,0.01069
 773,-0.01516033,0.02869418,0.01060744,-0.00106027,0.01275292,0.0035803
 3,0.00053537,-0.00171902,0.00085758,-0.00002972,0.00075299,0.00071267,
 0.00001064,-0.00057718,-0.00008997,-0.00009103,0.00002163,0.00168421,0
 .00105087,-0.00450103,-0.00133181,-0.00014722,-0.00044575,-0.02506136,
 0.00172442,-0.01043398,0.00030508,-0.00040254,0.00107502,-0.13089848,0
 .01052246,-0.13671805,0.13896459,-0.01221521,0.14061319,-0.07115569,0.
 00117499,0.00076213,0.01119281,0.00298597,-0.01758949,-0.00331386,-0.0
 0002447,-0.00356656,-0.00411844,0.00100048,-0.00665355,-0.00010676,0.0
 0004354,-0.00167764,-0.00562612,0.00017025,0.00023249,-0.00002629,0.00
 003956,-0.00031171,-0.00454910,-0.00067565,0.00492137,0.00000602,-0.00
 000903,0.00128631,0.01000460,-0.00312278,0.01538482,-0.00402358,0.0002
 3794,0.00438796,0.81532745,-0.00082335,-0.05715203,0.01156483,0.000225
 40,-0.00113984,-0.00015386,0.00010934,-0.00041743,0.00055120,0.0001894
 2,0.00456105,-0.00083745,-0.00012670,0.00038951,-0.00028470,-0.0000964
 9,-0.00005624,0.00022528,-0.00000258,-0.00054271,-0.00032607,0.0004439
 4,0.00603529,-0.00030266,0.00018055,0.00044020,-0.00036060,-0.00094032
 ,0.00019021,-0.00113143,0.00003199,-0.00219743,0.00050651,0.08133066,0
 .84769854,0.00544360,0.00651555,-0.14464756,-0.01306210,0.00043037,-0.
 01381252,0.00267590,0.00027266,0.00023812,-0.00062023,-0.00009525,0.00
 669644,0.00106643,-0.00003062,0.00237402,0.00119067,0.00133868,-0.0085
 3782,-0.00030822,-0.00423707,0.00951728,-0.00066011,0.00064167,0.00529
 767,-0.00115129,0.00000007,0.00230474,0.01309382,0.00068965,-0.0096610
 0,-0.00300260,-0.00017369,0.00119585,0.02254770,0.04142214,0.46278288,
 0.01002402,-0.00689357,0.00086381,-0.00255275,-0.00015014,0.00099448,0
 .00059873,-0.00112609,0.00074239,0.00017226,0.00061552,0.00222388,0.00
 008661,0.00000211,0.00040206,0.00167532,-0.00000214,-0.00053421,-0.000
 02527,-0.00039159,0.00075221,0.00017766,0.00066091,-0.00126414,-0.0000
 5964,-0.00007231,0.00003794,-0.00110765,0.00026061,0.00089778,0.000382
 50,-0.00027403,-0.00065251,-0.11389509,-0.11075533,0.00957163,0.100355
 56,-0.00660960,-0.01207006,0.00058912,-0.00154883,0.00092184,0.0025673
 4,0.00024473,-0.00130940,-0.00027119,0.00031823,0.00110937,0.00107806,
 0.00025454,-0.00012390,0.00062488,-0.00033210,0.00005553,-0.00173930,0
 .00003096,-0.00099210,0.00240368,-0.00027167,0.00106496,0.00153799,-0.
 00027169,-0.00001467,0.00073255,0.00199367,-0.00095571,0.00417251,-0.0
 0002494,-0.00103690,-0.00036049,-0.11145058,-0.47104988,0.03960288,0.1
 2449173,0.52768041,0.00870499,0.02772857,-0.00352744,0.00186189,0.0009
 9492,-0.00048667,-0.00025858,0.00019137,-0.00012010,0.00033097,-0.0012
 4452,-0.00018494,-0.00025046,0.00000087,-0.00042189,0.00082013,-0.0003
 7195,0.00245373,-0.00000697,0.00148478,-0.00304222,-0.00046813,-0.0018
 8957,-0.00197505,0.00025513,-0.00013341,-0.00058501,-0.00307668,0.0016
 0541,-0.00073386,0.00044328,0.00084348,-0.00026410,0.01522406,0.053255
 25,-0.08671106,-0.01831452,-0.05074285,0.06471591,-0.00939897,-0.00517
 757,-0.00055000,0.00080198,0.00036198,-0.00672288,0.00084094,-0.000061
 00,0.00087382,-0.00061418,0.00011428,0.00091223,-0.00008774,0.00007367
 ,-0.00058517,0.00121743,-0.00037133,0.00176512,0.00043481,0.00081916,-
 0.00175886,0.00205208,0.00054354,-0.00206483,0.00020390,0.00005431,-0.
 00067216,-0.00567992,0.00087080,0.00212525,0.00261149,-0.00061583,-0.0
 0225424,-0.42685947,-0.08336874,-0.10163753,-0.00554936,-0.00355458,-0
 .00691727,0.47057885,-0.00170339,0.00929608,0.00163110,0.00003994,0.00
 136503,-0.00166166,0.00009992,-0.00002749,-0.00013661,-0.00053214,-0.0
 0060850,0.00054632,-0.00002432,-0.00017562,-0.00012822,0.00059542,-0.0
 0010981,0.00017272,-0.00000931,0.00017562,-0.00021998,-0.00000669,-0.0
 0025478,-0.00062181,0.00002216,-0.00003416,-0.00010237,-0.00068140,0.0
 0082632,0.00062743,0.00018659,-0.00089956,-0.00005086,-0.07560807,-0.1
 0603829,-0.02442525,-0.03818565,-0.00564414,-0.01069385,0.09583941,0.0
 8503502,-0.03339135,-0.00478658,-0.00859543,0.00503242,0.00001252,-0.0
 0616020,-0.00053974,-0.00035787,-0.00007596,-0.00172217,0.00082342,-0.
 00226621,-0.00024204,0.00016997,-0.00110815,-0.00110152,-0.00038243,0.
 00181209,0.00005840,0.00102968,-0.00244517,-0.00140330,0.00018668,-0.0
 0000388,0.00031319,-0.00002159,-0.00037154,0.00047577,-0.00061311,-0.0
 0262875,-0.00195775,0.00008352,-0.00112070,-0.10533834,-0.02876519,-0.
 11675519,0.00103970,0.00149182,0.01648661,0.12568214,0.03258177,0.1069
 8873,-0.00043831,0.01000085,0.00029396,-0.00292150,-0.00173396,0.00030
 629,0.00123696,0.00128964,0.00116250,0.00085162,-0.00111346,0.00152877
 ,0.00017070,-0.00002405,0.00055873,0.00063152,0.00027427,-0.00136992,0
 .00018416,-0.00069401,0.00168498,0.00021355,-0.00069162,-0.00016701,-0
 .00012980,-0.00004939,0.00039693,-0.00002255,-0.00026052,0.00345695,0.
 00069884,0.00052747,-0.00082834,-0.19762888,0.07774428,0.05419102,0.01
 044885,-0.00932011,-0.00057237,-0.03182181,0.02234293,0.01362692,0.310
 70670,0.00605309,0.00607189,0.00151300,0.00146537,0.00055001,0.0003693
 7,-0.00031498,-0.00128138,0.00029224,0.00015964,0.00051282,-0.00121690
 ,-0.00011676,-0.00002497,-0.00033275,-0.00092241,-0.00046772,0.0006856
 7,0.00000343,0.00046711,-0.00091358,0.00082106,-0.00037997,0.00042814,
 0.00009617,-0.00004695,-0.00037430,-0.00029921,0.00037140,-0.00418630,
 -0.00034530,0.00011325,0.00006049,0.12801234,-0.19068048,-0.06527619,0
 .02617358,-0.03441575,-0.01666886,-0.00238204,0.01062543,-0.00245722,0
 .02059339,0.55460401,0.01945052,-0.01668758,-0.00341476,-0.00025519,0.
 00009821,-0.00191473,0.00109055,0.00043410,-0.00019830,0.00068526,-0.0
 0009678,0.00061445,-0.00028617,-0.00005506,-0.00038696,0.00147966,-0.0
 0032052,0.00216977,-0.00002784,0.00129963,-0.00285252,0.00047308,0.001
 60873,-0.00225948,0.00027747,0.00026862,-0.00081984,-0.00399416,-0.000
 92520,-0.00327672,0.00042104,-0.00073043,-0.00028735,0.07336180,-0.060
 01205,-0.10577332,0.00215067,-0.00079757,0.00946240,-0.00707912,0.0022
 2597,0.01850915,-0.06739745,0.12291507,0.10262035,-0.00153375,-0.00042
 347,0.00015974,-0.00030056,0.00019729,-0.00015025,0.00009377,-0.000316
 18,0.00021268,0.00020819,0.00020654,-0.00023332,-0.00002189,-0.0000254
 0,-0.00003846,-0.00017527,0.00002177,-0.00001117,0.00002145,0.00002976
 ,-0.00008792,-0.00008082,-0.00004825,0.00009554,0.00000910,0.00001234,
 0.00002037,0.00022843,-0.00001495,0.00014759,-0.00005345,0.00002246,0.
 00012219,-0.00529527,0.03583720,0.01063182,-0.00068476,0.00605401,0.00
 225047,0.00135981,-0.00238124,-0.00051560,-0.09212840,-0.17900020,-0.0
 2036620,0.09834773,0.00072981,0.00077521,0.00029180,-0.00019297,0.0002
 5666,0.00018620,0.00001997,0.00005817,0.00000362,-0.00000299,-0.000272
 21,0.00013910,0.00001855,0.00000382,0.00004255,0.00005905,0.00009595,-
 0.00009428,0.00000562,-0.00004881,0.00012968,0.00007502,-0.00013068,0.
 00000633,-0.00001506,-0.00001065,0.00001402,-0.00001661,0.00015314,-0.
 00005256,0.00007402,0.00000846,-0.00014098,-0.02408476,-0.03008960,0.0
 0092759,0.00551779,-0.00358227,-0.00360644,-0.00265032,0.00658193,0.00
 159873,-0.11939465,-0.34572293,-0.04846429,0.13985991,0.37189334,0.001
 71620,0.00220232,-0.00081047,-0.00001632,-0.00021745,0.00003556,0.0000
 2729,-0.00032007,0.00027080,0.00007082,0.00017056,-0.00033085,0.000016
 85,-0.00001665,-0.00000036,-0.00033403,-0.00005149,-0.00037894,0.00001
 544,-0.00018720,0.00044295,0.00047325,-0.00016097,0.00028547,-0.000023
 73,-0.00001736,-0.00002714,0.00022988,0.00006803,-0.00110095,-0.000033
 30,0.00008662,0.00005370,-0.00299918,-0.01520988,-0.00396778,0.0011348
 6,-0.00076977,0.00473183,-0.00122485,0.00021820,-0.00244459,-0.0068093
 5,-0.03493226,-0.01237486,0.00776065,0.04902435,0.01563691,0.00047848,
 0.00014017,0.00038071,-0.00044293,0.00113049,-0.00065021,-0.00002618,-
 0.00007289,0.00006821,0.00198051,0.00016472,0.00363921,-0.00062106,-0.
 00080609,-0.00052106,0.00195084,0.00058599,-0.00086204,-0.31306665,-0.
 11137274,-0.12741818,0.00105465,-0.00044484,0.00027616,0.00033625,-0.0
 0021774,0.00013109,-0.00039527,0.00015159,0.00031014,0.00002660,-0.000
 01816,-0.00003268,0.00002387,-0.00030465,-0.00045786,-0.00006806,-0.00
 007482,0.00020625,0.00002446,0.00005000,0.00005200,-0.00007705,0.00006
 478,0.00006543,0.00000209,0.00000130,-0.00001330,0.33123365,0.00085810
 ,-0.00008851,-0.00069507,-0.00043248,-0.00044387,-0.00058367,0.0000071
 1,-0.00002638,-0.00000486,0.00054988,0.00024889,-0.00042803,0.00050688
 ,0.00028557,-0.00039705,0.00770681,-0.00344155,0.01332892,-0.15246408,
 -0.07553596,-0.09830651,-0.00132799,0.00136824,0.00030942,-0.00007660,
 -0.00060329,-0.00001298,0.00040396,0.00116135,0.00155991,-0.00002402,-
 0.00011865,0.00010025,0.00005115,0.00002165,0.00119629,0.00005592,0.00
 018495,-0.00038448,-0.00025074,-0.00006711,-0.00026761,0.00025742,-0.0
 0014328,-0.00043110,-0.00001408,0.00001350,0.00005984,0.12747121,0.073
 89241,0.00063587,-0.00023509,0.00035530,-0.00022246,0.00076587,-0.0007
 1656,0.00001488,-0.00003359,0.00004114,-0.00173455,0.00077895,0.002606
 00,0.00154030,-0.00074219,-0.00018233,-0.03514578,-0.01463230,-0.01761
 588,-0.12330795,-0.07039171,-0.12828903,0.00297103,-0.00019664,-0.0063
 6947,-0.00011936,-0.00021990,0.00011942,-0.00204399,0.00082816,0.00031
 966,0.00011958,0.00011011,-0.00043276,-0.00003515,-0.00007616,-0.00029
 304,-0.00000937,-0.00003742,0.00009364,0.00016470,0.00002589,0.0000838
 9,0.00002782,0.00003180,0.00009240,0.00000469,-0.00000164,-0.00000942,
 0.14141969,0.07575966,0.14138235,0.00035807,-0.00016679,-0.00039251,-0
 .00042723,-0.00010984,-0.00023658,0.00003176,0.00000877,0.00005371,0.0
 0122332,0.00043344,-0.00005155,0.00034587,0.00016916,-0.00012776,0.000
 40269,-0.00007950,0.00174081,-0.31545566,0.11848885,0.11886219,0.00205
 357,-0.00026882,-0.00363940,-0.00055079,0.00090087,0.00052038,-0.00048
 343,-0.00117192,0.00058075,-0.00001537,0.00006873,-0.00007266,0.000043
 81,0.00032540,0.00048733,0.00002106,0.00007104,-0.00023218,-0.00011430
 ,-0.00004415,-0.00006874,0.00002540,-0.00006195,-0.00004934,0.00000360
 ,-0.00000368,0.00000882,-0.02241420,0.01672157,0.01572004,0.33495183,-
 0.00096173,-0.00003921,-0.00075828,-0.00033909,0.00113882,0.00153660,0
 .00001711,-0.00013677,0.00009746,0.00128918,0.00137661,0.00034595,0.00
 003448,-0.00061067,0.00000106,-0.00817598,-0.00317233,0.01290330,0.160
 55785,-0.08159864,-0.09534989,-0.00069454,0.00021468,-0.00034440,-0.00
 043515,0.00028995,-0.00041958,0.00045659,-0.00041165,-0.00059535,-0.00
 000938,-0.00003206,-0.00001270,-0.00007154,0.00002748,0.00120053,0.000
 07269,0.00017771,-0.00036872,-0.00024499,-0.00004597,-0.00032652,0.000
 25151,-0.00015249,-0.00032976,-0.00001748,0.00001695,0.00005317,-0.016
 44832,0.00329203,0.00826622,-0.13528121,0.07966557,-0.00071214,-0.0001
 7829,0.00030318,0.00209473,0.00065474,0.00036050,-0.00008673,0.0001097
 8,-0.00045692,-0.00269700,-0.00002465,-0.00653526,0.00011776,-0.000195
 30,0.00012250,0.03547397,-0.01548461,-0.01622842,0.11526117,-0.0688552
 4,-0.12014903,0.00172482,0.00066166,0.00258930,-0.00159925,-0.00064622
 ,-0.00021563,0.00025920,0.00075462,-0.00069157,-0.00001634,-0.00001707
 ,0.00003463,0.00006296,-0.00006517,-0.00024771,-0.00003667,-0.00008225
 ,0.00010821,-0.00005636,0.00001121,0.00009531,-0.00009045,0.00006259,0
 .00009030,-0.00000281,-0.00000379,-0.00001186,-0.01659356,0.00919707,0
 .00881471,-0.13310331,0.07410091,0.13201776\\-0.00000024,0.00000002,0.
 00000175,0.00000139,0.00000057,0.00000128,0.00000032,-0.00000151,0.000
 00069,0.00000013,-0.00000343,0.00000095,-0.00000187,-0.00000130,0.0000
 0120,-0.00000501,0.00000055,0.00000122,0.00000386,0.00000119,-0.000000
 99,-0.00000042,0.00000239,-0.00000046,-0.00000143,0.00000176,-0.000002
 01,0.00000089,0.00000247,-0.00000125,-0.00000005,0.00000029,-0.0000018
 4,0.00000739,0.00000106,-0.00000327,-0.00000049,-0.00000869,0.00000196
 ,-0.00000012,0.00000136,-0.00000089,0.00000323,0.00000028,0.00000033,0
 .00000158,0.00000147,0.00000176,-0.00000437,0.00000370,0.00000091,-0.0
 0000479,-0.00000219,-0.00000135\\\@
 The archive entry for this job was punched.


 ACTORS ARE SO FORTUNATE.  THEY CAN CHOOSE WHETHER
 THEY WILL APPEAR IN A TRAGEDY OR IN COMEDY,
 WHETHER THEY WILL SUFFER OF MAKE MERRY,
 LAUGH OR SHED TEARS.  BUT IN REAL LIFE IT IS DIFFERENT.
 MOST MEN AND WOMEN ARE FORCED TO PERFORM
 PARTS FOR WHICH THEY HAVE NO QUALIFICATIONS.
 THE WORLD IS A STAGE, BUT THE PLAY IS BADLY CAST.

                                   -- OSCAR WILDE
 Job cpu time:       0 days  0 hours 42 minutes 57.7 seconds.
 Elapsed time:       0 days  0 hours  2 minutes 58.5 seconds.
 File lengths (MBytes):  RWF=    112 Int=      0 D2E=      0 Chk=      5 Scr=      1
 Normal termination of Gaussian 16 at Fri May 20 19:41:56 2022.
