 Entering Gaussian System, Link 0=g16
 AtFile(1): /home/561/yj5695/Basis/6-31pGd.gbs
 Initial command:
 /apps/gaussian/g16c01/g16/l1.exe "/jobfs/50065403.gadi-pbs/Gau-260010.inp" -scrdir="/jobfs/50065403.gadi-pbs/"
 Entering Link 1 = /apps/gaussian/g16c01/g16/l1.exe PID=    260019.
  
 Copyright (c) 1988-2019, Gaussian, Inc.  All Rights Reserved.
  
 This is part of the Gaussian(R) 16 program.  It is based on
 the Gaussian(R) 09 system (copyright 2009, Gaussian, Inc.),
 the Gaussian(R) 03 system (copyright 2003, Gaussian, Inc.),
 the Gaussian(R) 98 system (copyright 1998, Gaussian, Inc.),
 the Gaussian(R) 94 system (copyright 1995, Gaussian, Inc.),
 the Gaussian 92(TM) system (copyright 1992, Gaussian, Inc.),
 the Gaussian 90(TM) system (copyright 1990, Gaussian, Inc.),
 the Gaussian 88(TM) system (copyright 1988, Gaussian, Inc.),
 the Gaussian 86(TM) system (copyright 1986, Carnegie Mellon
 University), and the Gaussian 82(TM) system (copyright 1983,
 Carnegie Mellon University). Gaussian is a federally registered
 trademark of Gaussian, Inc.
  
 This software contains proprietary and confidential information,
 including trade secrets, belonging to Gaussian, Inc.
  
 This software is provided under written license and may be
 used, copied, transmitted, or stored only in accord with that
 written license.
  
 The following legend is applicable only to US Government
 contracts under FAR:
  
                    RESTRICTED RIGHTS LEGEND
  
 Use, reproduction and disclosure by the US Government is
 subject to restrictions as set forth in subparagraphs (a)
 and (c) of the Commercial Computer Software - Restricted
 Rights clause in FAR 52.227-19.
  
 Gaussian, Inc.
 340 Quinnipiac St., Bldg. 40, Wallingford CT 06492
  
  
 ---------------------------------------------------------------
 Warning -- This program may not be used in any manner that
 competes with the business of Gaussian, Inc. or will provide
 assistance to any competitor of Gaussian, Inc.  The licensee
 of this program is prohibited from giving any competitor of
 Gaussian, Inc. access to this program.  By using this program,
 the user acknowledges that Gaussian, Inc. is engaged in the
 business of creating and licensing software in the field of
 computational chemistry and represents and warrants to the
 licensee that it is not a competitor of Gaussian, Inc. and that
 it will not use this program in any manner prohibited above.
 ---------------------------------------------------------------
  

 Cite this work as:
 Gaussian 16, Revision C.01,
 M. J. Frisch, G. W. Trucks, H. B. Schlegel, G. E. Scuseria, 
 M. A. Robb, J. R. Cheeseman, G. Scalmani, V. Barone, 
 G. A. Petersson, H. Nakatsuji, X. Li, M. Caricato, A. V. Marenich, 
 J. Bloino, B. G. Janesko, R. Gomperts, B. Mennucci, H. P. Hratchian, 
 J. V. Ortiz, A. F. Izmaylov, J. L. Sonnenberg, D. Williams-Young, 
 F. Ding, F. Lipparini, F. Egidi, J. Goings, B. Peng, A. Petrone, 
 T. Henderson, D. Ranasinghe, V. G. Zakrzewski, J. Gao, N. Rega, 
 G. Zheng, W. Liang, M. Hada, M. Ehara, K. Toyota, R. Fukuda, 
 J. Hasegawa, M. Ishida, T. Nakajima, Y. Honda, O. Kitao, H. Nakai, 
 T. Vreven, K. Throssell, J. A. Montgomery, Jr., J. E. Peralta, 
 F. Ogliaro, M. J. Bearpark, J. J. Heyd, E. N. Brothers, K. N. Kudin, 
 V. N. Staroverov, T. A. Keith, R. Kobayashi, J. Normand, 
 K. Raghavachari, A. P. Rendell, J. C. Burant, S. S. Iyengar, 
 J. Tomasi, M. Cossi, J. M. Millam, M. Klene, C. Adamo, R. Cammi, 
 J. W. Ochterski, R. L. Martin, K. Morokuma, O. Farkas, 
 J. B. Foresman, and D. J. Fox, Gaussian, Inc., Wallingford CT, 2019.
 
 ******************************************
 Gaussian 16:  ES64L-G16RevC.01  3-Jul-2019
                 2-Jul-2022 
 ******************************************
 %nproc=16
 Will use up to   16 processors via shared memory.
 %mem=50gb
 --------------------------------------------------
 #M062X/gen 6D INT(grid=ultrafine) OPT Freq=noraman
 --------------------------------------------------
 1/18=20,19=15,26=4,38=1/1,3;
 2/9=110,12=2,17=6,18=5,40=1/2;
 3/5=7,8=2,11=2,25=1,30=1,71=1,74=-55,75=-5/1,2,3;
 4//1;
 5/5=2,38=5/2;
 6/7=2,8=2,9=2,10=2,28=1/1;
 7//1,2,3,16;
 1/18=20,19=15,26=4/3(2);
 2/9=110/2;
 99//99;
 2/9=110/2;
 3/5=7,6=1,8=2,11=2,25=1,30=1,71=1,74=-55,75=-5,82=7/1,2,3;
 4/5=5,16=3,69=1/1;
 5/5=2,38=5/2;
 7//1,2,3,16;
 1/18=20,19=15,26=4/3(-5);
 2/9=110/2;
 6/7=2,8=2,9=2,10=2,19=2,28=1/1;
 99/9=1/99;
 ---------
 A.40.freq
 ---------
 Symbolic Z-matrix:
 Charge = -1 Multiplicity = 1
 C                    -1.63685   1.24239  -1.24151 
 C                    -2.7768    1.32785  -2.08888 
 C                    -2.84381   0.6204   -3.26203 
 C                    -1.76977  -0.2136   -3.65003 
 C                    -0.64037  -0.28909  -2.87566 
 C                    -0.5229    0.44712  -1.65259 
 S                     0.71558  -1.33207  -3.47122 
 O                     1.84268  -0.3622   -3.65972 
 O                     0.95841  -2.31129  -2.37283 
 N                     0.2895   -2.09896  -4.75873 
 H                     0.30355  -1.44517  -5.54542 
 C                     0.6543    0.43711  -0.85109 
 C                     0.70973   1.18863   0.29426 
 C                    -0.39863   1.95276   0.72688 
 C                    -1.57009   1.9745   -0.00186 
 N                    -2.71076   2.71637   0.4077 
 C                    -3.80793   1.85104   0.86308 
 C                    -2.45375   3.73241   1.42229 
 H                    -3.59794   1.97741  -1.80661 
 H                    -3.7175    0.70055  -3.90148 
 H                    -1.83177  -0.78958  -4.56813 
 H                     1.50971  -0.1553   -1.15123 
 H                     1.61382   1.18814   0.89656 
 H                    -0.31585   2.51109   1.65263 
 H                    -4.00648   1.05335   0.14677 
 H                    -4.71523   2.45056   0.97744 
 H                    -3.56573   1.3912    1.8347 
 H                    -1.64239   4.3907    1.10248 
 H                    -2.1978    3.30036   2.40279 
 H                    -3.36026   4.33073   1.54536 
 

 GradGradGradGradGradGradGradGradGradGradGradGradGradGradGradGradGradGrad
 Berny optimization.
 Initialization pass.
                           ----------------------------
                           !    Initial Parameters    !
                           ! (Angstroms and Degrees)  !
 --------------------------                            --------------------------
 ! Name  Definition              Value          Derivative Info.                !
 --------------------------------------------------------------------------------
 ! R1    R(1,2)                  1.423          estimate D2E/DX2                !
 ! R2    R(1,6)                  1.4291         estimate D2E/DX2                !
 ! R3    R(1,15)                 1.4412         estimate D2E/DX2                !
 ! R4    R(2,3)                  1.3716         estimate D2E/DX2                !
 ! R5    R(2,19)                 1.0844         estimate D2E/DX2                !
 ! R6    R(3,4)                  1.4141         estimate D2E/DX2                !
 ! R7    R(3,20)                 1.0857         estimate D2E/DX2                !
 ! R8    R(4,5)                  1.3715         estimate D2E/DX2                !
 ! R9    R(4,21)                 1.0856         estimate D2E/DX2                !
 ! R10   R(5,6)                  1.4324         estimate D2E/DX2                !
 ! R11   R(5,7)                  1.8114         estimate D2E/DX2                !
 ! R12   R(6,12)                 1.4242         estimate D2E/DX2                !
 ! R13   R(7,8)                  1.4988         estimate D2E/DX2                !
 ! R14   R(7,9)                  1.4914         estimate D2E/DX2                !
 ! R15   R(7,10)                 1.558          estimate D2E/DX2                !
 ! R16   R(10,11)                1.023          estimate D2E/DX2                !
 ! R17   R(12,13)                1.371          estimate D2E/DX2                !
 ! R18   R(12,22)                1.0829         estimate D2E/DX2                !
 ! R19   R(13,14)                1.414          estimate D2E/DX2                !
 ! R20   R(13,23)                1.0863         estimate D2E/DX2                !
 ! R21   R(14,15)                1.3798         estimate D2E/DX2                !
 ! R22   R(14,24)                1.0842         estimate D2E/DX2                !
 ! R23   R(15,16)                1.421          estimate D2E/DX2                !
 ! R24   R(16,17)                1.4697         estimate D2E/DX2                !
 ! R25   R(16,18)                1.4587         estimate D2E/DX2                !
 ! R26   R(17,25)                1.0903         estimate D2E/DX2                !
 ! R27   R(17,26)                1.0935         estimate D2E/DX2                !
 ! R28   R(17,27)                1.1019         estimate D2E/DX2                !
 ! R29   R(18,28)                1.0927         estimate D2E/DX2                !
 ! R30   R(18,29)                1.1016         estimate D2E/DX2                !
 ! R31   R(18,30)                1.0931         estimate D2E/DX2                !
 ! A1    A(2,1,6)              119.1152         estimate D2E/DX2                !
 ! A2    A(2,1,15)             121.2524         estimate D2E/DX2                !
 ! A3    A(6,1,15)             119.6029         estimate D2E/DX2                !
 ! A4    A(1,2,3)              121.1649         estimate D2E/DX2                !
 ! A5    A(1,2,19)             119.1829         estimate D2E/DX2                !
 ! A6    A(3,2,19)             119.6445         estimate D2E/DX2                !
 ! A7    A(2,3,4)              120.1179         estimate D2E/DX2                !
 ! A8    A(2,3,20)             120.3322         estimate D2E/DX2                !
 ! A9    A(4,3,20)             119.5489         estimate D2E/DX2                !
 ! A10   A(3,4,5)              120.1996         estimate D2E/DX2                !
 ! A11   A(3,4,21)             120.1054         estimate D2E/DX2                !
 ! A12   A(5,4,21)             119.6921         estimate D2E/DX2                !
 ! A13   A(4,5,6)              121.4238         estimate D2E/DX2                !
 ! A14   A(4,5,7)              117.5488         estimate D2E/DX2                !
 ! A15   A(6,5,7)              121.0176         estimate D2E/DX2                !
 ! A16   A(1,6,5)              117.8862         estimate D2E/DX2                !
 ! A17   A(1,6,12)             119.0992         estimate D2E/DX2                !
 ! A18   A(5,6,12)             123.0052         estimate D2E/DX2                !
 ! A19   A(5,7,8)              103.3957         estimate D2E/DX2                !
 ! A20   A(5,7,9)              104.9385         estimate D2E/DX2                !
 ! A21   A(5,7,10)             110.5126         estimate D2E/DX2                !
 ! A22   A(8,7,9)              113.2684         estimate D2E/DX2                !
 ! A23   A(8,7,10)             114.8493         estimate D2E/DX2                !
 ! A24   A(9,7,10)             109.2667         estimate D2E/DX2                !
 ! A25   A(7,10,11)            108.491          estimate D2E/DX2                !
 ! A26   A(6,12,13)            119.9808         estimate D2E/DX2                !
 ! A27   A(6,12,22)            120.0512         estimate D2E/DX2                !
 ! A28   A(13,12,22)           119.9647         estimate D2E/DX2                !
 ! A29   A(12,13,14)           121.3397         estimate D2E/DX2                !
 ! A30   A(12,13,23)           119.7729         estimate D2E/DX2                !
 ! A31   A(14,13,23)           118.8781         estimate D2E/DX2                !
 ! A32   A(13,14,15)           120.8236         estimate D2E/DX2                !
 ! A33   A(13,14,24)           118.6623         estimate D2E/DX2                !
 ! A34   A(15,14,24)           120.5077         estimate D2E/DX2                !
 ! A35   A(1,15,14)            119.0523         estimate D2E/DX2                !
 ! A36   A(1,15,16)            118.4194         estimate D2E/DX2                !
 ! A37   A(14,15,16)           122.5145         estimate D2E/DX2                !
 ! A38   A(15,16,17)           112.4068         estimate D2E/DX2                !
 ! A39   A(15,16,18)           115.0043         estimate D2E/DX2                !
 ! A40   A(17,16,18)           109.0346         estimate D2E/DX2                !
 ! A41   A(16,17,25)           111.2936         estimate D2E/DX2                !
 ! A42   A(16,17,26)           109.2095         estimate D2E/DX2                !
 ! A43   A(16,17,27)           110.7834         estimate D2E/DX2                !
 ! A44   A(25,17,26)           108.5861         estimate D2E/DX2                !
 ! A45   A(25,17,27)           108.3008         estimate D2E/DX2                !
 ! A46   A(26,17,27)           108.6001         estimate D2E/DX2                !
 ! A47   A(16,18,28)           110.2969         estimate D2E/DX2                !
 ! A48   A(16,18,29)           112.7572         estimate D2E/DX2                !
 ! A49   A(16,18,30)           108.267          estimate D2E/DX2                !
 ! A50   A(28,18,29)           108.9213         estimate D2E/DX2                !
 ! A51   A(28,18,30)           108.6019         estimate D2E/DX2                !
 ! A52   A(29,18,30)           107.8873         estimate D2E/DX2                !
 ! D1    D(6,1,2,3)              2.6097         estimate D2E/DX2                !
 ! D2    D(6,1,2,19)          -176.3763         estimate D2E/DX2                !
 ! D3    D(15,1,2,3)          -179.3708         estimate D2E/DX2                !
 ! D4    D(15,1,2,19)            1.6432         estimate D2E/DX2                !
 ! D5    D(2,1,6,5)             -3.3353         estimate D2E/DX2                !
 ! D6    D(2,1,6,12)           175.5851         estimate D2E/DX2                !
 ! D7    D(15,1,6,5)           178.612          estimate D2E/DX2                !
 ! D8    D(15,1,6,12)           -2.4677         estimate D2E/DX2                !
 ! D9    D(2,1,15,14)         -174.3282         estimate D2E/DX2                !
 ! D10   D(2,1,15,16)            4.3508         estimate D2E/DX2                !
 ! D11   D(6,1,15,14)            3.6818         estimate D2E/DX2                !
 ! D12   D(6,1,15,16)         -177.6392         estimate D2E/DX2                !
 ! D13   D(1,2,3,4)              0.0372         estimate D2E/DX2                !
 ! D14   D(1,2,3,20)          -179.6103         estimate D2E/DX2                !
 ! D15   D(19,2,3,4)           179.0186         estimate D2E/DX2                !
 ! D16   D(19,2,3,20)           -0.6289         estimate D2E/DX2                !
 ! D17   D(2,3,4,5)             -1.9091         estimate D2E/DX2                !
 ! D18   D(2,3,4,21)           178.7103         estimate D2E/DX2                !
 ! D19   D(20,3,4,5)           177.7411         estimate D2E/DX2                !
 ! D20   D(20,3,4,21)           -1.6395         estimate D2E/DX2                !
 ! D21   D(3,4,5,6)              1.0799         estimate D2E/DX2                !
 ! D22   D(3,4,5,7)           -177.7943         estimate D2E/DX2                !
 ! D23   D(21,4,5,6)          -179.5369         estimate D2E/DX2                !
 ! D24   D(21,4,5,7)             1.5889         estimate D2E/DX2                !
 ! D25   D(4,5,6,1)              1.5479         estimate D2E/DX2                !
 ! D26   D(4,5,6,12)          -177.3272         estimate D2E/DX2                !
 ! D27   D(7,5,6,1)           -179.6168         estimate D2E/DX2                !
 ! D28   D(7,5,6,12)             1.5081         estimate D2E/DX2                !
 ! D29   D(4,5,7,8)            118.042          estimate D2E/DX2                !
 ! D30   D(4,5,7,9)           -123.0221         estimate D2E/DX2                !
 ! D31   D(4,5,7,10)            -5.3478         estimate D2E/DX2                !
 ! D32   D(6,5,7,8)            -60.837          estimate D2E/DX2                !
 ! D33   D(6,5,7,9)             58.0989         estimate D2E/DX2                !
 ! D34   D(6,5,7,10)           175.7732         estimate D2E/DX2                !
 ! D35   D(1,6,12,13)           -0.2913         estimate D2E/DX2                !
 ! D36   D(1,6,12,22)         -179.6292         estimate D2E/DX2                !
 ! D37   D(5,6,12,13)          178.5708         estimate D2E/DX2                !
 ! D38   D(5,6,12,22)           -0.7671         estimate D2E/DX2                !
 ! D39   D(5,7,10,11)           75.9254         estimate D2E/DX2                !
 ! D40   D(8,7,10,11)          -40.5531         estimate D2E/DX2                !
 ! D41   D(9,7,10,11)         -169.0922         estimate D2E/DX2                !
 ! D42   D(6,12,13,14)           1.8789         estimate D2E/DX2                !
 ! D43   D(6,12,13,23)        -179.2412         estimate D2E/DX2                !
 ! D44   D(22,12,13,14)       -178.7827         estimate D2E/DX2                !
 ! D45   D(22,12,13,23)          0.0972         estimate D2E/DX2                !
 ! D46   D(12,13,14,15)         -0.6309         estimate D2E/DX2                !
 ! D47   D(12,13,14,24)        178.4498         estimate D2E/DX2                !
 ! D48   D(23,13,14,15)       -179.5206         estimate D2E/DX2                !
 ! D49   D(23,13,14,24)         -0.4399         estimate D2E/DX2                !
 ! D50   D(13,14,15,1)          -2.1621         estimate D2E/DX2                !
 ! D51   D(13,14,15,16)        179.2158         estimate D2E/DX2                !
 ! D52   D(24,14,15,1)         178.7742         estimate D2E/DX2                !
 ! D53   D(24,14,15,16)          0.152          estimate D2E/DX2                !
 ! D54   D(1,15,16,17)          72.1988         estimate D2E/DX2                !
 ! D55   D(1,15,16,18)        -162.2412         estimate D2E/DX2                !
 ! D56   D(14,15,16,17)       -109.1708         estimate D2E/DX2                !
 ! D57   D(14,15,16,18)         16.3893         estimate D2E/DX2                !
 ! D58   D(15,16,17,25)        -49.1382         estimate D2E/DX2                !
 ! D59   D(15,16,17,26)       -169.0094         estimate D2E/DX2                !
 ! D60   D(15,16,17,27)         71.4188         estimate D2E/DX2                !
 ! D61   D(18,16,17,25)       -177.8862         estimate D2E/DX2                !
 ! D62   D(18,16,17,26)         62.2425         estimate D2E/DX2                !
 ! D63   D(18,16,17,27)        -57.3293         estimate D2E/DX2                !
 ! D64   D(15,16,18,28)         52.9175         estimate D2E/DX2                !
 ! D65   D(15,16,18,29)        -69.0927         estimate D2E/DX2                !
 ! D66   D(15,16,18,30)        171.6184         estimate D2E/DX2                !
 ! D67   D(17,16,18,28)       -179.7934         estimate D2E/DX2                !
 ! D68   D(17,16,18,29)         58.1964         estimate D2E/DX2                !
 ! D69   D(17,16,18,30)        -61.0925         estimate D2E/DX2                !
 --------------------------------------------------------------------------------
 Trust Radius=3.00D-01 FncErr=1.00D-07 GrdErr=1.00D-06 EigMax=2.50D+02 EigMin=1.00D-04
 Number of steps in this run=    162 maximum allowed number of steps=    180.
 GradGradGradGradGradGradGradGradGradGradGradGradGradGradGradGradGradGrad

                          Input orientation:                          
 ---------------------------------------------------------------------
 Center     Atomic      Atomic             Coordinates (Angstroms)
 Number     Number       Type             X           Y           Z
 ---------------------------------------------------------------------
      1          6           0       -1.636851    1.242394   -1.241505
      2          6           0       -2.776803    1.327847   -2.088877
      3          6           0       -2.843805    0.620399   -3.262029
      4          6           0       -1.769769   -0.213596   -3.650031
      5          6           0       -0.640366   -0.289095   -2.875661
      6          6           0       -0.522897    0.447123   -1.652593
      7         16           0        0.715578   -1.332071   -3.471223
      8          8           0        1.842680   -0.362196   -3.659724
      9          8           0        0.958409   -2.311285   -2.372828
     10          7           0        0.289500   -2.098962   -4.758733
     11          1           0        0.303545   -1.445167   -5.545416
     12          6           0        0.654304    0.437111   -0.851088
     13          6           0        0.709732    1.188634    0.294261
     14          6           0       -0.398631    1.952764    0.726880
     15          6           0       -1.570087    1.974496   -0.001865
     16          7           0       -2.710764    2.716366    0.407703
     17          6           0       -3.807934    1.851039    0.863078
     18          6           0       -2.453753    3.732414    1.422294
     19          1           0       -3.597942    1.977406   -1.806610
     20          1           0       -3.717501    0.700550   -3.901478
     21          1           0       -1.831768   -0.789583   -4.568135
     22          1           0        1.509707   -0.155305   -1.151231
     23          1           0        1.613822    1.188139    0.896556
     24          1           0       -0.315852    2.511093    1.652626
     25          1           0       -4.006484    1.053345    0.146772
     26          1           0       -4.715234    2.450559    0.977441
     27          1           0       -3.565733    1.391199    1.834702
     28          1           0       -1.642392    4.390696    1.102476
     29          1           0       -2.197800    3.300362    2.402794
     30          1           0       -3.360258    4.330726    1.545358
 ---------------------------------------------------------------------
                    Distance matrix (angstroms):
                    1          2          3          4          5
     1  C    0.000000
     2  C    1.422965   0.000000
     3  C    2.434365   1.371590   0.000000
     4  C    2.817547   2.413994   1.414088   0.000000
     5  C    2.451307   2.792471   2.414871   1.371460   0.000000
     6  C    1.429105   2.458884   2.829651   2.445609   1.432380
     7  S    4.139256   4.602474   4.065109   2.731284   1.811375
     8  O    4.530963   5.163664   4.804872   3.615517   2.604921
     9  O    4.543556   5.222616   4.882856   3.670764   2.626438
    10  N    5.219806   5.317270   4.410515   3.004066   2.772405
    11  H    5.432473   5.396833   4.402979   3.067227   3.058604
    12  C    2.459736   3.754734   4.252411   3.759473   2.510466
    13  C    2.804981   4.225476   5.059419   4.865348   3.748980
    14  C    2.431533   3.738276   4.864717   5.072523   4.250020
    15  C    1.441228   2.495984   3.752947   4.258725   3.774511
    16  N    2.458815   2.857492   4.228205   5.092677   4.909157
    17  C    3.084367   3.170331   4.411409   5.365164   5.347133
    18  C    3.736757   4.267859   5.637345   6.462763   6.159003
    19  H    2.169208   1.084376   2.128013   3.397191   3.876488
    20  H    3.420257   2.136337   1.085663   2.166229   3.391233
    21  H    3.902997   3.394602   2.172137   1.085596   2.129412
    22  H    3.444204   4.631748   4.900026   4.123393   2.759415
    23  H    3.891160   5.311300   6.122630   5.838236   4.636076
    24  H    3.425001   4.631975   5.841156   6.136446   5.334017
    25  H    2.752855   2.566241   3.627560   4.585166   4.718898
    26  H    3.982440   3.797408   4.982454   6.098113   6.241526
    27  H    3.633975   4.002611   5.204996   5.990255   5.793848
    28  H    3.925058   4.566471   5.891302   6.618312   6.223349
    29  H    4.222655   4.939754   6.299980   7.011976   6.570532
    30  H    4.502725   4.750302   6.094607   7.083261   6.948811
                    6          7          8          9         10
     6  C    0.000000
     7  S    2.829624   0.000000
     8  O    3.206170   1.498849   0.000000
     9  O    3.212760   1.491408   2.497395   0.000000
    10  N    4.097639   1.557993   2.576149   2.486978   0.000000
    11  H    4.406568   2.117743   2.664132   3.353255   1.022993
    12  C    1.424188   3.162099   3.152707   3.156240   4.672733
    13  C    2.420630   4.531320   4.395752   4.407339   6.042981
    14  C    2.818561   5.445703   5.442868   5.443516   6.854338
    15  C    2.480802   5.309812   5.521507   5.512049   6.532910
    16  N    3.765773   6.570825   6.837789   6.816998   7.673397
    17  C    4.369330   7.027127   7.568592   7.107325   7.999764
    18  C    4.896556   7.722705   7.813582   7.910253   8.929472
    19  H    3.438225   5.685951   6.205493   6.282819   6.359561
    20  H    3.914998   4.895800   5.665994   5.768194   4.962682
    21  H    3.426802   2.826036   3.809125   3.862646   2.500115
    22  H    2.178477   2.719887   2.538939   2.538598   4.275602
    23  H    3.407760   5.122089   4.818256   4.833674   6.673915
    24  H    3.902218   6.487495   6.413743   6.409629   7.919884
    25  H    3.967442   6.409210   7.120806   6.505328   7.242685
    26  H    5.339150   7.974499   8.510060   8.129557   8.868438
    27  H    4.723489   7.341571   7.906582   7.202747   8.397465
    28  H    4.939173   7.696025   7.577219   7.984889   8.955536
    29  H    5.233778   8.028156   8.154381   8.016159   9.307353
    30  H    5.775801   8.593358   8.728514   8.838517   9.716130
                   11         12         13         14         15
    11  H    0.000000
    12  C    5.069784   0.000000
    13  C    6.419012   1.371016   0.000000
    14  C    7.168032   2.428140   1.414045   0.000000
    15  C    6.777577   2.834193   2.429577   1.379801   0.000000
    16  N    7.864098   4.254791   3.747883   2.455793   1.421007
    17  C    8.296868   4.984890   4.601265   3.413538   2.402358
    18  C    9.108183   5.068265   4.213182   2.806114   2.428861
    19  H    6.396427   4.622460   4.857147   4.081026   2.714647
    20  H    4.845146   5.337318   6.119056   5.831349   4.630476
    21  H    2.438120   4.637000   5.832277   6.132824   5.344103
    22  H    4.735761   1.082939   2.129690   3.407787   3.916916
    23  H    7.081675   2.130487   1.086342   2.159493   3.400411
    24  H    8.236956   3.392814   2.155429   1.084246   2.144384
    25  H    7.564384   4.806081   4.720460   3.763254   2.608954
    26  H    9.105629   6.019090   5.611546   4.352430   3.328307
    27  H    8.802410   5.092393   4.549020   3.401934   2.774133
    28  H    9.057506   4.972128   4.054491   2.762521   2.657596
    29  H    9.589098   5.188493   4.166419   2.803875   2.816794
    30  H    9.852079   6.084399   5.291768   3.885337   3.339226
                   16         17         18         19         20
    16  N    0.000000
    17  C    1.469673   0.000000
    18  C    1.458699   2.384554   0.000000
    19  H    2.497264   2.680914   3.849031   0.000000
    20  H    4.862723   4.902326   6.255542   2.456243   0.000000
    21  H    6.150063   6.354226   7.531305   4.289711   2.494177
    22  H    5.337523   6.029939   6.119346   5.573694   5.968254
    23  H    4.612646   5.462234   4.826479   5.923895   7.189011
    24  H    2.706950   3.640563   2.472913   4.798255   6.759982
    25  H    2.124291   1.090336   3.348931   2.199203   4.073856
    26  H    2.100751   1.093479   2.637299   3.036965   5.278433
    27  H    2.126820   1.101893   2.624474   3.688337   5.779601
    28  H    2.104164   3.346153   1.092668   4.255693   6.554602
    29  H    2.141161   2.657780   1.101618   4.629221   6.986584
    30  H    2.079004   2.610511   1.093103   4.102474   6.555442
                   21         22         23         24         25
    21  H    0.000000
    22  H    4.821099   0.000000
    23  H    6.756206   2.451349   0.000000
    24  H    7.203494   4.278312   2.458758   0.000000
    25  H    5.509639   5.794309   5.671700   4.244218   0.000000
    26  H    7.040335   7.076134   6.454239   4.451304   1.773287
    27  H    6.982748   6.088313   5.267745   3.442243   1.776940
    28  H    7.682902   5.973361   4.571838   2.365435   4.200025
    29  H    8.090456   6.190181   4.610716   2.174265   3.661974
    30  H    8.119646   7.149310   5.919314   3.548378   3.621447
                   26         27         28         29         30
    26  H    0.000000
    27  H    1.782833   0.000000
    28  H    3.636224   3.637633   0.000000
    29  H    3.015173   2.416375   1.785534   0.000000
    30  H    2.386110   2.960871   1.775051   1.774304   0.000000
 Stoichiometry    C12H13N2O2S(1-)
 Framework group  C1[X(C12H13N2O2S)]
 Deg. of freedom    84
 Full point group                 C1      NOp   1
 Largest Abelian subgroup         C1      NOp   1
 Largest concise Abelian subgroup C1      NOp   1
                         Standard orientation:                         
 ---------------------------------------------------------------------
 Center     Atomic      Atomic             Coordinates (Angstroms)
 Number     Number       Type             X           Y           Z
 ---------------------------------------------------------------------
      1          6           0        1.055281    0.411539   -0.139849
      2          6           0        1.075956    1.825169   -0.301265
      3          6           0       -0.085192    2.555111   -0.314656
      4          6           0       -1.332867    1.906411   -0.165864
      5          6           0       -1.390815    0.541363   -0.046758
      6          6           0       -0.203101   -0.259291   -0.046024
      7         16           0       -3.029693   -0.219809    0.078841
      8          8           0       -3.100219   -1.094778   -1.136069
      9          8           0       -3.000009   -0.987717    1.357017
     10          7           0       -4.135129    0.874897    0.162348
     11          1           0       -4.271630    1.270038   -0.771325
     12          6           0       -0.226459   -1.681756    0.020012
     13          6           0        0.947896   -2.388506   -0.012826
     14          6           0        2.199387   -1.732943   -0.072241
     15          6           0        2.274943   -0.355788   -0.112073
     16          7           0        3.513013    0.340301   -0.155723
     17          6           0        3.807422    1.039225    1.103152
     18          6           0        4.664894   -0.473166   -0.528876
     19          1           0        2.027471    2.328558   -0.432000
     20          1           0       -0.054061    3.632469   -0.445019
     21          1           0       -2.250405    2.486529   -0.155511
     22          1           0       -1.171702   -2.206166    0.085344
     23          1           0        0.925496   -3.473947    0.025298
     24          1           0        3.101855   -2.333890   -0.070714
     25          1           0        2.954422    1.631012    1.436337
     26          1           0        4.658596    1.708889    0.952321
     27          1           0        4.062116    0.320834    1.898899
     28          1           0        4.469226   -1.000078   -1.465893
     29          1           0        4.935554   -1.209022    0.244959
     30          1           0        5.520712    0.191094   -0.674508
 ---------------------------------------------------------------------
 Rotational constants (GHZ):           0.9866355           0.2681412           0.2263970
 General basis read from cards:  (6D, 7F)
 There are   353 symmetry adapted cartesian basis functions of A   symmetry.
 There are   353 symmetry adapted basis functions of A   symmetry.
   353 basis functions,   620 primitive gaussians,   353 cartesian basis functions
    66 alpha electrons       66 beta electrons
       nuclear repulsion energy      1343.2135566027 Hartrees.
 NAtoms=   30 NActive=   30 NUniq=   30 SFac= 1.00D+00 NAtFMM=   60 NAOKFM=F Big=F
 Integral buffers will be    131072 words long.
 Raffenetti 2 integral format.
 Two-electron integral symmetry is turned on.
 One-electron integrals computed using PRISM.
 NBasis=   353 RedAO= T EigKep=  1.52D-06  NBF=   353
 NBsUse=   349 1.00D-06 EigRej=  9.15D-07 NBFU=   349
 ExpMin= 4.05D-02 ExpMax= 2.19D+04 ExpMxC= 3.30D+03 IAcc=3 IRadAn=         5 AccDes= 0.00D+00
 Harris functional with IExCor= 1009 and IRadAn=       5 diagonalized for initial guess.
 HarFok:  IExCor= 1009 AccDes= 0.00D+00 IRadAn=         5 IDoV= 1 UseB2=F ITyADJ=14
 ICtDFT=  3500011 ScaDFX=  1.000000  1.000000  1.000000  1.000000
 FoFCou: FMM=F IPFlag=           0 FMFlag=      100000 FMFlg1=           0
         NFxFlg=           0 DoJE=T BraDBF=F KetDBF=T FulRan=T
         wScrn=  0.000000 ICntrl=       500 IOpCl=  0 I1Cent=   200000004 NGrid=           0
         NMat0=    1 NMatS0=      1 NMatT0=    0 NMatD0=    1 NMtDS0=    0 NMtDT0=    0
 Petite list used in FoFCou.
 Requested convergence on RMS density matrix=1.00D-08 within 128 cycles.
 Requested convergence on MAX density matrix=1.00D-06.
 Requested convergence on             energy=1.00D-06.
 No special actions if energy rises.
 SCF Done:  E(RM062X) =  -1122.90403908     A.U. after   17 cycles
            NFock= 17  Conv=0.22D-08     -V/T= 2.0068

 **********************************************************************

            Population analysis using the SCF Density.

 **********************************************************************

 Orbital symmetries:
       Occupied  (A) (A) (A) (A) (A) (A) (A) (A) (A) (A) (A) (A)
                 (A) (A) (A) (A) (A) (A) (A) (A) (A) (A) (A) (A)
                 (A) (A) (A) (A) (A) (A) (A) (A) (A) (A) (A) (A)
                 (A) (A) (A) (A) (A) (A) (A) (A) (A) (A) (A) (A)
                 (A) (A) (A) (A) (A) (A) (A) (A) (A) (A) (A) (A)
                 (A) (A) (A) (A) (A) (A)
       Virtual   (A) (A) (A) (A) (A) (A) (A) (A) (A) (A) (A) (A)
                 (A) (A) (A) (A) (A) (A) (A) (A) (A) (A) (A) (A)
                 (A) (A) (A) (A) (A) (A) (A) (A) (A) (A) (A) (A)
                 (A) (A) (A) (A) (A) (A) (A) (A) (A) (A) (A) (A)
                 (A) (A) (A) (A) (A) (A) (A) (A) (A) (A) (A) (A)
                 (A) (A) (A) (A) (A) (A) (A) (A) (A) (A) (A) (A)
                 (A) (A) (A) (A) (A) (A) (A) (A) (A) (A) (A) (A)
                 (A) (A) (A) (A) (A) (A) (A) (A) (A) (A) (A) (A)
                 (A) (A) (A) (A) (A) (A) (A) (A) (A) (A) (A) (A)
                 (A) (A) (A) (A) (A) (A) (A) (A) (A) (A) (A) (A)
                 (A) (A) (A) (A) (A) (A) (A) (A) (A) (A) (A) (A)
                 (A) (A) (A) (A) (A) (A) (A) (A) (A) (A) (A) (A)
                 (A) (A) (A) (A) (A) (A) (A) (A) (A) (A) (A) (A)
                 (A) (A) (A) (A) (A) (A) (A) (A) (A) (A) (A) (A)
                 (A) (A) (A) (A) (A) (A) (A) (A) (A) (A) (A) (A)
                 (A) (A) (A) (A) (A) (A) (A) (A) (A) (A) (A) (A)
                 (A) (A) (A) (A) (A) (A) (A) (A) (A) (A) (A) (A)
                 (A) (A) (A) (A) (A) (A) (A) (A) (A) (A) (A) (A)
                 (A) (A) (A) (A) (A) (A) (A) (A) (A) (A) (A) (A)
                 (A) (A) (A) (A) (A) (A) (A) (A) (A) (A) (A) (A)
                 (A) (A) (A) (A) (A) (A) (A) (A) (A) (A) (A) (A)
                 (A) (A) (A) (A) (A) (A) (A) (A) (A) (A) (A) (A)
                 (A) (A) (A) (A) (A) (A) (A) (A) (A) (A) (A) (A)
                 (A) (A) (A) (A) (A) (A) (A)
 The electronic state is 1-A.
 Alpha  occ. eigenvalues --  -89.96698 -19.44573 -19.44312 -14.68948 -14.55628
 Alpha  occ. eigenvalues --  -10.49720 -10.49375 -10.49200 -10.46066 -10.45814
 Alpha  occ. eigenvalues --  -10.45463 -10.45301 -10.45153 -10.44898 -10.44890
 Alpha  occ. eigenvalues --  -10.44124 -10.43702  -8.27547  -6.19750  -6.19706
 Alpha  occ. eigenvalues --   -6.19658  -1.03237  -0.96845  -0.91185  -0.86926
 Alpha  occ. eigenvalues --   -0.82023  -0.79795  -0.76418  -0.73965  -0.72461
 Alpha  occ. eigenvalues --   -0.71384  -0.65424  -0.60671  -0.59375  -0.56754
 Alpha  occ. eigenvalues --   -0.52177  -0.49152  -0.47782  -0.46982  -0.45714
 Alpha  occ. eigenvalues --   -0.44470  -0.43771  -0.40915  -0.40271  -0.38709
 Alpha  occ. eigenvalues --   -0.38558  -0.37525  -0.37011  -0.36400  -0.35623
 Alpha  occ. eigenvalues --   -0.35251  -0.34230  -0.33390  -0.30075  -0.29512
 Alpha  occ. eigenvalues --   -0.28869  -0.25506  -0.24196  -0.21881  -0.20997
 Alpha  occ. eigenvalues --   -0.19172  -0.18447  -0.17941  -0.15992  -0.14811
 Alpha  occ. eigenvalues --   -0.13528
 Alpha virt. eigenvalues --    0.08320   0.08852   0.09700   0.10703   0.10832
 Alpha virt. eigenvalues --    0.11617   0.12318   0.13302   0.13483   0.13797
 Alpha virt. eigenvalues --    0.14745   0.15793   0.16147   0.16232   0.17200
 Alpha virt. eigenvalues --    0.17768   0.18656   0.18869   0.19118   0.19413
 Alpha virt. eigenvalues --    0.20186   0.20555   0.21413   0.22182   0.22637
 Alpha virt. eigenvalues --    0.23246   0.23870   0.24008   0.24931   0.25326
 Alpha virt. eigenvalues --    0.25916   0.26326   0.26867   0.27292   0.27841
 Alpha virt. eigenvalues --    0.28625   0.28788   0.29309   0.29389   0.30249
 Alpha virt. eigenvalues --    0.30703   0.30882   0.31423   0.31745   0.31885
 Alpha virt. eigenvalues --    0.32600   0.32904   0.33615   0.33776   0.33869
 Alpha virt. eigenvalues --    0.34496   0.34768   0.35437   0.35796   0.36081
 Alpha virt. eigenvalues --    0.36212   0.36869   0.37249   0.38157   0.38637
 Alpha virt. eigenvalues --    0.39115   0.39429   0.39909   0.40290   0.40631
 Alpha virt. eigenvalues --    0.41265   0.41499   0.41725   0.42384   0.42849
 Alpha virt. eigenvalues --    0.43019   0.43485   0.44386   0.44680   0.45165
 Alpha virt. eigenvalues --    0.45737   0.46299   0.46921   0.47508   0.48174
 Alpha virt. eigenvalues --    0.48685   0.49285   0.49792   0.50046   0.50459
 Alpha virt. eigenvalues --    0.51303   0.52466   0.52704   0.53904   0.54495
 Alpha virt. eigenvalues --    0.56138   0.58425   0.59049   0.61215   0.61780
 Alpha virt. eigenvalues --    0.66309   0.68717   0.69991   0.75659   0.77524
 Alpha virt. eigenvalues --    0.78820   0.79534   0.80274   0.81119   0.81988
 Alpha virt. eigenvalues --    0.82376   0.83526   0.84211   0.85607   0.85768
 Alpha virt. eigenvalues --    0.86565   0.87353   0.88910   0.89335   0.89726
 Alpha virt. eigenvalues --    0.90448   0.91997   0.92672   0.93753   0.94370
 Alpha virt. eigenvalues --    0.94479   0.96216   0.96814   0.98706   0.99455
 Alpha virt. eigenvalues --    1.01932   1.02301   1.04082   1.06228   1.08157
 Alpha virt. eigenvalues --    1.08922   1.09114   1.09389   1.10834   1.12255
 Alpha virt. eigenvalues --    1.12581   1.12903   1.13675   1.14936   1.17390
 Alpha virt. eigenvalues --    1.17669   1.19712   1.20045   1.21481   1.22329
 Alpha virt. eigenvalues --    1.22511   1.23520   1.24900   1.26566   1.26771
 Alpha virt. eigenvalues --    1.28888   1.29222   1.29863   1.30144   1.30852
 Alpha virt. eigenvalues --    1.32493   1.32798   1.34864   1.35926   1.36509
 Alpha virt. eigenvalues --    1.38780   1.39678   1.40249   1.41373   1.42991
 Alpha virt. eigenvalues --    1.43989   1.44444   1.46892   1.49117   1.51885
 Alpha virt. eigenvalues --    1.52323   1.53625   1.54881   1.55840   1.56656
 Alpha virt. eigenvalues --    1.57565   1.58188   1.60563   1.61774   1.63293
 Alpha virt. eigenvalues --    1.63862   1.64526   1.65372   1.66300   1.67919
 Alpha virt. eigenvalues --    1.68599   1.69973   1.71895   1.74026   1.78580
 Alpha virt. eigenvalues --    1.81148   1.83010   1.84882   1.91062   1.91786
 Alpha virt. eigenvalues --    1.95306   1.96604   1.97684   1.98923   1.99929
 Alpha virt. eigenvalues --    2.00972   2.02768   2.05855   2.06189   2.07127
 Alpha virt. eigenvalues --    2.07992   2.09602   2.10494   2.11313   2.13417
 Alpha virt. eigenvalues --    2.14467   2.15239   2.16929   2.18416   2.19087
 Alpha virt. eigenvalues --    2.19720   2.21577   2.23240   2.24782   2.27081
 Alpha virt. eigenvalues --    2.28132   2.30544   2.31628   2.33864   2.34338
 Alpha virt. eigenvalues --    2.35682   2.36466   2.37760   2.39769   2.40296
 Alpha virt. eigenvalues --    2.41242   2.41974   2.43109   2.44627   2.46833
 Alpha virt. eigenvalues --    2.47722   2.50648   2.52174   2.55204   2.55369
 Alpha virt. eigenvalues --    2.59399   2.63086   2.64053   2.67978   2.72488
 Alpha virt. eigenvalues --    2.74924   2.75416   2.78990   2.80261   2.81276
 Alpha virt. eigenvalues --    2.81861   2.83707   2.86457   2.89852   2.94172
 Alpha virt. eigenvalues --    2.95440   2.99178   3.02636   3.07907   3.08610
 Alpha virt. eigenvalues --    3.09210   3.13865   3.17005   3.27718   3.48370
 Alpha virt. eigenvalues --    3.57404   4.22896   4.25940   4.31485   4.36587
 Alpha virt. eigenvalues --    4.40235   4.40935   4.46804   4.47173   4.49614
 Alpha virt. eigenvalues --    4.53304   4.54974   4.56619   4.57751   4.65234
 Alpha virt. eigenvalues --    4.68751   4.73787   4.96737
          Condensed to atoms (all electrons):
               1          2          3          4          5          6
     1  C   17.391927  -3.042976   4.746809  -5.406352  -3.191622  -3.115441
     2  C   -3.042976  17.686831  -2.226340  -1.727419   0.841760  -0.592993
     3  C    4.746809  -2.226340  20.666761  -7.213626  -7.867118  -2.763761
     4  C   -5.406352  -1.727419  -7.213626  24.111366  -1.503093   3.538537
     5  C   -3.191622   0.841760  -7.867118  -1.503093  18.965883   3.377075
     6  C   -3.115441  -0.592993  -2.763761   3.538537   3.377075  15.005942
     7  S    0.783258  -0.621266   1.267466   0.912711  -2.496428   0.665708
     8  O    0.075760  -0.063668   0.162196   0.280794  -0.213918   0.150249
     9  O    0.032879  -0.044459   0.042105   0.183058  -0.290541   0.108213
    10  N    0.009489   0.051610   0.255794  -0.262118  -0.180792  -0.158446
    11  H    0.004738  -0.000115   0.010701   0.076043  -0.122992  -0.010285
    12  C   -4.771961  -1.797939  -0.764449  -1.677973   1.798508   2.500328
    13  C    1.312004   6.143427  -2.103064  -0.237052  -1.661343 -10.736883
    14  C   -2.652911  -4.819788   0.042989  -1.715844   0.072783   0.191724
    15  C    3.989855  -4.051021   1.736833  -3.659627  -0.909447  -2.902604
    16  N   -0.049834   0.065595   0.063673   0.044816  -0.027012   0.089068
    17  C   -0.083363   0.223412   0.008989   0.072002   0.013248   0.036495
    18  C    0.140359  -0.106374   0.017824   0.020327  -0.034540  -0.081822
    19  H    0.012402   0.302984  -0.075964  -0.023692   0.011167  -0.008386
    20  H    0.041072   0.002522   0.273350  -0.057531   0.049391  -0.011773
    21  H    0.038429  -0.020328   0.087641   0.355615  -0.154388   0.008693
    22  H    0.001350  -0.008860   0.008873   0.026149  -0.005317   0.040610
    23  H    0.004005   0.003130   0.000836  -0.001182  -0.009404  -0.030767
    24  H    0.034240   0.017660   0.002065   0.000341   0.003536   0.012851
    25  H    0.028929   0.041135  -0.021777   0.007374  -0.006872   0.019007
    26  H    0.033333  -0.004066  -0.014493  -0.000108   0.002094   0.003617
    27  H   -0.059344  -0.008753   0.012737  -0.001716  -0.002856  -0.017213
    28  H    0.002237  -0.000011  -0.000010   0.000292   0.000998  -0.000318
    29  H   -0.036872  -0.001958   0.002394  -0.000414  -0.001049  -0.009039
    30  H    0.025967  -0.001249  -0.002763   0.000127   0.000200   0.001780
               7          8          9         10         11         12
     1  C    0.783258   0.075760   0.032879   0.009489   0.004738  -4.771961
     2  C   -0.621266  -0.063668  -0.044459   0.051610  -0.000115  -1.797939
     3  C    1.267466   0.162196   0.042105   0.255794   0.010701  -0.764449
     4  C    0.912711   0.280794   0.183058  -0.262118   0.076043  -1.677973
     5  C   -2.496428  -0.213918  -0.290541  -0.180792  -0.122992   1.798508
     6  C    0.665708   0.150249   0.108213  -0.158446  -0.010285   2.500328
     7  S   16.358002   0.203696   0.453197  -0.090751   0.127022  -1.558213
     8  O    0.203696   8.907161  -0.191478  -0.159198  -0.018978  -0.277580
     9  O    0.453197  -0.191478   8.833519  -0.174550   0.018323  -0.238960
    10  N   -0.090751  -0.159198  -0.174550   7.949354   0.156349   0.317605
    11  H    0.127022  -0.018978   0.018323   0.156349   0.454889  -0.024333
    12  C   -1.558213  -0.277580  -0.238960   0.317605  -0.024333  25.262093
    13  C   -2.032350  -0.287857  -0.152071   0.105679  -0.003446 -13.586584
    14  C    0.246550  -0.014225   0.013773   0.006973  -0.000121   0.883530
    15  C    0.345451   0.040044   0.011908   0.003171  -0.000376  -0.055210
    16  N    0.000787   0.000007  -0.000044   0.000049   0.000002  -0.150584
    17  C    0.001072  -0.000069   0.000156   0.000029   0.000005  -0.067093
    18  C   -0.001171  -0.000048  -0.000044   0.000027  -0.000000   0.047826
    19  H    0.001636   0.000007   0.000001   0.000016   0.000000  -0.001163
    20  H    0.000673   0.000024   0.000037   0.000434  -0.000001  -0.001415
    21  H   -0.007482   0.000905   0.000023   0.001815  -0.000834  -0.003037
    22  H    0.048669  -0.002357  -0.004441   0.001339  -0.000003   0.310509
    23  H   -0.001641  -0.000065  -0.000045   0.000003   0.000000  -0.047636
    24  H    0.000116   0.000005   0.000006   0.000000  -0.000000   0.052277
    25  H   -0.000266  -0.000001   0.000001  -0.000000   0.000000  -0.005447
    26  H    0.000029   0.000000   0.000000   0.000000  -0.000000  -0.002887
    27  H   -0.000065  -0.000000  -0.000000  -0.000000  -0.000000   0.013571
    28  H    0.000013  -0.000000   0.000000   0.000000  -0.000000   0.001179
    29  H   -0.000017  -0.000000  -0.000000  -0.000000  -0.000000   0.010025
    30  H    0.000003  -0.000000   0.000000   0.000000   0.000000  -0.001514
              13         14         15         16         17         18
     1  C    1.312004  -2.652911   3.989855  -0.049834  -0.083363   0.140359
     2  C    6.143427  -4.819788  -4.051021   0.065595   0.223412  -0.106374
     3  C   -2.103064   0.042989   1.736833   0.063673   0.008989   0.017824
     4  C   -0.237052  -1.715844  -3.659627   0.044816   0.072002   0.020327
     5  C   -1.661343   0.072783  -0.909447  -0.027012   0.013248  -0.034540
     6  C  -10.736883   0.191724  -2.902604   0.089068   0.036495  -0.081822
     7  S   -2.032350   0.246550   0.345451   0.000787   0.001072  -0.001171
     8  O   -0.287857  -0.014225   0.040044   0.000007  -0.000069  -0.000048
     9  O   -0.152071   0.013773   0.011908  -0.000044   0.000156  -0.000044
    10  N    0.105679   0.006973   0.003171   0.000049   0.000029   0.000027
    11  H   -0.003446  -0.000121  -0.000376   0.000002   0.000005  -0.000000
    12  C  -13.586584   0.883530  -0.055210  -0.150584  -0.067093   0.047826
    13  C   35.702248  -3.347750  -2.241839   0.102219   0.000358  -0.060763
    14  C   -3.347750  16.595107   0.952989  -0.509305  -0.131248  -0.164112
    15  C   -2.241839   0.952989  13.332949   0.219578  -0.562246  -0.184230
    16  N    0.102219  -0.509305   0.219578   7.254732   0.256239   0.213397
    17  C    0.000358  -0.131248  -0.562246   0.256239   5.699635  -0.165681
    18  C   -0.060763  -0.164112  -0.184230   0.213397  -0.165681   5.602569
    19  H   -0.005446   0.021024   0.033320   0.022395  -0.009017   0.007206
    20  H   -0.001479   0.001941   0.004911   0.000517  -0.000027   0.000232
    21  H   -0.003598  -0.000179   0.003927  -0.000005   0.000007  -0.000008
    22  H   -0.137629   0.014696   0.005522   0.000224   0.000039   0.000088
    23  H    0.337628   0.012260   0.039330  -0.001302  -0.000109   0.001197
    24  H    0.110131   0.173611  -0.076920  -0.015694  -0.000842  -0.019164
    25  H   -0.000855  -0.052614  -0.032481  -0.042414   0.399718   0.015267
    26  H    0.003936  -0.000139   0.009586  -0.059737   0.387635  -0.021278
    27  H   -0.021915   0.076381   0.006857  -0.062653   0.381378   0.002979
    28  H    0.016587   0.016902  -0.088026  -0.030403   0.020443   0.411473
    29  H   -0.006507   0.081854  -0.046244  -0.039901  -0.018763   0.388745
    30  H   -0.003166  -0.045157   0.033284  -0.063180  -0.005701   0.397904
              19         20         21         22         23         24
     1  C    0.012402   0.041072   0.038429   0.001350   0.004005   0.034240
     2  C    0.302984   0.002522  -0.020328  -0.008860   0.003130   0.017660
     3  C   -0.075964   0.273350   0.087641   0.008873   0.000836   0.002065
     4  C   -0.023692  -0.057531   0.355615   0.026149  -0.001182   0.000341
     5  C    0.011167   0.049391  -0.154388  -0.005317  -0.009404   0.003536
     6  C   -0.008386  -0.011773   0.008693   0.040610  -0.030767   0.012851
     7  S    0.001636   0.000673  -0.007482   0.048669  -0.001641   0.000116
     8  O    0.000007   0.000024   0.000905  -0.002357  -0.000065   0.000005
     9  O    0.000001   0.000037   0.000023  -0.004441  -0.000045   0.000006
    10  N    0.000016   0.000434   0.001815   0.001339   0.000003   0.000000
    11  H    0.000000  -0.000001  -0.000834  -0.000003   0.000000  -0.000000
    12  C   -0.001163  -0.001415  -0.003037   0.310509  -0.047636   0.052277
    13  C   -0.005446  -0.001479  -0.003598  -0.137629   0.337628   0.110131
    14  C    0.021024   0.001941  -0.000179   0.014696   0.012260   0.173611
    15  C    0.033320   0.004911   0.003927   0.005522   0.039330  -0.076920
    16  N    0.022395   0.000517  -0.000005   0.000224  -0.001302  -0.015694
    17  C   -0.009017  -0.000027   0.000007   0.000039  -0.000109  -0.000842
    18  C    0.007206   0.000232  -0.000008   0.000088   0.001197  -0.019164
    19  H    0.508863  -0.003405  -0.000143   0.000001   0.000000  -0.000010
    20  H   -0.003405   0.520853  -0.003168   0.000000  -0.000000  -0.000000
    21  H   -0.000143  -0.003168   0.462448  -0.000008  -0.000000  -0.000000
    22  H    0.000001   0.000000  -0.000008   0.419743  -0.003092  -0.000134
    23  H    0.000000  -0.000000  -0.000000  -0.003092   0.512458  -0.003691
    24  H   -0.000010  -0.000000  -0.000000  -0.000134  -0.003691   0.536861
    25  H   -0.001303   0.000007  -0.000000  -0.000000  -0.000000   0.000014
    26  H    0.000037  -0.000000   0.000000   0.000000  -0.000000   0.000001
    27  H    0.000239   0.000000  -0.000000   0.000000   0.000003  -0.000047
    28  H   -0.000018   0.000000  -0.000000   0.000000  -0.000003  -0.001900
    29  H    0.000005   0.000000   0.000000   0.000000   0.000010  -0.002335
    30  H    0.000019  -0.000000   0.000000  -0.000000  -0.000000   0.000360
              25         26         27         28         29         30
     1  C    0.028929   0.033333  -0.059344   0.002237  -0.036872   0.025967
     2  C    0.041135  -0.004066  -0.008753  -0.000011  -0.001958  -0.001249
     3  C   -0.021777  -0.014493   0.012737  -0.000010   0.002394  -0.002763
     4  C    0.007374  -0.000108  -0.001716   0.000292  -0.000414   0.000127
     5  C   -0.006872   0.002094  -0.002856   0.000998  -0.001049   0.000200
     6  C    0.019007   0.003617  -0.017213  -0.000318  -0.009039   0.001780
     7  S   -0.000266   0.000029  -0.000065   0.000013  -0.000017   0.000003
     8  O   -0.000001   0.000000  -0.000000  -0.000000  -0.000000  -0.000000
     9  O    0.000001   0.000000  -0.000000   0.000000  -0.000000   0.000000
    10  N   -0.000000   0.000000  -0.000000   0.000000  -0.000000   0.000000
    11  H    0.000000  -0.000000  -0.000000  -0.000000  -0.000000   0.000000
    12  C   -0.005447  -0.002887   0.013571   0.001179   0.010025  -0.001514
    13  C   -0.000855   0.003936  -0.021915   0.016587  -0.006507  -0.003166
    14  C   -0.052614  -0.000139   0.076381   0.016902   0.081854  -0.045157
    15  C   -0.032481   0.009586   0.006857  -0.088026  -0.046244   0.033284
    16  N   -0.042414  -0.059737  -0.062653  -0.030403  -0.039901  -0.063180
    17  C    0.399718   0.387635   0.381378   0.020443  -0.018763  -0.005701
    18  C    0.015267  -0.021278   0.002979   0.411473   0.388745   0.397904
    19  H   -0.001303   0.000037   0.000239  -0.000018   0.000005   0.000019
    20  H    0.000007  -0.000000   0.000000   0.000000   0.000000  -0.000000
    21  H   -0.000000   0.000000  -0.000000  -0.000000   0.000000   0.000000
    22  H   -0.000000   0.000000   0.000000   0.000000   0.000000  -0.000000
    23  H   -0.000000  -0.000000   0.000003  -0.000003   0.000010  -0.000000
    24  H    0.000014   0.000001  -0.000047  -0.001900  -0.002335   0.000360
    25  H    0.469598  -0.021790  -0.031737  -0.000130  -0.000254   0.000252
    26  H   -0.021790   0.524065  -0.042752   0.000186  -0.001880   0.004210
    27  H   -0.031737  -0.042752   0.537304  -0.000260   0.010706  -0.001987
    28  H   -0.000130   0.000186  -0.000260   0.483629  -0.039126  -0.016456
    29  H   -0.000254  -0.001880   0.010706  -0.039126   0.548796  -0.043954
    30  H    0.000252   0.004210  -0.001987  -0.016456  -0.043954   0.520813
 Mulliken charges:
               1
     1  C   -0.298367
     2  C   -0.240482
     3  C   -0.356670
     4  C   -0.141808
     5  C   -0.457909
     6  C    0.689835
     7  S    1.393592
     8  O   -0.591407
     9  O   -0.600565
    10  N   -0.833881
    11  H    0.333413
    12  C   -0.163469
    13  C   -1.202619
    14  C    0.048305
    15  C    0.040755
    16  N   -0.281230
    17  C   -0.456701
    18  C   -0.428184
    19  H    0.207226
    20  H    0.182832
    21  H    0.233672
    22  H    0.284030
    23  H    0.188076
    24  H    0.176663
    25  H    0.236638
    26  H    0.200403
    27  H    0.209146
    28  H    0.222720
    29  H    0.205780
    30  H    0.200206
 Sum of Mulliken charges =  -1.00000
 Mulliken charges with hydrogens summed into heavy atoms:
               1
     1  C   -0.298367
     2  C   -0.033256
     3  C   -0.173838
     4  C    0.091865
     5  C   -0.457909
     6  C    0.689835
     7  S    1.393592
     8  O   -0.591407
     9  O   -0.600565
    10  N   -0.500469
    12  C    0.120560
    13  C   -1.014543
    14  C    0.224968
    15  C    0.040755
    16  N   -0.281230
    17  C    0.189487
    18  C    0.200521
 Electronic spatial extent (au):  <R**2>=           4842.5275
 Charge=             -1.0000 electrons
 Dipole moment (field-independent basis, Debye):
    X=             15.0724    Y=              2.6176    Z=             -1.3149  Tot=             15.3544
 Quadrupole moment (field-independent basis, Debye-Ang):
   XX=           -166.9660   YY=           -112.9755   ZZ=           -124.1089
   XY=             -8.7066   XZ=              9.3405   YZ=             -1.4543
 Traceless Quadrupole moment (field-independent basis, Debye-Ang):
   XX=            -32.2825   YY=             21.7080   ZZ=             10.5746
   XY=             -8.7066   XZ=              9.3405   YZ=             -1.4543
 Octapole moment (field-independent basis, Debye-Ang**2):
  XXX=            233.8341  YYY=             -2.0347  ZZZ=             -1.6445  XYY=             14.5459
  XXY=             14.9927  XXZ=            -32.0011  XZZ=             19.0316  YZZ=              7.3893
  YYZ=             -3.0925  XYZ=             16.4045
 Hexadecapole moment (field-independent basis, Debye-Ang**3):
 XXXX=          -5854.5814 YYYY=          -1294.2839 ZZZZ=           -378.8517 XXXY=             -1.1123
 XXXZ=            141.9338 YYYX=              2.2398 YYYZ=            -15.2335 ZZZX=              9.3715
 ZZZY=              5.5152 XXYY=          -1111.1064 XXZZ=           -985.6277 YYZZ=           -317.9182
 XXYZ=            -32.8431 YYXZ=             15.3309 ZZXY=            -19.2915
 N-N= 1.343213556603D+03 E-N=-5.334526494856D+03  KE= 1.115298228798D+03
 Calling FoFJK, ICntrl=      2127 FMM=F ISym2X=0 I1Cent= 0 IOpClX= 0 NMat=1 NMatS=1 NMatT=0.
 ***** Axes restored to original set *****
 -------------------------------------------------------------------
 Center     Atomic                   Forces (Hartrees/Bohr)
 Number     Number              X              Y              Z
 -------------------------------------------------------------------
      1        6           0.000190020    0.001359659    0.001009967
      2        6          -0.002060855    0.000530164    0.000371386
      3        6           0.002839633   -0.000731449    0.001628497
      4        6          -0.002250108    0.003335722    0.001715624
      5        6          -0.000444366    0.000866310    0.000497336
      6        6          -0.004584477    0.001042186   -0.001293298
      7       16           0.034466659   -0.018485692    0.004419912
      8        8          -0.013549514    0.000401098    0.002098093
      9        8          -0.008479984    0.012326492   -0.005221778
     10        7          -0.010144870    0.001905543   -0.003859119
     11        1           0.003273473    0.000635820    0.001158623
     12        6           0.001992518    0.000236907    0.001811250
     13        6          -0.000603896   -0.001098034   -0.001940452
     14        6          -0.002699222   -0.000331141   -0.000772568
     15        6           0.007294763   -0.002890018   -0.003710660
     16        7          -0.006130451    0.001148815    0.007646295
     17        6           0.002675266    0.002696135   -0.000841151
     18        6          -0.002476815   -0.001884568   -0.006224307
     19        1           0.000330480    0.001789957    0.000698913
     20        1          -0.001188317    0.000495366   -0.000304705
     21        1           0.002061360   -0.001973013    0.000936710
     22        1          -0.000917054   -0.001436813   -0.002844179
     23        1           0.000386938   -0.000003559   -0.000094311
     24        1          -0.000092887    0.000312929    0.000653088
     25        1           0.001371072    0.000182165   -0.000442901
     26        1          -0.001213346    0.001115701    0.000106104
     27        1           0.000013624   -0.001110478    0.001299037
     28        1           0.000324759   -0.000607142   -0.000665957
     29        1           0.000648872   -0.000517818    0.001959104
     30        1          -0.001033276    0.000688756    0.000205446
 -------------------------------------------------------------------
 Cartesian Forces:  Max     0.034466659 RMS     0.005252782

 GradGradGradGradGradGradGradGradGradGradGradGradGradGradGradGradGradGrad
 Berny optimization.
 FormGI is forming the generalized inverse of G from B-inverse, IUseBI=4.
 Internal  Forces:  Max     0.013321364 RMS     0.002883814
 Search for a local minimum.
 Step number   1 out of a maximum of  162
 All quantities printed in internal units (Hartrees-Bohrs-Radians)
 Mixed Optimization -- RFO/linear search
 Second derivative matrix not updated -- first step.
 ITU=  0
     Eigenvalues ---    0.00230   0.00770   0.00915   0.01333   0.01414
     Eigenvalues ---    0.01652   0.01711   0.01750   0.01787   0.01931
     Eigenvalues ---    0.02018   0.02049   0.02065   0.02145   0.02168
     Eigenvalues ---    0.02171   0.02215   0.02281   0.02310   0.02855
     Eigenvalues ---    0.03175   0.07179   0.07243   0.07456   0.07663
     Eigenvalues ---    0.10183   0.11785   0.15997   0.15998   0.15998
     Eigenvalues ---    0.15999   0.15999   0.16000   0.16000   0.16000
     Eigenvalues ---    0.16000   0.16000   0.16000   0.16000   0.16000
     Eigenvalues ---    0.17214   0.17218   0.19605   0.21716   0.22058
     Eigenvalues ---    0.22119   0.23481   0.23506   0.24861   0.24907
     Eigenvalues ---    0.24992   0.24995   0.25000   0.25241   0.33474
     Eigenvalues ---    0.33504   0.34414   0.34456   0.34506   0.34774
     Eigenvalues ---    0.35239   0.35319   0.35327   0.35471   0.35486
     Eigenvalues ---    0.35642   0.35779   0.36641   0.37128   0.38213
     Eigenvalues ---    0.39161   0.40590   0.41332   0.42309   0.42521
     Eigenvalues ---    0.42837   0.43864   0.47753   0.48739   0.49688
     Eigenvalues ---    0.50070   0.60282   0.77059   0.79594
 RFO step:  Lambda=-6.42522336D-03 EMin= 2.30000000D-03
 Linear search not attempted -- first point.
 Iteration  1 RMS(Cart)=  0.06990432 RMS(Int)=  0.00244887
 Iteration  2 RMS(Cart)=  0.00315326 RMS(Int)=  0.00046444
 Iteration  3 RMS(Cart)=  0.00000486 RMS(Int)=  0.00046443
 Iteration  4 RMS(Cart)=  0.00000001 RMS(Int)=  0.00046443
 Variable       Old X    -DE/DX   Delta X   Delta X   Delta X     New X
                                 (Linear)    (Quad)   (Total)
    R1        2.68901  -0.00119   0.00000  -0.00262  -0.00262   2.68640
    R2        2.70062  -0.00102   0.00000  -0.00298  -0.00298   2.69764
    R3        2.72353  -0.00241   0.00000  -0.00624  -0.00625   2.71728
    R4        2.59193   0.00075   0.00000   0.00181   0.00180   2.59373
    R5        2.04917   0.00100   0.00000   0.00278   0.00278   2.05196
    R6        2.67224   0.00184   0.00000   0.00443   0.00443   2.67667
    R7        2.05161   0.00117   0.00000   0.00326   0.00326   2.05487
    R8        2.59168  -0.00124   0.00000  -0.00255  -0.00255   2.58913
    R9        2.05148   0.00014   0.00000   0.00038   0.00038   2.05186
   R10        2.70681  -0.00318   0.00000  -0.00813  -0.00813   2.69868
   R11        3.42300   0.00647   0.00000   0.02501   0.02501   3.44801
   R12        2.69133  -0.00197   0.00000  -0.00472  -0.00472   2.68661
   R13        2.83241  -0.01019   0.00000  -0.01312  -0.01312   2.81929
   R14        2.81835  -0.01332   0.00000  -0.01660  -0.01660   2.80175
   R15        2.94418   0.00286   0.00000   0.00470   0.00470   2.94888
   R16        1.93318  -0.00044   0.00000  -0.00098  -0.00098   1.93219
   R17        2.59084  -0.00119   0.00000  -0.00213  -0.00213   2.58872
   R18        2.04646   0.00085   0.00000   0.00234   0.00234   2.04880
   R19        2.67216   0.00209   0.00000   0.00503   0.00504   2.67719
   R20        2.05289   0.00027   0.00000   0.00075   0.00075   2.05364
   R21        2.60745  -0.00140   0.00000  -0.00274  -0.00273   2.60471
   R22        2.04893   0.00071   0.00000   0.00197   0.00197   2.05090
   R23        2.68531   0.00643   0.00000   0.01497   0.01497   2.70029
   R24        2.77728  -0.00379   0.00000  -0.01040  -0.01040   2.76688
   R25        2.75654  -0.00535   0.00000  -0.01415  -0.01415   2.74239
   R26        2.06044  -0.00009   0.00000  -0.00026  -0.00026   2.06017
   R27        2.06638   0.00163   0.00000   0.00465   0.00465   2.07102
   R28        2.08228   0.00161   0.00000   0.00473   0.00473   2.08700
   R29        2.06484   0.00007   0.00000   0.00020   0.00020   2.06505
   R30        2.08176   0.00210   0.00000   0.00615   0.00615   2.08790
   R31        2.06567   0.00125   0.00000   0.00358   0.00358   2.06924
    A1        2.07895  -0.00027   0.00000  -0.00097  -0.00096   2.07799
    A2        2.11625   0.00028   0.00000   0.00175   0.00174   2.11799
    A3        2.08747  -0.00001   0.00000  -0.00095  -0.00096   2.08651
    A4        2.11473  -0.00254   0.00000  -0.01039  -0.01042   2.10431
    A5        2.08013   0.00003   0.00000  -0.00235  -0.00238   2.07776
    A6        2.08819   0.00250   0.00000   0.01253   0.01250   2.10069
    A7        2.09645   0.00119   0.00000   0.00628   0.00627   2.10273
    A8        2.10019  -0.00122   0.00000  -0.00692  -0.00692   2.09327
    A9        2.08652   0.00003   0.00000   0.00064   0.00064   2.08716
   A10        2.09788   0.00077   0.00000   0.00335   0.00332   2.10120
   A11        2.09623   0.00246   0.00000   0.01546   0.01543   2.11166
   A12        2.08902  -0.00322   0.00000  -0.01867  -0.01870   2.07032
   A13        2.11924  -0.00324   0.00000  -0.01374  -0.01373   2.10552
   A14        2.05161   0.00529   0.00000   0.02126   0.02125   2.07286
   A15        2.11216  -0.00205   0.00000  -0.00740  -0.00742   2.10474
   A16        2.05750   0.00408   0.00000   0.01496   0.01497   2.07247
   A17        2.07867   0.00141   0.00000   0.00534   0.00532   2.08399
   A18        2.14685  -0.00550   0.00000  -0.02044  -0.02045   2.12640
   A19        1.80460  -0.00834   0.00000  -0.05203  -0.05237   1.75223
   A20        1.83152  -0.00968   0.00000  -0.05056  -0.05036   1.78116
   A21        1.92881  -0.00611   0.00000  -0.03816  -0.03826   1.89055
   A22        1.97691   0.00577   0.00000   0.04417   0.04084   2.01775
   A23        2.00450   0.00595   0.00000   0.02686   0.02410   2.02860
   A24        1.90706   0.00928   0.00000   0.05242   0.05029   1.95735
   A25        1.89353  -0.00413   0.00000  -0.02480  -0.02480   1.86873
   A26        2.09406  -0.00108   0.00000  -0.00469  -0.00470   2.08936
   A27        2.09529  -0.00274   0.00000  -0.01741  -0.01741   2.07788
   A28        2.09378   0.00382   0.00000   0.02203   0.02203   2.11581
   A29        2.11778  -0.00006   0.00000   0.00047   0.00046   2.11824
   A30        2.09043  -0.00021   0.00000  -0.00171  -0.00171   2.08872
   A31        2.07481   0.00027   0.00000   0.00118   0.00118   2.07600
   A32        2.10877  -0.00022   0.00000  -0.00050  -0.00052   2.10825
   A33        2.07105   0.00022   0.00000   0.00085   0.00084   2.07189
   A34        2.10326  -0.00000   0.00000  -0.00049  -0.00050   2.10276
   A35        2.07785  -0.00007   0.00000  -0.00054  -0.00058   2.07728
   A36        2.06681  -0.00209   0.00000  -0.00790  -0.00792   2.05888
   A37        2.13828   0.00217   0.00000   0.00873   0.00871   2.14699
   A38        1.96187  -0.00054   0.00000   0.00462   0.00438   1.96625
   A39        2.00720   0.00174   0.00000   0.01744   0.01732   2.02452
   A40        1.90301  -0.00021   0.00000   0.00623   0.00602   1.90903
   A41        1.94244  -0.00216   0.00000  -0.01442  -0.01442   1.92802
   A42        1.90607  -0.00004   0.00000   0.00089   0.00087   1.90694
   A43        1.93353   0.00113   0.00000   0.00704   0.00703   1.94057
   A44        1.89518   0.00098   0.00000   0.00532   0.00531   1.90049
   A45        1.89021   0.00013   0.00000  -0.00131  -0.00131   1.88890
   A46        1.89543   0.00001   0.00000   0.00284   0.00282   1.89825
   A47        1.92504  -0.00153   0.00000  -0.01024  -0.01024   1.91480
   A48        1.96799   0.00072   0.00000   0.00443   0.00442   1.97241
   A49        1.88962   0.00029   0.00000   0.00266   0.00265   1.89227
   A50        1.90104   0.00017   0.00000  -0.00053  -0.00053   1.90051
   A51        1.89546   0.00052   0.00000   0.00280   0.00281   1.89827
   A52        1.88299  -0.00013   0.00000   0.00117   0.00115   1.88414
    D1        0.04555   0.00013   0.00000   0.00973   0.00969   0.05524
    D2       -3.07835   0.00055   0.00000   0.02348   0.02339  -3.05496
    D3       -3.13061   0.00001   0.00000   0.00412   0.00405  -3.12656
    D4        0.02868   0.00042   0.00000   0.01787   0.01775   0.04643
    D5       -0.05821  -0.00021   0.00000  -0.00859  -0.00860  -0.06682
    D6        3.06454  -0.00040   0.00000  -0.01647  -0.01657   3.04796
    D7        3.11737  -0.00009   0.00000  -0.00312  -0.00312   3.11424
    D8       -0.04307  -0.00029   0.00000  -0.01100  -0.01109  -0.05416
    D9       -3.04260   0.00053   0.00000   0.02121   0.02128  -3.02132
   D10        0.07594   0.00089   0.00000   0.03558   0.03555   0.11148
   D11        0.06426   0.00040   0.00000   0.01557   0.01561   0.07987
   D12       -3.10039   0.00076   0.00000   0.02994   0.02988  -3.07051
   D13        0.00065  -0.00014   0.00000  -0.00388  -0.00392  -0.00327
   D14       -3.13479  -0.00008   0.00000  -0.00269  -0.00272  -3.13751
   D15        3.12446  -0.00058   0.00000  -0.01785  -0.01795   3.10651
   D16       -0.01098  -0.00053   0.00000  -0.01665  -0.01675  -0.02773
   D17       -0.03332  -0.00005   0.00000  -0.00407  -0.00406  -0.03738
   D18        3.11908  -0.00047   0.00000  -0.01878  -0.01892   3.10017
   D19        3.10217  -0.00012   0.00000  -0.00529  -0.00528   3.09689
   D20       -0.02861  -0.00053   0.00000  -0.01999  -0.02014  -0.04875
   D21        0.01885   0.00014   0.00000   0.00556   0.00557   0.02442
   D22       -3.10310  -0.00000   0.00000  -0.00131  -0.00133  -3.10443
   D23       -3.13351   0.00059   0.00000   0.02042   0.02029  -3.11322
   D24        0.02773   0.00045   0.00000   0.01355   0.01339   0.04112
   D25        0.02702  -0.00003   0.00000   0.00075   0.00072   0.02774
   D26       -3.09494   0.00009   0.00000   0.00864   0.00858  -3.08636
   D27       -3.13491   0.00020   0.00000   0.00817   0.00806  -3.12684
   D28        0.02632   0.00032   0.00000   0.01606   0.01592   0.04224
   D29        2.06022   0.00067   0.00000   0.06218   0.06236   2.12258
   D30       -2.14714  -0.00059   0.00000   0.06759   0.06771  -2.07943
   D31       -0.09334   0.00186   0.00000   0.08192   0.08169  -0.01164
   D32       -1.06181   0.00054   0.00000   0.05542   0.05554  -1.00627
   D33        1.01402  -0.00071   0.00000   0.06082   0.06089   1.07491
   D34        3.06782   0.00174   0.00000   0.07515   0.07487  -3.14049
   D35       -0.00508  -0.00004   0.00000  -0.00080  -0.00076  -0.00584
   D36       -3.13512   0.00008   0.00000   0.00536   0.00529  -3.12983
   D37        3.11665  -0.00014   0.00000  -0.00868  -0.00857   3.10808
   D38       -0.01339  -0.00001   0.00000  -0.00253  -0.00252  -0.01591
   D39        1.32515   0.00124   0.00000   0.03644   0.03668   1.36182
   D40       -0.70779   0.01235   0.00000   0.11241   0.11438  -0.59340
   D41       -2.95122  -0.00851   0.00000  -0.01570  -0.01790  -2.96912
   D42        0.03279   0.00021   0.00000   0.00808   0.00810   0.04089
   D43       -3.12835   0.00013   0.00000   0.00455   0.00455  -3.12380
   D44       -3.12035   0.00004   0.00000   0.00167   0.00165  -3.11870
   D45        0.00170  -0.00004   0.00000  -0.00186  -0.00190  -0.00021
   D46       -0.01101  -0.00009   0.00000  -0.00338  -0.00344  -0.01445
   D47        3.11454  -0.00031   0.00000  -0.01313  -0.01317   3.10136
   D48       -3.13323  -0.00001   0.00000   0.00015   0.00012  -3.13311
   D49       -0.00768  -0.00023   0.00000  -0.00960  -0.00962  -0.01729
   D50       -0.03774  -0.00023   0.00000  -0.00860  -0.00860  -0.04634
   D51        3.12790  -0.00055   0.00000  -0.02335  -0.02339   3.10451
   D52        3.12020  -0.00001   0.00000   0.00131   0.00129   3.12149
   D53        0.00265  -0.00032   0.00000  -0.01344  -0.01350  -0.01084
   D54        1.26011   0.00096   0.00000   0.05061   0.05058   1.31069
   D55       -2.83164   0.00165   0.00000   0.07792   0.07797  -2.75367
   D56       -1.90539   0.00129   0.00000   0.06537   0.06532  -1.84007
   D57        0.28605   0.00199   0.00000   0.09267   0.09271   0.37875
   D58       -0.85762   0.00108   0.00000   0.02450   0.02449  -0.83313
   D59       -2.94977   0.00124   0.00000   0.02634   0.02632  -2.92345
   D60        1.24649   0.00056   0.00000   0.01793   0.01790   1.26439
   D61       -3.10470  -0.00064   0.00000  -0.00728  -0.00725  -3.11195
   D62        1.08634  -0.00049   0.00000  -0.00545  -0.00542   1.08091
   D63       -1.00058  -0.00116   0.00000  -0.01385  -0.01384  -1.01443
   D64        0.92358  -0.00037   0.00000  -0.01640  -0.01645   0.90713
   D65       -1.20589   0.00002   0.00000  -0.01138  -0.01142  -1.21732
   D66        2.99531  -0.00045   0.00000  -0.01732  -0.01738   2.97793
   D67       -3.13799   0.00009   0.00000   0.00892   0.00897  -3.12902
   D68        1.01572   0.00048   0.00000   0.01394   0.01400   1.02972
   D69       -1.06627   0.00001   0.00000   0.00799   0.00804  -1.05823
         Item               Value     Threshold  Converged?
 Maximum Force            0.013321     0.000450     NO 
 RMS     Force            0.002884     0.000300     NO 
 Maximum Displacement     0.273852     0.001800     NO 
 RMS     Displacement     0.070156     0.001200     NO 
 Predicted change in Energy=-3.570153D-03
 GradGradGradGradGradGradGradGradGradGradGradGradGradGradGradGradGradGrad

                          Input orientation:                          
 ---------------------------------------------------------------------
 Center     Atomic      Atomic             Coordinates (Angstroms)
 Number     Number       Type             X           Y           Z
 ---------------------------------------------------------------------
      1          6           0       -1.642717    1.239754   -1.247224
      2          6           0       -2.775167    1.351995   -2.099192
      3          6           0       -2.838005    0.644396   -3.273598
      4          6           0       -1.772764   -0.206587   -3.657481
      5          6           0       -0.646857   -0.300493   -2.882423
      6          6           0       -0.540248    0.433258   -1.661909
      7         16           0        0.722624   -1.364994   -3.448605
      8          8           0        1.829631   -0.367028   -3.514807
      9          8           0        0.818466   -2.356450   -2.350426
     10          7           0        0.305589   -2.023145   -4.800648
     11          1           0        0.424429   -1.314910   -5.528473
     12          6           0        0.641306    0.406627   -0.871701
     13          6           0        0.710670    1.158268    0.271463
     14          6           0       -0.391875    1.929502    0.714926
     15          6           0       -1.567242    1.959081   -0.004446
     16          7           0       -2.722447    2.684492    0.421139
     17          6           0       -3.776624    1.811605    0.941301
     18          6           0       -2.484777    3.764910    1.360404
     19          1           0       -3.578095    2.028606   -1.822474
     20          1           0       -3.707499    0.740910   -3.919415
     21          1           0       -1.830093   -0.799296   -4.565427
     22          1           0        1.479215   -0.199224   -1.197734
     23          1           0        1.620199    1.150381    0.866188
     24          1           0       -0.302674    2.479036    1.646539
     25          1           0       -3.948911    0.975885    0.262761
     26          1           0       -4.705035    2.385478    1.040304
     27          1           0       -3.504456    1.402912    1.930536
     28          1           0       -1.707488    4.427189    0.971345
     29          1           0       -2.182696    3.408235    2.361538
     30          1           0       -3.411805    4.337014    1.471451
 ---------------------------------------------------------------------
                    Distance matrix (angstroms):
                    1          2          3          4          5
     1  C    0.000000
     2  C    1.421580   0.000000
     3  C    2.426800   1.372543   0.000000
     4  C    2.813921   2.421209   1.416430   0.000000
     5  C    2.457230   2.806042   2.418050   1.370110   0.000000
     6  C    1.427529   2.455638   2.814571   2.431215   1.428079
     7  S    4.150377   4.630063   4.092231   2.759076   1.824610
     8  O    4.447571   5.114995   4.782048   3.608788   2.556820
     9  O    4.495238   5.170095   4.819451   3.611756   2.580145
    10  N    5.202810   5.308530   4.396571   2.987686   2.748503
    11  H    5.397082   5.395346   4.423438   3.091382   3.029566
    12  C    2.460057   3.751366   4.234531   3.736889   2.490459
    13  C    2.802050   4.220024   5.042283   4.844262   3.730665
    14  C    2.427013   3.732674   4.852152   5.058426   4.240143
    15  C    1.437923   2.493110   3.745743   4.251708   3.773001
    16  N    2.456933   2.851385   4.222136   5.088750   4.912406
    17  C    3.109696   3.234000   4.473116   5.407157   5.373757
    18  C    3.726285   4.227918   5.597888   6.438860   6.156869
    19  H    2.167691   1.085849   2.137647   3.409187   3.891060
    20  H    3.413616   2.134450   1.087389   2.170152   3.395204
    21  H    3.899142   3.406395   2.183793   1.085797   2.116921
    22  H    3.437960   4.617215   4.864082   4.077471   2.714518
    23  H    3.888589   5.305975   6.104870   5.815251   4.614831
    24  H    3.421315   4.627520   5.831085   6.124244   5.325011
    25  H    2.769154   2.664199   3.721537   4.637042   4.735492
    26  H    3.990396   3.827390   5.012676   6.114425   6.250683
    27  H    3.686577   4.095505   5.301181   6.067551   5.850815
    28  H    3.884068   4.474926   5.797166   6.549975   6.190917
    29  H    4.244649   4.947450   6.310547   7.033034   6.603983
    30  H    4.484850   4.697354   6.039881   7.045332   6.935966
                    6          7          8          9         10
     6  C    0.000000
     7  S    2.832108   0.000000
     8  O    3.112879   1.491906   0.000000
     9  O    3.178463   1.482623   2.517150   0.000000
    10  N    4.074437   1.560481   2.592068   2.525416   0.000000
    11  H    4.351667   2.101732   2.632095   3.367500   1.022472
    12  C    1.421692   3.128208   2.999445   3.138887   4.631752
    13  C    2.414200   4.495097   4.232546   4.386247   6.000982
    14  C    2.812491   5.425016   5.300922   5.406541   6.821395
    15  C    2.475891   5.306146   5.410375   5.460680   6.509160
    16  N    3.764192   6.575847   6.747211   6.755053   7.654927
    17  C    4.376148   7.043102   7.485549   7.023034   8.021206
    18  C    4.900559   7.728512   7.710688   7.883700   8.902038
    19  H    3.435030   5.714630   6.151955   6.231950   6.353676
    20  H    3.901598   4.927726   5.661365   5.704361   4.951914
    21  H    3.407830   2.843179   3.832002   3.787588   2.472706
    22  H    2.166499   2.645348   2.349420   2.533557   4.205362
    23  H    3.401922   5.074464   4.641068   4.825686   6.626651
    24  H    3.897112   6.464387   6.267879   6.372960   7.887068
    25  H    3.951934   6.409149   7.033135   6.376605   7.261754
    26  H    5.334658   7.979713   8.427763   8.030691   8.868993
    27  H    4.757354   7.380018   7.825403   7.151719   8.459500
    28  H    4.924222   7.680546   7.457968   7.964444   8.886799
    29  H    5.266522   8.061164   8.054987   8.027526   9.326755
    30  H    5.770884   8.591469   8.629220   8.792292   9.675219
                   11         12         13         14         15
    11  H    0.000000
    12  C    4.969532   0.000000
    13  C    6.311719   1.369890   0.000000
    14  C    7.083261   2.429813   1.416710   0.000000
    15  C    6.723141   2.835476   2.430290   1.378353   0.000000
    16  N    7.829171   4.263208   3.760061   2.467365   1.428931
    17  C    8.323575   4.977855   4.583813   3.394359   2.407812
    18  C    9.040170   5.102230   4.265121   2.857552   2.442480
    19  H    6.397946   4.619321   4.851347   4.074336   2.711750
    20  H    4.887565   5.320941   6.103923   5.820931   4.625108
    21  H    2.505231   4.604962   5.803709   6.115303   5.336691
    22  H    4.594847   1.084179   2.142892   3.419169   3.919581
    23  H    6.956954   2.128769   1.086740   2.162950   3.401732
    24  H    8.148834   3.395219   2.159197   1.085287   2.143650
    25  H    7.610009   4.762473   4.663157   3.710303   2.590448
    26  H    9.118832   6.012901   5.605981   4.349384   3.334526
    27  H    8.857736   5.102201   4.536481   3.382775   2.793972
    28  H    8.931092   5.007851   4.125914   2.834613   2.657705
    29  H    9.558110   5.238174   4.219281   2.846933   2.841956
    30  H    9.780586   6.112774   5.342209   3.935533   3.351903
                   16         17         18         19         20
    16  N    0.000000
    17  C    1.464168   0.000000
    18  C    1.451209   2.379057   0.000000
    19  H    2.489200   2.779381   3.786926   0.000000
    20  H    4.856773   4.977723   6.206135   2.464157   0.000000
    21  H    6.148082   6.397643   7.508399   4.310026   2.512811
    22  H    5.347012   6.020195   6.162115   5.561466   5.932403
    23  H    4.627110   5.437698   4.891916   5.917976   7.173147
    24  H    2.720132   3.607097   2.548905   4.792214   6.752315
    25  H    2.109179   1.090196   3.335741   2.365149   4.195723
    26  H    2.098435   1.095938   2.633409   3.097233   5.319633
    27  H    2.128912   1.104395   2.635115   3.805522   5.890789
[...]
 00362974,-0.00032027,-0.00130242,-0.00395384,0.00183786,-0.00060089,0.
 00051930,-0.00028388,0.00243564,-0.00058793,0.00047935,0.00004719,0.00
 018743,-0.00009424,-0.00003262,-0.00006026,0.00000571,0.00003048,0.000
 06583,-0.00005871,-0.00027377,-0.00022904,-0.00059646,-0.00080057,-0.0
 0144863,0.00164698,-0.00115486,0.11442426,-0.00411890,-0.00169354,0.00
 208998,0.00031916,-0.00075745,-0.00055564,-0.00017944,0.00042610,-0.00
 028730,0.00001079,-0.00008307,0.00004286,0.00016697,0.00026905,-0.0002
 8423,0.00015421,0.00048231,0.00035825,-0.00018693,0.00020798,0.0003473
 2,0.00010805,-0.00000412,-0.00013875,0.00005536,-0.00016845,-0.0000910
 1,0.00002282,-0.00009903,-0.00016794,-0.00000736,0.00000695,0.00000993
 ,0.00134251,-0.00240075,0.00209980,-0.00263872,-0.00304029,-0.00525511
 ,-0.02133735,-0.13117274,-0.26470118,-0.00142343,-0.00937598,-0.011526
 99,0.00144898,0.00135198,-0.00149786,0.00027873,0.00012621,-0.00022383
 ,0.00106003,-0.00139906,-0.00063724,-0.00011237,-0.00008727,0.00004727
 ,-0.00000694,-0.00002592,-0.00010166,-0.00002963,-0.00004489,0.0000205
 3,-0.00033614,-0.00020005,-0.00024528,0.00081736,0.00130828,-0.0000501
 9,0.02298604,0.14650497,0.27999696,-0.00051359,-0.00002933,0.00061376,
 0.00011708,-0.00012365,0.00057985,-0.00009187,0.00019387,0.00016313,0.
 00018264,-0.00011326,0.00002146,-0.00004607,-0.00006184,-0.00016798,-0
 .00014753,0.00011490,0.00007541,-0.00024460,0.00017372,0.00017436,0.00
 011905,-0.00000172,-0.00005199,0.00008134,-0.00009033,-0.00001073,0.00
 003497,-0.00007991,-0.00011512,-0.00000643,0.00000635,0.00000823,-0.00
 004224,0.00001918,-0.00001528,-0.00005531,-0.00009374,0.00005659,-0.00
 015269,0.00029455,-0.00001808,0.00032721,-0.00170667,-0.00176684,-0.00
 662959,-0.02177908,-0.01529973,-0.05514285,-0.02613393,-0.02222613,-0.
 00438162,-0.00175220,0.00259519,0.00013246,0.00001507,-0.00001279,-0.0
 0002842,-0.00001567,-0.00006798,-0.00000108,0.00000724,-0.00000756,0.0
 0001843,0.00001967,0.00000842,-0.00000214,0.00000776,0.00001910,0.0001
 3052,-0.00000017,0.00006203,0.06063599,0.00042571,0.00019378,-0.000747
 80,-0.00002023,0.00073803,-0.00044282,0.00019466,0.00011507,0.00018162
 ,0.00022689,-0.00021379,-0.00001205,-0.00004167,-0.00011946,-0.0002580
 7,-0.00048905,0.00031398,0.00025572,-0.00019709,0.00016612,0.00001602,
 0.00010447,0.00000431,-0.00000372,0.00005035,-0.00009171,0.00006170,0.
 00004179,-0.00005388,-0.00003030,-0.00000650,0.00000375,0.00000686,0.0
 0014788,0.00006200,0.00025256,0.00023207,-0.00026463,-0.00017554,-0.00
 061366,0.00030221,-0.00002691,0.00186688,-0.00029416,-0.00059795,-0.00
 420294,-0.01860033,-0.01157951,-0.03233829,-0.20861907,-0.13123468,-0.
 00363599,-0.00087012,0.00260661,0.00007754,-0.00059486,0.00056056,-0.0
 0000512,0.00002015,0.00000534,0.00001578,-0.00003088,0.00001065,0.0000
 2619,0.00000596,0.00001242,-0.00002046,0.00001291,0.00001071,0.0000542
 9,-0.00002915,0.00007224,0.03907830,0.22865524,0.00110686,0.00052978,-
 0.00012600,0.00083284,0.00024531,-0.00160712,-0.00000278,-0.00004833,-
 0.00014247,-0.00001441,-0.00006807,-0.00004302,-0.00007023,-0.00000339
 ,-0.00001249,-0.00034490,0.00025967,0.00022221,0.00024290,-0.00025250,
 -0.00010220,-0.00010968,0.00003108,0.00002506,-0.00007020,0.00015629,-
 0.00007642,-0.00003352,0.00007651,0.00006525,0.00000618,-0.00000200,-0
 .00000823,-0.00002141,-0.00001728,0.00004532,0.00007453,0.00002747,0.0
 0001102,-0.00016420,-0.00021746,-0.00034014,0.00049734,0.00016537,0.00
 041387,0.00158934,0.01243671,0.00913599,-0.02813792,-0.13951294,-0.163
 12988,0.00164509,0.00131368,-0.00039946,0.00047582,0.00082200,-0.00116
 759,-0.00000003,0.00000063,0.00000535,-0.00001990,-0.00000691,0.000017
 38,-0.00000937,-0.00000987,0.00000325,0.00000320,-0.00000058,-0.000019
 22,0.00000956,0.00001211,0.00002345,0.02509358,0.14409133,0.17457680,-
 0.00005639,-0.00005684,-0.00041355,-0.00005955,0.00003748,0.00019116,0
 .00008908,-0.00000176,0.00002992,-0.00001470,0.00001209,0.00005751,0.0
 0000191,0.00000885,0.00003327,-0.00004239,0.00012682,-0.00009954,0.000
 15035,-0.00024387,-0.00025804,-0.00007408,0.00005729,0.00011663,-0.000
 04622,0.00012911,0.00004545,-0.00001227,0.00010626,0.00015802,0.000004
 19,-0.00000709,-0.00001245,-0.00016555,-0.00000447,-0.00004769,-0.0000
 3678,0.00035024,-0.00021564,-0.00041593,0.00030824,0.00110011,-0.00285
 197,-0.00455063,-0.00127297,-0.02494686,0.00914285,0.00898195,-0.22988
 491,0.11757950,0.01650733,0.00011566,0.00232896,0.00059002,-0.00019465
 ,0.00005548,0.00015289,0.00003246,0.00002217,0.00004658,0.00001098,-0.
 00000184,0.00000740,0.00000879,-0.00005317,0.00000208,-0.00011857,0.00
 009733,0.00000176,-0.00003574,-0.00012669,-0.00005104,0.00641020,-0.00
 257336,-0.00005740,0.25874190,-0.00000149,0.00013499,0.00002694,0.0001
 1701,-0.00001940,0.00005303,0.00004702,0.00002163,0.00001235,-0.000011
 35,-0.00003190,-0.00000749,0.00000309,0.00000785,-0.00002244,-0.000138
 49,0.00012113,-0.00000209,-0.00010553,0.00007388,0.00012469,0.00005778
 ,-0.00000176,-0.00003712,0.00004019,-0.00003258,-0.00003312,0.00001353
 ,-0.00004343,-0.00007541,-0.00000170,0.00000537,0.00000535,0.00001701,
 0.00002196,0.00008515,0.00000782,0.00013820,-0.00035886,-0.00076135,0.
 00079451,0.00036699,-0.00304729,-0.00155930,-0.00010875,-0.02089837,0.
 00996765,0.00375652,0.12373528,-0.12942040,-0.01350856,-0.00172406,0.0
 0149545,0.00061761,0.00017699,-0.00009905,-0.00015694,-0.00000998,0.00
 000082,-0.00003744,-0.00000093,0.00000061,-0.00000050,-0.00000399,-0.0
 0001733,0.00002402,-0.00005903,0.00002040,0.00002737,-0.00006502,-0.00
 015520,0.00005210,0.02052979,-0.01129862,0.00063303,-0.12736950,0.1359
 8720,0.00013467,0.00004593,-0.00000433,0.00038636,-0.00016668,0.000035
 51,-0.00009987,0.00003671,-0.00004523,-0.00001521,-0.00000772,-0.00000
 431,0.00001217,-0.00000629,-0.00000389,-0.00025683,0.00009749,-0.00003
 077,-0.00004288,0.00010119,0.00007440,0.00001503,-0.00002709,-0.000038
 76,0.00001014,-0.00005185,-0.00000682,-0.00000056,-0.00004106,-0.00005
 700,0.00000036,0.00000155,0.00000521,0.00018614,0.00005752,0.00016848,
 0.00020852,-0.00028593,0.00007284,0.00049718,-0.00031222,-0.00044980,0
 .00190884,0.00195956,0.00136835,0.01470191,-0.00728810,-0.00406591,0.0
 1489757,-0.01100301,-0.05212287,-0.00069103,-0.00037878,0.00008397,-0.
 00006894,0.00007577,-0.00001823,-0.00001025,-0.00001593,-0.00004540,-0
 .00001117,0.00000351,-0.00000292,-0.00000089,0.00002070,0.00000103,0.0
 0006270,-0.00007838,0.00000505,0.00007557,0.00017119,-0.00003450,0.018
 15696,-0.00981527,-0.00066330,-0.02481891,0.01029668,0.05241246,-0.000
 03632,0.00114893,0.00043842,-0.00034330,0.00022362,-0.00012695,0.00001
 716,0.00007561,0.00005745,0.00006696,-0.00003654,0.00002863,-0.0000155
 0,-0.00003939,-0.00003539,0.00048168,-0.00008938,0.00011015,-0.0000870
 6,0.00008051,0.00003279,0.00004859,-0.00000696,-0.00000955,0.00003090,
 -0.00005103,0.00001698,0.00001899,-0.00002451,-0.00001849,-0.00000363,
 0.00000191,0.00000268,-0.00024077,-0.00015650,-0.00033346,-0.00012060,
 0.00040976,0.00025748,0.00048000,-0.00013038,-0.00132567,0.00526682,-0
 .00338468,0.00051858,-0.00125923,-0.01645504,0.02721917,-0.07085509,0.
 02577148,-0.06233804,0.00143434,0.00181544,0.00383416,-0.00008049,-0.0
 0018876,0.00016184,0.00000291,0.00000494,0.00002289,0.00000489,-0.0000
 0297,-0.00000006,-0.00001079,-0.00002658,0.00000404,0.00003555,-0.0000
 2683,0.00000362,-0.00010148,-0.00020386,0.00005308,-0.00132272,0.00228
 090,-0.00333720,-0.00703843,0.00862639,-0.02500029,0.07396908,-0.00021
 423,0.00033431,0.00014826,-0.00012857,0.00023060,-0.00074778,0.0000675
 5,0.00034798,0.00030389,0.00027631,-0.00013314,0.00006219,-0.00010407,
 -0.00010211,-0.00021499,0.00006449,0.00010467,0.00006879,-0.00005468,-
 0.00005443,-0.00011193,0.00002713,0.00004094,0.00005882,0.00001445,0.0
 0003350,0.00005029,0.00001599,0.00002987,0.00005905,-0.00000022,-0.000
 00085,-0.00000251,-0.00026884,0.00004549,-0.00012358,-0.00006961,-0.00
 003470,0.00020428,-0.00057602,0.00012403,0.00001628,0.00289334,-0.0017
 0491,-0.00172257,-0.00779521,-0.01446484,0.02192195,0.02669298,-0.0791
 8574,0.07182708,0.00146892,0.00248365,0.00473719,0.00005943,-0.0003689
 1,0.00008801,0.00000360,-0.00000134,0.00003177,0.00001076,-0.00001901,
 0.00001508,0.00002186,-0.00002084,-0.00002212,-0.00005730,0.00003907,-
 0.00000354,-0.00004625,-0.00004604,-0.00005358,-0.00692485,0.01091909,
 -0.02145277,0.00591642,-0.00593303,0.01612649,-0.02118911,0.08685366,0
 .00038644,-0.00067167,-0.00078330,0.00011520,0.00022811,0.00006457,0.0
 0006473,0.00003639,0.00008808,0.00007766,-0.00006118,-0.00001688,0.000
 06440,-0.00010078,-0.00010789,-0.00030165,0.00007041,0.00001711,-0.000
 30443,0.00043392,0.00014907,0.00014698,-0.00008166,-0.00007827,0.00008
 711,-0.00024478,0.00008379,0.00005256,-0.00015132,-0.00013632,-0.00001
 218,0.00000881,0.00001851,0.00033941,-0.00007827,0.00014691,0.00023979
 ,-0.00005881,-0.00016293,0.00087807,-0.00045265,-0.00011671,-0.0033286
 9,0.00169606,0.00178525,0.00937683,0.01333554,-0.01595933,-0.06385537,
 0.06984750,-0.23905803,0.00021209,-0.00327579,0.00198960,0.00017245,-0
 .00002064,0.00036821,-0.00001719,0.00000102,-0.00002494,0.00000666,-0.
 00000488,-0.00000849,0.00000192,0.00002184,0.00002503,0.00011310,-0.00
 002167,-0.00000192,0.00008695,0.00016652,0.00002797,-0.00711725,0.0080
 0717,-0.01761494,-0.00005128,-0.00188143,0.00323772,0.06177783,-0.0889
 6041,0.26489274,0.00030244,0.00003809,-0.00026493,0.00004296,0.0000279
 2,-0.00009440,-0.00002405,0.00007350,0.00001326,0.00006393,-0.00002276
 ,0.00000426,-0.00001870,-0.00008028,-0.00004743,0.00000581,-0.00000069
 ,0.00004134,-0.00011335,0.00007015,0.00012486,0.00005811,0.00000697,-0
 .00004824,0.00003528,-0.00004129,-0.00002642,0.00001611,-0.00003431,-0
 .00006926,-0.00000082,0.00000221,0.00000331,0.00006490,-0.00004397,-0.
 00002695,-0.00005212,0.00011991,-0.00001300,-0.00012607,0.00023555,0.0
 0028272,0.00041214,0.00160933,0.00003091,-0.00625880,-0.00393571,0.000
 95665,0.00073372,-0.00090176,-0.00166026,-0.19469623,-0.11495798,0.076
 13170,-0.00001789,-0.00005973,0.00008699,-0.00001210,-0.00000775,-0.00
 000840,-0.00000356,-0.00000691,0.00000070,-0.00000809,0.00000169,0.000
 00614,0.00002489,-0.00002057,0.00000994,0.00000387,0.00044361,-0.00025
 521,0.00004416,-0.00049138,0.00042392,0.00050724,0.00002420,-0.0000350
 7,0.00000932,-0.00011493,0.00024674,0.20902460,0.00001180,-0.00033244,
 -0.00057427,0.00005323,0.00013721,0.00014265,0.00009779,-0.00007113,-0
 .00007216,-0.00011059,0.00005860,0.00004397,0.00009171,0.00002052,0.00
 008258,-0.00037700,0.00006097,-0.00012675,0.00000401,-0.00010030,-0.00
 005166,0.00000571,0.00004320,0.00003445,0.00000139,0.00004949,0.000002
 68,0.00000154,0.00003825,0.00004001,0.00000174,-0.00000303,-0.00000585
 ,0.00014342,0.00012632,0.00036315,0.00052670,-0.00008899,-0.00020011,0
 .00030803,0.00049394,-0.00017659,-0.00248564,0.00102201,0.00135571,-0.
 02080071,-0.01899943,0.00755014,0.00080464,-0.00417451,-0.00453364,-0.
 10918985,-0.13549164,0.05744329,0.00004930,-0.00004971,0.00008210,0.00
 001042,0.00000129,0.00001609,0.00000921,-0.00000421,-0.00000187,0.0000
 0523,-0.00001423,0.00003298,0.00000557,-0.00001564,-0.00000784,0.00002
 689,-0.00067170,0.00063541,-0.00151799,-0.00079068,0.00054502,-0.00022
 817,0.00043266,0.00004155,0.00025160,0.00028234,-0.00005237,0.12700981
 ,0.15134501,-0.00021608,0.00019740,-0.00024036,0.00001043,0.00000852,0
 .00003459,0.00003918,-0.00003761,-0.00005907,-0.00005890,0.00000661,-0
 .00001711,-0.00000008,0.00003171,0.00004488,-0.00005114,0.00002007,-0.
 00003048,0.00002756,-0.00002200,-0.00000969,-0.00001121,0.00000605,0.0
 0000012,-0.00001237,0.00001289,-0.00000432,-0.00000407,0.00000959,0.00
 000990,0.00000090,-0.00000099,-0.00000111,0.00005956,0.00000656,0.0000
 4829,-0.00001108,-0.00010498,-0.00016518,0.00048390,-0.00009310,0.0005
 4894,-0.00074969,-0.00013034,0.00100177,-0.01935245,-0.01539104,0.0077
 5592,0.00011044,-0.00298622,-0.00224087,0.08100313,0.06416999,-0.09239
 020,-0.00002630,-0.00001920,0.00003949,-0.00000291,-0.00000499,0.00000
 199,-0.00000226,0.00000048,0.00000109,-0.00000331,-0.00001083,-0.00001
 954,-0.00001007,0.00001239,-0.00000031,0.00006971,-0.00001720,-0.00049
 076,-0.00082618,-0.00100079,0.00069276,0.00003320,0.00013349,-0.000205
 11,-0.00008412,-0.00057618,0.00036647,-0.08213167,-0.06037543,0.096700
 36,0.00015726,0.00008454,-0.00004492,-0.00006688,-0.00002464,-0.000100
 68,-0.00001264,0.00000012,-0.00000049,0.00003642,-0.00003366,-0.000019
 56,-0.00002178,-0.00004653,-0.00004573,0.00016056,-0.00003544,0.000057
 73,-0.00012346,0.00013025,0.00012751,0.00006255,-0.00001482,-0.0000528
 3,0.00003649,-0.00007805,-0.00001423,0.00001972,-0.00005523,-0.0000766
 4,-0.00000463,0.00000413,0.00000577,0.00005738,-0.00008080,-0.00018020
 ,0.00010846,0.00040291,-0.00013146,0.00022944,-0.00056216,0.00042859,-
 0.00092451,0.00040736,0.00095396,-0.00060763,-0.00472361,-0.00741719,0
 .00111178,0.00199204,-0.00251364,-0.06766404,0.02086955,-0.05374704,0.
 00005902,-0.00000236,0.00002745,-0.00000748,0.00000670,-0.00001780,-0.
 00000221,-0.00000391,-0.00000115,-0.00003820,-0.00004353,0.00003535,0.
 00002775,-0.00005054,0.00002055,-0.00164977,0.00086528,0.00112549,0.00
 004062,-0.00014963,0.00036103,-0.00024388,0.00027613,-0.00004837,0.000
 10270,-0.00022735,0.00068918,0.00699166,-0.00734265,0.02195956,0.06942
 462,0.00008224,-0.00080938,-0.00037683,0.00003904,0.00003374,-0.000077
 02,0.00012715,-0.00011971,-0.00002945,-0.00007468,0.00000766,-0.000045
 71,0.00009117,0.00000446,0.00002492,-0.00035042,-0.00004743,-0.0001704
 5,-0.00004950,-0.00000652,0.00001737,0.00002083,0.00002190,-0.00000739
 ,0.00001030,0.00000117,0.00000208,0.00000950,-0.00000542,-0.00001279,0
 .00000067,-0.00000116,-0.00000057,0.00017062,0.00010034,0.00027519,-0.
 00013157,-0.00054909,-0.00013030,0.00062941,0.00057737,0.00139675,-0.0
 0237107,0.00180914,-0.00039173,-0.01062887,0.00424233,-0.02968668,0.00
 172957,0.00424713,-0.00487677,0.01935027,-0.07896770,0.07238709,0.0001
 7419,-0.00006215,0.00005974,-0.00000726,-0.00000138,-0.00001713,0.0000
 0856,-0.00000413,-0.00000321,0.00003491,0.00004708,-0.00004510,-0.0000
 0318,0.00002046,0.00000336,0.00155796,-0.00042165,-0.00117453,0.000197
 94,-0.00003274,0.00024135,-0.00003657,-0.00048046,0.00041934,0.0013937
 7,0.00035093,0.00199698,0.00629278,-0.00579217,0.01587747,-0.02209300,
 0.08174026,0.00073859,-0.00081951,-0.00040912,-0.00014753,0.00007309,0
 .00001083,0.00009734,-0.00007215,0.00008369,0.00006019,-0.00004381,-0.
 00001131,0.00012152,-0.00010690,-0.00011599,-0.00020580,-0.00005688,-0
 .00007408,-0.00034436,0.00029967,0.00018029,0.00016973,-0.00002582,-0.
 00006267,0.00011046,-0.00017208,0.00003590,0.00006372,-0.00012143,-0.0
 0013714,-0.00001152,0.00000912,0.00001279,0.00005719,0.00008155,0.0001
 1078,0.00057339,0.00023472,0.00048145,0.00017866,-0.00051317,-0.001053
 16,-0.00515154,0.00299418,0.00170582,-0.00860770,-0.01044613,-0.030995
 86,0.00368068,0.00205433,0.00090752,-0.05206781,0.07429300,-0.23773898
 ,0.00030721,0.00004011,0.00027703,-0.00001313,0.00000685,-0.00002510,0
 .00001435,-0.00000690,-0.00000921,0.00001382,0.00003086,0.00008826,0.0
 0012471,-0.00007559,-0.00001656,0.00093049,0.00002457,0.00075679,0.000
 08325,-0.00041343,0.00038725,-0.00038006,-0.00004694,-0.00006823,-0.00
 145394,-0.00163942,0.00092172,-0.00356836,0.00506373,-0.01039377,0.064
 47948,-0.07168045,0.27309650,0.00024655,-0.00007034,-0.00045319,0.0001
 1089,0.00003019,0.00021688,0.00001618,-0.00006544,-0.00003537,-0.00007
 443,0.00006840,0.00005185,0.00005879,0.00002063,0.00009054,-0.00027266
 ,0.00007620,-0.00014752,0.00015888,-0.00020073,-0.00020750,-0.00008290
 ,0.00003278,0.00009067,-0.00005066,0.00010160,0.00003200,-0.00002329,0
 .00008747,0.00012734,0.00000593,-0.00000823,-0.00001131,0.00000141,0.0
 0010878,0.00024492,0.00043502,0.00004534,-0.00002146,-0.00018014,0.000
 30058,-0.00045935,0.00048668,-0.00071962,-0.00134259,0.00666090,-0.004
 40951,0.00199006,0.00103055,-0.00162069,-0.00038768,-0.24085715,0.1197
 8716,0.01492918,-0.00003189,0.00004856,-0.00002095,0.00002177,0.000003
 13,0.00002605,0.00000850,0.00000363,-0.00000131,0.00000911,-0.00002331
 ,0.00003076,-0.00002511,0.00001978,-0.00002491,-0.00002332,-0.00001723
 ,0.00067185,0.00053405,-0.00003831,0.00003095,0.00016613,0.00052585,-0
 .00015386,-0.00045448,0.00023802,-0.00014807,-0.01700935,0.01263289,-0
 .00024368,-0.00725930,0.00382526,0.00014695,0.25639336,0.00102516,-0.0
 0059038,-0.00008812,0.00009714,-0.00005766,0.00016310,-0.00003808,-0.0
 0008956,-0.00010317,-0.00008936,0.00001888,-0.00002366,0.00012506,-0.0
 0003590,0.00004659,-0.00016686,0.00009021,-0.00039781,-0.00013564,0.00
 017448,0.00013338,0.00006628,-0.00002587,-0.00006391,0.00003199,-0.000
 08564,-0.00001228,0.00001448,-0.00007355,-0.00010570,-0.00000167,0.000
 00239,0.00000648,0.00014195,-0.00003712,0.00022714,0.00021353,-0.00007
 273,-0.00020596,-0.00030503,0.00067760,-0.00049685,-0.00315306,-0.0031
 1001,-0.00068196,0.02211816,-0.01956156,-0.01016848,0.00247736,0.00046
 447,-0.00024537,0.11458708,-0.12180304,-0.00623370,0.00000831,0.000042
 14,-0.00003191,-0.00001449,-0.00000546,-0.00003509,-0.00000587,0.00000
 569,-0.00001053,-0.00000740,0.00001112,0.00002253,0.00006606,-0.000008
 06,-0.00001529,-0.00023404,0.00010051,0.00033712,-0.00023399,0.0003914
 9,0.00000475,-0.00102509,-0.00013186,0.00002311,-0.00007233,-0.0001502
 3,0.00026804,-0.01523568,0.01248801,0.00027769,0.01052888,-0.00590289,
 0.00103483,-0.13078281,0.13727453,0.00088750,-0.00048462,0.00035265,0.
 00006099,-0.00004895,0.00001136,-0.00010709,0.00006127,-0.00001103,0.0
 0004460,-0.00003097,0.00001992,0.00006010,-0.00004646,-0.00006835,0.00
 013213,0.00005876,-0.00017430,-0.00010004,0.00013062,0.00010863,0.0000
 5190,-0.00001905,-0.00005233,0.00002590,-0.00006181,-0.00001671,0.0000
 0828,-0.00005607,-0.00008185,0.,0.00000193,0.00000506,-0.00002950,-0.0
 0005841,-0.00007562,0.00013353,0.00019993,0.00029335,-0.00047009,-0.00
 045469,-0.00095807,-0.00217733,-0.00368747,-0.00080725,0.02138115,-0.0
 1733977,-0.00766312,0.00078393,0.00060434,0.00012424,0.01092560,-0.004
 35688,-0.04818328,-0.00004805,-0.00003076,0.00000443,-0.00001097,-0.00
 000473,-0.00002591,-0.00000685,-0.00000053,-0.00000438,-0.00000264,0.0
 0002646,0.00004785,0.00005796,-0.00003241,-0.00000376,0.00025477,0.000
 36665,0.00046834,-0.00000766,0.00018734,-0.00017251,-0.00037668,0.0000
 6176,0.00040235,-0.00047662,-0.00008802,-0.00011280,0.00988615,-0.0072
 9696,-0.00097868,-0.02585972,0.01602449,0.00205458,-0.01502125,0.01637
 501,0.05549719\\0.00000861,0.00000219,0.00000659,-0.00001045,-0.000000
 05,-0.00000728,-0.00000348,-0.00000098,0.00000218,0.00000024,0.0000107
 5,0.00000905,-0.00000160,-0.00001224,-0.00002378,0.00000144,0.00000646
 ,0.00000724,-0.00001077,-0.00000609,-0.00000513,-0.00000189,0.00000234
 ,-0.00000501,0.00000089,-0.00000474,-0.00000183,-0.00000004,0.00000963
 ,0.00000830,-0.00000384,-0.00000040,-0.00000284,-0.00000150,-0.0000029
 5,-0.00000672,-0.00000756,0.00000596,0.00000667,0.00000383,-0.00000292
 ,0.00000209,0.00001277,-0.00001075,-0.00000219,-0.00001381,0.00001011,
 -0.00000825,-0.00000238,-0.00001563,0.00000925,0.00000856,0.00000808,0
 .00000886,0.00000265,0.00000153,0.00000267,-0.00000160,0.00000232,0.00
 000081,-0.00000319,-0.00000259,-0.00000115,-0.00000230,-0.00000088,-0.
 00000058,0.00000268,-0.00000169,-0.00000304,0.00000322,0.00000060,0.00
 000041,-0.00000230,-0.00000118,-0.00000049,0.00000568,0.00000254,0.000
 00273,0.00000329,-0.00000008,-0.00000125,0.00000453,0.00000236,0.00000
 173,0.00000379,0.,-0.00000002,0.00000453,-0.00000169,0.00000098\\\@
 The archive entry for this job was punched.


 LIFE IS SO UNCERTAIN - EAT DESSERT FIRST.
 Job cpu time:       0 days  3 hours  1 minutes 44.5 seconds.
 Elapsed time:       0 days  0 hours 11 minutes 43.5 seconds.
 File lengths (MBytes):  RWF=    403 Int=      0 D2E=      0 Chk=     11 Scr=      1
 Normal termination of Gaussian 16 at Sat Jul  2 11:57:48 2022.
