 Entering Gaussian System, Link 0=g16
 AtFile(1): /home/561/yj5695/Basis/6-31pGd.gbs
 Initial command:
 /apps/gaussian/g16c01/g16/l1.exe "/jobfs/40763740.gadi-pbs/Gau-123936.inp" -scrdir="/jobfs/40763740.gadi-pbs/"
 Entering Link 1 = /apps/gaussian/g16c01/g16/l1.exe PID=    123937.
  
 Copyright (c) 1988-2019, Gaussian, Inc.  All Rights Reserved.
  
 This is part of the Gaussian(R) 16 program.  It is based on
 the Gaussian(R) 09 system (copyright 2009, Gaussian, Inc.),
 the Gaussian(R) 03 system (copyright 2003, Gaussian, Inc.),
 the Gaussian(R) 98 system (copyright 1998, Gaussian, Inc.),
 the Gaussian(R) 94 system (copyright 1995, Gaussian, Inc.),
 the Gaussian 92(TM) system (copyright 1992, Gaussian, Inc.),
 the Gaussian 90(TM) system (copyright 1990, Gaussian, Inc.),
 the Gaussian 88(TM) system (copyright 1988, Gaussian, Inc.),
 the Gaussian 86(TM) system (copyright 1986, Carnegie Mellon
 University), and the Gaussian 82(TM) system (copyright 1983,
 Carnegie Mellon University). Gaussian is a federally registered
 trademark of Gaussian, Inc.
  
 This software contains proprietary and confidential information,
 including trade secrets, belonging to Gaussian, Inc.
  
 This software is provided under written license and may be
 used, copied, transmitted, or stored only in accord with that
 written license.
  
 The following legend is applicable only to US Government
 contracts under FAR:
  
                    RESTRICTED RIGHTS LEGEND
  
 Use, reproduction and disclosure by the US Government is
 subject to restrictions as set forth in subparagraphs (a)
 and (c) of the Commercial Computer Software - Restricted
 Rights clause in FAR 52.227-19.
  
 Gaussian, Inc.
 340 Quinnipiac St., Bldg. 40, Wallingford CT 06492
  
  
 ---------------------------------------------------------------
 Warning -- This program may not be used in any manner that
 competes with the business of Gaussian, Inc. or will provide
 assistance to any competitor of Gaussian, Inc.  The licensee
 of this program is prohibited from giving any competitor of
 Gaussian, Inc. access to this program.  By using this program,
 the user acknowledges that Gaussian, Inc. is engaged in the
 business of creating and licensing software in the field of
 computational chemistry and represents and warrants to the
 licensee that it is not a competitor of Gaussian, Inc. and that
 it will not use this program in any manner prohibited above.
 ---------------------------------------------------------------
  

 Cite this work as:
 Gaussian 16, Revision C.01,
 M. J. Frisch, G. W. Trucks, H. B. Schlegel, G. E. Scuseria, 
 M. A. Robb, J. R. Cheeseman, G. Scalmani, V. Barone, 
 G. A. Petersson, H. Nakatsuji, X. Li, M. Caricato, A. V. Marenich, 
 J. Bloino, B. G. Janesko, R. Gomperts, B. Mennucci, H. P. Hratchian, 
 J. V. Ortiz, A. F. Izmaylov, J. L. Sonnenberg, D. Williams-Young, 
 F. Ding, F. Lipparini, F. Egidi, J. Goings, B. Peng, A. Petrone, 
 T. Henderson, D. Ranasinghe, V. G. Zakrzewski, J. Gao, N. Rega, 
 G. Zheng, W. Liang, M. Hada, M. Ehara, K. Toyota, R. Fukuda, 
 J. Hasegawa, M. Ishida, T. Nakajima, Y. Honda, O. Kitao, H. Nakai, 
 T. Vreven, K. Throssell, J. A. Montgomery, Jr., J. E. Peralta, 
 F. Ogliaro, M. J. Bearpark, J. J. Heyd, E. N. Brothers, K. N. Kudin, 
 V. N. Staroverov, T. A. Keith, R. Kobayashi, J. Normand, 
 K. Raghavachari, A. P. Rendell, J. C. Burant, S. S. Iyengar, 
 J. Tomasi, M. Cossi, J. M. Millam, M. Klene, C. Adamo, R. Cammi, 
 J. W. Ochterski, R. L. Martin, K. Morokuma, O. Farkas, 
 J. B. Foresman, and D. J. Fox, Gaussian, Inc., Wallingford CT, 2019.
 
 ******************************************
 Gaussian 16:  ES64L-G16RevC.01  3-Jul-2019
                20-May-2022 
 ******************************************
 %nproc=16
 Will use up to   16 processors via shared memory.
 %mem=20gb
 --------------------------------------------------
 #M062X/gen 6D INT(grid=ultrafine) OPT Freq=noraman
 --------------------------------------------------
 1/18=20,19=15,26=4,38=1/1,3;
 2/9=110,12=2,17=6,18=5,40=1/2;
 3/5=7,8=2,11=2,25=1,30=1,71=1,74=-55,75=-5/1,2,3;
 4//1;
 5/5=2,38=5/2;
 6/7=2,8=2,9=2,10=2,28=1/1;
 7//1,2,3,16;
 1/18=20,19=15,26=4/3(2);
 2/9=110/2;
 99//99;
 2/9=110/2;
 3/5=7,6=1,8=2,11=2,25=1,30=1,71=1,74=-55,75=-5,82=7/1,2,3;
 4/5=5,16=3,69=1/1;
 5/5=2,38=5/2;
 7//1,2,3,16;
 1/18=20,19=15,26=4/3(-5);
 2/9=110/2;
 6/7=2,8=2,9=2,10=2,19=2,28=1/1;
 99/9=1/99;
 -----------
 A.5.a1.freq
 -----------
 Symbolic Z-matrix:
 Charge = -1 Multiplicity = 1
 C                    -1.37392   0.68529  -0.82923 
 C                    -2.55414   0.82715  -1.55151 
 H                    -3.51127   0.82257  -1.03906 
 C                    -2.49658   0.98171  -2.93801 
 H                    -3.41918   1.09748  -3.50153 
 C                    -1.27344   0.99206  -3.61336 
 C                    -1.20678   1.16845  -5.10737 
 C                    -0.0969    0.84235  -2.86471 
 H                     0.86416   0.84871  -3.37405 
 C                    -0.13992   0.68852  -1.48325 
 H                     0.78139   0.57641  -0.91738 
 S                    -1.42262   0.39502   0.94504 
 O                    -0.31684   1.25398   1.47488 
 O                    -2.77809   0.83305   1.37724 
 N                    -1.26261  -1.13312   1.24489 
 H                    -0.29386  -1.3915    1.03665 
 H                    -0.62306   0.36613  -5.5704 
 H                    -2.20663   1.1678   -5.54939 
 H                    -0.72029   2.11567  -5.36526 
 

 GradGradGradGradGradGradGradGradGradGradGradGradGradGradGradGradGradGrad
 Berny optimization.
 Initialization pass.
                           ----------------------------
                           !    Initial Parameters    !
                           ! (Angstroms and Degrees)  !
 --------------------------                            --------------------------
 ! Name  Definition              Value          Derivative Info.                !
 --------------------------------------------------------------------------------
 ! R1    R(1,2)                  1.3909         estimate D2E/DX2                !
 ! R2    R(1,10)                 1.3966         estimate D2E/DX2                !
 ! R3    R(1,12)                 1.7985         estimate D2E/DX2                !
 ! R4    R(2,3)                  1.0857         estimate D2E/DX2                !
 ! R5    R(2,4)                  1.3963         estimate D2E/DX2                !
 ! R6    R(4,5)                  1.0873         estimate D2E/DX2                !
 ! R7    R(4,6)                  1.3972         estimate D2E/DX2                !
 ! R8    R(6,7)                  1.5059         estimate D2E/DX2                !
 ! R9    R(6,8)                  1.4025         estimate D2E/DX2                !
 ! R10   R(7,17)                 1.0949         estimate D2E/DX2                !
 ! R11   R(7,18)                 1.0932         estimate D2E/DX2                !
 ! R12   R(7,19)                 1.0956         estimate D2E/DX2                !
 ! R13   R(8,9)                  1.0877         estimate D2E/DX2                !
 ! R14   R(8,10)                 1.3907         estimate D2E/DX2                !
 ! R15   R(10,11)                1.087          estimate D2E/DX2                !
 ! R16   R(12,13)                1.4971         estimate D2E/DX2                !
 ! R17   R(12,14)                1.4886         estimate D2E/DX2                !
 ! R18   R(12,15)                1.5655         estimate D2E/DX2                !
 ! R19   R(15,16)                1.024          estimate D2E/DX2                !
 ! A1    A(2,1,10)             120.4183         estimate D2E/DX2                !
 ! A2    A(2,1,12)             120.3816         estimate D2E/DX2                !
 ! A3    A(10,1,12)            119.0958         estimate D2E/DX2                !
 ! A4    A(1,2,3)              120.1653         estimate D2E/DX2                !
 ! A5    A(1,2,4)              119.4684         estimate D2E/DX2                !
 ! A6    A(3,2,4)              120.3656         estimate D2E/DX2                !
 ! A7    A(2,4,5)              119.4371         estimate D2E/DX2                !
 ! A8    A(2,4,6)              121.1229         estimate D2E/DX2                !
 ! A9    A(5,4,6)              119.44           estimate D2E/DX2                !
 ! A10   A(4,6,7)              121.276          estimate D2E/DX2                !
 ! A11   A(4,6,8)              118.3943         estimate D2E/DX2                !
 ! A12   A(7,6,8)              120.3284         estimate D2E/DX2                !
 ! A13   A(6,7,17)             110.9359         estimate D2E/DX2                !
 ! A14   A(6,7,18)             111.1368         estimate D2E/DX2                !
 ! A15   A(6,7,19)             110.7594         estimate D2E/DX2                !
 ! A16   A(17,7,18)            108.4314         estimate D2E/DX2                !
 ! A17   A(17,7,19)            107.2927         estimate D2E/DX2                !
 ! A18   A(18,7,19)            108.1476         estimate D2E/DX2                !
 ! A19   A(6,8,9)              119.3806         estimate D2E/DX2                !
 ! A20   A(6,8,10)             121.072          estimate D2E/DX2                !
 ! A21   A(9,8,10)             119.5474         estimate D2E/DX2                !
 ! A22   A(1,10,8)             119.523          estimate D2E/DX2                !
 ! A23   A(1,10,11)            120.3228         estimate D2E/DX2                !
 ! A24   A(8,10,11)            120.1536         estimate D2E/DX2                !
 ! A25   A(1,12,13)            103.6822         estimate D2E/DX2                !
 ! A26   A(1,12,14)            105.2828         estimate D2E/DX2                !
 ! A27   A(1,12,15)            110.1047         estimate D2E/DX2                !
 ! A28   A(13,12,14)           113.6387         estimate D2E/DX2                !
 ! A29   A(13,12,15)           114.632          estimate D2E/DX2                !
 ! A30   A(14,12,15)           108.9473         estimate D2E/DX2                !
 ! A31   A(12,15,16)           107.7006         estimate D2E/DX2                !
 ! D1    D(10,1,2,3)           179.9076         estimate D2E/DX2                !
 ! D2    D(10,1,2,4)            -0.4009         estimate D2E/DX2                !
 ! D3    D(12,1,2,3)             3.6537         estimate D2E/DX2                !
 ! D4    D(12,1,2,4)          -176.6548         estimate D2E/DX2                !
 ! D5    D(2,1,10,8)             0.357          estimate D2E/DX2                !
 ! D6    D(2,1,10,11)         -179.93           estimate D2E/DX2                !
 ! D7    D(12,1,10,8)          176.6587         estimate D2E/DX2                !
 ! D8    D(12,1,10,11)          -3.6283         estimate D2E/DX2                !
 ! D9    D(2,1,12,13)         -138.9741         estimate D2E/DX2                !
 ! D10   D(2,1,12,14)          -19.3486         estimate D2E/DX2                !
 ! D11   D(2,1,12,15)           97.9393         estimate D2E/DX2                !
 ! D12   D(10,1,12,13)          44.7228         estimate D2E/DX2                !
 ! D13   D(10,1,12,14)         164.3483         estimate D2E/DX2                !
 ! D14   D(10,1,12,15)         -78.3638         estimate D2E/DX2                !
 ! D15   D(1,2,4,5)           -179.6995         estimate D2E/DX2                !
 ! D16   D(1,2,4,6)              0.2066         estimate D2E/DX2                !
 ! D17   D(3,2,4,5)             -0.0086         estimate D2E/DX2                !
 ! D18   D(3,2,4,6)            179.8974         estimate D2E/DX2                !
 ! D19   D(2,4,6,7)           -179.5536         estimate D2E/DX2                !
 ! D20   D(2,4,6,8)              0.0297         estimate D2E/DX2                !
 ! D21   D(5,4,6,7)              0.3524         estimate D2E/DX2                !
 ! D22   D(5,4,6,8)            179.9357         estimate D2E/DX2                !
 ! D23   D(4,6,7,17)          -126.9781         estimate D2E/DX2                !
 ! D24   D(4,6,7,18)            -6.258          estimate D2E/DX2                !
 ! D25   D(4,6,7,19)           113.9845         estimate D2E/DX2                !
 ! D26   D(8,6,7,17)            53.4466         estimate D2E/DX2                !
 ! D27   D(8,6,7,18)           174.1666         estimate D2E/DX2                !
 ! D28   D(8,6,7,19)           -65.5908         estimate D2E/DX2                !
 ! D29   D(4,6,8,9)           -179.9605         estimate D2E/DX2                !
 ! D30   D(4,6,8,10)            -0.0748         estimate D2E/DX2                !
 ! D31   D(7,6,8,9)             -0.3731         estimate D2E/DX2                !
 ! D32   D(7,6,8,10)           179.5126         estimate D2E/DX2                !
 ! D33   D(6,8,10,1)            -0.1165         estimate D2E/DX2                !
 ! D34   D(6,8,10,11)         -179.83           estimate D2E/DX2                !
 ! D35   D(9,8,10,1)           179.769          estimate D2E/DX2                !
 ! D36   D(9,8,10,11)            0.0556         estimate D2E/DX2                !
 ! D37   D(1,12,15,16)          71.0838         estimate D2E/DX2                !
 ! D38   D(13,12,15,16)        -45.3353         estimate D2E/DX2                !
 ! D39   D(14,12,15,16)       -173.9282         estimate D2E/DX2                !
 --------------------------------------------------------------------------------
 Trust Radius=3.00D-01 FncErr=1.00D-07 GrdErr=1.00D-06 EigMax=2.50D+02 EigMin=1.00D-04
 Number of steps in this run=     99 maximum allowed number of steps=    114.
 GradGradGradGradGradGradGradGradGradGradGradGradGradGradGradGradGradGrad

                          Input orientation:                          
 ---------------------------------------------------------------------
 Center     Atomic      Atomic             Coordinates (Angstroms)
 Number     Number       Type             X           Y           Z
 ---------------------------------------------------------------------
      1          6           0       -1.373922    0.685292   -0.829232
      2          6           0       -2.554144    0.827154   -1.551511
      3          1           0       -3.511274    0.822565   -1.039057
      4          6           0       -2.496580    0.981707   -2.938007
      5          1           0       -3.419182    1.097484   -3.501531
      6          6           0       -1.273436    0.992060   -3.613364
      7          6           0       -1.206780    1.168452   -5.107373
      8          6           0       -0.096904    0.842354   -2.864707
      9          1           0        0.864163    0.848714   -3.374046
     10          6           0       -0.139917    0.688524   -1.483245
     11          1           0        0.781392    0.576410   -0.917381
     12         16           0       -1.422621    0.395016    0.945041
     13          8           0       -0.316843    1.253980    1.474878
     14          8           0       -2.778092    0.833054    1.377239
     15          7           0       -1.262614   -1.133124    1.244891
     16          1           0       -0.293856   -1.391503    1.036649
     17          1           0       -0.623060    0.366134   -5.570398
     18          1           0       -2.206635    1.167795   -5.549391
     19          1           0       -0.720286    2.115673   -5.365255
 ---------------------------------------------------------------------
                    Distance matrix (angstroms):
                    1          2          3          4          5
     1  C    0.000000
     2  C    1.390948   0.000000
     3  H    2.152009   1.085692   0.000000
     4  C    2.407313   1.396271   2.158921   0.000000
     5  H    3.390306   2.150336   2.479484   1.087271   0.000000
     6  C    2.802783   2.432826   3.415217   1.397246   2.151243
     7  C    4.308581   3.817857   4.688446   2.530732   2.734682
     8  C    2.408029   2.786170   3.871862   2.404836   3.392369
     9  H    3.392906   3.873877   4.959567   3.391520   4.292457
    10  C    1.396607   2.419167   3.403134   2.784986   3.872248
    11  H    2.159862   3.404525   4.301439   3.871989   4.959251
    12  S    1.798521   2.774862   2.912373   4.071321   4.924604
    13  O    2.598027   3.787707   4.087833   4.929396   5.866314
    14  O    2.619550   2.937306   2.525104   4.326973   4.927811
    15  N    2.760618   3.651110   3.754678   4.846836   5.670531
    16  H    2.993515   4.090222   4.422944   5.126598   6.046304
    17  H    4.810853   4.482530   5.392881   3.289147   3.554347
    18  H    4.817273   4.027387   4.707906   2.634013   2.380955
    19  H    4.800910   4.423569   5.308270   3.214441   3.434271
                    6          7          8          9         10
     6  C    0.000000
     7  C    1.505862   0.000000
     8  C    1.402543   2.523433   0.000000
     9  H    2.155725   2.719459   1.087712   0.000000
    10  C    2.431955   3.808258   1.390666   2.146850   0.000000
    11  H    3.415173   4.675401   2.152721   2.473096   1.087006
    12  S    4.599758   6.105449   4.058549   4.908130   2.761892
    13  O    5.184002   6.642690   4.364608   5.007103   3.016875
    14  O    5.214920   6.680697   5.018263   5.986733   3.893999
    15  N    5.302751   6.756599   4.706399   5.457604   3.467214
    16  H    5.316349   6.718319   4.499943   5.080729   3.271097
    17  H    2.155169   1.094913   2.797211   2.696049   4.128218
    18  H    2.156373   1.093202   3.429928   3.776737   4.586346
    19  H    2.153510   1.095631   2.874489   2.842636   4.176552
                   11         12         13         14         15
    11  H    0.000000
    12  S    2.891227   0.000000
    13  O    2.718110   1.497094   0.000000
    14  O    4.242767   1.488615   2.498891   0.000000
    15  N    3.431601   1.565479   2.577914   2.485970   0.000000
    16  H    2.974403   2.115219   2.681633   3.352027   1.024020
    17  H    4.864902   6.564379   7.107598   7.289159   7.007494
    18  H    5.543786   6.587072   7.274551   6.958219   7.235169
    19  H    4.940440   6.578280   6.905990   7.165257   7.385312
                   16         17         18         19
    16  H    0.000000
    17  H    6.844760   0.000000
    18  H    7.320154   1.775053   0.000000
    19  H    7.312079   1.764206   1.772459   0.000000
 Stoichiometry    C7H8NO2S(1-)
 Framework group  C1[X(C7H8NO2S)]
 Deg. of freedom    51
 Full point group                 C1      NOp   1
 Largest Abelian subgroup         C1      NOp   1
 Largest concise Abelian subgroup C1      NOp   1
                         Standard orientation:                         
 ---------------------------------------------------------------------
 Center     Atomic      Atomic             Coordinates (Angstroms)
 Number     Number       Type             X           Y           Z
 ---------------------------------------------------------------------
      1          6           0        0.153286    0.020995   -0.055728
      2          6           0       -0.544213    1.223673   -0.013321
      3          1           0       -0.006125    2.166640   -0.011688
      4          6           0       -1.939979    1.207413    0.020504
      5          1           0       -2.484803    2.147908    0.048682
      6          6           0       -2.648502    0.003139    0.016798
      7          6           0       -4.153981   -0.018265    0.043184
      8          6           0       -1.923704   -1.197006   -0.021225
      9          1           0       -2.459069   -2.143834   -0.025314
     10          6           0       -0.533477   -1.195093   -0.056100
     11          1           0        0.013209   -2.134076   -0.088127
     12         16           0        1.951176    0.010050   -0.009389
     13          8           0        2.324787   -1.040040   -1.008897
     14          8           0        2.362278    1.384724   -0.405927
     15          7           0        2.450217   -0.269262    1.447891
     16          1           0        2.248661   -1.249841    1.663432
     17          1           0       -4.522052   -0.649856    0.858323
     18          1           0       -4.560279    0.988014    0.175146
     19          1           0       -4.552985   -0.427518   -0.891544
 ---------------------------------------------------------------------
 Rotational constants (GHZ):           2.6147167           0.5611476           0.5112586
 General basis read from cards:  (6D, 7F)
 There are   229 symmetry adapted cartesian basis functions of A   symmetry.
 There are   229 symmetry adapted basis functions of A   symmetry.
   229 basis functions,   408 primitive gaussians,   229 cartesian basis functions
    45 alpha electrons       45 beta electrons
       nuclear repulsion energy       706.7437173623 Hartrees.
 NAtoms=   19 NActive=   19 NUniq=   19 SFac= 1.00D+00 NAtFMM=   60 NAOKFM=F Big=F
 Integral buffers will be    131072 words long.
 Raffenetti 2 integral format.
 Two-electron integral symmetry is turned on.
 One-electron integrals computed using PRISM.
 NBasis=   229 RedAO= T EigKep=  2.10D-06  NBF=   229
 NBsUse=   229 1.00D-06 EigRej= -1.00D+00 NBFU=   229
 ExpMin= 4.05D-02 ExpMax= 2.19D+04 ExpMxC= 3.30D+03 IAcc=3 IRadAn=         5 AccDes= 0.00D+00
 Harris functional with IExCor= 1009 and IRadAn=       5 diagonalized for initial guess.
 HarFok:  IExCor= 1009 AccDes= 0.00D+00 IRadAn=         5 IDoV= 1 UseB2=F ITyADJ=14
 ICtDFT=  3500011 ScaDFX=  1.000000  1.000000  1.000000  1.000000
 FoFCou: FMM=F IPFlag=           0 FMFlag=      100000 FMFlg1=           0
         NFxFlg=           0 DoJE=T BraDBF=F KetDBF=T FulRan=T
         wScrn=  0.000000 ICntrl=       500 IOpCl=  0 I1Cent=   200000004 NGrid=           0
         NMat0=    1 NMatS0=      1 NMatT0=    0 NMatD0=    1 NMtDS0=    0 NMtDT0=    0
 Petite list used in FoFCou.
 Requested convergence on RMS density matrix=1.00D-08 within 128 cycles.
 Requested convergence on MAX density matrix=1.00D-06.
 Requested convergence on             energy=1.00D-06.
 No special actions if energy rises.
 SCF Done:  E(RM062X) =  -874.708650426     A.U. after   17 cycles
            NFock= 17  Conv=0.20D-08     -V/T= 2.0063

 **********************************************************************

            Population analysis using the SCF Density.

 **********************************************************************

 Orbital symmetries:
       Occupied  (A) (A) (A) (A) (A) (A) (A) (A) (A) (A) (A) (A)
                 (A) (A) (A) (A) (A) (A) (A) (A) (A) (A) (A) (A)
                 (A) (A) (A) (A) (A) (A) (A) (A) (A) (A) (A) (A)
                 (A) (A) (A) (A) (A) (A) (A) (A) (A)
       Virtual   (A) (A) (A) (A) (A) (A) (A) (A) (A) (A) (A) (A)
                 (A) (A) (A) (A) (A) (A) (A) (A) (A) (A) (A) (A)
                 (A) (A) (A) (A) (A) (A) (A) (A) (A) (A) (A) (A)
                 (A) (A) (A) (A) (A) (A) (A) (A) (A) (A) (A) (A)
                 (A) (A) (A) (A) (A) (A) (A) (A) (A) (A) (A) (A)
                 (A) (A) (A) (A) (A) (A) (A) (A) (A) (A) (A) (A)
                 (A) (A) (A) (A) (A) (A) (A) (A) (A) (A) (A) (A)
                 (A) (A) (A) (A) (A) (A) (A) (A) (A) (A) (A) (A)
                 (A) (A) (A) (A) (A) (A) (A) (A) (A) (A) (A) (A)
                 (A) (A) (A) (A) (A) (A) (A) (A) (A) (A) (A) (A)
                 (A) (A) (A) (A) (A) (A) (A) (A) (A) (A) (A) (A)
                 (A) (A) (A) (A) (A) (A) (A) (A) (A) (A) (A) (A)
                 (A) (A) (A) (A) (A) (A) (A) (A) (A) (A) (A) (A)
                 (A) (A) (A) (A) (A) (A) (A) (A) (A) (A) (A) (A)
                 (A) (A) (A) (A) (A) (A) (A) (A) (A) (A) (A) (A)
                 (A) (A) (A) (A)
 The electronic state is 1-A.
 Alpha  occ. eigenvalues --  -89.96087 -19.43960 -19.43857 -14.54945 -10.45976
 Alpha  occ. eigenvalues --  -10.45851 -10.44721 -10.44640 -10.44295 -10.44083
 Alpha  occ. eigenvalues --  -10.43841  -8.26944  -6.19156  -6.19110  -6.19039
 Alpha  occ. eigenvalues --   -1.02706  -0.90812  -0.85539  -0.78996  -0.76765
 Alpha  occ. eigenvalues --   -0.73333  -0.68157  -0.58168  -0.57335  -0.51866
 Alpha  occ. eigenvalues --   -0.45763  -0.42871  -0.41617  -0.40212  -0.39208
 Alpha  occ. eigenvalues --   -0.37868  -0.37066  -0.36108  -0.33442  -0.31772
 Alpha  occ. eigenvalues --   -0.30945  -0.28981  -0.23908  -0.21407  -0.19822
 Alpha  occ. eigenvalues --   -0.19473  -0.19022  -0.17230  -0.15145  -0.11854
 Alpha virt. eigenvalues --    0.09391   0.11658   0.11816   0.11912   0.12727
 Alpha virt. eigenvalues --    0.14595   0.14763   0.15177   0.16912   0.17641
 Alpha virt. eigenvalues --    0.18383   0.19260   0.19787   0.20832   0.21004
 Alpha virt. eigenvalues --    0.21619   0.22005   0.24074   0.24795   0.25110
 Alpha virt. eigenvalues --    0.25936   0.26605   0.26962   0.27676   0.28480
 Alpha virt. eigenvalues --    0.29531   0.29873   0.30221   0.31024   0.31380
 Alpha virt. eigenvalues --    0.32371   0.32673   0.33561   0.34506   0.35054
 Alpha virt. eigenvalues --    0.36037   0.36392   0.36552   0.36932   0.37486
 Alpha virt. eigenvalues --    0.38968   0.39228   0.40233   0.40725   0.41611
 Alpha virt. eigenvalues --    0.42973   0.43337   0.43841   0.44436   0.45954
 Alpha virt. eigenvalues --    0.46144   0.46437   0.47120   0.48636   0.49013
 Alpha virt. eigenvalues --    0.50359   0.50951   0.52475   0.53582   0.54634
 Alpha virt. eigenvalues --    0.56047   0.56641   0.57932   0.62485   0.70169
 Alpha virt. eigenvalues --    0.73944   0.77512   0.78554   0.79672   0.80441
 Alpha virt. eigenvalues --    0.83869   0.84399   0.85548   0.86791   0.87057
 Alpha virt. eigenvalues --    0.87758   0.88724   0.89846   0.93452   0.93881
 Alpha virt. eigenvalues --    0.94000   0.95079   0.95239   0.96420   1.00329
 Alpha virt. eigenvalues --    1.05313   1.07476   1.09799   1.09947   1.10520
 Alpha virt. eigenvalues --    1.11496   1.17239   1.17968   1.19348   1.20010
 Alpha virt. eigenvalues --    1.22904   1.24204   1.25398   1.26835   1.27756
 Alpha virt. eigenvalues --    1.28963   1.30135   1.32813   1.33570   1.37587
 Alpha virt. eigenvalues --    1.38458   1.38656   1.39724   1.43295   1.46137
 Alpha virt. eigenvalues --    1.50532   1.52032   1.53965   1.54172   1.55838
 Alpha virt. eigenvalues --    1.57266   1.58283   1.60226   1.60878   1.63288
 Alpha virt. eigenvalues --    1.63423   1.64984   1.65911   1.67497   1.71153
 Alpha virt. eigenvalues --    1.77855   1.87778   1.93845   1.98124   1.99349
 Alpha virt. eigenvalues --    1.99808   2.00607   2.02032   2.03709   2.04312
 Alpha virt. eigenvalues --    2.05071   2.07926   2.09011   2.11611   2.13362
 Alpha virt. eigenvalues --    2.18003   2.18406   2.18783   2.20722   2.27405
 Alpha virt. eigenvalues --    2.29006   2.30120   2.32058   2.32903   2.36369
 Alpha virt. eigenvalues --    2.38950   2.41863   2.45264   2.45664   2.47562
 Alpha virt. eigenvalues --    2.50095   2.51011   2.52713   2.56394   2.58382
 Alpha virt. eigenvalues --    2.74130   2.78766   2.79412   2.79943   2.87477
 Alpha virt. eigenvalues --    2.90318   2.91709   2.96623   3.05825   3.06622
 Alpha virt. eigenvalues --    3.11747   3.20966   3.50879   4.16017   4.27405
 Alpha virt. eigenvalues --    4.37088   4.38598   4.43100   4.45148   4.46366
 Alpha virt. eigenvalues --    4.50738   4.54549   4.61220   4.85321
          Condensed to atoms (all electrons):
               1          2          3          4          5          6
     1  C   39.846533 -16.024895   0.089078  -1.468906   0.013297  -5.537633
     2  C  -16.024895  59.269262   0.261509  -5.332858   0.042970   4.458399
     3  H    0.089078   0.261509   0.453538  -0.072925  -0.003800  -0.002623
     4  C   -1.468906  -5.332858  -0.072925  14.182681   0.190321  -0.254298
     5  H    0.013297   0.042970  -0.003800   0.190321   0.539553   0.072696
     6  C   -5.537633   4.458399  -0.002623  -0.254298   0.072696  10.306700
     7  C   -0.659960   1.287474   0.002046  -0.951678  -0.053824  -1.107250
     8  C   -1.885105   2.398552  -0.027067  -3.060143   0.062817   0.387185
     9  H    0.020211  -0.032562   0.000016   0.096381  -0.000156   0.087711
    10  C   -4.183290 -39.646773   0.053789   2.799840  -0.045517  -2.100968
    11  H    0.134716   0.077811  -0.000130  -0.028240   0.000016  -0.018678
    12  S   -2.436391  -0.128573  -0.001188   0.354466   0.003186  -0.074240
    13  O    0.011098  -0.216390   0.001085   0.108888   0.000024  -0.051101
    14  O   -0.328530  -0.312090   0.002459   0.080083   0.000332  -0.014043
    15  N   -0.136067   0.506901  -0.000463  -0.016457   0.000119   0.058977
    16  H   -0.112132   0.044075  -0.000012  -0.000666   0.000000   0.001331
    17  H   -0.006711   0.008260   0.000002   0.005149   0.000111  -0.140366
    18  H   -0.004329   0.006075  -0.000006   0.023570   0.003895  -0.155854
    19  H    0.006477  -0.005782   0.000002   0.006432   0.000129  -0.000898
               7          8          9         10         11         12
     1  C   -0.659960  -1.885105   0.020211  -4.183290   0.134716  -2.436391
     2  C    1.287474   2.398552  -0.032562 -39.646773   0.077811  -0.128573
     3  H    0.002046  -0.027067   0.000016   0.053789  -0.000130  -0.001188
     4  C   -0.951678  -3.060143   0.096381   2.799840  -0.028240   0.354466
     5  H   -0.053824   0.062817  -0.000156  -0.045517   0.000016   0.003186
     6  C   -1.107250   0.387185   0.087711  -2.100968  -0.018678  -0.074240
     7  C    7.439911   0.001216  -0.019032  -0.497733  -0.000101  -0.107183
     8  C    0.001216  15.589922   0.167287  -7.743176  -0.123023   0.090975
     9  H   -0.019032   0.167287   0.537539  -0.032331  -0.003908   0.001739
    10  C   -0.497733  -7.743176  -0.032331  55.212831   0.245977   1.018223
    11  H   -0.000101  -0.123023  -0.003908   0.245977   0.477580   0.006604
    12  S   -0.107183   0.090975   0.001739   1.018223   0.006604  15.258999
    13  O   -0.009129   0.021069   0.000056   0.014396   0.005503   0.174385
    14  O   -0.003104   0.080955   0.000031   0.237264   0.000682   0.287593
    15  N    0.000609  -0.044040   0.000022  -0.302677   0.000581   0.025092
    16  H   -0.000389   0.004735  -0.000000  -0.012379  -0.000620   0.137240
    17  H    0.476267  -0.011336   0.000890   0.006224  -0.000002  -0.000116
    18  H    0.479733  -0.006274   0.000078   0.002207   0.000002  -0.000021
    19  H    0.355047  -0.014748   0.000462  -0.011528   0.000000   0.000084
              13         14         15         16         17         18
     1  C    0.011098  -0.328530  -0.136067  -0.112132  -0.006711  -0.004329
     2  C   -0.216390  -0.312090   0.506901   0.044075   0.008260   0.006075
     3  H    0.001085   0.002459  -0.000463  -0.000012   0.000002  -0.000006
     4  C    0.108888   0.080083  -0.016457  -0.000666   0.005149   0.023570
     5  H    0.000024   0.000332   0.000119   0.000000   0.000111   0.003895
     6  C   -0.051101  -0.014043   0.058977   0.001331  -0.140366  -0.155854
     7  C   -0.009129  -0.003104   0.000609  -0.000389   0.476267   0.479733
     8  C    0.021069   0.080955  -0.044040   0.004735  -0.011336  -0.006274
     9  H    0.000056   0.000031   0.000022  -0.000000   0.000890   0.000078
    10  C    0.014396   0.237264  -0.302677  -0.012379   0.006224   0.002207
    11  H    0.005503   0.000682   0.000581  -0.000620  -0.000002   0.000002
    12  S    0.174385   0.287593   0.025092   0.137240  -0.000116  -0.000021
    13  O    8.912301  -0.133488  -0.209940  -0.021012  -0.000000  -0.000000
    14  O   -0.133488   8.945840  -0.188050   0.021352  -0.000000   0.000001
    15  N   -0.209940  -0.188050   7.922163   0.153217  -0.000015  -0.000001
    16  H   -0.021012   0.021352   0.153217   0.458970   0.000000  -0.000000
    17  H   -0.000000  -0.000000  -0.000015   0.000000   0.508310  -0.025312
    18  H   -0.000000   0.000001  -0.000001  -0.000000  -0.025312   0.502994
    19  H   -0.000000  -0.000000   0.000008  -0.000000  -0.034949  -0.026180
              19
     1  C    0.006477
     2  C   -0.005782
     3  H    0.000002
     4  C    0.006432
     5  H    0.000129
     6  C   -0.000898
     7  C    0.355047
     8  C   -0.014748
     9  H    0.000462
    10  C   -0.011528
    11  H    0.000000
    12  S    0.000084
    13  O   -0.000000
    14  O   -0.000000
    15  N    0.000008
    16  H   -0.000000
    17  H   -0.034949
    18  H   -0.026180
    19  H    0.505568
 Mulliken charges:
               1
     1  C   -1.337461
     2  C   -0.661365
     3  H    0.244690
     4  C   -0.661642
     5  H    0.173831
     6  C    0.084955
     7  C   -0.632921
     8  C    0.110198
     9  H    0.175567
    10  C    0.985619
    11  H    0.225229
    12  S    1.389127
    13  O   -0.607745
    14  O   -0.677287
    15  N   -0.769979
    16  H    0.326290
    17  H    0.213593
    18  H    0.199422
    19  H    0.219877
 Sum of Mulliken charges =  -1.00000
 Mulliken charges with hydrogens summed into heavy atoms:
               1
     1  C   -1.337461
     2  C   -0.416675
     4  C   -0.487811
     6  C    0.084955
     7  C   -0.000029
     8  C    0.285765
    10  C    1.210848
    12  S    1.389127
    13  O   -0.607745
    14  O   -0.677287
    15  N   -0.443689
 Electronic spatial extent (au):  <R**2>=           2252.4340
 Charge=             -1.0000 electrons
 Dipole moment (field-independent basis, Debye):
    X=            -11.6435    Y=             -1.3573    Z=              0.3307  Tot=             11.7270
 Quadrupole moment (field-independent basis, Debye-Ang):
   XX=           -109.6573   YY=            -77.4436   ZZ=            -87.1771
   XY=             -3.2246   XZ=             -0.0269   YZ=             -3.1216
 Traceless Quadrupole moment (field-independent basis, Debye-Ang):
   XX=            -18.2313   YY=             13.9824   ZZ=              4.2489
   XY=             -3.2246   XZ=             -0.0269   YZ=             -3.1216
 Octapole moment (field-independent basis, Debye-Ang**2):
  XXX=            -71.4274  YYY=             -4.3917  ZZZ=            -12.0666  XYY=            -14.1491
  XXY=             -6.7311  XXZ=             -5.3558  XZZ=            -13.2672  YZZ=             -1.3802
  YYZ=              7.1050  XYZ=             -7.3890
 Hexadecapole moment (field-independent basis, Debye-Ang**3):
 XXXX=          -2701.3792 YYYY=           -466.0662 ZZZZ=           -266.5630 XXXY=            -11.0438
 XXXZ=            -34.2600 YYYX=            -15.3938 YYYZ=             -4.1833 ZZZX=            -28.8795
 ZZZY=            -10.4792 XXYY=           -515.0967 XXZZ=           -508.5287 YYZZ=           -126.2312
 XXYZ=            -14.7559 YYXZ=             14.2473 ZZXY=              0.7209
 N-N= 7.067437173623D+02 E-N=-3.482850469729D+03  KE= 8.692308941153D+02
 Calling FoFJK, ICntrl=      2127 FMM=F ISym2X=0 I1Cent= 0 IOpClX= 0 NMat=1 NMatS=1 NMatT=0.
 ***** Axes restored to original set *****
 -------------------------------------------------------------------
 Center     Atomic                   Forces (Hartrees/Bohr)
 Number     Number              X              Y              Z
 -------------------------------------------------------------------
      1        6           0.000198081   -0.001071050   -0.001249974
      2        6           0.001558167    0.000680047   -0.003594063
      3        1           0.001628585   -0.000138642    0.003098005
      4        6           0.003108739   -0.000207692    0.000100229
      5        1          -0.000823235    0.000100527   -0.001082961
      6        6          -0.000662466   -0.000568105    0.002749673
      7        6           0.001417732    0.000560274    0.000212919
      8        6          -0.002328886    0.000042622   -0.000130214
      9        1           0.001007391    0.000072834   -0.001091975
     10        6          -0.002304910    0.000449846   -0.004261454
     11        1          -0.001459683    0.000884055    0.002104530
     12       16          -0.006631519    0.010536738    0.038156253
     13        8          -0.002324769   -0.006047192   -0.012556020
     14        8           0.007525554   -0.003094899   -0.012125893
     15        7           0.000564948   -0.004055011   -0.008715737
     16        1           0.000281899    0.001750185    0.001656571
     17        1          -0.000208329   -0.000509544   -0.001219336
     18        1          -0.000383467   -0.000055831   -0.000856590
     19        1          -0.000163834    0.000670838   -0.001193962
 -------------------------------------------------------------------
 Cartesian Forces:  Max     0.038156253 RMS     0.006239000

 GradGradGradGradGradGradGradGradGradGradGradGradGradGradGradGradGradGrad
 Berny optimization.
 FormGI is forming the generalized inverse of G from B-inverse, IUseBI=4.
 Internal  Forces:  Max     0.012685189 RMS     0.003375057
 Search for a local minimum.
 Step number   1 out of a maximum of   99
 All quantities printed in internal units (Hartrees-Bohrs-Radians)
 Mixed Optimization -- RFO/linear search
 Second derivative matrix not updated -- first step.
 ITU=  0
     Eigenvalues ---    0.00390   0.00688   0.01442   0.01553   0.02095
     Eigenvalues ---    0.02131   0.02134   0.02156   0.02164   0.02177
     Eigenvalues ---    0.02186   0.03076   0.07155   0.07250   0.10318
     Eigenvalues ---    0.11828   0.16000   0.16000   0.16000   0.16000
     Eigenvalues ---    0.16000   0.16000   0.16000   0.16000   0.17158
     Eigenvalues ---    0.21668   0.22000   0.22968   0.23985   0.24947
     Eigenvalues ---    0.24999   0.25000   0.26234   0.31770   0.34170
     Eigenvalues ---    0.34251   0.34445   0.35078   0.35130   0.35161
     Eigenvalues ---    0.35315   0.42045   0.42197   0.43703   0.45750
     Eigenvalues ---    0.46135   0.46643   0.47031   0.58518   0.77647
     Eigenvalues ---    0.80574
 RFO step:  Lambda=-5.14548192D-03 EMin= 3.89870829D-03
 Linear search not attempted -- first point.
 Iteration  1 RMS(Cart)=  0.02797403 RMS(Int)=  0.00114086
 Iteration  2 RMS(Cart)=  0.00095629 RMS(Int)=  0.00063509
 Iteration  3 RMS(Cart)=  0.00000036 RMS(Int)=  0.00063509
 Variable       Old X    -DE/DX   Delta X   Delta X   Delta X     New X
                                 (Linear)    (Quad)   (Total)
    R1        2.62851  -0.00205   0.00000  -0.00443  -0.00443   2.62408
    R2        2.63921  -0.00131   0.00000  -0.00291  -0.00290   2.63630
    R3        3.39871   0.00649   0.00000   0.02427   0.02427   3.42298
    R4        2.05166   0.00003   0.00000   0.00008   0.00008   2.05174
    R5        2.63857   0.00137   0.00000   0.00293   0.00292   2.64149
    R6        2.05464   0.00127   0.00000   0.00356   0.00356   2.05821
    R7        2.64041  -0.00143   0.00000  -0.00296  -0.00297   2.63744
    R8        2.84567   0.00314   0.00000   0.00973   0.00973   2.85539
    R9        2.65042  -0.00159   0.00000  -0.00336  -0.00337   2.64706
   R10        2.06909   0.00078   0.00000   0.00224   0.00224   2.07133
   R11        2.06585   0.00070   0.00000   0.00199   0.00199   2.06784
   R12        2.07044   0.00079   0.00000   0.00227   0.00227   2.07272
   R13        2.05548   0.00140   0.00000   0.00394   0.00394   2.05942
   R14        2.62798   0.00117   0.00000   0.00246   0.00246   2.63044
   R15        2.05414  -0.00023   0.00000  -0.00065  -0.00065   2.05349
   R16        2.82910  -0.00963   0.00000  -0.01232  -0.01232   2.81678
   R17        2.81307  -0.01128   0.00000  -0.01391  -0.01391   2.79916
   R18        2.95833   0.00098   0.00000   0.00167   0.00167   2.95999
   R19        1.93512  -0.00051   0.00000  -0.00116  -0.00116   1.93396
    A1        2.10170  -0.00307   0.00000  -0.01252  -0.01255   2.08914
    A2        2.10105  -0.00011   0.00000   0.00026   0.00020   2.10125
    A3        2.07861   0.00320   0.00000   0.01328   0.01323   2.09184
    A4        2.09728  -0.00448   0.00000  -0.02531  -0.02531   2.07197
    A5        2.08512   0.00180   0.00000   0.00727   0.00728   2.09239
    A6        2.10078   0.00268   0.00000   0.01804   0.01804   2.11881
    A7        2.08457   0.00029   0.00000   0.00220   0.00221   2.08678
    A8        2.11399   0.00044   0.00000   0.00172   0.00171   2.11570
    A9        2.08462  -0.00073   0.00000  -0.00393  -0.00392   2.08070
   A10        2.11667   0.00072   0.00000   0.00278   0.00278   2.11944
   A11        2.06637  -0.00137   0.00000  -0.00532  -0.00533   2.06104
   A12        2.10013   0.00065   0.00000   0.00249   0.00249   2.10261
   A13        1.93620   0.00102   0.00000   0.00658   0.00655   1.94274
   A14        1.93970   0.00021   0.00000  -0.00030  -0.00029   1.93941
   A15        1.93312   0.00131   0.00000   0.00908   0.00905   1.94217
   A16        1.89249  -0.00105   0.00000  -0.00846  -0.00846   1.88403
   A17        1.87261  -0.00065   0.00000  -0.00091  -0.00097   1.87164
   A18        1.88753  -0.00096   0.00000  -0.00667  -0.00667   1.88086
   A19        2.08358  -0.00050   0.00000  -0.00296  -0.00297   2.08061
   A20        2.11310  -0.00002   0.00000  -0.00026  -0.00026   2.11284
   A21        2.08650   0.00052   0.00000   0.00322   0.00321   2.08970
   A22        2.08607   0.00222   0.00000   0.00918   0.00916   2.09523
   A23        2.10003  -0.00367   0.00000  -0.02014  -0.02019   2.07984
   A24        2.09708   0.00145   0.00000   0.01090   0.01085   2.10793
   A25        1.80960  -0.00809   0.00000  -0.05006  -0.05046   1.75914
   A26        1.83753  -0.00926   0.00000  -0.05035  -0.05033   1.78720
   A27        1.92169  -0.00745   0.00000  -0.04798  -0.04845   1.87324
   A28        1.98337   0.00829   0.00000   0.06463   0.06165   2.04502
   A29        2.00071   0.00580   0.00000   0.02550   0.02234   2.02305
   A30        1.90149   0.00771   0.00000   0.04124   0.03855   1.94004
   A31        1.87973  -0.00245   0.00000  -0.01484  -0.01484   1.86489
    D1        3.13998   0.00034   0.00000   0.01351   0.01342  -3.12978
    D2       -0.00700   0.00033   0.00000   0.01302   0.01298   0.00599
    D3        0.06377  -0.00015   0.00000  -0.00513  -0.00504   0.05873
    D4       -3.08321  -0.00016   0.00000  -0.00562  -0.00548  -3.08868
    D5        0.00623  -0.00028   0.00000  -0.01155  -0.01152  -0.00529
    D6       -3.14037  -0.00068   0.00000  -0.02703  -0.02686   3.11595
    D7        3.08328   0.00009   0.00000   0.00638   0.00636   3.08964
    D8       -0.06333  -0.00031   0.00000  -0.00910  -0.00898  -0.07231
    D9       -2.42556  -0.00134   0.00000  -0.04203  -0.04150  -2.46705
   D10       -0.33770   0.00029   0.00000  -0.01395  -0.01419  -0.35189
   D11        1.70936   0.00053   0.00000  -0.01715  -0.01731   1.69206
   D12        0.78056  -0.00159   0.00000  -0.05947  -0.05903   0.72153
   D13        2.86842   0.00004   0.00000  -0.03139  -0.03172   2.83670
   D14       -1.36771   0.00027   0.00000  -0.03459  -0.03484  -1.40254
   D15       -3.13635  -0.00008   0.00000  -0.00327  -0.00331  -3.13966
   D16        0.00361  -0.00017   0.00000  -0.00636  -0.00640  -0.00279
   D17       -0.00015  -0.00012   0.00000  -0.00390  -0.00390  -0.00405
   D18        3.13980  -0.00021   0.00000  -0.00699  -0.00699   3.13282
   D19       -3.13380   0.00012   0.00000   0.00521   0.00520  -3.12860
   D20        0.00052  -0.00001   0.00000  -0.00161  -0.00163  -0.00112
   D21        0.00615   0.00003   0.00000   0.00213   0.00212   0.00828
   D22        3.14047  -0.00010   0.00000  -0.00469  -0.00471   3.13576
   D23       -2.21619   0.00033   0.00000   0.00178   0.00179  -2.21440
   D24       -0.10922  -0.00017   0.00000  -0.00468  -0.00470  -0.11393
   D25        1.98941  -0.00037   0.00000  -0.00721  -0.00726   1.98215
   D26        0.93282   0.00047   0.00000   0.00877   0.00881   0.94163
   D27        3.03978  -0.00003   0.00000   0.00230   0.00232   3.04210
   D28       -1.14477  -0.00023   0.00000  -0.00023  -0.00023  -1.14501
   D29       -3.14090   0.00020   0.00000   0.00901   0.00906  -3.13184
   D30       -0.00130   0.00006   0.00000   0.00312   0.00313   0.00183
   D31       -0.00651   0.00008   0.00000   0.00226   0.00230  -0.00421
   D32        3.13309  -0.00007   0.00000  -0.00363  -0.00363   3.12946
   D33       -0.00203   0.00008   0.00000   0.00336   0.00339   0.00136
   D34       -3.13863   0.00049   0.00000   0.01891   0.01907  -3.11955
   D35        3.13756  -0.00007   0.00000  -0.00256  -0.00258   3.13498
   D36        0.00097   0.00034   0.00000   0.01299   0.01310   0.01407
   D37        1.24065   0.00093   0.00000   0.02857   0.02875   1.26940
   D38       -0.79125   0.01269   0.00000   0.10926   0.11123  -0.68002
   D39       -3.03562  -0.00992   0.00000  -0.03487  -0.03703  -3.07265
         Item               Value     Threshold  Converged?
 Maximum Force            0.012685     0.000450     NO 
 RMS     Force            0.003375     0.000300     NO 
 Maximum Displacement     0.093574     0.001800     NO 
 RMS     Displacement     0.027990     0.001200     NO 
 Predicted change in Energy=-2.741424D-03
 GradGradGradGradGradGradGradGradGradGradGradGradGradGradGradGradGradGrad

                          Input orientation:                          
 ---------------------------------------------------------------------
 Center     Atomic      Atomic             Coordinates (Angstroms)
 Number     Number       Type             X           Y           Z
 ---------------------------------------------------------------------
      1          6           0       -1.370376    0.676915   -0.812590
      2          6           0       -2.545018    0.817150   -1.539758
      3          1           0       -3.491577    0.811386   -1.007962
      4          6           0       -2.490699    0.968879   -2.928255
      5          1           0       -3.415174    1.080282   -3.493231
      6          6           0       -1.271281    0.986147   -3.606951
      7          6           0       -1.206076    1.166485   -5.105742
      8          6           0       -0.096691    0.848086   -2.856344
      9          1           0        0.866031    0.868253   -3.366654
     10          6           0       -0.141925    0.695695   -1.473482
     11          1           0        0.772886    0.609397   -0.893391
     12         16           0       -1.427733    0.397565    0.976184
     13          8           0       -0.273766    1.227270    1.425361
     14          8           0       -2.783880    0.877166    1.329673
     15          7           0       -1.294411   -1.145199    1.211964
     16          1           0       -0.321551   -1.392745    1.012910
     17          1           0       -0.621382    0.368600   -5.577912
     18          1           0       -2.207015    1.157809   -5.547830
     19          1           0       -0.730953    2.118599   -5.371790
 ---------------------------------------------------------------------
                    Distance matrix (angstroms):
                    1          2          3          4          5
     1  C    0.000000
     2  C    1.388605   0.000000
     3  H    2.134420   1.085732   0.000000
     4  C    2.411722   1.397818   2.171195   0.000000
     5  H    3.395548   2.154638   2.500941   1.089157   0.000000
     6  C    2.813165   2.433979   3.422719   1.395675   2.148970
     7  C    4.324099   3.825055   4.705467   2.535894   2.736373
     8  C    2.414230   2.780047   3.865633   2.398132   3.387015
     9  H    3.400201   3.869808   4.955342   3.386732   4.288320
    10  C    1.395071   2.407073   3.383824   2.776280   3.865417
    11  H    2.145846   3.386656   4.270781   3.862755   4.951842
    12  S    1.811364   2.784662   2.892669   4.086678   4.938795
    13  O    2.552228   3.757488   4.055654   4.892395   5.838030
    14  O    2.574371   2.879982   2.443297   4.268995   4.868285
    15  N    2.724828   3.603721   3.685625   4.800192   5.620433
    16  H    2.952283   4.042717   4.357888   5.080871   5.999306
    17  H    4.833668   4.495360   5.414658   3.297782   3.557760
    18  H    4.832569   4.036698   4.730805   2.641656   2.384750
    19  H    4.824275   4.434983   5.326617   3.223264   3.436878
                    6          7          8          9         10
     6  C    0.000000
     7  C    1.511009   0.000000
     8  C    1.400762   2.528222   0.000000
     9  H    2.154006   2.721580   1.089796   0.000000
    10  C    2.431357   3.814102   1.391968   2.151708   0.000000
    11  H    3.418181   4.687274   2.160167   2.488516   1.086661
    12  S    4.623422   6.134346   4.082023   4.933877   2.782633
    13  O    5.135887   6.597591   4.302108   4.938769   2.950127
    14  O    5.164310   6.632326   4.974392   5.947892   3.856234
    15  N    5.269262   6.727934   4.686028   5.448417   3.453801
    16  H    5.282446   6.691035   4.476943   5.069817   3.252076
    17  H    2.165276   1.096099   2.812852   2.711404   4.145264
    18  H    2.161499   1.094255   3.434165   3.779548   4.591128
    19  H    2.165424   1.096834   2.888592   2.852068   4.191469
                   11         12         13         14         15
    11  H    0.000000
    12  S    2.895325   0.000000
    13  O    2.617988   1.490574   0.000000
    14  O    4.202892   1.481252   2.536218   0.000000
    15  N    3.432907   1.566361   2.591498   2.514425   0.000000
    16  H    2.973273   2.104804   2.652712   3.363912   1.023406
    17  H    4.893536   6.603576   7.064275   7.256016   6.989061
    18  H    5.553770   6.614228   7.236551   6.907357   7.199410
    19  H    4.959363   6.613943   6.870572   7.117955   7.369918
                   16         17         18         19
    16  H    0.000000
    17  H    6.828702   0.000000
    18  H    7.287223   1.771437   0.000000
    19  H    7.298051   1.765500   1.769991   0.000000
 Stoichiometry    C7H8NO2S(1-)
 Framework group  C1[X(C7H8NO2S)]
 Deg. of freedom    51
 Full point group                 C1      NOp   1
 Largest Abelian subgroup         C1      NOp   1
 Largest concise Abelian subgroup C1      NOp   1
                         Standard orientation:                         
 ---------------------------------------------------------------------
 Center     Atomic      Atomic             Coordinates (Angstroms)
 Number     Number       Type             X           Y           Z
 ---------------------------------------------------------------------
      1          6           0        0.171751    0.017033   -0.050665
      2          6           0       -0.529687    1.214923   -0.015040
      3          1           0        0.028047    2.146423   -0.022430
      4          6           0       -1.926958    1.202999    0.022212
      5          1           0       -2.471896    2.145670    0.048222
      6          6           0       -2.640465    0.003493    0.021124
      7          6           0       -4.151182   -0.014820    0.044555
      8          6           0       -1.916110   -1.194739   -0.019865
      9          1           0       -2.455037   -2.141891   -0.030687
     10          6           0       -0.524620   -1.191792   -0.056266
     11          1           0        0.032192   -2.123487   -0.108555
     12         16           0        1.982791    0.014176   -0.016542
     13          8           0        2.278166   -1.091574   -0.971466
     14          8           0        2.311308    1.390924   -0.453289
     15          7           0        2.421072   -0.227793    1.467658
     16          1           0        2.226323   -1.210215    1.678084
     17          1           0       -4.529364   -0.640680    0.861078
     18          1           0       -4.555705    0.993224    0.177228
     19          1           0       -4.558894   -0.418702   -0.890162
 ---------------------------------------------------------------------
 Rotational constants (GHZ):           2.5975628           0.5655341           0.5145814
 Basis read from rwf:  (6D, 7F)
 There are   229 symmetry adapted cartesian basis functions of A   symmetry.
 There are   229 symmetry adapted basis functions of A   symmetry.
   229 basis functions,   408 primitive gaussians,   229 cartesian basis functions
    45 alpha electrons       45 beta electrons
       nuclear repulsion energy       707.8519501127 Hartrees.
 NAtoms=   19 NActive=   19 NUniq=   19 SFac= 1.00D+00 NAtFMM=   60 NAOKFM=F Big=F
 Integral buffers will be    131072 words long.
 Raffenetti 2 integral format.
 Two-electron integral symmetry is turned on.
 One-electron integrals computed using PRISM.
 NBasis=   229 RedAO= T EigKep=  2.13D-06  NBF=   229
 NBsUse=   229 1.00D-06 EigRej= -1.00D+00 NBFU=   229
 Initial guess from the checkpoint file:  "/jobfs/40763740.gadi-pbs/Gau-123937.chk"
 B after Tr=     0.000000   -0.000000    0.000000
         Rot=    0.999968    0.007984   -0.000394    0.000119 Ang=   0.92 deg.
 ExpMin= 4.05D-02 ExpMax= 2.19D+04 ExpMxC= 3.30D+03 IAcc=3 IRadAn=         5 AccDes= 0.00D+00
 Harris functional with IExCor= 1009 and IRadAn=       5 diagonalized for initial guess.
 HarFok:  IExCor= 1009 AccDes= 0.00D+00 IRadAn=         5 IDoV= 1 UseB2=F ITyADJ=14
 ICtDFT=  3500011 ScaDFX=  1.000000  1.000000  1.000000  1.000000
 FoFCou: FMM=F IPFlag=           0 FMFlag=      100000 FMFlg1=           0
         NFxFlg=           0 DoJE=T BraDBF=F KetDBF=T FulRan=T
         wScrn=  0.000000 ICntrl=       500 IOpCl=  0 I1Cent=   200000004 NGrid=           0
         NMat0=    1 NMatS0=      1 NMatT0=    0 NMatD0=    1 NMtDS0=    0 NMtDT0=    0
 Petite list used in FoFCou.
 Requested convergence on RMS density matrix=1.00D-08 within 128 cycles.
 Requested convergence on MAX density matrix=1.00D-06.
 Requested convergence on             energy=1.00D-06.
 No special actions if energy rises.
 SCF Done:  E(RM062X) =  -874.710498499     A.U. after   16 cycles
            NFock= 16  Conv=0.19D-08     -V/T= 2.0063
 Calling FoFJK, ICntrl=      2127 FMM=F ISym2X=0 I1Cent= 0 IOpClX= 0 NMat=1 NMatS=1 NMatT=0.
 ***** Axes restored to original set *****
 -------------------------------------------------------------------
 Center     Atomic                   Forces (Hartrees/Bohr)
 Number     Number              X              Y              Z
 -------------------------------------------------------------------
      1        6           0.000207096    0.000059976   -0.002521988
      2        6          -0.000204220   -0.000185761   -0.003505057
      3        1           0.000026551    0.000096922    0.000469610
      4        6          -0.000526569    0.000062992    0.000509736
      5        1          -0.000143257    0.000029084   -0.000151471
      6        6           0.000021067   -0.000032379   -0.000096794
      7        6           0.000423106    0.000067629    0.000825984
      8        6           0.000406799   -0.000005630    0.000368403
      9        1           0.000108989   -0.000031362   -0.000045178
     10        6          -0.000260252    0.000182312   -0.002757954
     11        1           0.000044039    0.000260549    0.000561277
     12       16          -0.000119681    0.005099440   -0.003949126
     13        8          -0.004023620   -0.003755974    0.003209226
     14        8           0.006415658   -0.003254496    0.003967629
     15        7          -0.002151913    0.000005191    0.001186650
     16        1           0.000261392    0.001522333    0.002225637
     17        1          -0.000114273   -0.000112993   -0.000109494
     18        1          -0.000250354   -0.000036628   -0.000139146
     19        1          -0.000120557    0.000028796   -0.000047944
 -------------------------------------------------------------------
 Cartesian Forces:  Max     0.006415658 RMS     0.001835762

 GradGradGradGradGradGradGradGradGradGradGradGradGradGradGradGradGradGrad
 Berny optimization.
 Using GEDIIS/GDIIS optimizer.
 FormGI is forming the generalized inverse of G from B-inverse, IUseBI=4.
 Internal  Forces:  Max     0.007850265 RMS     0.001915357
 Search for a local minimum.
 Step number   2 out of a maximum of   99
 All quantities printed in internal units (Hartrees-Bohrs-Radians)
 Mixed Optimization -- RFO/linear search
 Update second derivatives using D2CorX and points    1    2
 DE= -1.85D-03 DEPred=-2.74D-03 R= 6.74D-01
 TightC=F SS=  1.41D+00  RLast= 2.04D-01 DXNew= 5.0454D-01 6.1286D-01
 Trust test= 6.74D-01 RLast= 2.04D-01 DXMaxT set to 5.05D-01
 ITU=  1  0
 Use linear search instead of GDIIS.
     Eigenvalues ---    0.00388   0.00688   0.01434   0.01549   0.02095
     Eigenvalues ---    0.02131   0.02133   0.02155   0.02162   0.02172
     Eigenvalues ---    0.02186   0.02918   0.07131   0.07148   0.11314
     Eigenvalues ---    0.12419   0.15378   0.15997   0.16000   0.16000
     Eigenvalues ---    0.16000   0.16000   0.16000   0.16001   0.21141
     Eigenvalues ---    0.21997   0.22222   0.23506   0.24248   0.24919
     Eigenvalues ---    0.24999   0.25001   0.29483   0.32053   0.34172
     Eigenvalues ---    0.34249   0.34440   0.35068   0.35120   0.35173
     Eigenvalues ---    0.35318   0.42005   0.42275   0.43701   0.45773
     Eigenvalues ---    0.46177   0.46892   0.47067   0.58591   0.75404
     Eigenvalues ---    0.79443
 RFO step:  Lambda=-8.77647469D-04 EMin= 3.87571439D-03
 Quartic linear search produced a step of -0.22003.
 Iteration  1 RMS(Cart)=  0.03177599 RMS(Int)=  0.00048556
 Iteration  2 RMS(Cart)=  0.00054360 RMS(Int)=  0.00008457
 Iteration  3 RMS(Cart)=  0.00000006 RMS(Int)=  0.00008457
 Variable       Old X    -DE/DX   Delta X   Delta X   Delta X     New X
                                 (Linear)    (Quad)   (Total)
    R1        2.62408   0.00182   0.00097   0.00134   0.00231   2.62640
    R2        2.63630   0.00095   0.00064   0.00054   0.00118   2.63748
    R3        3.42298   0.00660  -0.00534   0.02888   0.02354   3.44652
    R4        2.05174   0.00021  -0.00002   0.00048   0.00046   2.05220
    R5        2.64149  -0.00071  -0.00064  -0.00004  -0.00069   2.64081
    R6        2.05821   0.00020  -0.00078   0.00183   0.00105   2.05925
    R7        2.63744  -0.00004   0.00065  -0.00129  -0.00063   2.63681
    R8        2.85539  -0.00053  -0.00214   0.00248   0.00034   2.85573
    R9        2.64706   0.00009   0.00074  -0.00121  -0.00048   2.64658
   R10        2.07133   0.00007  -0.00049   0.00103   0.00053   2.07186
   R11        2.06784   0.00029  -0.00044   0.00141   0.00097   2.06882
   R12        2.07272  -0.00002  -0.00050   0.00085   0.00035   2.07306
   R13        2.05942   0.00012  -0.00087   0.00179   0.00092   2.06034
   R14        2.63044  -0.00041  -0.00054   0.00027  -0.00027   2.63017
   R15        2.05349   0.00032   0.00014   0.00044   0.00058   2.05408
   R16        2.81678  -0.00424   0.00271  -0.00898  -0.00627   2.81051
   R17        2.79916  -0.00598   0.00306  -0.01112  -0.00805   2.79111
   R18        2.95999  -0.00115  -0.00037  -0.00088  -0.00124   2.95875
   R19        1.93396  -0.00056   0.00026  -0.00143  -0.00118   1.93278
    A1        2.08914  -0.00161   0.00276  -0.00975  -0.00697   2.08217
    A2        2.10125   0.00078  -0.00004   0.00235   0.00232   2.10357
    A3        2.09184   0.00083  -0.00291   0.00759   0.00468   2.09652
    A4        2.07197  -0.00086   0.00557  -0.01353  -0.00796   2.06400
    A5        2.09239   0.00089  -0.00160   0.00602   0.00442   2.09681
    A6        2.11881  -0.00003  -0.00397   0.00750   0.00353   2.12234
    A7        2.08678   0.00018  -0.00049   0.00169   0.00120   2.08798
    A8        2.11570  -0.00025  -0.00038  -0.00042  -0.00080   2.11490
    A9        2.08070   0.00007   0.00086  -0.00127  -0.00040   2.08029
   A10        2.11944  -0.00034  -0.00061   0.00019  -0.00042   2.11903
   A11        2.06104   0.00030   0.00117  -0.00148  -0.00031   2.06073
   A12        2.10261   0.00004  -0.00055   0.00124   0.00069   2.10331
   A13        1.94274   0.00010  -0.00144   0.00317   0.00173   1.94447
   A14        1.93941  -0.00005   0.00006  -0.00076  -0.00070   1.93871
   A15        1.94217   0.00010  -0.00199   0.00427   0.00228   1.94445
   A16        1.88403  -0.00012   0.00186  -0.00437  -0.00251   1.88152
   A17        1.87164   0.00003   0.00021   0.00048   0.00070   1.87234
   A18        1.88086  -0.00007   0.00147  -0.00318  -0.00171   1.87915
   A19        2.08061   0.00008   0.00065  -0.00075  -0.00010   2.08051
   A20        2.11284  -0.00013   0.00006  -0.00079  -0.00074   2.11211
   A21        2.08970   0.00005  -0.00071   0.00153   0.00082   2.09052
   A22        2.09523   0.00080  -0.00202   0.00639   0.00438   2.09961
   A23        2.07984  -0.00084   0.00444  -0.01151  -0.00707   2.07278
   A24        2.10793   0.00004  -0.00239   0.00492   0.00253   2.11046
   A25        1.75914   0.00568   0.01110   0.00777   0.01896   1.77809
   A26        1.78720   0.00543   0.01107   0.00448   0.01557   1.80277
   A27        1.87324   0.00338   0.01066  -0.00141   0.00940   1.88263
   A28        2.04502  -0.00230  -0.01357   0.00758  -0.00573   2.03929
   A29        2.02305  -0.00389  -0.00492  -0.00786  -0.01232   2.01073
   A30        1.94004  -0.00464  -0.00848  -0.00758  -0.01567   1.92437
   A31        1.86489  -0.00198   0.00326  -0.01536  -0.01209   1.85280
    D1       -3.12978   0.00006  -0.00295   0.00759   0.00465  -3.12514
    D2        0.00599  -0.00000  -0.00286   0.00486   0.00201   0.00800
    D3        0.05873   0.00011   0.00111   0.00267   0.00376   0.06249
    D4       -3.08868   0.00004   0.00120  -0.00006   0.00112  -3.08756
    D5       -0.00529  -0.00002   0.00254  -0.00500  -0.00247  -0.00776
    D6        3.11595  -0.00013   0.00591  -0.01576  -0.00987   3.10608
    D7        3.08964  -0.00007  -0.00140  -0.00025  -0.00165   3.08799
    D8       -0.07231  -0.00018   0.00198  -0.01101  -0.00904  -0.08135
    D9       -2.46705  -0.00088   0.00913  -0.06238  -0.05340  -2.52045
   D10       -0.35189   0.00067   0.00312  -0.04968  -0.04645  -0.39834
   D11        1.69206  -0.00065   0.00381  -0.05670  -0.05288   1.63918
   D12        0.72153  -0.00076   0.01299  -0.06685  -0.05398   0.66755
   D13        2.83670   0.00079   0.00698  -0.05414  -0.04704   2.78966
   D14       -1.40254  -0.00054   0.00767  -0.06116  -0.05347  -1.45601
   D15       -3.13966   0.00002   0.00073  -0.00047   0.00026  -3.13939
   D16       -0.00279   0.00003   0.00141  -0.00116   0.00025  -0.00254
   D17       -0.00405  -0.00005   0.00086  -0.00335  -0.00250  -0.00654
   D18        3.13282  -0.00004   0.00154  -0.00404  -0.00251   3.13031
   D19       -3.12860  -0.00003  -0.00114   0.00149   0.00035  -3.12825
   D20       -0.00112  -0.00005   0.00036  -0.00242  -0.00206  -0.00317
   D21        0.00828  -0.00001  -0.00047   0.00081   0.00034   0.00862
   D22        3.13576  -0.00003   0.00104  -0.00310  -0.00206   3.13370
   D23       -2.21440   0.00009  -0.00039   0.00171   0.00132  -2.21308
   D24       -0.11393  -0.00003   0.00103  -0.00221  -0.00117  -0.11510
   D25        1.98215  -0.00008   0.00160  -0.00388  -0.00227   1.97987
   D26        0.94163   0.00011  -0.00194   0.00574   0.00379   0.94542
   D27        3.04210  -0.00001  -0.00051   0.00182   0.00130   3.04341
   D28       -1.14501  -0.00006   0.00005   0.00015   0.00020  -1.14481
   D29       -3.13184   0.00004  -0.00199   0.00519   0.00320  -3.12864
   D30        0.00183   0.00003  -0.00069   0.00228   0.00159   0.00342
   D31       -0.00421   0.00002  -0.00051   0.00131   0.00080  -0.00341
   D32        3.12946   0.00000   0.00080  -0.00160  -0.00080   3.12865
   D33        0.00136   0.00001  -0.00075   0.00143   0.00068   0.00203
   D34       -3.11955   0.00013  -0.00420   0.01256   0.00834  -3.11121
   D35        3.13498  -0.00000   0.00057  -0.00151  -0.00094   3.13404
   D36        0.01407   0.00012  -0.00288   0.00962   0.00673   0.02080
   D37        1.26940   0.00190  -0.00633   0.05268   0.04631   1.31571
   D38       -0.68002  -0.00522  -0.02447   0.04819   0.02350  -0.65652
   D39       -3.07265   0.00785   0.00815   0.05352   0.06193  -3.01072
         Item               Value     Threshold  Converged?
 Maximum Force            0.007850     0.000450     NO 
 RMS     Force            0.001915     0.000300     NO 
 Maximum Displacement     0.109893     0.001800     NO 
 RMS     Displacement     0.031831     0.001200     NO 
 Predicted change in Energy=-6.105389D-04
 GradGradGradGradGradGradGradGradGradGradGradGradGradGradGradGradGradGrad

                          Input orientation:                          
 ---------------------------------------------------------------------
 Center     Atomic      Atomic             Coordinates (Angstroms)
 Number     Number       Type             X           Y           Z
 ---------------------------------------------------------------------
      1          6           0       -1.363790    0.678825   -0.818470
      2          6           0       -2.538813    0.805049   -1.549916
      3          1           0       -3.482715    0.790349   -1.013091
      4          6           0       -2.488255    0.956493   -2.938221
      5          1           0       -3.414555    1.056828   -3.503349
      6          6           0       -1.269833    0.987526   -3.617528
      7          6           0       -1.208266    1.168126   -5.116624
      8          6           0       -0.093606    0.866182   -2.867067
      9          1           0        0.869115    0.900293   -3.377675
     10          6           0       -0.137628    0.714809   -1.484199
     11          1           0        0.776731    0.648923   -0.900151
     12         16           0       -1.419504    0.396558    0.982514
     13          8           0       -0.237805    1.169117    1.450134
     14          8           0       -2.748755    0.913576    1.366292
     15          7           0       -1.346619   -1.147874    1.229174
     16          1           0       -0.373186   -1.416423    1.066705
     17          1           0       -0.616167    0.376712   -5.591105
     18          1           0       -2.210187    1.146454   -5.557316
     19          1           0       -0.746754    2.126218   -5.385910
 ---------------------------------------------------------------------
                    Distance matrix (angstroms):
                    1          2          3          4          5
     1  C    0.000000
     2  C    1.389830   0.000000
     3  H    2.130765   1.085978   0.000000
     4  C    2.415546   1.397455   2.173173   0.000000
     5  H    3.399573   2.155508   2.505403   1.089710   0.000000
     6  C    2.817597   2.432823   3.423276   1.395339   2.148876
     7  C    4.328710   3.824079   4.706890   2.535468   2.735462
     8  C    2.417689   2.778068   3.863811   2.397407   3.386724
     9  H    3.403593   3.868301   4.953965   3.386475   4.288371
    10  C    1.395694   2.403779   3.378943   2.774534   3.864220
    11  H    2.142287   3.382219   4.263289   3.861147   4.950747
    12  S    1.823821   2.798736   2.897300   4.102185   4.953701
    13  O    2.579689   3.798353   4.091501   4.936334   5.885690
    14  O    2.597387   2.925769   2.493059   4.312602   4.917033
    15  N    2.744079   3.599803   3.653405   4.806129   5.615501
    16  H    2.987515   4.058520   4.343336   5.113089   6.020988
    17  H    4.840274   4.495692   5.417232   3.298280   3.557001
    18  H    4.836499   4.035319   4.732454   2.640656   2.382712
    19  H    4.830857   4.435291   5.328374   3.223703   3.435810
                    6          7          8          9         10
     6  C    0.000000
     7  C    1.511189   0.000000
     8  C    1.400510   2.528665   0.000000
     9  H    2.154122   2.722351   1.090283   0.000000
    10  C    2.430506   3.813958   1.391825   2.152484   0.000000
    11  H    3.418657   4.689182   2.161815   2.491956   1.086970
    12  S    4.640263   6.151376   4.098515   4.950028   2.798064
    13  O    5.174869   6.638080   4.330218   4.960371   2.970983
    14  O    5.199148   6.668290   4.997338   5.966103   3.870761
    15  N    5.296825   6.756638   4.733461   5.507043   3.506229
    16  H    5.340880   6.753578   4.556645   5.163623   3.332379
    17  H    2.166882   1.096380   2.816564   2.716519   4.148492
    18  H    2.161550   1.094771   3.434517   3.780679   4.590436
    19  H    2.167349   1.097018   2.891170   2.854283   4.193621
                   11         12         13         14         15
    11  H    0.000000
    12  S    2.903716   0.000000
    13  O    2.612227   1.487255   0.000000
    14  O    4.199506   1.476990   2.525311   0.000000
    15  N    3.503016   1.565703   2.578127   2.496871   0.000000
    16  H    3.075140   2.094939   2.617320   3.340954   1.022783
    17  H    4.900950   6.622553   7.095781   7.296679   7.026672
    18  H    5.555033   6.630000   7.279777   6.948427   7.215687
    19  H    4.962402   6.633335   6.921457   7.146379   7.405326
                   16         17         18         19
    16  H    0.000000
    17  H    6.899334   0.000000
    18  H    7.336250   1.770464   0.000000
    19  H    7.370624   1.766332   1.769450   0.000000
 Stoichiometry    C7H8NO2S(1-)
 Framework group  C1[X(C7H8NO2S)]
 Deg. of freedom    51
 Full point group                 C1      NOp   1
 Largest Abelian subgroup         C1      NOp   1
 Largest concise Abelian subgroup C1      NOp   1
                         Standard orientation:                         
 ---------------------------------------------------------------------
 Center     Atomic      Atomic             Coordinates (Angstroms)
 Number     Number       Type             X           Y           Z
 ---------------------------------------------------------------------
      1          6           0        0.162257    0.015031   -0.052799
      2          6           0       -0.543343    1.211972   -0.019837
      3          1           0        0.019053    2.140887   -0.033152
      4          6           0       -1.940229    1.202166    0.018817
      5          1           0       -2.485206    2.145517    0.042401
      6          6           0       -2.654318    0.003401    0.022198
      7          6           0       -4.165216   -0.013255    0.046710
      8          6           0       -1.930590   -1.194935   -0.018265
      9          1           0       -2.470242   -2.142239   -0.028677
     10          6           0       -0.539296   -1.191523   -0.056561
     11          1           0        0.020090   -2.121592   -0.116245
     12         16           0        1.985755    0.013397   -0.018538
     13          8           0        2.307528   -1.136865   -0.904703
     14          8           0        2.335968    1.358510   -0.518060
     15          7           0        2.438066   -0.146161    1.471892
     16          1           0        2.284031   -1.128234    1.712497
     17          1           0       -4.545375   -0.634685    0.866073
     18          1           0       -4.568054    0.996260    0.177564
     19          1           0       -4.576413   -0.417422   -0.886572
 ---------------------------------------------------------------------
 Rotational constants (GHZ):           2.6146655           0.5595636           0.5095764
 Basis read from rwf:  (6D, 7F)
 There are   229 symmetry adapted cartesian basis functions of A   symmetry.
 There are   229 symmetry adapted basis functions of A   symmetry.
   229 basis functions,   408 primitive gaussians,   229 cartesian basis functions
    45 alpha electrons       45 beta electrons
       nuclear repulsion energy       706.5539318045 Hartrees.
 NAtoms=   19 NActive=   19 NUniq=   19 SFac= 1.00D+00 NAtFMM=   60 NAOKFM=F Big=F
 Integral buffers will be    131072 words long.
 Raffenetti 2 integral format.
 Two-electron integral symmetry is turned on.
 One-electron integrals computed using PRISM.
 NBasis=   229 RedAO= T EigKep=  2.21D-06  NBF=   229
 NBsUse=   229 1.00D-06 EigRej= -1.00D+00 NBFU=   229
 Initial guess from the checkpoint file:  "/jobfs/40763740.gadi-pbs/Gau-123937.chk"
 B after Tr=     0.000000   -0.000000   -0.000000
         Rot=    0.999913    0.013225    0.000081   -0.000093 Ang=   1.52 deg.
 ExpMin= 4.05D-02 ExpMax= 2.19D+04 ExpMxC= 3.30D+03 IAcc=3 IRadAn=         5 AccDes= 0.00D+00
 Harris functional with IExCor= 1009 and IRadAn=       5 diagonalized for initial guess.
 HarFok:  IExCor= 1009 AccDes= 0.00D+00 IRadAn=         5 IDoV= 1 UseB2=F ITyADJ=14
 ICtDFT=  3500011 ScaDFX=  1.000000  1.000000  1.000000  1.000000
 FoFCou: FMM=F IPFlag=           0 FMFlag=      100000 FMFlg1=           0
         NFxFlg=           0 DoJE=T BraDBF=F KetDBF=T FulRan=T
         wScrn=  0.000000 ICntrl=       500 IOpCl=  0 I1Cent=   200000004 NGrid=           0
         NMat0=    1 NMatS0=      1 NMatT0=    0 NMatD0=    1 NMtDS0=    0 NMtDT0=    0
 Petite list used in FoFCou.
 Requested convergence on RMS density matrix=1.00D-08 within 128 cycles.
 Requested convergence on MAX density matrix=1.00D-06.
 Requested convergence on             energy=1.00D-06.
 No special actions if energy rises.
 SCF Done:  E(RM062X) =  -874.711182224     A.U. after   16 cycles
            NFock= 16  Conv=0.73D-08     -V/T= 2.0063
 Calling FoFJK, ICntrl=      2127 FMM=F ISym2X=0 I1Cent= 0 IOpClX= 0 NMat=1 NMatS=1 NMatT=0.
 ***** Axes restored to original set *****
 -------------------------------------------------------------------
 Center     Atomic                   Forces (Hartrees/Bohr)
 Number     Number              X              Y              Z
 -------------------------------------------------------------------
      1        6           0.000447710    0.000988441   -0.000576809
      2        6          -0.000471650   -0.000447041   -0.000681905
      3        1          -0.000581296    0.000114747   -0.000171184
      4        6          -0.001167414   -0.000105104    0.000745447
      5        1           0.000141615   -0.000014685    0.000235646
      6        6           0.000608687    0.000061058   -0.000462071
      7        6          -0.000086911   -0.000079318    0.000355975
      8        6           0.000345013    0.000046891   -0.000038638
      9        1          -0.000182915   -0.000054760    0.000253855
     10        6           0.000351941    0.000218990    0.000133826
     11        1           0.000244645   -0.000120683    0.000105087
     12       16          -0.000690234    0.000786809    0.000509561
     13        8          -0.001186967   -0.000745980   -0.000563966
     14        8           0.001880860    0.000398790   -0.000241733
     15        7          -0.000198743   -0.000893437   -0.001608609
     16        1           0.000652412   -0.000076601    0.001601976
     17        1          -0.000039516    0.000053619    0.000163144
     18        1          -0.000033524   -0.000004674    0.000049788
     19        1          -0.000033713   -0.000127060    0.000190609
 -------------------------------------------------------------------
 Cartesian Forces:  Max     0.001880860 RMS     0.000591096

 GradGradGradGradGradGradGradGradGradGradGradGradGradGradGradGradGradGrad
 Berny optimization.
 Using GEDIIS/GDIIS optimizer.
 FormGI is forming the generalized inverse of G from B-inverse, IUseBI=4.
 Internal  Forces:  Max     0.001615142 RMS     0.000466375
 Search for a local minimum.
 Step number   3 out of a maximum of   99
 All quantities printed in internal units (Hartrees-Bohrs-Radians)
 Mixed Optimization -- En-DIIS/RFO-DIIS
 Update second derivatives using D2CorX and points    1    2    3
 DE= -6.84D-04 DEPred=-6.11D-04 R= 1.12D+00
 TightC=F SS=  1.41D+00  RLast= 1.58D-01 DXNew= 8.4853D-01 4.7374D-01
 Trust test= 1.12D+00 RLast= 1.58D-01 DXMaxT set to 5.05D-01
 ITU=  1  1  0
 Use linear search instead of GDIIS.
     Eigenvalues ---    0.00341   0.00688   0.01439   0.01546   0.02058
     Eigenvalues ---    0.02107   0.02132   0.02137   0.02158   0.02167
     Eigenvalues ---    0.02194   0.02291   0.07125   0.07141   0.11126
     Eigenvalues ---    0.12704   0.15860   0.15999   0.16000   0.16000
     Eigenvalues ---    0.16000   0.16000   0.16001   0.16158   0.21065
     Eigenvalues ---    0.21997   0.22470   0.23615   0.24424   0.24845
     Eigenvalues ---    0.24998   0.25033   0.31822   0.33488   0.34186
     Eigenvalues ---    0.34272   0.34446   0.35095   0.35140   0.35198
     Eigenvalues ---    0.35513   0.42007   0.42461   0.43856   0.45905
     Eigenvalues ---    0.46162   0.46789   0.47031   0.59097   0.73083
     Eigenvalues ---    0.79262
 RFO step:  Lambda=-2.71768690D-04 EMin= 3.41228903D-03
 Quartic linear search produced a step of  0.16670.
 Iteration  1 RMS(Cart)=  0.03535181 RMS(Int)=  0.00068084
 Iteration  2 RMS(Cart)=  0.00076509 RMS(Int)=  0.00001243
 Iteration  3 RMS(Cart)=  0.00000039 RMS(Int)=  0.00001243
 Variable       Old X    -DE/DX   Delta X   Delta X   Delta X     New X
                                 (Linear)    (Quad)   (Total)
    R1        2.62640   0.00083   0.00039   0.00206   0.00245   2.62885
    R2        2.63748  -0.00002   0.00020  -0.00012   0.00008   2.63756
    R3        3.44652  -0.00023   0.00392   0.00308   0.00701   3.45353
    R4        2.05220   0.00042   0.00008   0.00150   0.00158   2.05378
    R5        2.64081  -0.00115  -0.00011  -0.00289  -0.00301   2.63780
    R6        2.05925  -0.00024   0.00017  -0.00048  -0.00031   2.05895
    R7        2.63681   0.00069  -0.00011   0.00152   0.00141   2.63822
    R8        2.85573  -0.00078   0.00006  -0.00225  -0.00219   2.85354
    R9        2.64658   0.00030  -0.00008   0.00050   0.00042   2.64700
   R10        2.07186  -0.00013   0.00009  -0.00024  -0.00016   2.07170
   R11        2.06882   0.00001   0.00016   0.00028   0.00044   2.06926
   R12        2.07306  -0.00017   0.00006  -0.00041  -0.00035   2.07271
   R13        2.06034  -0.00028   0.00015  -0.00060  -0.00045   2.05989
   R14        2.63017  -0.00038  -0.00005  -0.00081  -0.00085   2.62931
   R15        2.05408   0.00027   0.00010   0.00095   0.00104   2.05512
   R16        2.81051  -0.00151  -0.00105  -0.00391  -0.00495   2.80556
   R17        2.79111  -0.00162  -0.00134  -0.00428  -0.00562   2.78549
   R18        2.95875   0.00098  -0.00021   0.00203   0.00182   2.96057
   R19        1.93278   0.00038  -0.00020   0.00087   0.00067   1.93345
    A1        2.08217   0.00079  -0.00116   0.00229   0.00112   2.08329
    A2        2.10357  -0.00071   0.00039  -0.00349  -0.00312   2.10044
    A3        2.09652  -0.00009   0.00078   0.00072   0.00147   2.09800
    A4        2.06400   0.00062  -0.00133   0.00165   0.00032   2.06432
    A5        2.09681  -0.00033   0.00074  -0.00064   0.00010   2.09692
    A6        2.12234  -0.00030   0.00059  -0.00102  -0.00043   2.12191
    A7        2.08798   0.00002   0.00020   0.00007   0.00027   2.08824
    A8        2.11490  -0.00030  -0.00013  -0.00149  -0.00163   2.11328
    A9        2.08029   0.00028  -0.00007   0.00143   0.00136   2.08166
   A10        2.11903  -0.00039  -0.00007  -0.00177  -0.00184   2.11718
   A11        2.06073   0.00051  -0.00005   0.00218   0.00212   2.06285
   A12        2.10331  -0.00012   0.00012  -0.00038  -0.00027   2.10304
   A13        1.94447  -0.00013   0.00029  -0.00035  -0.00007   1.94441
   A14        1.93871  -0.00001  -0.00012   0.00002  -0.00010   1.93861
   A15        1.94445  -0.00019   0.00038  -0.00066  -0.00028   1.94417
   A16        1.88152   0.00010  -0.00042   0.00008  -0.00034   1.88118
   A17        1.87234   0.00013   0.00012   0.00066   0.00078   1.87312
   A18        1.87915   0.00012  -0.00029   0.00032   0.00004   1.87919
   A19        2.08051   0.00022  -0.00002   0.00120   0.00118   2.08170
   A20        2.11211  -0.00013  -0.00012  -0.00066  -0.00078   2.11132
   A21        2.09052  -0.00008   0.00014  -0.00051  -0.00038   2.09015
   A22        2.09961  -0.00055   0.00073  -0.00166  -0.00093   2.09868
   A23        2.07278   0.00031  -0.00118  -0.00049  -0.00167   2.07110
   A24        2.11046   0.00024   0.00042   0.00222   0.00263   2.11309
   A25        1.77809   0.00020   0.00316  -0.00093   0.00223   1.78032
   A26        1.80277  -0.00082   0.00260  -0.00650  -0.00391   1.79887
[...]
 8,0.00030843,0.00350204,0.00161716,0.00340285,0.13996352,-0.08503860,0
 .00339754,-0.02919958,0.04734026,0.03158636,-0.34522118,-0.00232401,0.
 00142424,-0.00912064,0.02713090,-0.05980728,0.69841650,0.00181086,-0.0
 0002036,0.00017640,0.00385458,-0.00025627,0.00181306,0.00060513,0.0001
 1334,-0.00037982,-0.26090670,0.01105499,-0.12073450,0.27750298,-0.0003
 8212,0.00727914,0.00126384,0.00328448,0.00312675,0.00168565,-0.0000836
 5,-0.00409745,-0.00047031,0.01121673,-0.03675756,0.00890353,-0.0119162
 2,0.02613867,0.00119478,0.00174109,-0.00632934,-0.02865035,0.00142811,
 -0.01108501,0.00043528,-0.00053570,0.00099684,-0.12214602,0.00880302,-
 0.13126714,0.13209439,-0.01080299,0.13804242,-0.08532434,-0.00073918,-
 0.00268512,0.03913601,-0.00746263,0.08901804,0.00177778,0.00018690,-0.
 00138132,-0.28519467,-0.00770290,0.04645872,-0.02001058,-0.00171700,0.
 01223016,0.68512834,-0.00061369,-0.00581595,-0.00030283,-0.00302195,0.
 00612855,0.00347907,0.00018473,0.00716265,0.00119251,-0.01661466,-0.06
 567913,0.01254794,0.00163114,0.00329747,-0.00045456,0.00764846,0.17217
 530,-0.00413691,-0.00123030,0.00235734,0.02826989,0.00351498,-0.022264
 92,-0.00086674,0.00130184,-0.00477955,0.12764636,0.01308731,-0.1728967
 8,-0.01727491,-0.00087786,0.00860651,-0.00417976,-0.05441043,0.6572880
 4,-0.00085238,0.00012415,0.00080815,-0.00405221,-0.00069924,0.00127104
 ,0.00012969,-0.00012788,0.00114853,0.00272650,-0.00335728,0.02780735,0
 .00047574,0.00018451,0.00151758,-0.08853070,-0.00056464,0.00184521,0.5
 8760894,-0.00024094,-0.00115721,0.00004044,0.00008125,0.00747858,0.000
 76998,0.00001387,0.00018436,-0.00001820,0.00009241,0.00403310,0.002372
 00,0.00005763,-0.00423924,-0.00055306,-0.00106783,-0.07041480,0.017412
 61,-0.00062520,0.54705181,0.00171893,-0.00004605,-0.00087929,0.0010042
 3,0.00054338,0.00104961,-0.00019052,0.00008339,-0.00018378,0.00245493,
 0.00268145,-0.01933673,-0.00197598,-0.00048294,0.00148869,0.00658301,0
 .01831731,-0.22353753,0.00805460,0.00779588,0.50058019,0.03681612,-0.0
 0435756,0.03033333,-0.02066321,0.00301865,-0.03462609,0.00018729,0.000
 06105,-0.00077026,-0.06043344,-0.00370902,0.02689814,-0.00336316,-0.00
 033653,0.00322594,-0.27317170,0.01068443,-0.12907483,0.00497849,0.0001
 9437,-0.00252116,0.71383914,-0.00852872,0.00696534,0.00366615,0.002803
 57,-0.00590473,0.00509508,0.00009189,-0.00074104,0.00002294,0.00240348
 ,0.00866782,-0.00573985,-0.00057498,0.00639978,0.00076402,0.00210173,-
 0.06770972,0.01003647,0.00354505,0.00259663,0.00299118,0.01364975,0.13
 945059,0.08848016,0.00428117,-0.02287393,-0.03042894,0.00413142,-0.059
 63464,-0.00111808,-0.00006094,-0.00062785,-0.03230431,-0.00654653,0.06
 702451,0.00432342,0.00086979,-0.00051758,-0.05067322,0.01186041,-0.178
 60352,-0.02932348,0.00213696,-0.02391641,-0.02556893,-0.06207092,0.699
 70734,0.00181198,-0.00022348,0.00030990,0.00026066,0.00010781,-0.00073
 605,-0.00000896,0.00001029,0.00010880,-0.00283857,0.00029535,-0.004537
 10,-0.00127645,-0.00009025,0.00071795,-0.02009073,-0.00220257,0.016042
 24,0.00115046,0.00009740,0.00138099,-0.27167646,-0.01721955,0.11240125
 ,0.28968540,0.00027490,0.00739746,0.00128584,0.00013403,-0.00085300,-0
 .00017923,-0.00002628,-0.00113231,-0.00012299,0.00005273,0.00662769,0.
 00088732,0.00006556,0.00039636,0.00001930,0.00139699,0.00313182,-0.000
 59192,-0.00015537,-0.00228319,-0.00021138,-0.01738265,-0.03756770,0.01
 109339,0.01888363,0.02658402,-0.00086748,0.00179438,-0.00642564,-0.000
 85855,-0.00001060,-0.00097038,0.00012277,-0.00013289,0.00004903,-0.003
 30017,0.00077489,-0.00109546,-0.00087676,0.00000376,0.00058231,-0.0142
 4408,-0.00109584,0.01032326,-0.00055151,-0.00033323,0.00113019,0.11266
 262,0.01107493,-0.11873121,-0.12281937,-0.01315490,0.12290730,-0.29101
 564,-0.01410172,0.11652533,-0.05503221,0.00126230,-0.02773423,-0.00348
 877,0.00011371,-0.00351372,-0.02354049,-0.00330623,0.03165501,0.000146
 99,-0.00013693,0.00091164,0.04545314,0.00389174,-0.02315991,-0.0053545
 4,-0.00013603,-0.00296836,-0.13017151,0.00275017,-0.03556914,0.0023357
 2,-0.00358221,0.02954757,0.72080104,-0.01081407,-0.06600809,0.01379217
 ,-0.00275290,0.00811242,-0.00570513,0.00043859,0.00690859,0.00079604,-
 0.00334049,-0.00663553,0.00489584,-0.00010663,-0.00081384,0.00002833,0
 .00860776,0.00652564,0.00332736,0.00044726,0.00505824,-0.00004490,-0.0
 0504035,-0.06464357,0.03184381,0.00013724,0.00310509,0.00213501,0.0099
 3782,0.14515476,0.05687393,0.01420169,-0.16791939,0.02192816,-0.004913
 63,0.07003039,-0.00356402,0.00089475,-0.00199725,0.03566323,0.00566268
 ,-0.05659615,0.00090147,-0.00012435,-0.00093741,-0.08562687,0.00223287
 ,-0.03102522,-0.00237934,-0.00008380,0.00391182,0.04120661,0.03241060,
 -0.35008752,-0.00124920,0.00146730,-0.00958424,0.03880636,-0.05965398,
 0.70261990,-0.02009633,0.00062107,-0.01428897,-0.00391055,-0.00072991,
 0.00348904,-0.00099694,0.00010659,-0.00096542,0.00007591,-0.00008388,0
 .00122842,0.00000127,0.00006529,-0.00012477,0.00167830,-0.00049129,0.0
 0111245,0.00020823,-0.00001299,0.00017600,0.00592409,-0.00032510,0.002
 99758,0.00064425,0.00028553,-0.00045815,-0.26321594,0.00613089,-0.1291
 4453,0.27997908,-0.00170009,0.00454129,-0.00152163,-0.00026366,0.00664
 222,0.00089329,-0.00009195,-0.00015013,-0.00006334,-0.00008717,-0.0006
 3729,-0.00009065,0.00003224,-0.00107956,-0.00012698,-0.00051395,0.0075
 3515,0.00146866,0.00015848,0.00023443,0.00011411,0.00340015,0.00340533
 ,0.00177857,0.00004164,-0.00423994,-0.00055747,0.00427350,-0.03999937,
 0.00600147,-0.00543141,0.02769068,0.01072015,-0.00081802,0.01272077,0.
 00339032,0.00070145,-0.00164236,0.00085108,-0.00002696,0.00073890,0.00
 081413,0.00004753,-0.00055015,-0.00011079,-0.00010519,0.00001809,0.001
 74301,0.00121955,-0.00464961,-0.00128272,-0.00003292,-0.00020147,-0.02
 597038,0.00078525,-0.01052439,0.00037942,-0.00042657,0.00101487,-0.130
 85328,0.00645043,-0.13895378,0.13956255,-0.00801703,0.14342453,-0.0710
 1070,0.00150306,0.00244347,0.01095528,0.00351817,-0.01745889,-0.003783
 83,-0.00028142,-0.00425514,-0.00475625,0.00112619,-0.00543020,-0.00005
 800,0.00003570,-0.00156223,-0.00474443,-0.00006217,-0.00026116,-0.0004
 3510,-0.00001261,0.00008218,-0.00502050,-0.00145451,0.00466917,-0.0001
 0268,-0.00001317,0.00143698,0.00980856,-0.00369184,0.01753400,-0.00397
 109,0.00032975,0.00375778,0.93587757,0.00191997,-0.05565240,0.00812149
 ,0.00205541,-0.00051288,0.00124353,0.00030762,-0.00149299,0.00101762,0
 .00023654,0.00606484,-0.00177192,-0.00024239,0.00022870,-0.00055268,0.
 00010952,-0.00065383,0.00057981,-0.00001464,-0.00033367,-0.00017569,-0
 .00001478,0.00585504,-0.00193109,0.00026947,0.00014135,-0.00059991,-0.
 00222881,0.00003403,0.00057344,-0.00031418,-0.00166909,0.00088206,-0.0
 4011106,0.72039599,0.00093661,0.01930993,-0.14334450,-0.01192344,0.001
 14151,-0.01036244,0.00264759,0.00000807,0.00063112,0.00159557,0.000113
 88,0.00355193,0.00104403,-0.00009691,0.00224409,0.00002215,0.00028451,
 -0.00071151,-0.00079983,-0.00033769,-0.00031789,-0.00209586,-0.0001987
 0,0.00443982,-0.00121402,-0.00010018,0.00227268,0.01328844,0.00150683,
 -0.00810573,-0.00321443,-0.00010798,0.00073060,0.00054245,0.05277988,0
 .46728270,-0.00766018,-0.00956480,-0.00087062,0.00081265,0.00094477,-0
 .00616483,0.00073717,-0.00034121,0.00090227,-0.00084980,0.00039503,0.0
 0126100,-0.00009164,0.00008055,-0.00055981,0.00093223,-0.00022826,0.00
 004420,0.00049621,-0.00003349,0.00011300,0.00230946,0.00084533,-0.0008
 9728,0.00023397,0.00004351,-0.00064082,-0.00496646,0.00116721,0.000223
 82,0.00265041,-0.00075124,-0.00165607,-0.37186866,-0.13353068,-0.10412
 669,0.40381098,-0.00322832,0.00739886,0.00428499,-0.00008136,0.0014531
 6,-0.00300001,0.00016361,0.00004483,-0.00015795,-0.00084898,-0.0009102
 5,0.00106846,-0.00001639,-0.00010677,-0.00015180,0.00084890,-0.0000602
 5,-0.00015375,0.00010984,0.00003779,0.00004773,0.00012255,-0.00022274,
 -0.00061874,0.00006025,0.00001313,-0.00014702,-0.00070860,0.00103792,0
 .00045004,0.00044315,-0.00084546,-0.00038231,-0.13872262,-0.15221066,-
 0.05187119,0.16430557,0.14345736,-0.03044612,-0.01332784,-0.00931511,0
 .00475978,0.00024260,-0.00633456,-0.00044759,-0.00047187,-0.00002561,-
 0.00193678,0.00135029,-0.00157911,-0.00024195,0.00019604,-0.00105331,-
 0.00096247,-0.00023564,-0.00028707,0.00007042,0.00004231,0.00015199,-0
 .00079603,0.00040690,0.00043940,0.00032437,-0.00003793,-0.00038145,0.0
 0044662,-0.00053381,-0.00275585,-0.00147149,-0.00005408,-0.00135364,-0
 .11098044,-0.05280984,-0.12379801,0.13095251,0.06039109,0.11386737,-0.
 00799312,0.01043402,0.00130016,-0.00418879,-0.00152921,0.00015835,0.00
 214716,0.00100925,0.00194660,0.00206348,-0.00100590,0.00077631,0.00019
 837,-0.00002537,0.00065376,0.00085156,0.00029978,0.00011937,0.00009435
 ,0.00005578,-0.00016136,-0.00064860,-0.00060244,-0.00093528,-0.0001409
 1,-0.00010213,0.00057003,0.00063644,-0.00059856,0.00588830,0.00070391,
 0.00046284,-0.00084649,-0.38835503,0.16577169,0.10019785,-0.02584743,0
 .01723057,0.00951429,0.41969201,0.00450043,0.00549974,0.00376359,0.000
 59846,0.00104592,0.00047368,-0.00031766,-0.00088912,-0.00022217,-0.000
 10773,-0.00013324,-0.00065081,-0.00006369,-0.00000356,-0.00019877,-0.0
 0088647,-0.00022592,-0.00026797,-0.00002252,0.00004915,0.00010093,0.00
 092980,-0.00050657,0.00101545,0.00005186,-0.00006511,-0.00022976,0.000
 06579,0.00117185,-0.00353624,-0.00016515,-0.00002859,-0.00008947,0.163
 85484,-0.17015691,-0.05608941,-0.01334944,0.01477411,0.00084800,-0.196
 98146,0.17961909,0.03038990,-0.01492002,-0.00835444,-0.00026320,-0.000
 20181,-0.00223047,0.00137051,-0.00004529,-0.00079856,0.00063111,0.0002
 2318,0.00073689,-0.00028742,-0.00005156,-0.00037792,0.00103874,-0.0000
 5630,-0.00011594,0.00022743,0.00007456,0.00012942,0.00186290,0.0014789
 5,-0.00171570,0.00030428,0.00020942,-0.00101283,-0.00450629,-0.0000180
 5,-0.00614049,0.00057245,-0.00052680,-0.00007688,0.10661746,-0.0590442
 2,-0.11964062,-0.01179405,0.00192479,0.01682165,-0.12392800,0.06599148
 ,0.10749089,0.01198409,-0.00176765,-0.00057369,-0.00168673,-0.00013792
 ,0.00055664,0.00033315,-0.00052640,0.00062174,-0.00003882,0.00009186,0
 .00185400,0.00002667,0.00005683,0.00025787,0.00180350,0.00002208,0.000
 17444,0.00002950,-0.00005584,-0.00005554,0.00009580,0.00037138,-0.0017
 7708,0.00000166,-0.00009664,-0.00016425,-0.00151157,0.00007799,-0.0001
 0246,0.00032551,0.00007895,-0.00045172,-0.09068516,0.02499239,-0.00207
 097,-0.00219459,-0.03664169,0.00135975,-0.00289666,0.04078815,-0.00150
 267,0.45288933,-0.00150379,-0.01075959,-0.00099262,-0.00130152,0.00041
 543,0.00334182,-0.00004382,-0.00089217,-0.00052217,0.00047678,0.001020
 54,0.00069571,0.00026456,-0.00013520,0.00064213,-0.00020852,-0.0001106
 6,0.00021259,-0.00015512,-0.00033305,-0.00009720,-0.00042979,0.0011481
 9,0.00127752,-0.00030459,-0.00008759,0.00064836,0.00143083,-0.00000009
 ,0.00348756,0.00007300,-0.00108088,-0.00044666,-0.03011357,-0.32356059
 ,0.03463167,-0.00798140,-0.02060845,0.00313161,0.00393017,-0.02175601,
 0.00402378,-0.13004233,0.45332528,-0.00119943,0.02061126,0.00176235,0.
 00163976,0.00133014,-0.00181502,-0.00025671,0.00058063,-0.00035187,0.0
 0011562,-0.00153679,0.00004123,-0.00022095,-0.00000808,-0.00041420,-0.
 00030132,-0.00007087,-0.00045807,0.00026738,0.00022809,0.00022409,-0.0
 0004942,-0.00139539,0.00029944,0.00025939,0.00006263,-0.00034096,-0.00
 156668,0.00148056,-0.00133079,0.00041928,0.00034001,-0.00025350,0.0052
 0620,0.04650504,-0.07479754,-0.00457744,-0.01237355,0.01896064,0.00349
 852,-0.00848807,0.01068272,-0.01087973,-0.04750090,0.05447159,0.000278
 85,-0.00072827,-0.00007153,-0.00028724,-0.00003267,0.00008173,0.000097
 51,-0.00010246,0.00011586,0.00001641,0.00007239,0.00009372,0.00000686,
 0.00000201,0.00001580,0.00014232,-0.00008365,0.00000894,-0.00000903,0.
 00001343,-0.00001039,-0.00001818,0.00008669,-0.00020669,-0.00000042,0.
 00001152,0.00000206,0.00005846,0.00001020,0.00016616,0.00001093,0.0000
 2026,-0.00003315,-0.01194584,-0.01917333,0.00486171,0.00153608,-0.0030
 2773,-0.00015044,0.00362164,0.00109254,-0.00065737,-0.36844817,0.16585
 525,0.00772427,0.37493502,-0.00241078,-0.00079362,0.00024767,0.0000603
 5,0.00011580,-0.00018399,-0.00000713,-0.00012534,-0.00002498,-0.000048
 49,0.00011625,-0.00025598,-0.00002077,-0.00000954,-0.00005484,-0.00018
 533,-0.00005237,-0.00006280,-0.00002015,0.00000712,0.00002148,-0.00017
 409,-0.00008055,0.00017592,0.00002678,0.00001963,0.00002603,0.00044613
 ,0.00006564,0.00043154,-0.00018506,-0.00011876,0.00021053,0.04409965,-
 0.02629515,-0.00081685,-0.00204897,0.00668753,0.00080583,0.00167546,-0
 .00844940,0.00091019,0.10279359,-0.07654190,0.00013468,-0.14401302,0.1
 0544649,0.00270943,0.00094648,-0.00074501,-0.00044025,0.00001486,-0.00
 030983,-0.00000583,-0.00021103,0.00013840,-0.00026557,0.00007614,0.000
 60729,0.00000875,0.00004275,0.00003525,0.00067945,0.00001922,0.0000176
 3,-0.00000400,-0.00000749,-0.00004012,0.00003359,-0.00011258,-0.000815
 81,-0.00000802,-0.00001250,-0.00006613,-0.00025519,-0.00036350,-0.0002
 8338,0.00013049,0.00038266,0.00005551,-0.00236010,0.00531777,-0.002151
 72,-0.00173476,0.00084180,-0.00271660,0.00078408,-0.00225679,0.0052536
 2,0.01269444,-0.00317356,-0.00592075,-0.01195389,-0.00150210,0.0068943
 1,0.00081828,-0.00005481,-0.00019977,-0.00037513,-0.00040811,-0.000449
 77,-0.00000941,0.00004468,0.00006513,-0.00014592,-0.00010030,0.0015179
 7,0.00038823,0.00044602,0.00001775,-0.00060162,-0.00083402,0.00112601,
 -0.13580967,0.10770924,0.06196622,0.00024657,-0.00005479,-0.00190812,-
 0.00010477,0.00053426,0.00017485,-0.00029942,-0.00066201,0.00111883,-0
 .00000964,0.00004893,0.00002247,0.00003887,0.00031213,-0.00010663,0.00
 002954,-0.00004363,0.00012139,-0.00004379,-0.00001600,0.00010094,-0.00
 001203,-0.00008641,-0.00001089,0.00000540,0.00001617,-0.00001037,0.143
 85246,-0.00045804,-0.00003061,0.00005557,-0.00002448,-0.00036510,0.000
 42517,-0.00000811,0.00000480,0.00003432,-0.00028736,-0.00018007,0.0004
 4611,-0.00002808,0.00013757,0.00007138,-0.00418974,0.00526171,0.003046
 40,0.10821008,-0.17927665,-0.07913284,0.00032500,0.00079820,0.00030931
 ,-0.00022590,-0.00029209,-0.00032846,0.00000979,0.00016117,-0.00047461
 ,0.00000600,-0.00001649,-0.00003598,-0.00001222,-0.00006498,0.00021096
 ,-0.00005719,-0.00000131,-0.00008684,0.00004080,-0.00000394,-0.0000720
 2,0.00001205,0.00006961,-0.00008814,0.00000348,-0.00000635,0.00001941,
 -0.11929707,0.19314765,0.00002888,-0.00022711,-0.00010112,0.00056251,0
 .00138955,-0.00060958,-0.00000841,0.00013452,-0.00029524,-0.00203464,-
 0.00036447,-0.00346214,0.00013868,-0.00046797,0.00000360,0.02006569,-0
 .02177870,-0.01584565,0.06279746,-0.08027935,-0.09219051,0.00154916,0.
 00078811,0.00174787,-0.00091107,-0.00061660,0.00004037,0.00036482,0.00
 079589,-0.00035843,-0.00004228,-0.00000505,-0.00002253,0.00004530,-0.0
 0015795,0.00083805,-0.00026030,-0.00004715,-0.00025098,0.00014408,-0.0
 0003345,-0.00024395,0.00001793,0.00025996,-0.00029046,-0.00000068,-0.0
 0002965,0.00000835,-0.07047551,0.08520029,0.10269647,0.00026175,-0.000
 00488,-0.00004339,0.00025545,0.00023128,-0.00038625,-0.00000601,-0.000
 00633,-0.00003804,0.00056087,-0.00016350,0.00227544,0.00046227,-0.0001
 3622,-0.00018540,0.00098223,0.00044540,0.00125223,-0.27690699,-0.01637
 257,-0.09769830,0.00070318,-0.00012298,-0.00025421,0.00033713,0.000001
 02,0.00022463,-0.00009825,-0.00006103,0.00036746,0.00001129,0.00001379
 ,-0.00004847,-0.00004874,-0.00014667,0.00048598,-0.00004732,0.00000312
 ,-0.00015727,0.00014245,-0.00003906,-0.00018479,0.00001895,0.00016332,
 -0.00014193,0.00000309,-0.00001598,0.00001469,-0.01613534,-0.00238342,
 -0.00683889,0.30003256,0.00013977,0.00002940,-0.00003757,-0.00001750,-
 0.00012388,-0.00009503,-0.00000428,-0.00005254,-0.00000944,0.00014170,
 -0.00014165,-0.00005945,-0.00005875,0.00031730,-0.00002761,0.00420028,
 -0.00106930,0.00184230,-0.01684249,-0.04950088,-0.00775533,-0.00024152
 ,0.00106726,0.00083535,-0.00003531,-0.00030279,-0.00002890,0.00013558,
 0.00040779,0.00029245,0.00000106,-0.00016252,0.00004160,0.00000477,0.0
 0003509,0.00002618,-0.00001810,-0.00001422,0.00000415,0.00000897,-0.00
 001028,-0.00001239,-0.00000019,-0.00001785,-0.00001795,0.00000096,0.00
 000200,0.00000402,0.02212892,0.00225313,0.01051334,0.01864227,0.048119
 07,0.00038984,-0.00005507,0.00013684,-0.00000211,0.00006703,-0.0003046
 5,0.00001992,-0.00000648,0.00000794,-0.00235313,-0.00008736,0.00191705
 ,0.00139243,-0.00002985,-0.00012832,-0.03159321,-0.00230109,-0.0123711
 1,-0.09451299,-0.00728744,-0.08852190,0.00230262,0.00075344,-0.0067363
 3,-0.00002208,-0.00009983,0.00007939,-0.00190406,0.00019792,0.00004803
 ,0.00006834,0.00007527,-0.00045338,-0.00008945,-0.00006939,0.00033370,
 0.00004992,0.00000393,-0.00011864,0.00016165,-0.00003885,-0.00011535,0
 .00001698,0.00011147,-0.00010862,0.00000377,-0.00001549,0.00000827,0.0
 1316330,0.00250788,0.00548287,0.10524754,0.00686013,0.09826809,0.00112
 778,0.00002250,-0.00014011,-0.00053036,0.00065865,-0.00063828,-0.00001
 640,-0.00007994,0.00004204,-0.00035620,0.00004871,0.00176715,0.0002265
 9,-0.00054784,-0.00004432,-0.00021665,-0.00009086,0.00131288,-0.085947
 49,-0.08975786,0.02204753,0.00006662,0.00023402,-0.00190683,-0.0002212
 7,-0.00032521,0.00003964,-0.00054555,0.00011291,0.00138808,-0.00001268
 ,-0.00002105,0.00001217,0.00010574,-0.00019820,-0.00007052,-0.00002261
 ,0.00003178,0.00004146,-0.00003701,0.00006733,0.00000809,-0.00003442,-
 0.00002304,0.00007408,-0.00000370,0.00001164,-0.00001695,0.00816742,0.
 01836439,-0.00514273,-0.01052858,-0.02818614,0.00766072,0.08877878,0.0
 0027881,-0.00007766,-0.00015550,0.00000826,0.00005382,0.00009310,0.000
 00445,0.00002957,0.00004377,0.00076037,-0.00032705,0.00015089,0.000085
 07,-0.00007902,-0.00003839,-0.00042699,0.00057365,0.00176471,-0.090194
 86,-0.25919252,0.05524950,-0.00069945,0.00102241,-0.00038084,0.0003199
 3,-0.00059283,0.00016163,-0.00011684,0.00035735,0.00068023,0.00000640,
 -0.00002103,0.00004270,0.00000305,-0.00015187,-0.00039454,0.00012279,0
 .00007542,0.00013904,-0.00007427,0.00006879,0.00011209,-0.00001661,-0.
 00009503,0.00020670,-0.00000758,0.00001250,-0.00002555,-0.00968319,-0.
 02159625,0.00492580,-0.00004756,-0.00083513,-0.00058623,0.09967822,0.2
 8077489,0.00019669,0.00008861,-0.00008941,0.00009908,-0.00132230,-0.00
 117907,0.00001022,-0.00003353,-0.00022514,-0.00190028,0.00057275,-0.00
 197034,0.00021044,0.00055265,0.00009243,0.01380839,0.02955288,-0.01104
 631,0.02303871,0.05806035,-0.05954038,0.00139805,-0.00075660,0.0011265
 2,-0.00073168,0.00052884,0.00020891,0.00048507,-0.00093083,-0.00053453
 ,-0.00004657,0.00001697,-0.00002158,0.00006264,0.00009206,0.00090527,-
 0.00026406,-0.00010935,-0.00027112,0.00015778,-0.00009135,-0.00029207,
 0.00002432,0.00026890,-0.00036028,0.00001013,-0.00001718,0.00003073,-0
 .00623381,-0.01210792,0.00285303,-0.00389102,-0.01237585,0.00257611,-0
 .02643409,-0.06198912,0.06773722\\-0.00006554,-0.00004194,-0.00009670,
 0.00003252,-0.00000003,0.00006903,-0.00002109,-0.00000657,-0.00002314,
 -0.00000412,0.00002400,-0.00002156,-0.00000508,0.00000171,-0.00000637,
 -0.00003969,0.00000906,-0.00000029,-0.00000725,-0.00001077,0.00000959,
 0.00001530,-0.00000331,0.00003999,0.00000018,-0.00000084,-0.00000763,0
 .00005608,0.00002096,0.00002584,-0.00000408,-0.00001718,-0.00000589,0.
 00008799,0.00003439,0.00004389,-0.00005882,0.00004502,0.00001002,0.000
 06739,-0.00000217,-0.00002267,-0.00002421,-0.00007594,-0.00002580,-0.0
 0003653,0.00002568,0.00000131,0.00000097,-0.00000428,0.00000047,-0.000
 00025,0.00000445,0.00000227,0.00000622,-0.00000223,0.00000765\\\@
 The archive entry for this job was punched.


  DISAPPOINTMENT IS THE NURSE OF WISDOM.               
                              SIR BOYLE ROCHE                 
 Job cpu time:       0 days  0 hours 45 minutes 32.5 seconds.
 Elapsed time:       0 days  0 hours  2 minutes 52.6 seconds.
 File lengths (MBytes):  RWF=    121 Int=      0 D2E=      0 Chk=      6 Scr=      1
 Normal termination of Gaussian 16 at Fri May 20 19:41:26 2022.
