 Entering Gaussian System, Link 0=g16
 AtFile(1): /home/561/yj5695/Basis/6-31pGd.gbs
 Initial command:
 /apps/gaussian/g16c01/g16/l1.exe "/jobfs/40765797.gadi-pbs/Gau-843943.inp" -scrdir="/jobfs/40765797.gadi-pbs/"
 Entering Link 1 = /apps/gaussian/g16c01/g16/l1.exe PID=    843944.
  
 Copyright (c) 1988-2019, Gaussian, Inc.  All Rights Reserved.
  
 This is part of the Gaussian(R) 16 program.  It is based on
 the Gaussian(R) 09 system (copyright 2009, Gaussian, Inc.),
 the Gaussian(R) 03 system (copyright 2003, Gaussian, Inc.),
 the Gaussian(R) 98 system (copyright 1998, Gaussian, Inc.),
 the Gaussian(R) 94 system (copyright 1995, Gaussian, Inc.),
 the Gaussian 92(TM) system (copyright 1992, Gaussian, Inc.),
 the Gaussian 90(TM) system (copyright 1990, Gaussian, Inc.),
 the Gaussian 88(TM) system (copyright 1988, Gaussian, Inc.),
 the Gaussian 86(TM) system (copyright 1986, Carnegie Mellon
 University), and the Gaussian 82(TM) system (copyright 1983,
 Carnegie Mellon University). Gaussian is a federally registered
 trademark of Gaussian, Inc.
  
 This software contains proprietary and confidential information,
 including trade secrets, belonging to Gaussian, Inc.
  
 This software is provided under written license and may be
 used, copied, transmitted, or stored only in accord with that
 written license.
  
 The following legend is applicable only to US Government
 contracts under FAR:
  
                    RESTRICTED RIGHTS LEGEND
  
 Use, reproduction and disclosure by the US Government is
 subject to restrictions as set forth in subparagraphs (a)
 and (c) of the Commercial Computer Software - Restricted
 Rights clause in FAR 52.227-19.
  
 Gaussian, Inc.
 340 Quinnipiac St., Bldg. 40, Wallingford CT 06492
  
  
 ---------------------------------------------------------------
 Warning -- This program may not be used in any manner that
 competes with the business of Gaussian, Inc. or will provide
 assistance to any competitor of Gaussian, Inc.  The licensee
 of this program is prohibited from giving any competitor of
 Gaussian, Inc. access to this program.  By using this program,
 the user acknowledges that Gaussian, Inc. is engaged in the
 business of creating and licensing software in the field of
 computational chemistry and represents and warrants to the
 licensee that it is not a competitor of Gaussian, Inc. and that
 it will not use this program in any manner prohibited above.
 ---------------------------------------------------------------
  

 Cite this work as:
 Gaussian 16, Revision C.01,
 M. J. Frisch, G. W. Trucks, H. B. Schlegel, G. E. Scuseria, 
 M. A. Robb, J. R. Cheeseman, G. Scalmani, V. Barone, 
 G. A. Petersson, H. Nakatsuji, X. Li, M. Caricato, A. V. Marenich, 
 J. Bloino, B. G. Janesko, R. Gomperts, B. Mennucci, H. P. Hratchian, 
 J. V. Ortiz, A. F. Izmaylov, J. L. Sonnenberg, D. Williams-Young, 
 F. Ding, F. Lipparini, F. Egidi, J. Goings, B. Peng, A. Petrone, 
 T. Henderson, D. Ranasinghe, V. G. Zakrzewski, J. Gao, N. Rega, 
 G. Zheng, W. Liang, M. Hada, M. Ehara, K. Toyota, R. Fukuda, 
 J. Hasegawa, M. Ishida, T. Nakajima, Y. Honda, O. Kitao, H. Nakai, 
 T. Vreven, K. Throssell, J. A. Montgomery, Jr., J. E. Peralta, 
 F. Ogliaro, M. J. Bearpark, J. J. Heyd, E. N. Brothers, K. N. Kudin, 
 V. N. Staroverov, T. A. Keith, R. Kobayashi, J. Normand, 
 K. Raghavachari, A. P. Rendell, J. C. Burant, S. S. Iyengar, 
 J. Tomasi, M. Cossi, J. M. Millam, M. Klene, C. Adamo, R. Cammi, 
 J. W. Ochterski, R. L. Martin, K. Morokuma, O. Farkas, 
 J. B. Foresman, and D. J. Fox, Gaussian, Inc., Wallingford CT, 2019.
 
 ******************************************
 Gaussian 16:  ES64L-G16RevC.01  3-Jul-2019
                20-May-2022 
 ******************************************
 %nproc=16
 Will use up to   16 processors via shared memory.
 %mem=20gb
 --------------------------------------------------
 #M062X/gen 6D INT(grid=ultrafine) OPT Freq=noraman
 --------------------------------------------------
 1/18=20,19=15,26=4,38=1/1,3;
 2/9=110,12=2,17=6,18=5,40=1/2;
 3/5=7,8=2,11=2,25=1,30=1,71=1,74=-55,75=-5/1,2,3;
 4//1;
 5/5=2,38=5/2;
 6/7=2,8=2,9=2,10=2,28=1/1;
 7//1,2,3,16;
 1/18=20,19=15,26=4/3(2);
 2/9=110/2;
 99//99;
 2/9=110/2;
 3/5=7,6=1,8=2,11=2,25=1,30=1,71=1,74=-55,75=-5,82=7/1,2,3;
 4/5=5,16=3,69=1/1;
 5/5=2,38=5/2;
 7//1,2,3,16;
 1/18=20,19=15,26=4/3(-5);
 2/9=110/2;
 6/7=2,8=2,9=2,10=2,19=2,28=1/1;
 99/9=1/99;
 -------------
 A.8.a3b2.freq
 -------------
 Symbolic Z-matrix:
 Charge = -1 Multiplicity = 1
 C                    -1.47184   0.61034  -0.81524 
 C                    -2.61389   0.84031  -1.57335 
 F                    -3.83182   0.92257  -1.03215 
 C                    -2.54901   0.99312  -2.95424 
 F                    -3.66368   1.21082  -3.65511 
 C                    -1.33144   0.91784  -3.60732 
 C                    -0.17525   0.69063  -2.87518 
 F                     1.00391   0.6184   -3.49437 
 C                    -0.26309   0.54215  -1.50284 
 F                     0.87691   0.33491  -0.83056 
 S                    -1.41937   0.41239   1.0072 
 O                    -2.82543   0.56691   1.43002 
 O                    -0.87874  -0.96648   1.13637 
 N                    -0.5469    1.54371   1.60837 
 H                     0.43704   1.31068   1.45511 
 F                    -1.26837   1.06347  -4.92835 
 

 GradGradGradGradGradGradGradGradGradGradGradGradGradGradGradGradGradGrad
 Berny optimization.
 Initialization pass.
                           ----------------------------
                           !    Initial Parameters    !
                           ! (Angstroms and Degrees)  !
 --------------------------                            --------------------------
 ! Name  Definition              Value          Derivative Info.                !
 --------------------------------------------------------------------------------
 ! R1    R(1,2)                  1.3899         estimate D2E/DX2                !
 ! R2    R(1,9)                  1.3923         estimate D2E/DX2                !
 ! R3    R(1,11)                 1.8339         estimate D2E/DX2                !
 ! R4    R(2,3)                  1.3353         estimate D2E/DX2                !
 ! R5    R(2,4)                  1.3908         estimate D2E/DX2                !
 ! R6    R(4,5)                  1.3346         estimate D2E/DX2                !
 ! R7    R(4,6)                  1.3837         estimate D2E/DX2                !
 ! R8    R(6,7)                  1.3872         estimate D2E/DX2                !
 ! R9    R(6,16)                 1.3305         estimate D2E/DX2                !
 ! R10   R(7,8)                  1.3338         estimate D2E/DX2                !
 ! R11   R(7,9)                  1.3831         estimate D2E/DX2                !
 ! R12   R(9,10)                 1.3396         estimate D2E/DX2                !
 ! R13   R(11,12)                1.4764         estimate D2E/DX2                !
 ! R14   R(11,13)                1.4867         estimate D2E/DX2                !
 ! R15   R(11,14)                1.55           estimate D2E/DX2                !
 ! R16   R(14,15)                1.0227         estimate D2E/DX2                !
 ! A1    A(2,1,9)              116.8769         estimate D2E/DX2                !
 ! A2    A(2,1,11)             125.6893         estimate D2E/DX2                !
 ! A3    A(9,1,11)             117.4285         estimate D2E/DX2                !
 ! A4    A(1,2,3)              122.5863         estimate D2E/DX2                !
 ! A5    A(1,2,4)              121.4249         estimate D2E/DX2                !
 ! A6    A(3,2,4)              115.9883         estimate D2E/DX2                !
 ! A7    A(2,4,5)              120.0243         estimate D2E/DX2                !
 ! A8    A(2,4,6)              120.2438         estimate D2E/DX2                !
 ! A9    A(5,4,6)              119.7317         estimate D2E/DX2                !
 ! A10   A(4,6,7)              119.5502         estimate D2E/DX2                !
 ! A11   A(4,6,16)             120.2893         estimate D2E/DX2                !
 ! A12   A(7,6,16)             120.1604         estimate D2E/DX2                !
 ! A13   A(6,7,8)              120.0452         estimate D2E/DX2                !
 ! A14   A(6,7,9)              119.2289         estimate D2E/DX2                !
 ! A15   A(8,7,9)              120.7259         estimate D2E/DX2                !
 ! A16   A(1,9,7)              122.6752         estimate D2E/DX2                !
 ! A17   A(1,9,10)             119.9035         estimate D2E/DX2                !
 ! A18   A(7,9,10)             117.4195         estimate D2E/DX2                !
 ! A19   A(1,11,12)            104.2444         estimate D2E/DX2                !
 ! A20   A(1,11,13)            101.3531         estimate D2E/DX2                !
 ! A21   A(1,11,14)            108.8293         estimate D2E/DX2                !
 ! A22   A(12,11,13)           114.7408         estimate D2E/DX2                !
 ! A23   A(12,11,14)           110.4024         estimate D2E/DX2                !
 ! A24   A(13,11,14)           116.0121         estimate D2E/DX2                !
 ! A25   A(11,14,15)           108.4888         estimate D2E/DX2                !
 ! D1    D(9,1,2,3)            179.7852         estimate D2E/DX2                !
 ! D2    D(9,1,2,4)              0.0751         estimate D2E/DX2                !
 ! D3    D(11,1,2,3)            -1.0807         estimate D2E/DX2                !
 ! D4    D(11,1,2,4)           179.2092         estimate D2E/DX2                !
 ! D5    D(2,1,9,7)             -0.1004         estimate D2E/DX2                !
 ! D6    D(2,1,9,10)           179.3972         estimate D2E/DX2                !
 ! D7    D(11,1,9,7)          -179.3081         estimate D2E/DX2                !
 ! D8    D(11,1,9,10)            0.1896         estimate D2E/DX2                !
 ! D9    D(2,1,11,12)           -0.5344         estimate D2E/DX2                !
 ! D10   D(2,1,11,13)          118.8968         estimate D2E/DX2                !
 ! D11   D(2,1,11,14)         -118.3465         estimate D2E/DX2                !
 ! D12   D(9,1,11,12)          178.5954         estimate D2E/DX2                !
 ! D13   D(9,1,11,13)          -61.9734         estimate D2E/DX2                !
 ! D14   D(9,1,11,14)           60.7833         estimate D2E/DX2                !
 ! D15   D(1,2,4,5)            179.892          estimate D2E/DX2                !
 ! D16   D(1,2,4,6)              0.0154         estimate D2E/DX2                !
 ! D17   D(3,2,4,5)              0.1637         estimate D2E/DX2                !
 ! D18   D(3,2,4,6)           -179.7128         estimate D2E/DX2                !
 ! D19   D(2,4,6,7)             -0.0853         estimate D2E/DX2                !
 ! D20   D(2,4,6,16)           179.979          estimate D2E/DX2                !
 ! D21   D(5,4,6,7)           -179.9622         estimate D2E/DX2                !
 ! D22   D(5,4,6,16)             0.1021         estimate D2E/DX2                !
 ! D23   D(4,6,7,8)           -179.8917         estimate D2E/DX2                !
 ! D24   D(4,6,7,9)              0.0612         estimate D2E/DX2                !
 ! D25   D(16,6,7,8)             0.0442         estimate D2E/DX2                !
 ! D26   D(16,6,7,9)           179.997          estimate D2E/DX2                !
 ! D27   D(6,7,9,1)              0.0336         estimate D2E/DX2                !
 ! D28   D(6,7,9,10)          -179.4758         estimate D2E/DX2                !
 ! D29   D(8,7,9,1)            179.9862         estimate D2E/DX2                !
 ! D30   D(8,7,9,10)             0.4768         estimate D2E/DX2                !
 ! D31   D(1,11,14,15)         -77.1821         estimate D2E/DX2                !
 ! D32   D(12,11,14,15)        168.9767         estimate D2E/DX2                !
 ! D33   D(13,11,14,15)         36.2608         estimate D2E/DX2                !
 --------------------------------------------------------------------------------
 Trust Radius=3.00D-01 FncErr=1.00D-07 GrdErr=1.00D-06 EigMax=2.50D+02 EigMin=1.00D-04
 Number of steps in this run=     84 maximum allowed number of steps=    100.
 GradGradGradGradGradGradGradGradGradGradGradGradGradGradGradGradGradGrad

                          Input orientation:                          
 ---------------------------------------------------------------------
 Center     Atomic      Atomic             Coordinates (Angstroms)
 Number     Number       Type             X           Y           Z
 ---------------------------------------------------------------------
      1          6           0       -1.471845    0.610338   -0.815242
      2          6           0       -2.613891    0.840310   -1.573351
      3          9           0       -3.831819    0.922569   -1.032153
      4          6           0       -2.549007    0.993117   -2.954235
      5          9           0       -3.663679    1.210817   -3.655111
      6          6           0       -1.331441    0.917836   -3.607323
      7          6           0       -0.175249    0.690628   -2.875182
      8          9           0        1.003909    0.618404   -3.494365
      9          6           0       -0.263088    0.542149   -1.502845
     10          9           0        0.876914    0.334913   -0.830556
     11         16           0       -1.419374    0.412392    1.007198
     12          8           0       -2.825426    0.566905    1.430018
     13          8           0       -0.878743   -0.966482    1.136371
     14          7           0       -0.546905    1.543714    1.608367
     15          1           0        0.437041    1.310683    1.455114
     16          9           0       -1.268374    1.063467   -4.928352
 ---------------------------------------------------------------------
                    Distance matrix (angstroms):
                    1          2          3          4          5
     1  C    0.000000
     2  C    1.389923   0.000000
     3  F    2.390401   1.335294   0.000000
     4  C    2.425303   1.390827   2.311922   0.000000
     5  F    3.637248   2.360732   2.644100   1.334584   0.000000
     6  C    2.812470   2.405771   3.589348   1.383712   2.351055
     7  C    2.435356   2.768419   4.101348   2.394260   3.612206
     8  F    3.647893   4.102196   5.435004   3.613221   4.707778
     9  C    1.392315   2.370685   3.619684   2.745056   4.079631
    10  F    2.364902   3.604565   4.749542   4.084138   5.418700
    11  S    1.833908   2.875624   3.199863   4.160079   5.235600
    12  O    2.622072   3.023198   2.683582   4.413586   5.193826
    13  O    2.578163   3.690234   4.122095   4.833515   5.954394
    14  N    2.756916   3.858826   4.260144   5.012875   6.126117
    15  H    3.047761   4.324470   4.955835   5.334763   6.552884
    16  F    4.142995   3.621636   4.665991   2.354168   2.716678
                    6          7          8          9         10
     6  C    0.000000
     7  C    1.387240   0.000000
     8  F    2.357176   1.333798   0.000000
     9  C    2.389843   1.383138   2.361620   0.000000
    10  F    3.595424   2.326817   2.681860   1.339598   0.000000
    11  S    4.642953   4.086335   5.116523   2.766613   2.942156
    12  O    5.265924   5.057024   6.238269   3.894595   4.344115
    13  O    5.124278   4.396984   5.244040   3.101686   2.940198
    14  N    5.311370   4.579093   5.412864   3.280751   3.071938
    15  H    5.376814   4.417107   5.029705   3.135338   2.523866
    16  F    1.330527   2.355725   2.723540   3.607835   4.682413
                   11         12         13         14         15
    11  S    0.000000
    12  O    1.476358   0.000000
    13  O    1.486695   2.495412   0.000000
    14  N    1.549999   2.485482   2.575652   0.000000
    15  H    2.110411   3.346271   2.649220   1.022712   0.000000
    16  F    5.973060   6.565048   6.407291   6.593926   6.611974
                   16
    16  F    0.000000
 Stoichiometry    C6HF5NO2S(1-)
 Framework group  C1[X(C6HF5NO2S)]
 Deg. of freedom    42
 Full point group                 C1      NOp   1
 Largest Abelian subgroup         C1      NOp   1
 Largest concise Abelian subgroup C1      NOp   1
                         Standard orientation:                         
 ---------------------------------------------------------------------
 Center     Atomic      Atomic             Coordinates (Angstroms)
 Number     Number       Type             X           Y           Z
 ---------------------------------------------------------------------
      1          6           0        0.476858    0.086512    0.012726
      2          6           0       -0.313388    1.229842   -0.001221
      3          9           0        0.203182    2.461166    0.001028
      4          6           0       -1.701962    1.151500   -0.012477
      5          9           0       -2.433704    2.267540   -0.023577
      6          6           0       -2.330518   -0.081208   -0.009650
      7          6           0       -1.566239   -1.238861    0.002695
      8          9           0       -2.161817   -2.432303    0.003341
      9          6           0       -0.186867   -1.137420    0.013249
     10          9           0        0.515583   -2.278073    0.014125
     11         16           0        2.310457    0.053165    0.007899
     12          8           0        2.699589    1.476894   -0.026786
     13          8           0        2.593980   -0.638217    1.293149
     14          7           0        2.794264   -0.670632   -1.274499
     15          1           0        2.677285   -1.677966   -1.142082
     16          9           0       -3.658833   -0.157205   -0.019989
 ---------------------------------------------------------------------
 Rotational constants (GHZ):           0.8510601           0.4367840           0.3064365
 General basis read from cards:  (6D, 7F)
 There are   291 symmetry adapted cartesian basis functions of A   symmetry.
 There are   291 symmetry adapted basis functions of A   symmetry.
   291 basis functions,   508 primitive gaussians,   291 cartesian basis functions
    61 alpha electrons       61 beta electrons
       nuclear repulsion energy      1221.7453735695 Hartrees.
 NAtoms=   16 NActive=   16 NUniq=   16 SFac= 1.00D+00 NAtFMM=   60 NAOKFM=F Big=F
 Integral buffers will be    131072 words long.
 Raffenetti 2 integral format.
 Two-electron integral symmetry is turned on.
 One-electron integrals computed using PRISM.
 NBasis=   291 RedAO= T EigKep=  1.44D-06  NBF=   291
 NBsUse=   291 1.00D-06 EigRej= -1.00D+00 NBFU=   291
 ExpMin= 4.05D-02 ExpMax= 2.19D+04 ExpMxC= 3.30D+03 IAcc=3 IRadAn=         5 AccDes= 0.00D+00
 Harris functional with IExCor= 1009 and IRadAn=       5 diagonalized for initial guess.
 HarFok:  IExCor= 1009 AccDes= 0.00D+00 IRadAn=         5 IDoV= 1 UseB2=F ITyADJ=14
 ICtDFT=  3500011 ScaDFX=  1.000000  1.000000  1.000000  1.000000
 FoFCou: FMM=F IPFlag=           0 FMFlag=      100000 FMFlg1=           0
         NFxFlg=           0 DoJE=T BraDBF=F KetDBF=T FulRan=T
         wScrn=  0.000000 ICntrl=       500 IOpCl=  0 I1Cent=   200000004 NGrid=           0
         NMat0=    1 NMatS0=      1 NMatT0=    0 NMatD0=    1 NMtDS0=    0 NMtDT0=    0
 Petite list used in FoFCou.
 Requested convergence on RMS density matrix=1.00D-08 within 128 cycles.
 Requested convergence on MAX density matrix=1.00D-06.
 Requested convergence on             energy=1.00D-06.
 No special actions if energy rises.
 SCF Done:  E(RM062X) =  -1331.44653206     A.U. after   16 cycles
            NFock= 16  Conv=0.61D-08     -V/T= 2.0063

 **********************************************************************

            Population analysis using the SCF Density.

 **********************************************************************

 Orbital symmetries:
       Occupied  (A) (A) (A) (A) (A) (A) (A) (A) (A) (A) (A) (A)
                 (A) (A) (A) (A) (A) (A) (A) (A) (A) (A) (A) (A)
                 (A) (A) (A) (A) (A) (A) (A) (A) (A) (A) (A) (A)
                 (A) (A) (A) (A) (A) (A) (A) (A) (A) (A) (A) (A)
                 (A) (A) (A) (A) (A) (A) (A) (A) (A) (A) (A) (A)
                 (A)
       Virtual   (A) (A) (A) (A) (A) (A) (A) (A) (A) (A) (A) (A)
                 (A) (A) (A) (A) (A) (A) (A) (A) (A) (A) (A) (A)
                 (A) (A) (A) (A) (A) (A) (A) (A) (A) (A) (A) (A)
                 (A) (A) (A) (A) (A) (A) (A) (A) (A) (A) (A) (A)
                 (A) (A) (A) (A) (A) (A) (A) (A) (A) (A) (A) (A)
                 (A) (A) (A) (A) (A) (A) (A) (A) (A) (A) (A) (A)
                 (A) (A) (A) (A) (A) (A) (A) (A) (A) (A) (A) (A)
                 (A) (A) (A) (A) (A) (A) (A) (A) (A) (A) (A) (A)
                 (A) (A) (A) (A) (A) (A) (A) (A) (A) (A) (A) (A)
                 (A) (A) (A) (A) (A) (A) (A) (A) (A) (A) (A) (A)
                 (A) (A) (A) (A) (A) (A) (A) (A) (A) (A) (A) (A)
                 (A) (A) (A) (A) (A) (A) (A) (A) (A) (A) (A) (A)
                 (A) (A) (A) (A) (A) (A) (A) (A) (A) (A) (A) (A)
                 (A) (A) (A) (A) (A) (A) (A) (A) (A) (A) (A) (A)
                 (A) (A) (A) (A) (A) (A) (A) (A) (A) (A) (A) (A)
                 (A) (A) (A) (A) (A) (A) (A) (A) (A) (A) (A) (A)
                 (A) (A) (A) (A) (A) (A) (A) (A) (A) (A) (A) (A)
                 (A) (A) (A) (A) (A) (A) (A) (A) (A) (A) (A) (A)
                 (A) (A) (A) (A) (A) (A) (A) (A) (A) (A) (A) (A)
                 (A) (A)
 The electronic state is 1-A.
 Alpha  occ. eigenvalues --  -89.99257 -25.22090 -25.21335 -25.21100 -25.19258
 Alpha  occ. eigenvalues --  -25.18215 -19.46553 -19.46274 -14.57440 -10.57660
 Alpha  occ. eigenvalues --  -10.56891 -10.56761 -10.56436 -10.56419 -10.48148
 Alpha  occ. eigenvalues --   -8.29973  -6.22203  -6.22157  -6.22055  -1.32430
 Alpha  occ. eigenvalues --   -1.31040  -1.30419  -1.28609  -1.27722  -1.05768
 Alpha  occ. eigenvalues --   -0.93774  -0.91025  -0.81937  -0.78608  -0.78221
 Alpha  occ. eigenvalues --   -0.67144  -0.65928  -0.59634  -0.58317  -0.57893
 Alpha  occ. eigenvalues --   -0.53857  -0.53404  -0.52903  -0.52730  -0.49946
 Alpha  occ. eigenvalues --   -0.49820  -0.48803  -0.46891  -0.46055  -0.45588
 Alpha  occ. eigenvalues --   -0.45171  -0.43300  -0.40307  -0.39913  -0.38862
 Alpha  occ. eigenvalues --   -0.37029  -0.35403  -0.33303  -0.26558  -0.24278
 Alpha  occ. eigenvalues --   -0.22543  -0.21540  -0.21169  -0.20180  -0.17580
 Alpha  occ. eigenvalues --   -0.15095
 Alpha virt. eigenvalues --    0.08471   0.10853   0.11763   0.12224   0.12919
 Alpha virt. eigenvalues --    0.14636   0.15297   0.15786   0.16237   0.17759
 Alpha virt. eigenvalues --    0.18114   0.18205   0.18743   0.19323   0.21001
 Alpha virt. eigenvalues --    0.21252   0.22358   0.22672   0.23382   0.23612
 Alpha virt. eigenvalues --    0.24326   0.24687   0.26547   0.27054   0.27843
 Alpha virt. eigenvalues --    0.28016   0.28392   0.28787   0.29336   0.30355
 Alpha virt. eigenvalues --    0.30942   0.31916   0.32307   0.32971   0.34226
 Alpha virt. eigenvalues --    0.35963   0.36358   0.37011   0.38243   0.38939
 Alpha virt. eigenvalues --    0.39112   0.40920   0.41333   0.41546   0.42126
 Alpha virt. eigenvalues --    0.42546   0.43266   0.43950   0.44596   0.45031
 Alpha virt. eigenvalues --    0.45533   0.45953   0.47275   0.47812   0.48058
 Alpha virt. eigenvalues --    0.48631   0.49394   0.49677   0.50288   0.50818
 Alpha virt. eigenvalues --    0.51230   0.51645   0.52530   0.53124   0.54006
 Alpha virt. eigenvalues --    0.54576   0.54979   0.56496   0.58326   0.59352
 Alpha virt. eigenvalues --    0.60064   0.62184   0.63573   0.64267   0.66245
 Alpha virt. eigenvalues --    0.66675   0.67551   0.73702   0.75581   0.76101
 Alpha virt. eigenvalues --    0.79453   0.81763   0.83151   0.83577   0.85359
 Alpha virt. eigenvalues --    0.85597   0.87037   0.87574   0.91287   0.92702
 Alpha virt. eigenvalues --    0.94299   0.96649   1.00056   1.06113   1.10662
 Alpha virt. eigenvalues --    1.12062   1.13106   1.15368   1.16214   1.18290
 Alpha virt. eigenvalues --    1.22336   1.23905   1.24500   1.26820   1.32444
 Alpha virt. eigenvalues --    1.32989   1.33910   1.34132   1.35342   1.36263
 Alpha virt. eigenvalues --    1.37830   1.39244   1.40263   1.42012   1.42465
 Alpha virt. eigenvalues --    1.44727   1.46695   1.47112   1.49455   1.52403
 Alpha virt. eigenvalues --    1.54624   1.55713   1.56422   1.57861   1.60530
 Alpha virt. eigenvalues --    1.61176   1.64607   1.67731   1.73353   1.75202
 Alpha virt. eigenvalues --    1.77367   1.78035   1.78813   1.79651   1.81030
 Alpha virt. eigenvalues --    1.83012   1.83506   1.84300   1.85715   1.86087
 Alpha virt. eigenvalues --    1.87278   1.87964   1.88220   1.90732   1.91690
 Alpha virt. eigenvalues --    1.91979   1.92726   1.92843   1.93441   1.94748
 Alpha virt. eigenvalues --    1.95259   1.95733   1.97084   1.97368   1.98941
 Alpha virt. eigenvalues --    1.99875   2.00340   2.00999   2.01735   2.02907
 Alpha virt. eigenvalues --    2.03866   2.04295   2.05096   2.06502   2.07111
 Alpha virt. eigenvalues --    2.07814   2.10572   2.13426   2.14240   2.15456
 Alpha virt. eigenvalues --    2.18129   2.20874   2.23846   2.24358   2.27035
 Alpha virt. eigenvalues --    2.28570   2.30546   2.33320   2.35340   2.37316
 Alpha virt. eigenvalues --    2.39025   2.40065   2.40833   2.43254   2.46143
 Alpha virt. eigenvalues --    2.47574   2.48365   2.48910   2.50314   2.52213
 Alpha virt. eigenvalues --    2.52880   2.54576   2.58189   2.62269   2.63752
 Alpha virt. eigenvalues --    2.70297   2.71797   2.76345   2.77384   2.80583
 Alpha virt. eigenvalues --    2.87097   2.87993   2.97180   3.04887   3.11465
 Alpha virt. eigenvalues --    3.16214   3.17260   3.21050   3.30312   3.32228
 Alpha virt. eigenvalues --    3.38539   3.45794   3.48221   3.52542   3.70458
 Alpha virt. eigenvalues --    4.16000   4.23894   4.36673   4.39044   4.42707
 Alpha virt. eigenvalues --    4.45274   4.49524   4.62530   4.65574   5.01525
 Alpha virt. eigenvalues --    5.43677   5.98471   6.49135   7.02757   8.01009
          Condensed to atoms (all electrons):
               1          2          3          4          5          6
     1  C   45.018500 -17.092495   0.036113  -3.741685  -0.196105  -7.447928
     2  C  -17.092495  52.954467   0.089610  -3.276161   0.038555   3.224022
     3  F    0.036113   0.089610   9.334418  -0.050450  -0.007035  -0.067501
     4  C   -3.741685  -3.276161  -0.050450  16.342957   0.054810  -2.086572
     5  F   -0.196105   0.038555  -0.007035   0.054810   9.427688   0.089844
     6  C   -7.447928   3.224022  -0.067501  -2.086572   0.089844  14.632403
     7  C   -1.769832  -3.892632  -0.001032   0.836924  -0.089000  -1.381870
     8  F   -0.064859   0.091422   0.000064  -0.110306  -0.000119   0.036124
     9  C   -5.295910 -26.001017   0.012498  -2.454942   0.018349  -1.747288
    10  F    0.050718   0.106982  -0.000942   0.001900   0.000120  -0.028348
    11  S   -2.110539   0.579830  -0.037369  -0.204423   0.002915   0.277580
    12  O   -0.561557  -0.238377  -0.008886   0.110185   0.000642   0.027269
    13  O    0.186548  -0.194329   0.002443   0.037010   0.000035  -0.010153
    14  N    0.113552   0.046640  -0.001089   0.023958   0.000158   0.006962
    15  H   -0.241711  -0.068784  -0.000022   0.000676   0.000000   0.002885
    16  F    0.035347  -0.123803  -0.000154   0.050908  -0.008136  -0.005182
               7          8          9         10         11         12
     1  C   -1.769832  -0.064859  -5.295910   0.050718  -2.110539  -0.561557
     2  C   -3.892632   0.091422 -26.001017   0.106982   0.579830  -0.238377
     3  F   -0.001032   0.000064   0.012498  -0.000942  -0.037369  -0.008886
     4  C    0.836924  -0.110306  -2.454942   0.001900  -0.204423   0.110185
     5  F   -0.089000  -0.000119   0.018349   0.000120   0.002915   0.000642
     6  C   -1.381870   0.036124  -1.747288  -0.028348   0.277580   0.027269
     7  C   17.178944  -0.001663  -5.185997  -0.034979  -0.102331   0.077965
     8  F   -0.001663   9.432189  -0.032347  -0.006937  -0.000560   0.000072
     9  C   -5.185997  -0.032347  44.941487  -0.078583   0.757322   0.337016
    10  F   -0.034979  -0.006937  -0.078583   9.361445  -0.033127   0.000151
    11  S   -0.102331  -0.000560   0.757322  -0.033127  14.855140   0.268026
    12  O    0.077965   0.000072   0.337016   0.000151   0.268026   8.917986
    13  O   -0.080213  -0.000273   0.021282  -0.002369   0.173867  -0.132436
    14  N   -0.080707  -0.000123  -0.138094  -0.002145   0.119496  -0.164559
    15  H    0.062206   0.000000   0.164873  -0.000148   0.101922   0.020111
    16  F    0.036053  -0.008806  -0.063565  -0.000341  -0.000274   0.000008
              13         14         15         16
     1  C    0.186548   0.113552  -0.241711   0.035347
     2  C   -0.194329   0.046640  -0.068784  -0.123803
     3  F    0.002443  -0.001089  -0.000022  -0.000154
     4  C    0.037010   0.023958   0.000676   0.050908
     5  F    0.000035   0.000158   0.000000  -0.008136
     6  C   -0.010153   0.006962   0.002885  -0.005182
     7  C   -0.080213  -0.080707   0.062206   0.036053
     8  F   -0.000273  -0.000123   0.000000  -0.008806
     9  C    0.021282  -0.138094   0.164873  -0.063565
    10  F   -0.002369  -0.002145  -0.000148  -0.000341
    11  S    0.173867   0.119496   0.101922  -0.000274
    12  O   -0.132436  -0.164559   0.020111   0.000008
    13  O    8.809637  -0.218599  -0.010211   0.000041
    14  N   -0.218599   7.890310   0.189045   0.000032
    15  H   -0.010211   0.189045   0.428394   0.000000
    16  F    0.000041   0.000032   0.000000   9.423727
 Mulliken charges:
               1
     1  C   -0.918156
     2  C   -0.243930
     3  F   -0.300665
     4  C    0.465211
     5  F   -0.332721
     6  C    0.477751
     7  C    0.428166
     8  F   -0.333878
     9  C    0.744917
    10  F   -0.333396
    11  S    1.352526
    12  O   -0.653617
    13  O   -0.582279
    14  N   -0.784838
    15  H    0.350764
    16  F   -0.335855
 Sum of Mulliken charges =  -1.00000
 Mulliken charges with hydrogens summed into heavy atoms:
               1
     1  C   -0.918156
     2  C   -0.243930
     3  F   -0.300665
     4  C    0.465211
     5  F   -0.332721
     6  C    0.477751
     7  C    0.428166
     8  F   -0.333878
     9  C    0.744917
    10  F   -0.333396
    11  S    1.352526
    12  O   -0.653617
    13  O   -0.582279
    14  N   -0.434074
    16  F   -0.335855
 Electronic spatial extent (au):  <R**2>=           3225.7227
 Charge=             -1.0000 electrons
 Dipole moment (field-independent basis, Debye):
    X=             -9.7731    Y=             -1.5537    Z=             -0.0204  Tot=              9.8959
 Quadrupole moment (field-independent basis, Debye-Ang):
   XX=           -136.2640   YY=           -104.5036   ZZ=            -98.4371
   XY=             -4.3722   XZ=              0.6156   YZ=              2.0042
 Traceless Quadrupole moment (field-independent basis, Debye-Ang):
   XX=            -23.1958   YY=              8.5646   ZZ=             14.6311
   XY=             -4.3722   XZ=              0.6156   YZ=              2.0042
 Octapole moment (field-independent basis, Debye-Ang**2):
  XXX=           -106.4819  YYY=            -11.3524  ZZZ=              8.3927  XYY=            -11.1994
  XXY=            -11.4368  XXZ=              7.1170  XZZ=            -41.5037  YZZ=              4.9172
  YYZ=             -2.5478  XYZ=              4.9657
 Hexadecapole moment (field-independent basis, Debye-Ang**3):
 XXXX=          -2880.5557 YYYY=          -1136.9732 ZZZZ=           -249.0828 XXXY=            -23.9355
 XXXZ=             40.1233 YYYX=            -30.9986 YYYZ=              5.5710 ZZZX=             25.4144
 ZZZY=             -2.3690 XXYY=           -649.3366 XXZZ=           -512.1543 YYZZ=           -209.2023
 XXYZ=             10.9977 YYXZ=             -6.7618 ZZXY=             12.4734
 N-N= 1.221745373570D+03 E-N=-5.607046727152D+03  KE= 1.323111961275D+03
 Calling FoFJK, ICntrl=      2127 FMM=F ISym2X=0 I1Cent= 0 IOpClX= 0 NMat=1 NMatS=1 NMatT=0.
 ***** Axes restored to original set *****
 -------------------------------------------------------------------
 Center     Atomic                   Forces (Hartrees/Bohr)
 Number     Number              X              Y              Z
 -------------------------------------------------------------------
      1        6           0.000957672    0.001082935   -0.006039784
      2        6          -0.001771153   -0.000199773    0.004659193
      3        9           0.002895326   -0.000134145   -0.002693398
      4        6           0.001654414   -0.000422474    0.001990671
      5        9          -0.003581408    0.000864153   -0.004084813
      6        6          -0.000626694   -0.000498187    0.004775995
      7        6          -0.001923289   -0.000040160    0.002700887
      8        9           0.004578671   -0.000085648   -0.003989537
      9        6          -0.001017693   -0.000876874    0.003312794
     10        9          -0.000521352    0.000701116   -0.002859922
     11       16          -0.012951234   -0.014993726    0.034044917
     12        8           0.009602688    0.001416458   -0.009790840
     13        8           0.000198761    0.008759099   -0.008625301
     14        7           0.003755934    0.005613130   -0.006008675
     15        1          -0.001687112   -0.002074403    0.000480492
     16        9           0.000436469    0.000888497   -0.007872680
 -------------------------------------------------------------------
 Cartesian Forces:  Max     0.034044917 RMS     0.006852917

 GradGradGradGradGradGradGradGradGradGradGradGradGradGradGradGradGradGrad
 Berny optimization.
 FormGI is forming the generalized inverse of G from B-inverse, IUseBI=4.
 Internal  Forces:  Max     0.011796286 RMS     0.003688691
 Search for a local minimum.
 Step number   1 out of a maximum of   84
 All quantities printed in internal units (Hartrees-Bohrs-Radians)
 Mixed Optimization -- RFO/linear search
 Second derivative matrix not updated -- first step.
 ITU=  0
     Eigenvalues ---    0.00230   0.01380   0.02209   0.02216   0.02246
     Eigenvalues ---    0.02249   0.02255   0.02279   0.02283   0.02293
     Eigenvalues ---    0.03280   0.10734   0.12043   0.16000   0.16626
     Eigenvalues ---    0.21445   0.23618   0.24997   0.24999   0.24999
     Eigenvalues ---    0.25000   0.25000   0.25000   0.25000   0.25000
     Eigenvalues ---    0.25000   0.25000   0.43477   0.43642   0.43908
     Eigenvalues ---    0.47124   0.47590   0.47867   0.48358   0.57295
     Eigenvalues ---    0.58273   0.58436   0.58618   0.59381   0.62244
     Eigenvalues ---    0.81257   0.85071
 RFO step:  Lambda=-4.23585907D-03 EMin= 2.30000000D-03
 Linear search not attempted -- first point.
 Iteration  1 RMS(Cart)=  0.02035790 RMS(Int)=  0.00091388
 Iteration  2 RMS(Cart)=  0.00072449 RMS(Int)=  0.00057570
 Iteration  3 RMS(Cart)=  0.00000041 RMS(Int)=  0.00057570
 Variable       Old X    -DE/DX   Delta X   Delta X   Delta X     New X
                                 (Linear)    (Quad)   (Total)
    R1        2.62657   0.00157   0.00000   0.00336   0.00336   2.62994
    R2        2.63109   0.00202   0.00000   0.00434   0.00435   2.63544
    R3        3.46558   0.01015   0.00000   0.04220   0.04220   3.50778
    R4        2.52334  -0.00374   0.00000  -0.00638  -0.00638   2.51696
    R5        2.62828   0.00353   0.00000   0.00741   0.00741   2.63569
    R6        2.52200   0.00528   0.00000   0.00896   0.00896   2.53096
    R7        2.61484   0.00070   0.00000   0.00136   0.00135   2.61619
    R8        2.62150   0.00106   0.00000   0.00211   0.00210   2.62361
    R9        2.51433   0.00793   0.00000   0.01327   0.01327   2.52760
   R10        2.52051   0.00591   0.00000   0.01000   0.01000   2.53052
   R11        2.61375   0.00305   0.00000   0.00623   0.00623   2.61998
   R12        2.53147  -0.00199   0.00000  -0.00344  -0.00344   2.52803
   R13        2.78991  -0.01180   0.00000  -0.01380  -0.01380   2.77611
   R14        2.80945  -0.00881   0.00000  -0.01078  -0.01078   2.79867
   R15        2.92907   0.00160   0.00000   0.00256   0.00256   2.93163
   R16        1.93265  -0.00123   0.00000  -0.00277  -0.00277   1.92987
    A1        2.03989  -0.00239   0.00000  -0.00907  -0.00906   2.03082
    A2        2.19369  -0.00045   0.00000  -0.00190  -0.00191   2.19179
    A3        2.04951   0.00284   0.00000   0.01103   0.01102   2.06054
    A4        2.13953   0.00093   0.00000   0.00357   0.00356   2.14310
    A5        2.11926   0.00140   0.00000   0.00566   0.00566   2.12493
    A6        2.02438  -0.00233   0.00000  -0.00924  -0.00925   2.01513
    A7        2.09482   0.00189   0.00000   0.00750   0.00750   2.10232
    A8        2.09865   0.00016   0.00000   0.00045   0.00045   2.09910
    A9        2.08971  -0.00204   0.00000  -0.00796  -0.00796   2.08176
   A10        2.08655  -0.00075   0.00000  -0.00329  -0.00329   2.08325
   A11        2.09944   0.00046   0.00000   0.00197   0.00197   2.10141
   A12        2.09719   0.00030   0.00000   0.00132   0.00132   2.09852
   A13        2.09518  -0.00195   0.00000  -0.00759  -0.00759   2.08760
   A14        2.08094   0.00033   0.00000   0.00113   0.00113   2.08207
   A15        2.10706   0.00162   0.00000   0.00645   0.00645   2.11352
   A16        2.14109   0.00126   0.00000   0.00511   0.00511   2.14620
   A17        2.09271   0.00216   0.00000   0.00840   0.00839   2.10110
   A18        2.04936  -0.00343   0.00000  -0.01357  -0.01358   2.03577
   A19        1.81941  -0.00639   0.00000  -0.03737  -0.03725   1.78216
   A20        1.76895  -0.00701   0.00000  -0.04642  -0.04677   1.72218
   A21        1.89943  -0.00741   0.00000  -0.04672  -0.04705   1.85238
   A22        2.00260   0.00599   0.00000   0.05049   0.04808   2.05069
   A23        1.92689   0.00629   0.00000   0.03599   0.03384   1.96072
   A24        2.02479   0.00462   0.00000   0.02017   0.01733   2.04212
   A25        1.89349  -0.00385   0.00000  -0.02343  -0.02343   1.87006
    D1        3.13784  -0.00012   0.00000  -0.00458  -0.00458   3.13326
    D2        0.00131  -0.00001   0.00000  -0.00060  -0.00060   0.00071
    D3       -0.01886   0.00000   0.00000   0.00072   0.00069  -0.01818
    D4        3.12779   0.00011   0.00000   0.00471   0.00467   3.13246
    D5       -0.00175   0.00005   0.00000   0.00234   0.00233   0.00058
    D6        3.13107  -0.00018   0.00000  -0.00571  -0.00575   3.12532
    D7       -3.12952  -0.00003   0.00000  -0.00242  -0.00243  -3.13194
    D8        0.00331  -0.00026   0.00000  -0.01047  -0.01051  -0.00720
    D9       -0.00933  -0.00040   0.00000  -0.02154  -0.02136  -0.03068
   D10        2.07514   0.00094   0.00000   0.00111   0.00061   2.07575
   D11       -2.06554  -0.00089   0.00000  -0.02188  -0.02159  -2.08712
   D12        3.11708  -0.00032   0.00000  -0.01636  -0.01616   3.10091
   D13       -1.08164   0.00102   0.00000   0.00628   0.00580  -1.07584
   D14        1.06087  -0.00081   0.00000  -0.01671  -0.01640   1.04447
   D15        3.13971  -0.00005   0.00000  -0.00185  -0.00185   3.13786
   D16        0.00027  -0.00003   0.00000  -0.00095  -0.00095  -0.00068
   D17        0.00286   0.00004   0.00000   0.00185   0.00183   0.00469
   D18       -3.13658   0.00007   0.00000   0.00275   0.00273  -3.13385
   D19       -0.00149   0.00002   0.00000   0.00083   0.00083  -0.00066
   D20        3.14123   0.00003   0.00000   0.00123   0.00122  -3.14074
   D21       -3.14093   0.00004   0.00000   0.00171   0.00170  -3.13923
   D22        0.00178   0.00005   0.00000   0.00211   0.00210   0.00388
   D23       -3.13970   0.00004   0.00000   0.00137   0.00135  -3.13835
   D24        0.00107   0.00002   0.00000   0.00083   0.00082   0.00189
   D25        0.00077   0.00002   0.00000   0.00097   0.00096   0.00173
   D26        3.14154   0.00001   0.00000   0.00043   0.00043  -3.14121
   D27        0.00059  -0.00006   0.00000  -0.00248  -0.00248  -0.00190
   D28       -3.13244   0.00014   0.00000   0.00527   0.00522  -3.12722
   D29        3.14135  -0.00007   0.00000  -0.00303  -0.00302   3.13833
   D30        0.00832   0.00012   0.00000   0.00472   0.00468   0.01300
   D31       -1.34708   0.00008   0.00000  -0.01386  -0.01405  -1.36113
   D32        2.94920   0.00846   0.00000   0.03748   0.03915   2.98835
   D33        0.63287  -0.01108   0.00000  -0.09217  -0.09366   0.53921
         Item               Value     Threshold  Converged?
 Maximum Force            0.011796     0.000450     NO 
 RMS     Force            0.003689     0.000300     NO 
 Maximum Displacement     0.077162     0.001800     NO 
 RMS     Displacement     0.020341     0.001200     NO 
 Predicted change in Energy=-2.213104D-03
 GradGradGradGradGradGradGradGradGradGradGradGradGradGradGradGradGradGrad

                          Input orientation:                          
 ---------------------------------------------------------------------
 Center     Atomic      Atomic             Coordinates (Angstroms)
 Number     Number       Type             X           Y           Z
 ---------------------------------------------------------------------
      1          6           0       -1.471558    0.611469   -0.796680
      2          6           0       -2.611966    0.837123   -1.561785
      3          9           0       -3.831962    0.913624   -1.032853
      4          6           0       -2.548432    0.988394   -2.946850
      5          9           0       -3.663119    1.200421   -3.658408
      6          6           0       -1.330648    0.917140   -3.601499
      7          6           0       -0.174370    0.694591   -2.865958
      8          9           0        1.006647    0.628491   -3.493649
      9          6           0       -0.263494    0.545957   -1.490397
     10          9           0        0.884849    0.350754   -0.832482
     11         16           0       -1.431247    0.408868    1.048030
     12          8           0       -2.843280    0.592824    1.409210
     13          8           0       -0.883136   -0.965573    1.109834
     14          7           0       -0.530895    1.551204    1.587592
     15          1           0        0.438170    1.273670    1.423793
     16          9           0       -1.266534    1.062803   -4.929545
 ---------------------------------------------------------------------
                    Distance matrix (angstroms):
                    1          2          3          4          5
     1  C    0.000000
     2  C    1.391702   0.000000
     3  F    2.391355   1.331920   0.000000
     4  C    2.434124   1.394748   2.305737   0.000000
     5  F    3.652299   2.373338   2.646564   1.339327   0.000000
     6  C    2.824942   2.410106   3.585320   1.384428   2.350299
     7  C    2.443669   2.768222   4.097100   2.393540   3.613199
     8  F    3.662709   4.107309   5.435895   3.614845   4.707543
     9  C    1.394616   2.367529   3.616419   2.745532   4.084855
    10  F    2.371057   3.605018   4.754501   4.082224   5.421421
    11  S    1.856240   2.896314   3.216875   4.188438   5.268621
    12  O    2.597676   2.989984   2.654068   4.383911   5.169339
    13  O    2.543245   3.657337   4.100983   4.800821   5.929247
    14  N    2.729964   3.841790   4.262661   4.994835   6.119999
    15  H    3.002677   4.290405   4.939511   5.301291   6.531056
    16  F    4.162489   3.633583   4.667749   2.362177   2.716311
                    6          7          8          9         10
     6  C    0.000000
     7  C    1.388354   0.000000
     8  F    2.357520   1.339092   0.000000
     9  C    2.394440   1.386436   2.373413   0.000000
    10  F    3.591194   2.318446   2.678391   1.337778   0.000000
    11  S    4.678309   4.120762   5.159304   2.797508   2.983959
    12  O    5.244086   5.040883   6.233878   3.881393   4.356918
    13  O    5.093283   4.366397   5.225359   3.070811   2.937870
    14  N    5.288507   4.549177   5.388363   3.249007   3.049947
    15  H    5.339418   4.371785   4.992060   3.084543   2.478321
    16  F    1.337548   2.363640   2.723560   3.619524   4.682028
                   11         12         13         14         15
    11  S    0.000000
    12  O    1.469056   0.000000
    13  O    1.480991   2.521981   0.000000
    14  N    1.551352   2.509469   2.585825   0.000000
    15  H    2.093753   3.351369   2.618898   1.021246   0.000000
    16  F    6.015494   6.548804   6.382429   6.576685   6.581442
                   16
    16  F    0.000000
 Stoichiometry    C6HF5NO2S(1-)
 Framework group  C1[X(C6HF5NO2S)]
 Deg. of freedom    42
 Full point group                 C1      NOp   1
 Largest Abelian subgroup         C1      NOp   1
 Largest concise Abelian subgroup C1      NOp   1
                         Standard orientation:                         
 ---------------------------------------------------------------------
 Center     Atomic      Atomic             Coordinates (Angstroms)
 Number     Number       Type             X           Y           Z
 ---------------------------------------------------------------------
      1          6           0        0.492117    0.084080    0.011924
      2          6           0       -0.301072    1.227527   -0.002747
      3          9           0        0.207691    2.458441    0.002245
      4          6           0       -1.693869    1.154501   -0.013097
      5          9           0       -2.432172    2.271913   -0.022832
      6          6           0       -2.328200   -0.076049   -0.009754
      7          6           0       -1.564621   -1.235492    0.003196
      8          9           0       -2.172971   -2.428420    0.002712
      9          6           0       -0.181742   -1.136927    0.014805
     10          9           0        0.501673   -2.286957    0.009816
     11         16           0        2.348161    0.057075    0.012854
     12          8           0        2.677231    1.487458   -0.049146
     13          8           0        2.560760   -0.638143    1.303128
     14          7           0        2.768902   -0.701126   -1.273536
     15          1           0        2.642849   -1.697874   -1.090375
     16          9           0       -3.663703   -0.149177   -0.020646
 ---------------------------------------------------------------------
 Rotational constants (GHZ):           0.8484394           0.4368394           0.3062327
 Basis read from rwf:  (6D, 7F)
 There are   291 symmetry adapted cartesian basis functions of A   symmetry.
 There are   291 symmetry adapted basis functions of A   symmetry.
   291 basis functions,   508 primitive gaussians,   291 cartesian basis functions
    61 alpha electrons       61 beta electrons
       nuclear repulsion energy      1220.8613131621 Hartrees.
 NAtoms=   16 NActive=   16 NUniq=   16 SFac= 1.00D+00 NAtFMM=   60 NAOKFM=F Big=F
 Integral buffers will be    131072 words long.
 Raffenetti 2 integral format.
 Two-electron integral symmetry is turned on.
 One-electron integrals computed using PRISM.
 NBasis=   291 RedAO= T EigKep=  1.45D-06  NBF=   291
 NBsUse=   291 1.00D-06 EigRej= -1.00D+00 NBFU=   291
 Initial guess from the checkpoint file:  "/jobfs/40765797.gadi-pbs/Gau-843944.chk"
 B after Tr=    -0.000000   -0.000000   -0.000000
         Rot=    0.999999    0.001001    0.000119    0.001105 Ang=   0.17 deg.
 ExpMin= 4.05D-02 ExpMax= 2.19D+04 ExpMxC= 3.30D+03 IAcc=3 IRadAn=         5 AccDes= 0.00D+00
 Harris functional with IExCor= 1009 and IRadAn=       5 diagonalized for initial guess.
 HarFok:  IExCor= 1009 AccDes= 0.00D+00 IRadAn=         5 IDoV= 1 UseB2=F ITyADJ=14
 ICtDFT=  3500011 ScaDFX=  1.000000  1.000000  1.000000  1.000000
 FoFCou: FMM=F IPFlag=           0 FMFlag=      100000 FMFlg1=           0
         NFxFlg=           0 DoJE=T BraDBF=F KetDBF=T FulRan=T
         wScrn=  0.000000 ICntrl=       500 IOpCl=  0 I1Cent=   200000004 NGrid=           0
         NMat0=    1 NMatS0=      1 NMatT0=    0 NMatD0=    1 NMtDS0=    0 NMtDT0=    0
 Petite list used in FoFCou.
 Requested convergence on RMS density matrix=1.00D-08 within 128 cycles.
 Requested convergence on MAX density matrix=1.00D-06.
 Requested convergence on             energy=1.00D-06.
 No special actions if energy rises.
 SCF Done:  E(RM062X) =  -1331.44832689     A.U. after   13 cycles
            NFock= 13  Conv=0.97D-08     -V/T= 2.0063
 Calling FoFJK, ICntrl=      2127 FMM=F ISym2X=0 I1Cent= 0 IOpClX= 0 NMat=1 NMatS=1 NMatT=0.
 ***** Axes restored to original set *****
 -------------------------------------------------------------------
 Center     Atomic                   Forces (Hartrees/Bohr)
 Number     Number              X              Y              Z
 -------------------------------------------------------------------
      1        6           0.000100227    0.001609051   -0.007620454
      2        6           0.002216499   -0.000447163   -0.000342290
      3        9          -0.001009926    0.000130839   -0.000162317
      4        6           0.001465111   -0.000199797    0.000629215
      5        9          -0.001338470    0.000255980   -0.000975460
      6        6          -0.000288560   -0.000218821    0.001953714
      7        6          -0.001537732    0.000006754    0.000981303
      8        9           0.001459398   -0.000054845   -0.000863215
      9        6          -0.003013378    0.000592521   -0.000554504
     10        9           0.001165948   -0.000275563    0.000393522
     11       16          -0.003919960   -0.003538554    0.000331866
     12        8           0.007608086   -0.001328379    0.002309181
     13        8          -0.001610869    0.004282293    0.003199860
     14        7          -0.001298686    0.000451207    0.001147825
     15        1          -0.000093328   -0.001458701    0.001352388
     16        9           0.000095640    0.000193178   -0.001780633
 -------------------------------------------------------------------
 Cartesian Forces:  Max     0.007620454 RMS     0.002181253

 GradGradGradGradGradGradGradGradGradGradGradGradGradGradGradGradGradGrad
 Berny optimization.
 Using GEDIIS/GDIIS optimizer.
 FormGI is forming the generalized inverse of G from B-inverse, IUseBI=4.
 Internal  Forces:  Max     0.008479113 RMS     0.001923288
 Search for a local minimum.
 Step number   2 out of a maximum of   84
 All quantities printed in internal units (Hartrees-Bohrs-Radians)
 Mixed Optimization -- RFO/linear search
 Update second derivatives using D2CorX and points    1    2
 DE= -1.79D-03 DEPred=-2.21D-03 R= 8.11D-01
 TightC=F SS=  1.41D+00  RLast= 1.61D-01 DXNew= 5.0454D-01 4.8252D-01
 Trust test= 8.11D-01 RLast= 1.61D-01 DXMaxT set to 4.83D-01
 ITU=  1  0
 Use linear search instead of GDIIS.
     Eigenvalues ---    0.00230   0.01373   0.02209   0.02217   0.02246
     Eigenvalues ---    0.02250   0.02255   0.02279   0.02283   0.02293
     Eigenvalues ---    0.03158   0.11565   0.12614   0.15567   0.19097
     Eigenvalues ---    0.20947   0.24037   0.24910   0.24997   0.24999
     Eigenvalues ---    0.25000   0.25000   0.25000   0.25000   0.25000
     Eigenvalues ---    0.25000   0.28182   0.43465   0.43676   0.43913
     Eigenvalues ---    0.47203   0.47685   0.47799   0.48435   0.57040
     Eigenvalues ---    0.57430   0.58489   0.58521   0.59096   0.62308
     Eigenvalues ---    0.79161   0.83533
 RFO step:  Lambda=-8.78948199D-04 EMin= 2.29973545D-03
 Quartic linear search produced a step of -0.13122.
 Iteration  1 RMS(Cart)=  0.02303509 RMS(Int)=  0.00023116
 Iteration  2 RMS(Cart)=  0.00023018 RMS(Int)=  0.00004424
 Iteration  3 RMS(Cart)=  0.00000003 RMS(Int)=  0.00004424
 Variable       Old X    -DE/DX   Delta X   Delta X   Delta X     New X
                                 (Linear)    (Quad)   (Total)
    R1        2.62994  -0.00009  -0.00044   0.00104   0.00060   2.63054
    R2        2.63544  -0.00115  -0.00057  -0.00062  -0.00119   2.63425
    R3        3.50778   0.00848  -0.00554   0.04567   0.04013   3.54792
    R4        2.51696   0.00087   0.00084  -0.00094  -0.00010   2.51686
    R5        2.63569   0.00020  -0.00097   0.00299   0.00202   2.63771
    R6        2.53096   0.00167  -0.00118   0.00560   0.00442   2.53538
    R7        2.61619  -0.00076  -0.00018  -0.00086  -0.00104   2.61515
    R8        2.62361  -0.00054  -0.00028  -0.00026  -0.00053   2.62307
    R9        2.52760   0.00179  -0.00174   0.00724   0.00550   2.53309
   R10        2.53052   0.00170  -0.00131   0.00599   0.00467   2.53519
   R11        2.61998  -0.00014  -0.00082   0.00188   0.00106   2.62105
   R12        2.52803   0.00124   0.00045   0.00066   0.00111   2.52915
   R13        2.77611  -0.00691   0.00181  -0.01182  -0.01001   2.76610
   R14        2.79867  -0.00444   0.00141  -0.00848  -0.00706   2.79160
   R15        2.93163  -0.00068  -0.00034  -0.00005  -0.00039   2.93124
   R16        1.92987   0.00009   0.00036  -0.00080  -0.00043   1.92944
    A1        2.03082  -0.00103   0.00119  -0.00669  -0.00551   2.02532
    A2        2.19179   0.00122   0.00025   0.00353   0.00377   2.19556
    A3        2.06054  -0.00018  -0.00145   0.00322   0.00177   2.06231
    A4        2.14310   0.00042  -0.00047   0.00263   0.00217   2.14526
    A5        2.12493   0.00057  -0.00074   0.00407   0.00333   2.12825
    A6        2.01513  -0.00099   0.00121  -0.00671  -0.00550   2.00963
    A7        2.10232   0.00016  -0.00098   0.00310   0.00212   2.10444
    A8        2.09910  -0.00004  -0.00006   0.00013   0.00007   2.09917
    A9        2.08176  -0.00012   0.00104  -0.00324  -0.00219   2.07956
   A10        2.08325  -0.00038   0.00043  -0.00246  -0.00203   2.08122
   A11        2.10141   0.00021  -0.00026   0.00142   0.00116   2.10257
   A12        2.09852   0.00017  -0.00017   0.00105   0.00087   2.09939
   A13        2.08760  -0.00014   0.00100  -0.00306  -0.00206   2.08554
   A14        2.08207   0.00009  -0.00015   0.00055   0.00041   2.08247
   A15        2.11352   0.00005  -0.00085   0.00250   0.00166   2.11518
   A16        2.14620   0.00079  -0.00067   0.00441   0.00374   2.14994
   A17        2.10110  -0.00011  -0.00110   0.00264   0.00154   2.10264
   A18        2.03577  -0.00069   0.00178  -0.00704  -0.00526   2.03051
   A19        1.78216   0.00388   0.00489   0.00789   0.01276   1.79492
   A20        1.72218   0.00389   0.00614   0.00591   0.01210   1.73428
   A21        1.85238   0.00292   0.00617   0.00068   0.00693   1.85931
   A22        2.05069  -0.00136  -0.00631   0.00423  -0.00199   2.04869
   A23        1.96072  -0.00318  -0.00444  -0.00549  -0.00978   1.95095
   A24        2.04212  -0.00281  -0.00227  -0.00850  -0.01052   2.03160
   A25        1.87006  -0.00138   0.00307  -0.01563  -0.01255   1.85751
    D1        3.13326  -0.00003   0.00060  -0.00327  -0.00266   3.13060
    D2        0.00071  -0.00003   0.00008  -0.00194  -0.00186  -0.00115
    D3       -0.01818   0.00004  -0.00009   0.00296   0.00288  -0.01530
    D4        3.13246   0.00004  -0.00061   0.00429   0.00368   3.13614
    D5        0.00058   0.00001  -0.00031   0.00181   0.00150   0.00208
    D6        3.12532   0.00009   0.00076   0.00182   0.00257   3.12789
    D7       -3.13194  -0.00007   0.00032  -0.00394  -0.00361  -3.13555
    D8       -0.00720   0.00001   0.00138  -0.00393  -0.00254  -0.00974
    D9       -0.03068  -0.00066   0.00280  -0.02455  -0.02180  -0.05249
   D10        2.07575   0.00039  -0.00008  -0.01563  -0.01563   2.06012
   D11       -2.08712   0.00002   0.00283  -0.02218  -0.01939  -2.10652
   D12        3.10091  -0.00059   0.00212  -0.01828  -0.01620   3.08472
   D13       -1.07584   0.00046  -0.00076  -0.00935  -0.01002  -1.08586
   D14        1.04447   0.00009   0.00215  -0.01590  -0.01379   1.03069
   D15        3.13786   0.00000   0.00024  -0.00042  -0.00018   3.13768
   D16       -0.00068   0.00003   0.00012   0.00100   0.00112   0.00045
   D17        0.00469  -0.00000  -0.00024   0.00077   0.00053   0.00522
   D18       -3.13385   0.00002  -0.00036   0.00219   0.00183  -3.13201
   D19       -0.00066  -0.00001  -0.00011   0.00020   0.00010  -0.00056
   D20       -3.14074  -0.00002  -0.00016  -0.00029  -0.00045  -3.14119
   D21       -3.13923   0.00002  -0.00022   0.00160   0.00137  -3.13785
   D22        0.00388   0.00001  -0.00028   0.00110   0.00083   0.00470
   D23       -3.13835  -0.00002  -0.00018  -0.00034  -0.00052  -3.13887
   D24        0.00189  -0.00001  -0.00011  -0.00036  -0.00047   0.00143
   D25        0.00173  -0.00000  -0.00013   0.00016   0.00003   0.00176
   D26       -3.14121  -0.00000  -0.00006   0.00014   0.00008  -3.14113
   D27       -0.00190   0.00001   0.00033  -0.00070  -0.00037  -0.00227
   D28       -3.12722  -0.00007  -0.00069  -0.00079  -0.00146  -3.12868
   D29        3.13833   0.00001   0.00040  -0.00072  -0.00032   3.13800
   D30        0.01300  -0.00007  -0.00061  -0.00081  -0.00141   0.01159
   D31       -1.36113  -0.00133   0.00184  -0.03627  -0.03440  -1.39553
   D32        2.98835  -0.00602  -0.00514  -0.04338  -0.04862   2.93973
   D33        0.53921   0.00393   0.01229  -0.03270  -0.02034   0.51887
         Item               Value     Threshold  Converged?
 Maximum Force            0.008479     0.000450     NO 
 RMS     Force            0.001923     0.000300     NO 
 Maximum Displacement     0.088212     0.001800     NO 
 RMS     Displacement     0.023010     0.001200     NO 
 Predicted change in Energy=-4.865501D-04
 GradGradGradGradGradGradGradGradGradGradGradGradGradGradGradGradGradGrad

                          Input orientation:                          
 ---------------------------------------------------------------------
 Center     Atomic      Atomic             Coordinates (Angstroms)
 Number     Number       Type             X           Y           Z
 ---------------------------------------------------------------------
      1          6           0       -1.473021    0.619014   -0.804082
      2          6           0       -2.612645    0.835565   -1.573551
      3          9           0       -3.835824    0.906183   -1.051333
      4          6           0       -2.550322    0.983381   -2.960120
      5          9           0       -3.666897    1.186683   -3.675660
      6          6           0       -1.332949    0.916544   -3.614835
      7          6           0       -0.177015    0.701805   -2.876967
      8          9           0        1.006157    0.639283   -3.506247
      9          6           0       -0.267023    0.557225   -1.500464
     10          9           0        0.885337    0.368026   -0.846634
     11         16           0       -1.430380    0.414027    1.061683
     12          8           0       -2.829451    0.613584    1.442950
     13          8           0       -0.894125   -0.960205    1.140385
     14          7           0       -0.518049    1.542830    1.608959
     15          1           0        0.443748    1.229394    1.470473
     16          9           0       -1.268517    1.058420   -4.946203
 ---------------------------------------------------------------------
                    Distance matrix (angstroms):
                    1          2          3          4          5
     1  C    0.000000
     2  C    1.392020   0.000000
     3  F    2.392998   1.331865   0.000000
     4  C    2.437589   1.395818   2.302594   0.000000
     5  F    3.658046   2.377728   2.644675   1.341666   0.000000
     6  C    2.829925   2.410606   3.582741   1.383878   2.350317
     7  C    2.446087   2.765697   4.094092   2.391398   3.612795
     8  F    3.667210   4.107258   5.435312   3.614582   4.708055
     9  C    1.393986   2.363209   3.613839   2.743293   4.084952
    10  F    2.372058   3.603177   4.756141   4.080348   5.421847
    11  S    1.877476   2.918887   3.239324   4.213470   5.295415
    12  O    2.624706   3.032418   2.705522   4.427379   5.218230
    13  O    2.570993   3.680156   4.115899   4.830596   5.957489
    14  N    2.754664   3.875039   4.300012   5.031858   6.161921
    15  H    3.036472   4.331595   4.977821   5.353048   6.586494
    16  F    4.170380   3.637462   4.667360   2.364991   2.717160
                    6          7          8          9         10
     6  C    0.000000
     7  C    1.388071   0.000000
     8  F    2.357982   1.341565   0.000000
     9  C    2.394967   1.386999   2.377159   0.000000
    10  F    3.589512   2.315655   2.676139   1.338366   0.000000
    11  S    4.704448   4.143272   5.182030   2.817535   3.001056
    12  O    5.283227   5.069998   6.261557   3.902935   4.370600
    13  O    5.130971   4.406318   5.268834   3.109651   2.979752
    14  N    5.323938   4.576807   5.413402   3.271535   3.062612
    15  H    5.395820   4.423113   5.043042   3.127854   2.511163
    16  F    1.340456   2.366492   2.724572   3.623162   4.682115
                   11         12         13         14         15
    11  S    0.000000
    12  O    1.463758   0.000000
    13  O    1.477253   2.512736   0.000000
    14  N    1.551146   2.496725   2.574136   0.000000
    15  H    2.084295   3.330737   2.587123   1.021016   0.000000
    16  F    6.044513   6.592091   6.423517   6.615739   6.643403
                   16
    16  F    0.000000
 Stoichiometry    C6HF5NO2S(1-)
 Framework group  C1[X(C6HF5NO2S)]
 Deg. of freedom    42
 Full point group                 C1      NOp   1
 Largest Abelian subgroup         C1      NOp   1
 Largest concise Abelian subgroup C1      NOp   1
                         Standard orientation:                         
 ---------------------------------------------------------------------
 Center     Atomic      Atomic             Coordinates (Angstroms)
 Number     Number       Type             X           Y           Z
 ---------------------------------------------------------------------
      1          6           0        0.485584    0.086547    0.008572
      2          6           0       -0.312805    1.226783   -0.003963
      3          9           0        0.187852    2.460945    0.003193
      4          6           0       -1.706599    1.152236   -0.013435
      5          9           0       -2.449756    2.269253   -0.020913
      6          6           0       -2.339466   -0.078449   -0.010008
      7          6           0       -1.572543   -1.235351    0.002257
      8          9           0       -2.180884   -2.431059    0.002448
      9          6           0       -0.189354   -1.133142    0.012533
     10          9           0        0.491286   -2.285504    0.008615
     11         16           0        2.362871    0.060445    0.013787
     12          8           0        2.708211    1.480223   -0.073148
     13          8           0        2.590327   -0.616141    1.307144
     14          7           0        2.796982   -0.716342   -1.256726
     15          1           0        2.701008   -1.708462   -1.035458
     16          9           0       -3.677723   -0.154597   -0.019539
 ---------------------------------------------------------------------
 Rotational constants (GHZ):           0.8498157           0.4313585           0.3035225
 Basis read from rwf:  (6D, 7F)
 There are   291 symmetry adapted cartesian basis functions of A   symmetry.
 There are   291 symmetry adapted basis functions of A   symmetry.
   291 basis functions,   508 primitive gaussians,   291 cartesian basis functions
    61 alpha electrons       61 beta electrons
       nuclear repulsion energy      1217.7633835817 Hartrees.
 NAtoms=   16 NActive=   16 NUniq=   16 SFac= 1.00D+00 NAtFMM=   60 NAOKFM=F Big=F
 Integral buffers will be    131072 words long.
 Raffenetti 2 integral format.
 Two-electron integral symmetry is turned on.
 One-electron integrals computed using PRISM.
 NBasis=   291 RedAO= T EigKep=  1.45D-06  NBF=   291
 NBsUse=   291 1.00D-06 EigRej= -1.00D+00 NBFU=   291
 Initial guess from the checkpoint file:  "/jobfs/40765797.gadi-pbs/Gau-843944.chk"
 B after Tr=     0.000000    0.000000    0.000000
         Rot=    0.999999    0.001326    0.000015   -0.000567 Ang=   0.17 deg.
 ExpMin= 4.05D-02 ExpMax= 2.19D+04 ExpMxC= 3.30D+03 IAcc=3 IRadAn=         5 AccDes= 0.00D+00
 Harris functional with IExCor= 1009 and IRadAn=       5 diagonalized for initial guess.
 HarFok:  IExCor= 1009 AccDes= 0.00D+00 IRadAn=         5 IDoV= 1 UseB2=F ITyADJ=14
 ICtDFT=  3500011 ScaDFX=  1.000000  1.000000  1.000000  1.000000
 FoFCou: FMM=F IPFlag=           0 FMFlag=      100000 FMFlg1=           0
         NFxFlg=           0 DoJE=T BraDBF=F KetDBF=T FulRan=T
         wScrn=  0.000000 ICntrl=       500 IOpCl=  0 I1Cent=   200000004 NGrid=           0
         NMat0=    1 NMatS0=      1 NMatT0=    0 NMatD0=    1 NMtDS0=    0 NMtDT0=    0
 Petite list used in FoFCou.
 Requested convergence on RMS density matrix=1.00D-08 within 128 cycles.
 Requested convergence on MAX density matrix=1.00D-06.
 Requested convergence on             energy=1.00D-06.
 No special actions if energy rises.
 SCF Done:  E(RM062X) =  -1331.44881271     A.U. after   15 cycles
            NFock= 15  Conv=0.16D-08     -V/T= 2.0063
 Calling FoFJK, ICntrl=      2127 FMM=F ISym2X=0 I1Cent= 0 IOpClX= 0 NMat=1 NMatS=1 NMatT=0.
 ***** Axes restored to original set *****
 -------------------------------------------------------------------
 Center     Atomic                   Forces (Hartrees/Bohr)
 Number     Number              X              Y              Z
 -------------------------------------------------------------------
      1        6          -0.000870991    0.000469052   -0.003452354
      2        6           0.001883357   -0.000289358   -0.001308252
      3        9          -0.001095461   -0.000054728    0.001617434
      4        6           0.000187194    0.000046729   -0.000073759
      5        9           0.000130019   -0.000055216    0.000542208
      6        6           0.000204115   -0.000054144   -0.000250675
      7        6          -0.000261956    0.000110944   -0.000436548
      8        9          -0.000343678   -0.000019065    0.000573067
      9        6          -0.001189944    0.000423623   -0.000103028
     10        9           0.000711227   -0.000368366    0.000906041
     11       16          -0.000021151   -0.000348167    0.002402319
     12        8           0.000663581   -0.000867111   -0.001078193
     13        8          -0.000743883    0.000899020   -0.000278203
     14        7           0.000062280    0.000462059   -0.000980301
     15        1           0.000755202   -0.000251358    0.000856445
     16        9          -0.000069911   -0.000103915    0.001063800
 -------------------------------------------------------------------
 Cartesian Forces:  Max     0.003452354 RMS     0.000909315

 GradGradGradGradGradGradGradGradGradGradGradGradGradGradGradGradGradGrad
 Berny optimization.
 Using GEDIIS/GDIIS optimizer.
 FormGI is forming the generalized inverse of G from B-inverse, IUseBI=4.
 Internal  Forces:  Max     0.001779729 RMS     0.000654226
 Search for a local minimum.
 Step number   3 out of a maximum of   84
 All quantities printed in internal units (Hartrees-Bohrs-Radians)
 Mixed Optimization -- En-DIIS/RFO-DIIS
 Update second derivatives using D2CorX and points    1    2    3
 DE= -4.86D-04 DEPred=-4.87D-04 R= 9.98D-01
 TightC=F SS=  1.41D+00  RLast= 9.17D-02 DXNew= 8.1151D-01 2.7512D-01
 Trust test= 9.98D-01 RLast= 9.17D-02 DXMaxT set to 4.83D-01
 ITU=  1  1  0
 Use linear search instead of GDIIS.
     Eigenvalues ---    0.00230   0.01369   0.02210   0.02217   0.02245
     Eigenvalues ---    0.02249   0.02255   0.02279   0.02283   0.02293
     Eigenvalues ---    0.02688   0.11461   0.13074   0.15527   0.17261
     Eigenvalues ---    0.21091   0.24296   0.24977   0.24998   0.25000
     Eigenvalues ---    0.25000   0.25000   0.25000   0.25000   0.25000
     Eigenvalues ---    0.25819   0.31562   0.43435   0.43883   0.44471
     Eigenvalues ---    0.47201   0.47652   0.48047   0.48648   0.57055
     Eigenvalues ---    0.57866   0.58512   0.58913   0.60360   0.62603
     Eigenvalues ---    0.76894   0.83338
 RFO step:  Lambda=-1.37100896D-04 EMin= 2.30118846D-03
 Quartic linear search produced a step of  0.01721.
 Iteration  1 RMS(Cart)=  0.00887742 RMS(Int)=  0.00009026
 Iteration  2 RMS(Cart)=  0.00008821 RMS(Int)=  0.00000345
 Iteration  3 RMS(Cart)=  0.00000000 RMS(Int)=  0.00000345
 Variable       Old X    -DE/DX   Delta X   Delta X   Delta X     New X
                                 (Linear)    (Quad)   (Total)
    R1        2.63054  -0.00178   0.00001  -0.00384  -0.00383   2.62671
    R2        2.63425  -0.00161  -0.00002  -0.00372  -0.00374   2.63051
    R3        3.54792   0.00095   0.00069   0.01150   0.01219   3.56011
    R4        2.51686   0.00164  -0.00000   0.00269   0.00269   2.51955
    R5        2.63771  -0.00089   0.00003  -0.00144  -0.00141   2.63630
    R6        2.53538  -0.00041   0.00008   0.00022   0.00030   2.53568
    R7        2.61515  -0.00007  -0.00002  -0.00013  -0.00015   2.61500
    R8        2.62307  -0.00019  -0.00001  -0.00028  -0.00029   2.62279
    R9        2.53309  -0.00107   0.00009  -0.00063  -0.00053   2.53256
   R10        2.53519  -0.00057   0.00008   0.00001   0.00009   2.53528
   R11        2.62105  -0.00054   0.00002  -0.00079  -0.00077   2.62028
   R12        2.52915   0.00111   0.00002   0.00206   0.00208   2.53123
   R13        2.76610  -0.00103  -0.00017  -0.00318  -0.00336   2.76275
   R14        2.79160  -0.00113  -0.00012  -0.00282  -0.00294   2.78866
   R15        2.93124   0.00059  -0.00001   0.00099   0.00098   2.93222
   R16        1.92944   0.00067  -0.00001   0.00142   0.00141   1.93085
    A1        2.02532   0.00110  -0.00009   0.00282   0.00273   2.02804
    A2        2.19556  -0.00085   0.00006  -0.00267  -0.00261   2.19295
    A3        2.06231  -0.00025   0.00003  -0.00015  -0.00012   2.06219
    A4        2.14526  -0.00128   0.00004  -0.00465  -0.00462   2.14064
    A5        2.12825  -0.00011   0.00006  -0.00013  -0.00007   2.12818
    A6        2.00963   0.00139  -0.00009   0.00480   0.00471   2.01434
    A7        2.10444  -0.00028   0.00004  -0.00072  -0.00068   2.10376
    A8        2.09917  -0.00041   0.00000  -0.00142  -0.00142   2.09775
    A9        2.07956   0.00068  -0.00004   0.00214   0.00210   2.08166
   A10        2.08122   0.00010  -0.00003   0.00057   0.00053   2.08176
   A11        2.10257  -0.00006   0.00002  -0.00032  -0.00030   2.10228
   A12        2.09939  -0.00003   0.00002  -0.00025  -0.00024   2.09915
   A13        2.08554   0.00053  -0.00004   0.00148   0.00144   2.08698
   A14        2.08247  -0.00017   0.00001  -0.00025  -0.00024   2.08223
   A15        2.11518  -0.00036   0.00003  -0.00123  -0.00120   2.11397
   A16        2.14994  -0.00051   0.00006  -0.00159  -0.00153   2.14841
   A17        2.10264  -0.00031   0.00003  -0.00067  -0.00065   2.10199
   A18        2.03051   0.00082  -0.00009   0.00232   0.00223   2.03274
   A19        1.79492  -0.00166   0.00022  -0.00801  -0.00779   1.78713
   A20        1.73428   0.00002   0.00021   0.00017   0.00038   1.73465
   A21        1.85931   0.00049   0.00012   0.00191   0.00203   1.86134
   A22        2.04869  -0.00038  -0.00003  -0.00243  -0.00249   2.04621
   A23        1.95095   0.00106  -0.00017   0.00553   0.00537   1.95631
   A24        2.03160   0.00012  -0.00018   0.00095   0.00076   2.03236
   A25        1.85751   0.00075  -0.00022   0.00222   0.00201   1.85951
    D1        3.13060   0.00002  -0.00005  -0.00012  -0.00017   3.13043
    D2       -0.00115  -0.00004  -0.00003  -0.00243  -0.00246  -0.00361
    D3       -0.01530   0.00001   0.00005   0.00089   0.00093  -0.01437
    D4        3.13614  -0.00005   0.00006  -0.00142  -0.00136   3.13478
    D5        0.00208   0.00002   0.00003   0.00136   0.00138   0.00346
    D6        3.12789   0.00013   0.00004   0.00619   0.00623   3.13412
    D7       -3.13555   0.00002  -0.00006   0.00044   0.00037  -3.13518
    D8       -0.00974   0.00014  -0.00004   0.00527   0.00522  -0.00452
    D9       -0.05249   0.00052  -0.00038  -0.00459  -0.00497  -0.05746
   D10        2.06012  -0.00044  -0.00027  -0.00979  -0.01005   2.05007
   D11       -2.10652  -0.00011  -0.00033  -0.00795  -0.00828  -2.11480
   D12        3.08472   0.00052  -0.00028  -0.00356  -0.00385   3.08087
   D13       -1.08586  -0.00043  -0.00017  -0.00876  -0.00893  -1.09479
   D14        1.03069  -0.00011  -0.00024  -0.00692  -0.00715   1.02353
   D15        3.13768   0.00004  -0.00000   0.00165   0.00165   3.13932
   D16        0.00045   0.00004   0.00002   0.00208   0.00210   0.00254
   D17        0.00522  -0.00001   0.00001  -0.00044  -0.00044   0.00478
   D18       -3.13201  -0.00000   0.00003  -0.00001   0.00001  -3.13200
   D19       -0.00056  -0.00001   0.00000  -0.00051  -0.00051  -0.00107
   D20       -3.14119  -0.00001  -0.00001  -0.00069  -0.00070   3.14130
   D21       -3.13785  -0.00001   0.00002  -0.00008  -0.00006  -3.13791
   D22        0.00470  -0.00001   0.00001  -0.00026  -0.00024   0.00446
   D23       -3.13887  -0.00003  -0.00001  -0.00132  -0.00133  -3.14020
   D24        0.00143  -0.00001  -0.00001  -0.00054  -0.00055   0.00088
   D25        0.00176  -0.00002   0.00000  -0.00115  -0.00115   0.00061
   D26       -3.14113  -0.00001   0.00000  -0.00036  -0.00036  -3.14149
   D27       -0.00227   0.00000  -0.00001   0.00010   0.00009  -0.00218
   D28       -3.12868  -0.00009  -0.00003  -0.00452  -0.00455  -3.13324
   D29        3.13800   0.00002  -0.00001   0.00090   0.00089   3.13890
   D30        0.01159  -0.00008  -0.00002  -0.00372  -0.00375   0.00784
   D31       -1.39553  -0.00107  -0.00059  -0.02538  -0.02597  -1.42150
   D32        2.93973   0.00012  -0.00084  -0.01964  -0.02047   2.91926
   D33        0.51887  -0.00067  -0.00035  -0.02349  -0.02384   0.49503
         Item               Value     Threshold  Converged?
 Maximum Force            0.001780     0.000450     NO 
 RMS     Force            0.000654     0.000300     NO 
 Maximum Displacement     0.051215     0.001800     NO 
 RMS     Displacement     0.008869     0.001200     NO 
 Predicted change in Energy=-6.863455D-05
 GradGradGradGradGradGradGradGradGradGradGradGradGradGradGradGradGradGrad

                          Input orientation:                          
 ---------------------------------------------------------------------
 Center     Atomic      Atomic             Coordinates (Angstroms)
 Number     Number       Type             X           Y           Z
 ---------------------------------------------------------------------
      1          6           0       -1.471412    0.621549   -0.809894
      2          6           0       -2.611479    0.832817   -1.576507
      3          9           0       -3.832826    0.899783   -1.045960
      4          6           0       -2.551841    0.980817   -2.962424
      5          9           0       -3.670749    1.181119   -3.675456
      6          6           0       -1.334571    0.916512   -3.617424
      7          6           0       -0.177645    0.704931   -2.880487
      8          9           0        1.005918    0.643148   -3.509204
      9          6           0       -0.266409    0.561502   -1.504193
     10          9           0        0.885693    0.369647   -0.848429
     11         16           0       -1.429517    0.418633    1.062607
     12          8           0       -2.829383    0.622374    1.431740
     13          8           0       -0.902972   -0.957527    1.143891
     14          7           0       -0.511821    1.543172    1.611161
     15          1           0        0.449332    1.215631    1.497574
     16          9           0       -1.271295    1.057653   -4.948642
 ---------------------------------------------------------------------
                    Distance matrix (angstroms):
                    1          2          3          4          5
     1  C    0.000000
     2  C    1.389994   0.000000
     3  F    2.389439   1.333287   0.000000
     4  C    2.435116   1.395072   2.306583   0.000000
     5  F    3.655359   2.376753   2.649465   1.341824   0.000000
     6  C    2.826296   2.408908   3.585245   1.383801   2.351832
     7  C    2.442978   2.764103   4.094362   2.391575   3.613933
     8  F    3.663865   4.105710   5.435704   3.615334   4.710443
     9  C    1.392008   2.361820   3.611612   2.743258   4.085075
    10  F    2.370840   3.602060   4.752313   4.081562   5.423259
    11  S    1.883929   2.921216   3.233180   4.216223   5.296578
    12  O    2.620880   3.023462   2.687537   4.417488   5.206107
    13  O    2.575632   3.677621   4.102328   4.830919   5.954872
    14  N    2.762555   3.882576   4.301547   5.039405   6.169134
    15  H    3.060490   4.354892   4.990611   5.380870   6.613357
    16  F    4.166470   3.635648   4.670898   2.364479   2.719123
                    6          7          8          9         10
     6  C    0.000000
     7  C    1.387919   0.000000
     8  F    2.358883   1.341613   0.000000
     9  C    2.394316   1.386592   2.376038   0.000000
    10  F    3.591095   2.317836   2.677496   1.339468   0.000000
    11  S    4.707397   4.146944   5.184902   2.821647   3.002442
    12  O    5.273996   5.062987   6.254830   3.897723   4.366329
    13  O    5.135019   4.414237   5.278004   3.118495   2.988319
    14  N    5.329888   4.581399   5.415876   3.275565   3.062644
    15  H    5.425401   4.452116   5.070045   3.154485   2.531764
    16  F    1.340174   2.365956   2.725710   3.622181   4.683770
                   11         12         13         14         15
    11  S    0.000000
    12  O    1.461982   0.000000
    13  O    1.475695   2.507988   0.000000
    14  N    1.551665   2.500230   2.573875   0.000000
    15  H    2.086738   3.332605   2.583880   1.021763   0.000000
    16  F    6.047189   6.582278   6.427720   6.621446   6.673771
                   16
    16  F    0.000000
 Stoichiometry    C6HF5NO2S(1-)
 Framework group  C1[X(C6HF5NO2S)]
 Deg. of freedom    42
 Full point group                 C1      NOp   1
 Largest Abelian subgroup         C1      NOp   1
 Largest concise Abelian subgroup C1      NOp   1
                         Standard orientation:                         
 ---------------------------------------------------------------------
 Center     Atomic      Atomic             Coordinates (Angstroms)
 Number     Number       Type             X           Y           Z
 ---------------------------------------------------------------------
      1          6           0        0.480807    0.084860    0.007576
      2          6           0       -0.314573    1.224746   -0.003123
      3          9           0        0.194338    2.457063    0.004521
      4          6           0       -1.707728    1.152404   -0.013755
      5          9           0       -2.448474    2.271211   -0.021320
      6          6           0       -2.340726   -0.078129   -0.010851
      7          6           0       -1.574665   -1.235419    0.001429
      8          9           0       -2.182112   -2.431634    0.002685
      9          6           0       -0.191837   -1.133836    0.011585
     10          9           0        0.491397   -2.285949    0.013177
     11         16           0        2.364573    0.060508    0.012002
     12          8           0        2.697003    1.481196   -0.080359
     13          8           0        2.593682   -0.603802    1.309645
     14          7           0        2.801947   -0.724517   -1.252949
     15          1           0        2.732322   -1.716519   -1.018246
     16          9           0       -3.678733   -0.153679   -0.020686
 ---------------------------------------------------------------------
 Rotational constants (GHZ):           0.8500920           0.4312034           0.3034648
 Basis read from rwf:  (6D, 7F)
 There are   291 symmetry adapted cartesian basis functions of A   symmetry.
 There are   291 symmetry adapted basis functions of A   symmetry.
[...]

 Dipole orientation:
     6         -2.98102562         -1.08496743          1.18956483
     6         -5.32394537         -1.40036954          2.33495475
     9         -7.46568355         -1.59922969          1.02128670
     6         -5.58883042         -1.51289912          4.95463313
     9         -7.87488192         -1.81458558          6.00675308
     6         -3.48779949         -1.30375225          6.49842935
     6         -1.12213243         -0.98360796          5.41264574
     9          0.92008287         -0.78194357          6.89941957
     6         -0.91386670         -0.87755989          2.80256899
     9          1.41915705         -0.58377140          1.86589610
    16         -2.38460338         -0.93388753         -2.31588390
     8         -4.90457056         -1.37582654         -3.36305110
     8         -1.35957360          1.65428301         -2.49872724
     7         -0.52983470         -3.11653166         -2.93782026
     1          1.24388179         -2.45650514         -2.55821688
     9         -3.73175531         -1.41061111          9.01567601

 Electric dipole moment (dipole orientation):
 (Debye = 10**-18 statcoulomb cm , SI units = C m)
                  (au)            (Debye)         (10**-30 SI)
   Tot        0.352558D+01      0.896112D+01      0.298911D+02
   x          0.000000D+00      0.000000D+00      0.000000D+00
   y          0.000000D+00      0.000000D+00      0.000000D+00
   z          0.352558D+01      0.896112D+01      0.298911D+02

 Dipole polarizability, Alpha (dipole orientation).
 (esu units = cm**3 , SI units = C**2 m**2 J**-1)
 Alpha(0;0):
               (au)            (10**-24 esu)      (10**-40 SI)
   iso        0.108905D+03      0.161381D+02      0.179561D+02
   aniso      0.589257D+02      0.873189D+01      0.971554D+01
   xx         0.113448D+03      0.168112D+02      0.187050D+02
   yx         0.249371D+01      0.369530D+00      0.411158D+00
   yy         0.738329D+02      0.109409D+02      0.121734D+02
   zx        -0.767960D+01     -0.113800D+01     -0.126619D+01
   zy         0.903605D+00      0.133900D+00      0.148984D+00
   zz         0.139436D+03      0.206622D+02      0.229898D+02

 ----------------------------------------------------------------------
 Unable to Open any file for archive entry.
 1\1\GINC-GADI-CPU-CLX-2326\Freq\RM062X\Gen\C6H1F5N1O2S1(1-)\YJ5695\20-
 May-2022\0\\#N Geom=AllCheck Guess=TCheck SCRF=Check GenChk RM062X/Chk
 Bas Freq\\A.8.a3b2.freq\\-1,1\C,-1.4731750396,0.6205596391,-0.81180880
 9\C,-2.6136705645,0.8316616366,-1.5780269035\F,-3.8357163993,0.8974290
 581,-1.0478316354\C,-2.5532431366,0.9804743012,-2.9633619237\F,-3.6710
 248654,1.1810344481,-3.6769749733\C,-1.3349713517,0.9171696749,-3.6172
 640086\C,-0.1780148135,0.7055267041,-2.8806238525\F,1.0050981216,0.644
 3861144,-3.5089510597\C,-0.2673769468,0.560600888,-1.5043968458\F,0.88
 37713255,0.3680070005,-0.8472706052\S,-1.4273191855,0.4205720333,1.060
 3406991\O,-2.8277407422,0.6246606854,1.4307112185\O,-0.8981172308,-0.9
 54911811,1.1462470224\N,-0.5087306552,1.5475819372,1.600472893\H,0.450
 6218484,1.2075410231,1.5147622796\F,-1.2713673645,1.059466667,-4.94766
 9496\\Version=ES64L-G16RevC.01\State=1-A\HF=-1331.4489091\RMSD=2.170e-
 09\RMSF=1.952e-05\ZeroPoint=0.074764\Thermal=0.087794\ETot=-1331.36111
 51\HTot=-1331.3601709\GTot=-1331.4145466\Dipole=0.5071529,0.2256785,-3
 .4816012\DipoleDeriv=-0.4455978,-0.0147509,-0.0731032,-0.0337381,-0.26
 19122,-0.0530601,-0.0289978,0.015996,-0.7258828,1.1413525,-0.0682478,-
 0.0269653,-0.0352886,0.1442095,0.0124265,-0.5095138,0.0224833,0.193345
 7,-1.038864,0.0592714,0.2044425,0.0484457,-0.1240707,-0.0213407,0.3233
 348,-0.0141032,-0.2589746,0.8273717,-0.1427191,0.5324881,-0.1506854,0.
 0859088,-0.0878632,0.6325713,-0.1041616,0.4935091,-0.9198513,0.1450172
 ,-0.5847096,0.1442774,-0.1322801,0.1186781,-0.5065899,0.1011942,-0.621
 9361,0.1860849,-0.0113991,-0.0666923,-0.0139105,0.0706025,-0.1473844,-
 0.0473763,-0.1286013,1.3227758,0.9215145,-0.0456006,-0.5173886,-0.0359
 441,0.054259,0.0272625,-0.5553908,0.0328245,0.4258138,-0.9878025,0.045
 6164,0.5771247,0.0474746,-0.1077422,-0.0176126,0.4522027,-0.0099564,-0
 .5393362,0.9261306,-0.1243859,0.1370141,-0.1267977,0.147424,-0.0385296
 ,0.4763307,-0.0877561,0.2840843,-0.8837261,0.1274554,-0.2839363,0.1165
 515,-0.1322561,0.0397406,-0.359766,0.0724129,-0.3672091,2.089522,0.140
 035,0.0577194,0.1152797,2.1675234,0.0362737,0.0887026,0.0938715,2.8714
 487,-1.1829209,-0.0098771,0.4654503,0.073646,-0.6103877,-0.054113,0.18
 61917,-0.0230078,-0.9250339,-0.6772029,0.2146146,-0.1528896,0.138301,-
 1.4241409,0.3634119,-0.0607239,0.0276087,-0.8996404,-0.8390406,-0.3887
 683,-0.3840188,-0.4059795,-0.9180465,-0.2969227,-0.2064748,-0.0810753,
 -1.1238493,0.0654152,0.0696134,0.0555774,0.1099907,0.1526412,-0.025344
 9,0.0741187,-0.0422664,0.2636876,-0.182385,0.0041254,0.0598874,0.00837
 71,-0.1117321,0.1443777,0.0413808,0.1245369,-1.3928026\Polar=111.82242
 11,-2.6510615,74.0147372,3.4972405,-3.749665,140.8791428\Quadrupole=6.
 1926395,10.1455149,-16.3381544,1.289145,2.8952932,1.5559208\PG=C01 [X(
 C6H1F5N1O2S1)]\NImag=0\\0.67490316,-0.06282331,0.14697727,0.00650658,-
 0.04215500,0.49531039,-0.25041606,0.03539358,-0.11604488,0.72131762,0.
 02999173,-0.06017405,0.02911110,-0.06149536,0.14669112,-0.06933497,0.0
 2386276,-0.20271288,-0.01334867,-0.06072378,0.67941041,-0.04808553,0.0
 0395758,0.00947737,-0.31503009,0.01554736,0.12006507,0.38824518,0.0072
 0899,0.00366721,-0.00301922,0.01598080,-0.03867035,-0.00271507,-0.0213
 2177,0.02269940,-0.01363107,-0.00027369,0.02029956,0.11507689,-0.00233
 529,-0.12285017,-0.14980348,0.00170289,0.14747230,0.04350565,-0.001818
 59,-0.02494367,-0.10272852,0.00971400,-0.04602621,-0.03428622,-0.00186
 682,0.05650498,0.76136998,0.00482208,-0.00044562,0.00449405,-0.0020722
 3,-0.06161505,0.03430043,0.00244889,0.00838111,-0.00156613,-0.06999507
 ,0.12878930,-0.08608237,0.01175066,-0.01659511,0.06333711,0.02220923,-
 0.31920359,0.01669407,0.00255018,-0.02892621,-0.00940542,-0.06652227,0
 .71962034,0.00017804,0.00064402,-0.00097469,-0.01947953,0.00335875,-0.
 00682483,0.01236535,-0.00186344,0.00044449,-0.28386429,0.04226277,-0.1
 3245485,0.33716969,0.00003773,0.00524507,0.00184581,0.00798583,0.00408
 072,0.00390714,-0.00173382,-0.00420304,-0.00113878,0.04198277,-0.03891
 937,0.02800380,-0.05336930,0.03024313,0.00528541,0.00094571,-0.0090045
 1,-0.04879996,0.00853077,-0.02399747,0.00000599,-0.00110090,0.00483103
 ,-0.13190866,0.02776139,-0.15240543,0.17007676,-0.03489513,0.16873438,
 -0.08378597,0.01028791,-0.00098284,0.04340675,-0.01654640,0.10426549,-
 0.00082403,0.00148862,-0.00835110,-0.30610983,0.02297573,0.04624801,-0
 .04726603,0.00518991,0.00757973,0.74486124,0.01048717,0.00591535,0.000
 47344,-0.00826644,-0.00178985,-0.01026486,0.00101099,0.00508499,0.0019
 6262,0.01067573,-0.05402190,0.00754806,0.00992192,0.00401713,-0.000589
 97,-0.06892877,0.13199975,-0.00266231,0.00093202,0.00270720,0.02805742
 ,-0.00156574,-0.01724845,-0.00346359,0.00138380,-0.00337790,0.16052766
 ,-0.00521582,-0.16658311,-0.03887651,0.00452846,0.00259678,-0.01240082
 ,-0.07075119,0.76176843,0.03445692,-0.00673698,0.02631617,-0.01994000,
 0.00712914,-0.03546840,0.00317230,-0.00060243,0.00027103,-0.05568510,0
 .00267279,0.02814282,0.00144429,0.00024904,0.00122102,-0.28167934,0.04
 378734,-0.16159695,0.75523778,-0.01387057,0.00354529,-0.00146777,0.006
 80739,0.00758175,0.01369972,-0.00075078,-0.00224429,-0.00067482,0.0104
 6457,-0.00444612,-0.01363316,0.00006433,0.00567895,0.00139091,0.030729
 67,-0.05851921,0.03225480,-0.06971287,0.12841243,0.08990495,-0.0082379
 4,-0.01169906,-0.03173505,0.01284547,-0.07534605,0.00169282,-0.0007589
 4,0.00298198,-0.04099684,-0.00563693,0.08763651,0.00332238,0.00102662,
 -0.00800566,-0.04777037,0.01964220,-0.17767257,-0.01348596,-0.06831484
 ,0.73521509,0.00092814,0.00061158,0.00198814,0.00215226,-0.00029356,-0
 .00174444,-0.00569612,0.00035371,0.00249259,0.00163140,0.00068613,-0.0
 0246621,-0.00393474,0.00054881,-0.00016957,-0.04862455,0.00197021,0.03
 488410,-0.30864095,0.01688122,0.12554620,0.36839458,0.00124880,0.00576
 657,0.00128176,-0.00051733,-0.00250870,-0.00058255,0.00030825,0.000207
 46,-0.00010583,0.00039919,0.00537201,0.00192145,0.00056503,0.00078929,
 -0.00007106,0.00723765,0.00419288,-0.00395220,0.01693637,-0.03239170,-
 0.00219900,-0.02068600,0.02216589,-0.00523312,0.00209030,-0.00873221,-
 0.00043793,-0.00071711,0.00369011,0.00298166,-0.00017551,-0.00101320,-
 0.00011482,0.00156667,-0.00817767,-0.00024519,-0.00002201,0.00149616,-
 0.01138710,0.00119925,0.00484835,0.12483005,-0.00201076,-0.13571765,-0
 .16074704,0.00382018,0.14541601,-0.26329745,0.00940669,0.11470362,-0.0
 5660516,0.00918595,-0.03550608,0.00310558,0.00060442,-0.00152977,-0.02
 825994,0.00001915,0.03789687,0.00153797,-0.00043023,-0.00027368,0.0562
 2963,-0.00396458,-0.02275270,-0.10597254,0.00959974,-0.03805706,-0.024
 58373,-0.00240466,0.05024144,0.69798964,0.01534286,-0.06183638,0.00109
 179,0.00339987,-0.00774377,-0.00619296,0.00087425,0.00740090,0.0017657
 3,-0.00035868,0.00970411,0.00471997,-0.00065634,-0.00282678,-0.0007028
 4,0.00475537,-0.00394362,0.00522470,-0.00282848,-0.06106677,0.03563571
 ,0.00241023,0.00539957,-0.00290726,-0.06084870,0.14887737,0.06548445,0
 .00510249,-0.18342948,0.02084310,-0.01210384,0.08370453,-0.00571421,0.
 00224268,-0.00657419,0.04034765,0.00438025,-0.06921830,0.00209902,-0.0
 0101860,0.00410830,-0.09811207,0.01371761,-0.02740344,0.07284814,0.023
 89193,-0.33960183,0.00669865,0.00206116,-0.01870099,-0.00105640,-0.062
 39089,0.71811674,-0.04985675,0.00818749,-0.01533352,0.00084208,-0.0001
 6395,0.00670221,-0.00321057,0.00052567,-0.00088449,0.00336667,-0.00045
 367,-0.00132174,-0.00501510,0.00086076,-0.00310976,-0.00156533,0.00040
 493,0.00383271,-0.02484101,0.00511354,-0.01404253,0.01200727,-0.001724
 68,-0.00032172,-0.27565544,0.03897748,-0.12749063,0.34270016,0.0050699
 9,0.00379235,-0.00001634,0.00053823,0.00717719,0.00060756,0.00027961,-
 0.00009162,-0.00000088,-0.00061683,-0.00262322,-0.00047700,0.00083805,
 0.00030406,0.00050690,-0.00024179,0.00547714,0.00051250,0.00939225,0.0
 0576782,0.00616366,-0.00182028,-0.00449813,-0.00112586,0.03909275,-0.0
 4469474,0.02493990,-0.05228633,0.03330492,0.00674822,-0.00207102,0.019
 41967,0.00263132,0.00096169,-0.00523109,0.00027078,-0.00015622,0.00125
 052,0.00018129,-0.00056452,0.00227060,-0.00314332,0.00058229,-0.001556
 79,0.00818788,-0.00006741,-0.00227259,-0.05532442,0.01024242,-0.032975
 84,0.00067139,-0.00113476,0.00503188,-0.12277609,0.02455972,-0.1462519
 3,0.16129637,-0.03245294,0.16997829,-0.06890337,-0.00046988,0.00355745
 ,0.02053801,0.00239148,-0.02862224,-0.00900605,-0.00103889,0.01041851,
 -0.00136196,0.00089198,-0.00104362,-0.00175959,0.00031845,-0.00159243,
 -0.00251115,0.00025210,-0.00090918,-0.00271563,0.00038269,0.00264386,-
 0.00277510,-0.00004700,0.00274643,0.02088430,-0.00459526,0.02963032,-0
 .00820781,0.00079869,-0.00803916,0.94931386,0.00168563,-0.04925294,0.0
 0432413,0.00181599,0.00420993,0.00263677,-0.00106959,-0.00443470,-0.00
 084913,0.00063035,0.00501903,0.00140658,-0.00053004,-0.00000414,-0.000
 65509,-0.00005617,-0.00179765,0.00045004,0.00062278,0.00360696,0.00066
 343,0.00099735,-0.00002676,-0.00090859,-0.00431403,0.00588278,-0.00351
 599,0.00092581,-0.00646698,0.00124101,-0.07795079,0.81747431,-0.000110
 03,-0.00188564,-0.07022274,-0.03771442,0.00492306,0.00251549,0.0163726
 6,-0.00177570,-0.00865142,-0.00074513,0.00174821,-0.00456629,0.0069226
 0,-0.00173528,0.00759500,-0.00084363,0.00065455,-0.00760196,0.00303370
 ,0.00057288,-0.00209514,-0.00799568,0.00010475,0.00694202,0.03885709,-
 0.00432713,-0.00347725,-0.01741948,0.00168319,-0.01102088,-0.04847157,
 0.06746082,0.36829184,-0.00707919,0.00115172,0.00569392,-0.01506975,0.
 00046398,0.00767450,0.00740055,0.00035973,-0.01054785,-0.00027938,0.00
 011407,-0.00130783,0.00210409,-0.00040892,0.00157581,0.00010001,0.0000
 9005,-0.00114937,-0.00049701,0.00029682,-0.00171783,-0.00042067,-0.000
 10842,0.00106210,0.00093475,-0.00022842,0.00270032,0.00089989,-0.00012
 654,0.00149818,-0.51471518,0.06810723,0.11028090,0.57117544,-0.0013926
 5,0.00761216,0.00052092,0.00209456,-0.00115229,-0.00182184,-0.00067207
 ,0.00159607,0.00223744,-0.00010853,-0.00063822,-0.00004164,-0.00019102
 ,0.00009808,-0.00011956,-0.00004026,0.00022150,0.00002972,-0.00003361,
 -0.00052428,0.00019670,-0.00013069,-0.00009952,0.00002118,0.00045653,0
 .00043536,0.00042644,-0.00004769,0.00090254,-0.00027383,0.06543489,-0.
 09328959,-0.01583403,-0.06899949,0.07808503,0.03211150,-0.00220927,-0.
 01177831,0.00171119,-0.00059857,0.00365416,-0.00432628,0.00115565,-0.0
 0717396,0.00119540,-0.00046069,0.00141759,-0.00151506,0.00033366,-0.00
 134946,0.00025612,-0.00021115,0.00195111,0.00073557,-0.00028265,0.0010
 7951,0.00227602,0.00004080,-0.00237777,-0.00878250,0.00210945,-0.00905
 784,0.00275324,-0.00037170,0.00254732,0.12326684,-0.02013400,-0.107708
 13,-0.13250920,0.02325906,0.10036997,0.00852093,0.01061409,-0.00416346
 ,-0.00090288,-0.00122552,0.00111907,0.00100295,0.00053892,-0.00113560,
 -0.00013734,-0.00031233,0.00077216,0.00004023,0.00003736,-0.00031977,0
 .00039665,-0.00009497,0.00067960,-0.00003377,-0.00001469,-0.00007096,0
 .00122995,-0.00009560,-0.00092205,-0.00917425,0.00093042,-0.00597209,0
 .00427836,-0.00150376,0.00445528,-0.14155607,0.13649193,-0.00543895,-0
 .00947651,0.03871881,-0.00066808,0.12748280,0.00872409,-0.01067143,0.0
 0600461,-0.00561836,-0.00054334,0.00439481,0.00162271,-0.00009986,-0.0
 0043939,0.00032712,0.00008353,-0.00127865,0.00122956,-0.00013341,0.001
 71011,0.00014280,-0.00003481,-0.00142430,0.00071128,0.00016357,-0.0010
 9637,-0.00178236,0.00012991,0.00141611,0.00621805,-0.00120692,0.003557
 32,-0.00338445,0.00141368,-0.00208388,0.14384326,-0.45800086,0.0150966
 0,0.00163125,-0.00056919,0.00281319,-0.16520417,0.50139228,-0.01179976
 ,0.02803051,-0.00886740,0.00852618,-0.00037915,-0.00391159,-0.00349454
 ,0.00141301,0.00226055,0.00069356,-0.00189872,0.00023724,-0.00166438,0
 .00026361,-0.00167036,-0.00082089,0.00050381,0.00178712,-0.00142058,-0
 .00117074,0.00178266,0.00157591,0.00003293,-0.00112501,-0.00389324,0.0
 0006127,-0.00086295,0.00273557,0.00111924,0.00081424,-0.01336174,0.030
 56482,-0.07854668,0.00705549,-0.00933278,0.01653294,0.01494645,-0.0311
 0107,0.05923493,0.00428558,-0.00731969,-0.00571879,-0.00004018,0.00009
 002,0.00102835,0.00072379,-0.00017333,-0.00158469,-0.00000922,0.000040
 36,0.00090051,-0.00026134,0.00016634,-0.00067271,0.00025109,-0.0002573
 4,0.00101162,-0.00036530,-0.00000242,0.00023284,0.00161469,0.00004445,
 -0.00121292,-0.00877479,0.00194083,-0.00513647,0.00466287,-0.00030705,
 0.00377717,-0.20575747,-0.14569129,-0.06326343,-0.03324882,-0.03031169
 ,-0.01414295,0.01245458,0.00783205,-0.00003646,0.60294967,-0.00588175,
 0.00328431,-0.00228886,0.00239761,-0.00081351,-0.00230351,-0.00040407,
 0.00042981,-0.00012968,-0.00039012,-0.00046775,0.00074826,-0.00058206,
 0.00029749,-0.00096117,0.00016192,-0.00016407,0.00080536,-0.00058240,-
 0.00014252,0.00018296,0.00113444,0.00005504,-0.00082895,-0.00421805,0.
 00036745,-0.00103964,0.00295958,0.00050231,0.00118046,-0.09155678,-0.2
 1816178,-0.06205224,0.00427427,0.00920964,-0.00281325,-0.02194365,-0.0
 3296018,-0.01868714,0.01735503,0.30512866,-0.01946627,-0.01388350,-0.0
 0846713,0.00822624,-0.00075264,-0.00498483,-0.00325744,-0.00057285,0.0
 0183343,0.00094511,0.00086074,0.00080979,-0.00183497,0.00060838,-0.001
 92987,-0.00103028,-0.00040013,0.00177403,-0.00138202,0.00053960,0.0021
 8694,0.00173904,-0.00011533,-0.00119477,-0.00243491,0.00091253,0.00001
 521,0.00209577,-0.00141145,-0.00073643,-0.05326409,-0.07912620,-0.0977
 8301,0.00749507,0.00214715,0.00880799,-0.00194353,-0.00185409,0.017774
 54,0.04744308,0.10649345,0.09747425,0.00149186,-0.00051590,-0.00031588
 ,-0.00069568,-0.00000314,0.00067557,0.00042456,0.00000840,-0.00030196,
 -0.00008707,0.00003190,-0.00011989,0.00019518,-0.00003731,0.00018013,0
 .00008446,-0.00000615,-0.00013396,0.00023332,0.00003501,-0.00026257,-0
 .00015533,0.00001514,0.00008199,-0.00060851,-0.00005101,-0.00104568,-0
 .00052982,0.00059944,0.00192365,-0.03122840,0.01819317,0.00691458,-0.0
 0202989,-0.00473647,-0.00243143,0.00571200,0.00388858,0.00083389,-0.37
 869708,0.09715909,0.01649069,0.40590143,0.00009549,-0.00134703,-0.0004
 2400,0.00008292,0.00012632,0.00012357,0.00007730,-0.00003672,-0.000105
 96,-0.00002580,0.00008319,-0.00008337,0.00000424,-0.00000890,0.0000176
 6,-0.00004027,-0.00000243,0.00000629,0.00023381,-0.00001990,-0.0000030
 9,-0.00011837,-0.00000069,0.00005590,0.00007025,0.00040069,-0.00011419
 ,-0.00007841,-0.00064413,-0.00055915,-0.03881407,-0.00550723,-0.003813
 86,-0.00641215,-0.00184472,-0.00285345,0.00309075,0.00119493,0.0005385
 1,0.15638181,-0.06666706,-0.01384979,-0.11453953,0.07428445,0.00190289
 ,-0.00175347,-0.00225293,-0.00009520,0.00007539,0.00002185,0.00012085,
 -0.00016931,0.00000375,-0.00025713,0.00014985,0.00011051,0.00035272,-0
 .00006946,0.00020323,0.00004630,-0.00008913,-0.00023602,0.00046013,0.0
 0010722,0.00007332,-0.00002150,-0.00001361,-0.00001014,-0.00416968,0.0
 0013920,-0.00343226,0.00252349,-0.00019145,0.00142162,-0.01679882,-0.0
 0276349,-0.00258494,0.00044063,-0.00129608,0.00523924,-0.00047387,0.00
 211312,-0.00287720,0.03866122,-0.01720461,-0.01291006,-0.02274808,0.02
 094567,0.01707654,0.00315404,-0.00057033,0.00023450,-0.00734888,0.0018
 5553,-0.00465441,-0.00030165,-0.00020257,0.00256151,0.00293517,-0.0041
 3255,0.04021039,0.00654580,-0.00139740,0.00092171,-0.07296360,0.002917
 80,0.01495228,0.00582604,0.00397634,-0.03520389,0.00687291,-0.00117121
 ,-0.00132178,-0.00775005,0.00093558,0.00387589,0.00012453,0.00029358,-
 0.00235855,-0.00023839,0.00014167,-0.00037919,0.00020169,-0.00004063,0
 .00006963,0.00016235,-0.00018143,0.00012454,0.00021192,0.00011693,0.00
 017852,-0.00001104,-0.00000795,0.00005605,0.06257917,-0.00074628,-0.00
 207814,0.00022359,0.00147292,0.00514388,0.00107179,-0.00017483,0.00031
 363,-0.00004910,0.00098672,0.00574498,0.00117791,-0.00169647,-0.004658
 27,-0.00176770,0.00288407,-0.03663520,0.03678156,-0.00123803,0.0045980
 2,0.00989035,-0.00076242,-0.00455313,-0.00147350,0.00152672,0.00485075
 ,-0.00013663,0.00018392,0.00037681,0.00059615,0.00015914,0.00074962,-0
 .00082018,-0.00020520,-0.00004257,0.00022292,-0.00002760,-0.00015790,0
 .00004189,0.00021190,0.00010217,0.00040411,-0.00004121,-0.00001076,0.0
 0002017,-0.00253336,0.02625611,0.00037589,-0.00024493,-0.00397505,-0.0
 0023335,0.00051942,0.00248961,0.00237827,-0.00000450,-0.00236607,-0.00
 599775,0.00660349,-0.04642687,0.00431582,-0.00222051,0.01035467,0.0151
 1558,0.03667231,-0.37503696,0.01081970,0.00485526,-0.04784221,-0.00472
 759,-0.00108867,0.00962489,-0.00046690,0.00030101,0.00206567,-0.002015
 47,0.00051466,-0.00268858,-0.00016057,-0.00079510,0.00891410,0.0017551
 8,-0.00011885,-0.00215437,-0.00086421,0.00217189,-0.00256303,-0.001286
 37,-0.00110144,-0.00267007,0.00025896,0.00011927,0.00015352,-0.0192671
 9,-0.04618332,0.45212075\\0.00000620,0.00000809,-0.00000247,-0.0000056
 3,-0.00000549,-0.00000730,0.00000319,0.00000431,-0.00000511,-0.0000311
 5,0.00000541,0.00000793,0.00001706,0.00000059,-0.00000449,0.00002051,-
 0.00000541,0.00000364,0.00002147,-0.00000204,-0.00001955,-0.00000887,-
 0.00000282,0.00000428,-0.00001008,-0.00000444,0.00002546,0.00000107,-0
 .00000372,-0.00000668,0.00006576,0.00005714,0.00001787,-0.00004639,0.0
 0001580,0.00000843,0.00000551,-0.00003184,-0.00000159,-0.00002403,-0.0
 0004004,-0.00002060,-0.00001700,0.00000567,0.00000443,0.00000237,-0.00
 000120,-0.00000426\\\@
 The archive entry for this job was punched.


 TRUST EVERYONE, BUT CUT THE CARDS.
 Job cpu time:       0 days  1 hours  2 minutes 18.2 seconds.
 Elapsed time:       0 days  0 hours  4 minutes 26.0 seconds.
 File lengths (MBytes):  RWF=    170 Int=      0 D2E=      0 Chk=      8 Scr=      1
 Normal termination of Gaussian 16 at Fri May 20 19:56:27 2022.
