 Entering Gaussian System, Link 0=g16
 AtFile(1): /home/561/yj5695/Basis/6-31pGd.gbs
 Initial command:
 /apps/gaussian/g16c01/g16/l1.exe "/jobfs/48698451.gadi-pbs/Gau-1614709.inp" -scrdir="/jobfs/48698451.gadi-pbs/"
 Entering Link 1 = /apps/gaussian/g16c01/g16/l1.exe PID=   1614726.
  
 Copyright (c) 1988-2019, Gaussian, Inc.  All Rights Reserved.
  
 This is part of the Gaussian(R) 16 program.  It is based on
 the Gaussian(R) 09 system (copyright 2009, Gaussian, Inc.),
 the Gaussian(R) 03 system (copyright 2003, Gaussian, Inc.),
 the Gaussian(R) 98 system (copyright 1998, Gaussian, Inc.),
 the Gaussian(R) 94 system (copyright 1995, Gaussian, Inc.),
 the Gaussian 92(TM) system (copyright 1992, Gaussian, Inc.),
 the Gaussian 90(TM) system (copyright 1990, Gaussian, Inc.),
 the Gaussian 88(TM) system (copyright 1988, Gaussian, Inc.),
 the Gaussian 86(TM) system (copyright 1986, Carnegie Mellon
 University), and the Gaussian 82(TM) system (copyright 1983,
 Carnegie Mellon University). Gaussian is a federally registered
 trademark of Gaussian, Inc.
  
 This software contains proprietary and confidential information,
 including trade secrets, belonging to Gaussian, Inc.
  
 This software is provided under written license and may be
 used, copied, transmitted, or stored only in accord with that
 written license.
  
 The following legend is applicable only to US Government
 contracts under FAR:
  
                    RESTRICTED RIGHTS LEGEND
  
 Use, reproduction and disclosure by the US Government is
 subject to restrictions as set forth in subparagraphs (a)
 and (c) of the Commercial Computer Software - Restricted
 Rights clause in FAR 52.227-19.
  
 Gaussian, Inc.
 340 Quinnipiac St., Bldg. 40, Wallingford CT 06492
  
  
 ---------------------------------------------------------------
 Warning -- This program may not be used in any manner that
 competes with the business of Gaussian, Inc. or will provide
 assistance to any competitor of Gaussian, Inc.  The licensee
 of this program is prohibited from giving any competitor of
 Gaussian, Inc. access to this program.  By using this program,
 the user acknowledges that Gaussian, Inc. is engaged in the
 business of creating and licensing software in the field of
 computational chemistry and represents and warrants to the
 licensee that it is not a competitor of Gaussian, Inc. and that
 it will not use this program in any manner prohibited above.
 ---------------------------------------------------------------
  

 Cite this work as:
 Gaussian 16, Revision C.01,
 M. J. Frisch, G. W. Trucks, H. B. Schlegel, G. E. Scuseria, 
 M. A. Robb, J. R. Cheeseman, G. Scalmani, V. Barone, 
 G. A. Petersson, H. Nakatsuji, X. Li, M. Caricato, A. V. Marenich, 
 J. Bloino, B. G. Janesko, R. Gomperts, B. Mennucci, H. P. Hratchian, 
 J. V. Ortiz, A. F. Izmaylov, J. L. Sonnenberg, D. Williams-Young, 
 F. Ding, F. Lipparini, F. Egidi, J. Goings, B. Peng, A. Petrone, 
 T. Henderson, D. Ranasinghe, V. G. Zakrzewski, J. Gao, N. Rega, 
 G. Zheng, W. Liang, M. Hada, M. Ehara, K. Toyota, R. Fukuda, 
 J. Hasegawa, M. Ishida, T. Nakajima, Y. Honda, O. Kitao, H. Nakai, 
 T. Vreven, K. Throssell, J. A. Montgomery, Jr., J. E. Peralta, 
 F. Ogliaro, M. J. Bearpark, J. J. Heyd, E. N. Brothers, K. N. Kudin, 
 V. N. Staroverov, T. A. Keith, R. Kobayashi, J. Normand, 
 K. Raghavachari, A. P. Rendell, J. C. Burant, S. S. Iyengar, 
 J. Tomasi, M. Cossi, J. M. Millam, M. Klene, C. Adamo, R. Cammi, 
 J. W. Ochterski, R. L. Martin, K. Morokuma, O. Farkas, 
 J. B. Foresman, and D. J. Fox, Gaussian, Inc., Wallingford CT, 2019.
 
 ******************************************
 Gaussian 16:  ES64L-G16RevC.01  3-Jul-2019
                29-Jun-2022 
 ******************************************
 %nproc=16
 Will use up to   16 processors via shared memory.
 %mem=40gb
 --------------------------------------------------
 #M062X/gen 6D INT(grid=ultrafine) OPT Freq=noraman
 --------------------------------------------------
 1/18=20,19=15,26=4,38=1/1,3;
 2/9=110,12=2,17=6,18=5,40=1/2;
 3/5=7,8=2,11=2,25=1,30=1,71=1,74=-55,75=-5/1,2,3;
 4//1;
 5/5=2,38=5/2;
 6/7=2,8=2,9=2,10=2,28=1/1;
 7//1,2,3,16;
 1/18=20,19=15,26=4/3(2);
 2/9=110/2;
 99//99;
 2/9=110/2;
 3/5=7,6=1,8=2,11=2,25=1,30=1,71=1,74=-55,75=-5,82=7/1,2,3;
 4/5=5,16=3,69=1/1;
 5/5=2,38=5/2;
 7//1,2,3,16;
 1/18=20,19=15,26=4/3(-5);
 2/9=110/2;
 6/7=2,8=2,9=2,10=2,19=2,28=1/1;
 99/9=1/99;
 ---------
 A.9.freq
 ---------
 Symbolic Z-matrix:
 Charge = -1 Multiplicity = 1
 C                    -1.34098   0.78145  -0.94043 
 C                    -2.51702   0.87011  -1.69471 
 H                    -3.48674   0.82489  -1.20666 
 C                    -2.44483   1.02073  -3.06947 
 H                    -3.34485   1.09327  -3.67285 
 C                    -1.19403   1.08437  -3.70313 
 O                    -1.22413   1.2353   -5.05792 
 C                    -0.0197    0.99592  -2.95412 
 H                     0.955     1.04466  -3.42554 
 C                    -0.1044    0.84098  -1.56724 
 H                     0.80452   0.76907  -0.97718 
 S                    -1.45257   0.5449    0.83765 
 O                    -2.4564    1.5728    1.26334 
 O                    -1.95006  -0.85213   1.01048 
 N                    -0.04472   0.67254   1.49732 
 H                     0.22685   1.65906   1.48762 
 C                     0.02429   1.29723  -5.74159 
 H                    -0.22055   1.41311  -6.7969 
 H                     0.59374   0.37417  -5.59317 
 H                     0.61062   2.15683  -5.40157 
 

 GradGradGradGradGradGradGradGradGradGradGradGradGradGradGradGradGradGrad
 Berny optimization.
 Initialization pass.
                           ----------------------------
                           !    Initial Parameters    !
                           ! (Angstroms and Degrees)  !
 --------------------------                            --------------------------
 ! Name  Definition              Value          Derivative Info.                !
 --------------------------------------------------------------------------------
 ! R1    R(1,2)                  1.4            estimate D2E/DX2                !
 ! R2    R(1,10)                 1.3876         estimate D2E/DX2                !
 ! R3    R(1,12)                 1.7972         estimate D2E/DX2                !
 ! R4    R(2,3)                  1.0866         estimate D2E/DX2                !
 ! R5    R(2,4)                  1.3849         estimate D2E/DX2                !
 ! R6    R(4,5)                  1.086          estimate D2E/DX2                !
 ! R7    R(4,6)                  1.4036         estimate D2E/DX2                !
 ! R8    R(6,7)                  1.3635         estimate D2E/DX2                !
 ! R9    R(6,8)                  1.3957         estimate D2E/DX2                !
 ! R10   R(7,17)                 1.4247         estimate D2E/DX2                !
 ! R11   R(8,9)                  1.0838         estimate D2E/DX2                !
 ! R12   R(8,10)                 1.3981         estimate D2E/DX2                !
 ! R13   R(10,11)                1.086          estimate D2E/DX2                !
 ! R14   R(12,13)                1.4985         estimate D2E/DX2                !
 ! R15   R(12,14)                1.493          estimate D2E/DX2                !
 ! R16   R(12,15)                1.56           estimate D2E/DX2                !
 ! R17   R(15,16)                1.0233         estimate D2E/DX2                !
 ! R18   R(17,18)                1.0895         estimate D2E/DX2                !
 ! R19   R(17,19)                1.0947         estimate D2E/DX2                !
 ! R20   R(17,20)                1.0947         estimate D2E/DX2                !
 ! A1    A(2,1,10)             120.1667         estimate D2E/DX2                !
 ! A2    A(2,1,12)             119.2896         estimate D2E/DX2                !
 ! A3    A(10,1,12)            120.5223         estimate D2E/DX2                !
 ! A4    A(1,2,3)              120.3372         estimate D2E/DX2                !
 ! A5    A(1,2,4)              119.8647         estimate D2E/DX2                !
 ! A6    A(3,2,4)              119.7978         estimate D2E/DX2                !
 ! A7    A(2,4,5)              121.0381         estimate D2E/DX2                !
 ! A8    A(2,4,6)              119.9693         estimate D2E/DX2                !
 ! A9    A(5,4,6)              118.9924         estimate D2E/DX2                !
 ! A10   A(4,6,7)              115.716          estimate D2E/DX2                !
 ! A11   A(4,6,8)              120.3093         estimate D2E/DX2                !
 ! A12   A(7,6,8)              123.9746         estimate D2E/DX2                !
 ! A13   A(6,7,17)             117.5335         estimate D2E/DX2                !
 ! A14   A(6,8,9)              121.3604         estimate D2E/DX2                !
 ! A15   A(6,8,10)             119.2366         estimate D2E/DX2                !
 ! A16   A(9,8,10)             119.4029         estimate D2E/DX2                !
 ! A17   A(1,10,8)             120.4527         estimate D2E/DX2                !
 ! A18   A(1,10,11)            119.8381         estimate D2E/DX2                !
 ! A19   A(8,10,11)            119.7091         estimate D2E/DX2                !
 ! A20   A(1,12,13)            103.4364         estimate D2E/DX2                !
 ! A21   A(1,12,14)            104.9741         estimate D2E/DX2                !
 ! A22   A(1,12,15)            110.5832         estimate D2E/DX2                !
 ! A23   A(13,12,14)           112.6911         estimate D2E/DX2                !
 ! A24   A(13,12,15)           115.3603         estimate D2E/DX2                !
 ! A25   A(14,12,15)           109.1674         estimate D2E/DX2                !
 ! A26   A(12,15,16)           108.3246         estimate D2E/DX2                !
 ! A27   A(7,17,18)            105.8135         estimate D2E/DX2                !
 ! A28   A(7,17,19)            110.7392         estimate D2E/DX2                !
 ! A29   A(7,17,20)            110.7586         estimate D2E/DX2                !
 ! A30   A(18,17,19)           109.7491         estimate D2E/DX2                !
 ! A31   A(18,17,20)           109.7371         estimate D2E/DX2                !
 ! A32   A(19,17,20)           109.9624         estimate D2E/DX2                !
 ! D1    D(10,1,2,3)          -179.9341         estimate D2E/DX2                !
 ! D2    D(10,1,2,4)            -0.1509         estimate D2E/DX2                !
 ! D3    D(12,1,2,3)             1.7371         estimate D2E/DX2                !
 ! D4    D(12,1,2,4)          -178.4797         estimate D2E/DX2                !
 ! D5    D(2,1,10,8)             0.2966         estimate D2E/DX2                !
 ! D6    D(2,1,10,11)         -179.8412         estimate D2E/DX2                !
 ! D7    D(12,1,10,8)          178.6046         estimate D2E/DX2                !
 ! D8    D(12,1,10,11)          -1.5332         estimate D2E/DX2                !
 ! D9    D(2,1,12,13)          -48.0728         estimate D2E/DX2                !
 ! D10   D(2,1,12,14)           70.2513         estimate D2E/DX2                !
 ! D11   D(2,1,12,15)         -172.1361         estimate D2E/DX2                !
 ! D12   D(10,1,12,13)         133.6045         estimate D2E/DX2                !
 ! D13   D(10,1,12,14)        -108.0714         estimate D2E/DX2                !
 ! D14   D(10,1,12,15)           9.5411         estimate D2E/DX2                !
 ! D15   D(1,2,4,5)           -179.889          estimate D2E/DX2                !
 ! D16   D(1,2,4,6)             -0.0115         estimate D2E/DX2                !
 ! D17   D(3,2,4,5)             -0.1047         estimate D2E/DX2                !
 ! D18   D(3,2,4,6)            179.7728         estimate D2E/DX2                !
 ! D19   D(2,4,6,7)           -179.9062         estimate D2E/DX2                !
 ! D20   D(2,4,6,8)              0.0294         estimate D2E/DX2                !
 ! D21   D(5,4,6,7)             -0.0262         estimate D2E/DX2                !
 ! D22   D(5,4,6,8)            179.9094         estimate D2E/DX2                !
 ! D23   D(4,6,7,17)          -179.6716         estimate D2E/DX2                !
 ! D24   D(8,6,7,17)             0.3955         estimate D2E/DX2                !
 ! D25   D(4,6,8,9)           -179.9002         estimate D2E/DX2                !
 ! D26   D(4,6,8,10)             0.1132         estimate D2E/DX2                !
 ! D27   D(7,6,8,9)              0.0298         estimate D2E/DX2                !
 ! D28   D(7,6,8,10)          -179.9568         estimate D2E/DX2                !
 ! D29   D(6,7,17,18)          179.7726         estimate D2E/DX2                !
 ! D30   D(6,7,17,19)           60.9061         estimate D2E/DX2                !
 ! D31   D(6,7,17,20)          -61.365          estimate D2E/DX2                !
 ! D32   D(6,8,10,1)            -0.2762         estimate D2E/DX2                !
 ! D33   D(6,8,10,11)          179.8614         estimate D2E/DX2                !
 ! D34   D(9,8,10,1)           179.7369         estimate D2E/DX2                !
 ! D35   D(9,8,10,11)           -0.1255         estimate D2E/DX2                !
 ! D36   D(1,12,15,16)          72.7663         estimate D2E/DX2                !
 ! D37   D(13,12,15,16)        -44.1496         estimate D2E/DX2                !
 ! D38   D(14,12,15,16)       -172.2261         estimate D2E/DX2                !
 --------------------------------------------------------------------------------
 Trust Radius=3.00D-01 FncErr=1.00D-07 GrdErr=1.00D-06 EigMax=2.50D+02 EigMin=1.00D-04
 Number of steps in this run=    100 maximum allowed number of steps=    120.
 GradGradGradGradGradGradGradGradGradGradGradGradGradGradGradGradGradGrad

                          Input orientation:                          
 ---------------------------------------------------------------------
 Center     Atomic      Atomic             Coordinates (Angstroms)
 Number     Number       Type             X           Y           Z
 ---------------------------------------------------------------------
      1          6           0       -1.340976    0.781451   -0.940435
      2          6           0       -2.517020    0.870112   -1.694713
      3          1           0       -3.486745    0.824889   -1.206663
      4          6           0       -2.444832    1.020731   -3.069475
      5          1           0       -3.344852    1.093265   -3.672845
      6          6           0       -1.194029    1.084367   -3.703126
      7          8           0       -1.224128    1.235303   -5.057920
      8          6           0       -0.019697    0.995916   -2.954117
      9          1           0        0.955002    1.044661   -3.425537
     10          6           0       -0.104395    0.840980   -1.567237
     11          1           0        0.804522    0.769067   -0.977183
     12         16           0       -1.452572    0.544898    0.837645
     13          8           0       -2.456405    1.572804    1.263340
     14          8           0       -1.950055   -0.852128    1.010481
     15          7           0       -0.044724    0.672543    1.497322
     16          1           0        0.226854    1.659058    1.487616
     17          6           0        0.024288    1.297232   -5.741586
     18          1           0       -0.220551    1.413110   -6.796898
     19          1           0        0.593737    0.374172   -5.593171
     20          1           0        0.610622    2.156833   -5.401571
 ---------------------------------------------------------------------
                    Distance matrix (angstroms):
                    1          2          3          4          5
     1  C    0.000000
     2  C    1.399956   0.000000
     3  H    2.162658   1.086556   0.000000
     4  C    2.410097   1.384871   2.143363   0.000000
     5  H    3.402766   2.155948   2.484796   1.085980   0.000000
     6  C    2.783130   2.414525   3.399441   1.403593   2.151055
     7  O    4.144071   3.621615   4.485539   2.343091   2.536943
     8  C    2.417993   2.799740   3.886292   2.428004   3.403338
     9  H    3.393600   3.883446   4.969991   3.418512   4.307235
    10  C    1.387644   2.416166   3.401553   2.786876   3.872699
    11  H    2.145849   3.399662   4.297761   3.872897   4.958731
    12  S    1.797214   2.766162   2.897490   4.059136   4.921987
    13  O    2.593655   3.040975   2.778829   4.367860   5.038375
    14  O    2.616415   3.256629   3.176402   4.516464   5.259615
    15  N    2.763112   4.042322   4.379755   5.170821   6.148047
    16  H    3.020549   4.275336   4.663239   5.320945   6.301394
    17  C    5.018070   4.797693   5.754649   3.648724   3.958838
    18  H    5.996041   5.621468   6.501135   4.358334   4.429816
    19  H    5.055388   5.012059   6.007906   4.002497   4.440409
    20  H    5.059857   5.017827   6.013297   4.008142   4.445835
                    6          7          8          9         10
     6  C    0.000000
     7  O    1.363509   0.000000
     8  C    1.395670   2.435970   0.000000
     9  H    2.167248   2.729400   1.083813   0.000000
    10  C    2.410095   3.687027   1.398076   2.148741   0.000000
    11  H    3.394758   4.580962   2.153849   2.468407   1.086032
    12  S    4.580008   5.940247   4.078481   4.921473   2.772851
    13  O    5.147615   6.449089   4.904823   5.822559   3.752290
    14  O    5.151667   6.458315   4.781170   5.631644   3.594121
    15  N    5.341831   6.684228   4.463239   5.037109   3.069764
    16  H    5.412299   6.717810   4.497726   5.004673   3.179796
    17  C    2.384309   1.424702   2.804053   2.508806   4.201181
    18  H    3.259932   2.015645   3.870576   3.589395   5.262146
    19  H    2.696805   2.081507   2.779833   2.297543   4.112596
    20  H    2.700308   2.081735   2.781198   2.293520   4.116411
                   11         12         13         14         15
    11  H    0.000000
    12  S    2.904880   0.000000
    13  O    4.037274   1.498495   0.000000
    14  O    3.763878   1.492999   2.490106   0.000000
    15  N    2.617959   1.559969   2.584845   2.488358   0.000000
    16  H    2.683471   2.117613   2.693997   3.357477   1.023259
    17  C    4.856672   6.784792   7.436314   7.355827   7.266140
    18  H    5.944295   7.781897   8.366121   8.311297   8.329072
    19  H    4.637642   6.750698   7.599462   7.182124   7.125430
    20  H    4.640981   6.766308   7.359945   7.531622   7.087124
                   16         17         18         19         20
    16  H    0.000000
    17  C    7.241086   0.000000
    18  H    8.300231   1.089521   0.000000
    19  H    7.205767   1.094687   1.786453   0.000000
    20  H    6.917801   1.094674   1.786311   1.793007   0.000000
 Stoichiometry    C7H8NO3S(1-)
 Framework group  C1[X(C7H8NO3S)]
 Deg. of freedom    54
 Full point group                 C1      NOp   1
 Largest Abelian subgroup         C1      NOp   1
 Largest concise Abelian subgroup C1      NOp   1
                         Standard orientation:                         
 ---------------------------------------------------------------------
 Center     Atomic      Atomic             Coordinates (Angstroms)
 Number     Number       Type             X           Y           Z
 ---------------------------------------------------------------------
      1          6           0       -0.536650   -0.052047   -0.019510
      2          6           0        0.057276   -1.319733   -0.029535
      3          1           0       -0.559050   -2.214429   -0.045832
      4          6           0        1.437348   -1.434757   -0.023179
      5          1           0        1.918123   -2.408472   -0.032547
      6          6           0        2.236990   -0.281336   -0.006961
      7          8           0        3.583647   -0.495024   -0.003813
      8          6           0        1.648044    0.983942    0.003440
      9          1           0        2.249068    1.885773    0.014387
     10          6           0        0.253869    1.088241   -0.000075
     11          1           0       -0.212528    2.068973    0.010238
     12         16           0       -2.328771    0.079040    0.013634
     13          8           0       -2.767104   -0.867685   -1.062035
     14          8           0       -2.723797   -0.377807    1.379024
     15          7           0       -2.773878    1.561683   -0.179114
     16          1           0       -2.616271    1.820427   -1.156494
     17          6           0        4.432010    0.649311    0.019745
     18          1           0        5.450934    0.263509    0.022508
     19          1           0        4.258447    1.241996    0.923592
     20          1           0        4.273464    1.268197   -0.869160
 ---------------------------------------------------------------------
 Rotational constants (GHZ):           2.4403458           0.4147236           0.3822971
 General basis read from cards:  (6D, 7F)
 There are   248 symmetry adapted cartesian basis functions of A   symmetry.
 There are   248 symmetry adapted basis functions of A   symmetry.
   248 basis functions,   440 primitive gaussians,   248 cartesian basis functions
    49 alpha electrons       49 beta electrons
       nuclear repulsion energy       807.2293879831 Hartrees.
 NAtoms=   20 NActive=   20 NUniq=   20 SFac= 1.00D+00 NAtFMM=   60 NAOKFM=F Big=F
 Integral buffers will be    131072 words long.
 Raffenetti 2 integral format.
 Two-electron integral symmetry is turned on.
 One-electron integrals computed using PRISM.
 NBasis=   248 RedAO= T EigKep=  1.74D-06  NBF=   248
 NBsUse=   248 1.00D-06 EigRej= -1.00D+00 NBFU=   248
 ExpMin= 4.05D-02 ExpMax= 2.19D+04 ExpMxC= 3.30D+03 IAcc=3 IRadAn=         5 AccDes= 0.00D+00
 Harris functional with IExCor= 1009 and IRadAn=       5 diagonalized for initial guess.
 HarFok:  IExCor= 1009 AccDes= 0.00D+00 IRadAn=         5 IDoV= 1 UseB2=F ITyADJ=14
 ICtDFT=  3500011 ScaDFX=  1.000000  1.000000  1.000000  1.000000
 FoFCou: FMM=F IPFlag=           0 FMFlag=      100000 FMFlg1=           0
         NFxFlg=           0 DoJE=T BraDBF=F KetDBF=T FulRan=T
         wScrn=  0.000000 ICntrl=       500 IOpCl=  0 I1Cent=   200000004 NGrid=           0
         NMat0=    1 NMatS0=      1 NMatT0=    0 NMatD0=    1 NMtDS0=    0 NMtDT0=    0
 Petite list used in FoFCou.
 Requested convergence on RMS density matrix=1.00D-08 within 128 cycles.
 Requested convergence on MAX density matrix=1.00D-06.
 Requested convergence on             energy=1.00D-06.
 No special actions if energy rises.
 SCF Done:  E(RM062X) =  -949.891725386     A.U. after   17 cycles
            NFock= 17  Conv=0.48D-08     -V/T= 2.0064

 **********************************************************************

            Population analysis using the SCF Density.

 **********************************************************************

 Orbital symmetries:
       Occupied  (A) (A) (A) (A) (A) (A) (A) (A) (A) (A) (A) (A)
                 (A) (A) (A) (A) (A) (A) (A) (A) (A) (A) (A) (A)
                 (A) (A) (A) (A) (A) (A) (A) (A) (A) (A) (A) (A)
                 (A) (A) (A) (A) (A) (A) (A) (A) (A) (A) (A) (A)
                 (A)
       Virtual   (A) (A) (A) (A) (A) (A) (A) (A) (A) (A) (A) (A)
                 (A) (A) (A) (A) (A) (A) (A) (A) (A) (A) (A) (A)
                 (A) (A) (A) (A) (A) (A) (A) (A) (A) (A) (A) (A)
                 (A) (A) (A) (A) (A) (A) (A) (A) (A) (A) (A) (A)
                 (A) (A) (A) (A) (A) (A) (A) (A) (A) (A) (A) (A)
                 (A) (A) (A) (A) (A) (A) (A) (A) (A) (A) (A) (A)
                 (A) (A) (A) (A) (A) (A) (A) (A) (A) (A) (A) (A)
                 (A) (A) (A) (A) (A) (A) (A) (A) (A) (A) (A) (A)
                 (A) (A) (A) (A) (A) (A) (A) (A) (A) (A) (A) (A)
                 (A) (A) (A) (A) (A) (A) (A) (A) (A) (A) (A) (A)
                 (A) (A) (A) (A) (A) (A) (A) (A) (A) (A) (A) (A)
                 (A) (A) (A) (A) (A) (A) (A) (A) (A) (A) (A) (A)
                 (A) (A) (A) (A) (A) (A) (A) (A) (A) (A) (A) (A)
                 (A) (A) (A) (A) (A) (A) (A) (A) (A) (A) (A) (A)
                 (A) (A) (A) (A) (A) (A) (A) (A) (A) (A) (A) (A)
                 (A) (A) (A) (A) (A) (A) (A) (A) (A) (A) (A) (A)
                 (A) (A) (A) (A) (A) (A) (A)
 The electronic state is 1-A.
 Alpha  occ. eigenvalues --  -89.95964 -19.58781 -19.43799 -19.43459 -14.54986
 Alpha  occ. eigenvalues --  -10.52572 -10.51309 -10.45056 -10.44590 -10.44462
 Alpha  occ. eigenvalues --  -10.44395 -10.43724  -8.26818  -6.19021  -6.18980
 Alpha  occ. eigenvalues --   -6.18929  -1.10214  -1.02390  -0.90272  -0.85178
 Alpha  occ. eigenvalues --   -0.79215  -0.75763  -0.73907  -0.69753  -0.59254
 Alpha  occ. eigenvalues --   -0.58346  -0.52212  -0.51044  -0.46729  -0.46210
 Alpha  occ. eigenvalues --   -0.43679  -0.41456  -0.39581  -0.38263  -0.36781
 Alpha  occ. eigenvalues --   -0.35670  -0.34907  -0.33709  -0.33189  -0.29347
 Alpha  occ. eigenvalues --   -0.28992  -0.23551  -0.21066  -0.20075  -0.19837
 Alpha  occ. eigenvalues --   -0.17639  -0.15528  -0.15285  -0.12699
 Alpha virt. eigenvalues --    0.08561   0.10746   0.11721   0.12619   0.12827
 Alpha virt. eigenvalues --    0.13748   0.13788   0.15142   0.15917   0.17074
 Alpha virt. eigenvalues --    0.18009   0.19036   0.19735   0.20101   0.20306
 Alpha virt. eigenvalues --    0.21117   0.21697   0.22987   0.23475   0.24698
 Alpha virt. eigenvalues --    0.25365   0.25817   0.26141   0.26967   0.27785
 Alpha virt. eigenvalues --    0.28883   0.29239   0.29774   0.30189   0.31354
 Alpha virt. eigenvalues --    0.31818   0.32353   0.33266   0.33291   0.33715
 Alpha virt. eigenvalues --    0.34201   0.34607   0.35963   0.36550   0.37051
 Alpha virt. eigenvalues --    0.37651   0.38797   0.39065   0.39536   0.40178
 Alpha virt. eigenvalues --    0.40514   0.41256   0.41747   0.42511   0.42796
 Alpha virt. eigenvalues --    0.43211   0.43810   0.44759   0.46027   0.46144
 Alpha virt. eigenvalues --    0.47132   0.47679   0.49017   0.49687   0.50411
 Alpha virt. eigenvalues --    0.51119   0.51935   0.52470   0.53903   0.55947
 Alpha virt. eigenvalues --    0.56265   0.58002   0.61629   0.65101   0.71032
 Alpha virt. eigenvalues --    0.74947   0.78680   0.79778   0.80595   0.81374
 Alpha virt. eigenvalues --    0.82484   0.83468   0.84181   0.85220   0.86932
 Alpha virt. eigenvalues --    0.87616   0.88269   0.90389   0.91337   0.92130
 Alpha virt. eigenvalues --    0.94316   0.95035   0.95690   1.03623   1.04975
 Alpha virt. eigenvalues --    1.05607   1.06205   1.09090   1.10898   1.11422
 Alpha virt. eigenvalues --    1.12365   1.15753   1.17322   1.18734   1.21364
 Alpha virt. eigenvalues --    1.22256   1.24255   1.25501   1.26534   1.27232
 Alpha virt. eigenvalues --    1.30487   1.31626   1.33962   1.34817   1.35436
 Alpha virt. eigenvalues --    1.36945   1.37527   1.38738   1.40371   1.42260
 Alpha virt. eigenvalues --    1.43852   1.45026   1.50488   1.51082   1.52376
 Alpha virt. eigenvalues --    1.53640   1.55867   1.56758   1.57365   1.58542
 Alpha virt. eigenvalues --    1.61112   1.61459   1.62325   1.63551   1.65773
 Alpha virt. eigenvalues --    1.67123   1.68484   1.68930   1.73350   1.73831
 Alpha virt. eigenvalues --    1.80843   1.85005   1.94165   1.96842   1.98250
 Alpha virt. eigenvalues --    1.99609   2.01281   2.04693   2.06292   2.07582
 Alpha virt. eigenvalues --    2.08993   2.09707   2.10494   2.11041   2.15374
 Alpha virt. eigenvalues --    2.17099   2.17644   2.20909   2.21662   2.23588
 Alpha virt. eigenvalues --    2.25860   2.26974   2.29653   2.31340   2.33841
 Alpha virt. eigenvalues --    2.34306   2.36821   2.39957   2.41338   2.43764
 Alpha virt. eigenvalues --    2.45002   2.45773   2.50625   2.52081   2.53778
 Alpha virt. eigenvalues --    2.62477   2.67776   2.69678   2.75957   2.79526
 Alpha virt. eigenvalues --    2.81301   2.83386   2.90318   2.92092   2.95005
 Alpha virt. eigenvalues --    2.96675   3.04436   3.10140   3.12174   3.17324
 Alpha virt. eigenvalues --    3.30749   3.53176   4.20826   4.26200   4.29689
 Alpha virt. eigenvalues --    4.38282   4.38982   4.43173   4.49206   4.53469
 Alpha virt. eigenvalues --    4.56643   4.62104   4.67296   4.91606
          Condensed to atoms (all electrons):
               1          2          3          4          5          6
     1  C   20.947993  -3.004395   0.138135  -1.362177   0.020723  -2.839383
     2  C   -3.004395  27.369435   0.316771  -4.854248  -0.036366  -0.646102
     3  H    0.138135   0.316771   0.463134  -0.190105  -0.003775  -0.018611
     4  C   -1.362177  -4.854248  -0.190105  19.816971   0.289583  -0.989825
     5  H    0.020723  -0.036366  -0.003775   0.289583   0.508383   0.019517
     6  C   -2.839383  -0.646102  -0.018611  -0.989825   0.019517   9.366177
     7  O   -0.053456   0.002220  -0.000635  -0.559928  -0.003913   0.449670
     8  C   -3.009008  -1.870586  -0.040048  -1.577389   0.041030   0.759024
     9  H    0.071211  -0.007295   0.000016   0.004819  -0.000129  -0.083333
    10  C   -2.993852 -11.800679   0.076791  -4.563645  -0.033455   0.230633
    11  H    0.004521   0.006033  -0.000134  -0.031074   0.000013   0.016771
    12  S   -0.887279   1.109746   0.013583   0.106980   0.000667  -0.049903
    13  O    0.199595  -0.601695   0.004682   0.108264   0.000001  -0.048263
    14  O    0.299441  -0.448373   0.000609  -0.118478   0.000005   0.012217
    15  N   -0.482776   0.254235   0.001102  -0.034583   0.000062   0.052930
    16  H    0.087833   0.076055  -0.000001  -0.001572   0.000000  -0.000633
    17  C   -0.083454   0.085385  -0.000022  -0.022171   0.002247  -0.136330
    18  H    0.002340  -0.003610  -0.000000   0.035292  -0.000009   0.057769
    19  H   -0.003990   0.003778  -0.000000  -0.022256   0.000004  -0.077916
    20  H   -0.003384   0.005445   0.000000  -0.022361   0.000006  -0.086307
               7          8          9         10         11         12
     1  C   -0.053456  -3.009008   0.071211  -2.993852   0.004521  -0.887279
     2  C    0.002220  -1.870586  -0.007295 -11.800679   0.006033   1.109746
     3  H   -0.000635  -0.040048   0.000016   0.076791  -0.000134   0.013583
     4  C   -0.559928  -1.577389   0.004819  -4.563645  -0.031074   0.106980
     5  H   -0.003913   0.041030  -0.000129  -0.033455   0.000013   0.000667
     6  C    0.449670   0.759024  -0.083333   0.230633   0.016771  -0.049903
     7  O    8.503892   0.171762  -0.011241  -0.059403  -0.000544  -0.000849
     8  C    0.171762  24.060558   0.103218 -12.968419  -0.001941  -0.579564
     9  H   -0.011241   0.103218   0.538556   0.224573  -0.004206   0.002312
    10  C   -0.059403 -12.968419   0.224573  38.626385   0.324151  -0.399360
    11  H   -0.000544  -0.001941  -0.004206   0.324151   0.456423  -0.018529
    12  S   -0.000849  -0.579564   0.002312  -0.399360  -0.018529  14.766830
    13  O    0.000060   0.213417   0.000017   0.160529   0.000836   0.058916
    14  O   -0.000003  -0.146125   0.000035   0.323830  -0.000816   0.384209
    15  N   -0.000140   0.227604   0.000769   0.042193   0.004617  -0.014957
    16  H    0.000000  -0.077089  -0.000001  -0.133104  -0.000965   0.104924
    17  C    0.105549  -0.065304  -0.012675  -0.016542   0.001897  -0.009849
    18  H   -0.068245  -0.045885   0.000275  -0.015994  -0.000000   0.000031
    19  H   -0.033512   0.039590  -0.001726   0.039368   0.000001  -0.000174
    20  H   -0.033702   0.028445  -0.001717   0.058733   0.000003  -0.000031
              13         14         15         16         17         18
     1  C    0.199595   0.299441  -0.482776   0.087833  -0.083454   0.002340
     2  C   -0.601695  -0.448373   0.254235   0.076055   0.085385  -0.003610
     3  H    0.004682   0.000609   0.001102  -0.000001  -0.000022  -0.000000
     4  C    0.108264  -0.118478  -0.034583  -0.001572  -0.022171   0.035292
     5  H    0.000001   0.000005   0.000062   0.000000   0.002247  -0.000009
     6  C   -0.048263   0.012217   0.052930  -0.000633  -0.136330   0.057769
     7  O    0.000060  -0.000003  -0.000140   0.000000   0.105549  -0.068245
     8  C    0.213417  -0.146125   0.227604  -0.077089  -0.065304  -0.045885
     9  H    0.000017   0.000035   0.000769  -0.000001  -0.012675   0.000275
    10  C    0.160529   0.323830   0.042193  -0.133104  -0.016542  -0.015994
    11  H    0.000836  -0.000816   0.004617  -0.000965   0.001897  -0.000000
    12  S    0.058916   0.384209  -0.014957   0.104924  -0.009849   0.000031
    13  O    8.902342  -0.215162  -0.164828  -0.017781  -0.000214   0.000000
    14  O   -0.215162   8.693446  -0.199799   0.018809  -0.000482   0.000000
    15  N   -0.164828  -0.199799   8.036343   0.156130   0.000438   0.000000
    16  H   -0.017781   0.018809   0.156130   0.453420  -0.000059  -0.000000
    17  C   -0.000214  -0.000482   0.000438  -0.000059   5.294114   0.388389
    18  H    0.000000   0.000000   0.000000  -0.000000   0.388389   0.506570
    19  H   -0.000000   0.000000  -0.000002  -0.000000   0.399838  -0.028190
    20  H    0.000000  -0.000000   0.000004   0.000000   0.397591  -0.028457
              19         20
     1  C   -0.003990  -0.003384
     2  C    0.003778   0.005445
     3  H   -0.000000   0.000000
     4  C   -0.022256  -0.022361
     5  H    0.000004   0.000006
     6  C   -0.077916  -0.086307
     7  O   -0.033512  -0.033702
     8  C    0.039590   0.028445
     9  H   -0.001726  -0.001717
    10  C    0.039368   0.058733
    11  H    0.000001   0.000003
    12  S   -0.000174  -0.000031
    13  O   -0.000000   0.000000
    14  O    0.000000  -0.000000
    15  N   -0.000002   0.000004
    16  H   -0.000000   0.000000
    17  C    0.399838   0.397591
    18  H   -0.028190  -0.028457
    19  H    0.525001  -0.045793
    20  H   -0.045793   0.526968
 Mulliken charges:
               1
     1  C   -1.048638
     2  C    0.044246
     3  H    0.238508
     4  C   -0.012098
     5  H    0.195405
     6  C    0.011900
     7  O   -0.407584
     8  C    0.736710
     9  H    0.176523
    10  C   -1.122734
    11  H    0.242941
    12  S    1.412294
    13  O   -0.600715
    14  O   -0.603363
    15  N   -0.879343
    16  H    0.334034
    17  C   -0.328348
    18  H    0.199726
    19  H    0.205978
    20  H    0.204558
 Sum of Mulliken charges =  -1.00000
 Mulliken charges with hydrogens summed into heavy atoms:
               1
     1  C   -1.048638
     2  C    0.282754
     4  C    0.183308
     6  C    0.011900
     7  O   -0.407584
     8  C    0.913233
    10  C   -0.879793
    12  S    1.412294
    13  O   -0.600715
    14  O   -0.603363
    15  N   -0.545309
    17  C    0.281914
 Electronic spatial extent (au):  <R**2>=           2871.5154
 Charge=             -1.0000 electrons
 Dipole moment (field-independent basis, Debye):
    X=             13.6456    Y=              1.1476    Z=             -1.5566  Tot=             13.7819
 Quadrupole moment (field-independent basis, Debye-Ang):
   XX=           -121.9415   YY=            -84.5757   ZZ=            -90.4770
   XY=              6.6201   XZ=              4.4456   YZ=             -3.4818
 Traceless Quadrupole moment (field-independent basis, Debye-Ang):
   XX=            -22.9435   YY=             14.4224   ZZ=              8.5211
   XY=              6.6201   XZ=              4.4456   YZ=             -3.4818
 Octapole moment (field-independent basis, Debye-Ang**2):
  XXX=            156.8430  YYY=            -17.9408  ZZZ=             -5.0857  XYY=             25.6344
  XXY=             15.7794  XXZ=             -9.4641  XZZ=             17.6843  YZZ=              7.4039
  YYZ=             -3.1087  XYZ=              9.7848
 Hexadecapole moment (field-independent basis, Debye-Ang**3):
 XXXX=          -3332.3809 YYYY=           -541.0649 ZZZZ=           -237.7954 XXXY=            123.8686
 XXXZ=             26.5989 YYYX=             37.1352 YYYZ=            -12.2481 ZZZX=             14.6566
 ZZZY=             -5.4810 XXYY=           -680.5326 XXZZ=           -613.9057 YYZZ=           -132.8459
 XXYZ=            -25.4167 YYXZ=              8.3906 ZZXY=            -15.8954
 N-N= 8.072293879831D+02 E-N=-3.861884220506D+03  KE= 9.438480363917D+02
 Calling FoFJK, ICntrl=      2127 FMM=F ISym2X=0 I1Cent= 0 IOpClX= 0 NMat=1 NMatS=1 NMatT=0.
 ***** Axes restored to original set *****
 -------------------------------------------------------------------
 Center     Atomic                   Forces (Hartrees/Bohr)
 Number     Number              X              Y              Z
 -------------------------------------------------------------------
      1        6           0.001681244    0.000303887   -0.002739727
      2        6           0.002398546    0.000173426   -0.002231829
      3        1           0.001823325   -0.000004729    0.002544158
      4        6           0.002095944    0.000052433   -0.000853496
      5        1           0.000526938    0.000099774   -0.001299802
      6        6           0.001033824   -0.000715085    0.005862639
      7        8           0.008268067    0.001502204   -0.013780975
      8        6          -0.003483779    0.000383121   -0.002415937
      9        1           0.000527649   -0.000015788   -0.000577052
     10        6          -0.002841615    0.000705490   -0.001050495
     11        1          -0.001376200   -0.001058478    0.002772199
     12       16          -0.022107854   -0.014499107    0.033633016
     13        8           0.008519004   -0.001245282   -0.010928837
     14        8           0.006184394    0.011976436   -0.010019376
     15        7           0.009358582    0.002479235   -0.007029871
     16        1          -0.002852289    0.000505791    0.001570742
     17        6          -0.012519416   -0.000701764    0.006659072
     18        1          -0.000230554    0.000091422   -0.000769170
     19        1           0.001481441   -0.000628266    0.000266178
     20        1           0.001512751    0.000595281    0.000388563
 -------------------------------------------------------------------
 Cartesian Forces:  Max     0.033633016 RMS     0.007119409

 GradGradGradGradGradGradGradGradGradGradGradGradGradGradGradGradGradGrad
 Berny optimization.
 FormGI is forming the generalized inverse of G from B-inverse, IUseBI=4.
 Internal  Forces:  Max     0.014425877 RMS     0.003863101
 Search for a local minimum.
 Step number   1 out of a maximum of  100
 All quantities printed in internal units (Hartrees-Bohrs-Radians)
 Mixed Optimization -- RFO/linear search
 Second derivative matrix not updated -- first step.
 ITU=  0
     Eigenvalues ---    0.00407   0.01365   0.01470   0.02089   0.02112
     Eigenvalues ---    0.02131   0.02149   0.02168   0.02174   0.02177
     Eigenvalues ---    0.02201   0.02220   0.03148   0.10146   0.10190
     Eigenvalues ---    0.10687   0.11836   0.16000   0.16000   0.16000
     Eigenvalues ---    0.16000   0.16000   0.16000   0.16000   0.16000
     Eigenvalues ---    0.17251   0.21736   0.22000   0.22980   0.23997
     Eigenvalues ---    0.24989   0.25000   0.25000   0.25000   0.26337
     Eigenvalues ---    0.34277   0.34278   0.34868   0.35214   0.35275
     Eigenvalues ---    0.35281   0.35538   0.41760   0.42049   0.42172
     Eigenvalues ---    0.43822   0.45526   0.46057   0.46989   0.47788
     Eigenvalues ---    0.52245   0.59809   0.77177   0.79043
 RFO step:  Lambda=-5.91428923D-03 EMin= 4.07152802D-03
 Linear search not attempted -- first point.
 Iteration  1 RMS(Cart)=  0.03757573 RMS(Int)=  0.00143133
 Iteration  2 RMS(Cart)=  0.00131143 RMS(Int)=  0.00064720
 Iteration  3 RMS(Cart)=  0.00000153 RMS(Int)=  0.00064720
 Iteration  4 RMS(Cart)=  0.00000000 RMS(Int)=  0.00064720
 Variable       Old X    -DE/DX   Delta X   Delta X   Delta X     New X
                                 (Linear)    (Quad)   (Total)
    R1        2.64553  -0.00201   0.00000  -0.00449  -0.00449   2.64105
    R2        2.62227  -0.00322   0.00000  -0.00676  -0.00675   2.61552
    R3        3.39624   0.00731   0.00000   0.02714   0.02714   3.42338
    R4        2.05329  -0.00048   0.00000  -0.00135  -0.00135   2.05194
    R5        2.61703   0.00266   0.00000   0.00540   0.00539   2.62242
    R6        2.05221   0.00029   0.00000   0.00081   0.00081   2.05302
    R7        2.65241  -0.00236   0.00000  -0.00508  -0.00509   2.64732
    R8        2.57666   0.00731   0.00000   0.01384   0.01384   2.59050
    R9        2.63743  -0.00162   0.00000  -0.00331  -0.00331   2.63412
   R10        2.69230  -0.01171   0.00000  -0.02764  -0.02764   2.66466
   R11        2.04811   0.00073   0.00000   0.00201   0.00201   2.05012
   R12        2.64198   0.00384   0.00000   0.00830   0.00830   2.65028
   R13        2.05230   0.00042   0.00000   0.00118   0.00118   2.05349
   R14        2.83175  -0.00966   0.00000  -0.01243  -0.01243   2.81932
   R15        2.82136  -0.01443   0.00000  -0.01812  -0.01812   2.80324
   R16        2.94791   0.00380   0.00000   0.00629   0.00629   2.95421
   R17        1.93368  -0.00029   0.00000  -0.00064  -0.00064   1.93304
   R18        2.05890   0.00080   0.00000   0.00227   0.00227   2.06117
   R19        2.06866   0.00134   0.00000   0.00384   0.00384   2.07250
   R20        2.06863   0.00140   0.00000   0.00402   0.00402   2.07265
    A1        2.09731  -0.00307   0.00000  -0.01285  -0.01284   2.08446
    A2        2.08200   0.00123   0.00000   0.00520   0.00520   2.08720
    A3        2.10351   0.00184   0.00000   0.00761   0.00761   2.11112
    A4        2.10028  -0.00434   0.00000  -0.02383  -0.02383   2.07645
    A5        2.09203   0.00236   0.00000   0.00957   0.00957   2.10160
    A6        2.09087   0.00198   0.00000   0.01424   0.01424   2.10510
    A7        2.11251   0.00119   0.00000   0.00771   0.00771   2.12022
    A8        2.09386   0.00046   0.00000   0.00163   0.00162   2.09548
    A9        2.07681  -0.00164   0.00000  -0.00933  -0.00933   2.06748
   A10        2.01963   0.00046   0.00000   0.00178   0.00178   2.02141
   A11        2.09979  -0.00216   0.00000  -0.00845  -0.00845   2.09134
   A12        2.16377   0.00171   0.00000   0.00667   0.00667   2.17043
   A13        2.05135  -0.00212   0.00000  -0.00829  -0.00829   2.04306
   A14        2.11814  -0.00071   0.00000  -0.00359  -0.00360   2.11454
   A15        2.08107   0.00085   0.00000   0.00371   0.00372   2.08479
   A16        2.08397  -0.00014   0.00000  -0.00012  -0.00013   2.08385
   A17        2.10230   0.00157   0.00000   0.00640   0.00638   2.10868
   A18        2.09157  -0.00402   0.00000  -0.02271  -0.02274   2.06883
   A19        2.08932   0.00246   0.00000   0.01634   0.01630   2.10562
   A20        1.80531  -0.00772   0.00000  -0.05037  -0.05093   1.75438
   A21        1.83214  -0.00843   0.00000  -0.04460  -0.04434   1.78780
   A22        1.93004  -0.00854   0.00000  -0.05176  -0.05224   1.87780
   A23        1.96683   0.00735   0.00000   0.05966   0.05676   2.02359
   A24        2.01342   0.00563   0.00000   0.02213   0.01865   2.03206
   A25        1.90533   0.00873   0.00000   0.04855   0.04606   1.95139
   A26        1.89062  -0.00363   0.00000  -0.02187  -0.02187   1.86875
   A27        1.84679  -0.00017   0.00000  -0.00049  -0.00050   1.84630
   A28        1.93276   0.00080   0.00000   0.00454   0.00453   1.93730
   A29        1.93310   0.00078   0.00000   0.00444   0.00444   1.93754
   A30        1.91548  -0.00006   0.00000   0.00018   0.00017   1.91566
   A31        1.91527  -0.00008   0.00000  -0.00002  -0.00002   1.91525
   A32        1.91921  -0.00122   0.00000  -0.00831  -0.00831   1.91089
    D1       -3.14044   0.00012   0.00000   0.00406   0.00401  -3.13643
    D2       -0.00263  -0.00002   0.00000  -0.00120  -0.00122  -0.00385
    D3        0.03032   0.00011   0.00000   0.00528   0.00522   0.03553
    D4       -3.11506  -0.00003   0.00000   0.00002  -0.00001  -3.11507
    D5        0.00518  -0.00001   0.00000   0.00024   0.00024   0.00542
    D6       -3.13882   0.00037   0.00000   0.01402   0.01388  -3.12494
    D7        3.11724  -0.00001   0.00000  -0.00104  -0.00102   3.11622
    D8       -0.02676   0.00038   0.00000   0.01274   0.01262  -0.01414
    D9       -0.83903  -0.00091   0.00000   0.02494   0.02560  -0.81343
   D10        1.22612   0.00044   0.00000   0.05117   0.05091   1.27702
   D11       -3.00434   0.00172   0.00000   0.05747   0.05708  -2.94726
   D12        2.33184  -0.00084   0.00000   0.02652   0.02717   2.35901
   D13       -1.88620   0.00051   0.00000   0.05274   0.05248  -1.83372
   D14        0.16652   0.00179   0.00000   0.05904   0.05865   0.22518
   D15       -3.13966   0.00003   0.00000   0.00106   0.00109  -3.13856
   D16       -0.00020   0.00002   0.00000   0.00087   0.00089   0.00069
   D17       -0.00183  -0.00013   0.00000  -0.00426  -0.00431  -0.00614
   D18        3.13763  -0.00014   0.00000  -0.00444  -0.00451   3.13312
   D19       -3.13996  -0.00003   0.00000  -0.00090  -0.00090  -3.14086
   D20        0.00051   0.00001   0.00000   0.00042   0.00042   0.00094
   D21       -0.00046  -0.00003   0.00000  -0.00106  -0.00108  -0.00153
   D22        3.14001   0.00000   0.00000   0.00026   0.00025   3.14026
   D23       -3.13586   0.00003   0.00000   0.00115   0.00116  -3.13470
   D24        0.00690  -0.00000   0.00000  -0.00021  -0.00023   0.00668
   D25       -3.13985  -0.00014   0.00000  -0.00522  -0.00526   3.13808
   D26        0.00197  -0.00004   0.00000  -0.00137  -0.00139   0.00059
   D27        0.00052  -0.00011   0.00000  -0.00379  -0.00381  -0.00329
   D28       -3.14084  -0.00000   0.00000   0.00006   0.00006  -3.14078
   D29        3.13762  -0.00000   0.00000  -0.00067  -0.00067   3.13695
   D30        1.06301  -0.00026   0.00000  -0.00300  -0.00301   1.06001
   D31       -1.07102   0.00022   0.00000   0.00139   0.00139  -1.06964
   D32       -0.00482   0.00003   0.00000   0.00100   0.00101  -0.00381
   D33        3.13917  -0.00035   0.00000  -0.01272  -0.01286   3.12631
   D34        3.13700   0.00013   0.00000   0.00477   0.00482  -3.14137
   D35       -0.00219  -0.00025   0.00000  -0.00894  -0.00906  -0.01125
   D36        1.27001   0.00082   0.00000   0.03315   0.03351   1.30352
   D37       -0.77056   0.01322   0.00000   0.12083   0.12274  -0.64782
   D38       -3.00591  -0.00908   0.00000  -0.02154  -0.02382  -3.02973
         Item               Value     Threshold  Converged?
 Maximum Force            0.014426     0.000450     NO 
 RMS     Force            0.003863     0.000300     NO 
 Maximum Displacement     0.135022     0.001800     NO 
 RMS     Displacement     0.037546     0.001200     NO 
 Predicted change in Energy=-3.160019D-03
 GradGradGradGradGradGradGradGradGradGradGradGradGradGradGradGradGradGrad

                          Input orientation:                          
 ---------------------------------------------------------------------
 Center     Atomic      Atomic             Coordinates (Angstroms)
 Number     Number       Type             X           Y           Z
 ---------------------------------------------------------------------
      1          6           0       -1.337471    0.769874   -0.926187
      2          6           0       -2.505945    0.878146   -1.685250
      3          1           0       -3.466441    0.844068   -1.179943
      4          6           0       -2.437015    1.037555   -3.062065
      5          1           0       -3.334028    1.126267   -3.668520
      6          6           0       -1.191387    1.090172   -3.700944
      7          8           0       -1.224781    1.250450   -5.061965
      8          6           0       -0.022018    0.980872   -2.950187
      9          1           0        0.953798    1.015551   -3.422980
     10          6           0       -0.107912    0.818319   -1.559822
     11          1           0        0.790823    0.716938   -0.957474
     12         16           0       -1.453898    0.520948    0.864423
     13          8           0       -2.474672    1.550385    1.216704
     14          8           0       -1.896127   -0.891618    0.962429
     15          7           0       -0.024488    0.724872    1.463677
     16          1           0        0.162675    1.730508    1.458398
     17          6           0        0.014567    1.298217   -5.732823
     18          1           0       -0.224710    1.423071   -6.789626
     19          1           0        0.576355    0.367621   -5.587302
     20          1           0        0.616723    2.147050   -5.386615
 ---------------------------------------------------------------------
                    Distance matrix (angstroms):
                    1          2          3          4          5
     1  C    0.000000
     2  C    1.397581   0.000000
     3  H    2.145323   1.085840   0.000000
     4  C    2.417153   1.387725   2.153958   0.000000
     5  H    3.410814   2.163480   2.508024   1.086411   0.000000
     6  C    2.797000   2.415789   3.404685   1.400902   2.143191
     7  O    4.165131   3.630729   4.501142   2.348284   2.531014
     8  C    2.423120   2.789357   3.875117   2.418252   3.392132
     9  H    3.397683   3.874069   4.959752   3.410038   4.296278
    10  C    1.384072   2.402056   3.380042   2.780201   3.866428
    11  H    2.129181   3.379989   4.264968   3.866657   4.952950
    12  S    1.811575   2.781228   2.886896   4.080528   4.944580
    13  O    2.548413   2.978963   2.688198   4.309557   4.978332
    14  O    2.576727   3.242553   3.173051   4.495644   5.252153
    15  N    2.727160   4.012090   4.341656   5.138132   6.119937
    16  H    2.976491   4.210770   4.573522   5.260529   6.235169
    17  C    5.021046   4.786678   5.749120   3.634714   3.937512
    18  H    6.003734   5.617440   6.504814   4.351739   4.415569
    19  H    5.054753   4.998722   5.999668   3.988237   4.421353
    20  H    5.060722   5.006123   6.005503   3.994975   4.427446
                    6          7          8          9         10
     6  C    0.000000
     7  O    1.370833   0.000000
     8  C    1.393918   2.445183   0.000000
     9  H    2.164405   2.736358   1.084875   0.000000
    10  C    2.415000   3.701235   1.402468   2.153483   0.000000
    11  H    3.405156   4.603710   2.168242   2.488866   1.086658
    12  S    4.608199   5.975512   4.100373   4.942010   2.788740
    13  O    5.103124   6.408890   4.868556   5.793715   3.721098
    14  O    5.115779   6.429034   4.725152   5.566972   3.533178
    15  N    5.307392   6.655896   4.421282   4.992090   3.026093
    16  H    5.372367   6.683609   4.475677   4.996489   3.164642
    17  C    2.371948   1.410076   2.800912   2.509468   4.202290
    18  H    3.253497   2.003685   3.870132   3.590161   5.265949
    19  H    2.684276   2.073512   2.772815   2.290538   4.109981
    20  H    2.688445   2.073747   2.775633   2.291237   4.115211
                   11         12         13         14         15
    11  H    0.000000
    12  S    2.897670   0.000000
    13  O    4.010628   1.491919   0.000000
    14  O    3.673306   1.483413   2.522449   0.000000
    15  N    2.554754   1.563299   2.597282   2.523355   0.000000
    16  H    2.694129   2.104555   2.654517   3.370489   1.022919
    17  C    4.872825   6.803248   7.386191   7.298803   7.219409
    18  H    5.961873   7.804434   8.317443   8.261100   8.285203
    19  H    4.647939   6.765367   7.549980   7.113215   7.085546
    20  H    4.657555   6.782857   7.315501   7.473839   7.025685
                   16         17         18         19         20
    16  H    0.000000
    17  C    7.205725   0.000000
    18  H    8.262838   1.090722   0.000000
    19  H    7.188219   1.096718   1.789207   0.000000
    20  H    6.872690   1.096800   1.789021   1.791165   0.000000
 Stoichiometry    C7H8NO3S(1-)
 Framework group  C1[X(C7H8NO3S)]
 Deg. of freedom    54
 Full point group                 C1      NOp   1
 Largest Abelian subgroup         C1      NOp   1
 Largest concise Abelian subgroup C1      NOp   1
                         Standard orientation:                         
 ---------------------------------------------------------------------
 Center     Atomic      Atomic             Coordinates (Angstroms)
 Number     Number       Type             X           Y           Z
 ---------------------------------------------------------------------
      1          6           0       -0.553658   -0.051514   -0.015668
      2          6           0        0.050680   -1.311593   -0.030139
      3          1           0       -0.578373   -2.196383   -0.052270
      4          6           0        1.433547   -1.427563   -0.027180
      5          1           0        1.921499   -2.398130   -0.041059
      6          6           0        2.234139   -0.278111   -0.008771
      7          8           0        3.587956   -0.493432   -0.008176
      8          6           0        1.637978    0.981781    0.007691
      9          1           0        2.237133    1.886023    0.025359
     10          6           0        0.239153    1.082779    0.006324
     11          1           0       -0.245994    2.054753    0.033260
     12         16           0       -2.360520    0.073556    0.021896
     13          8           0       -2.723796   -0.911307   -1.038245
     14          8           0       -2.679378   -0.325032    1.414724
     15          7           0       -2.736701    1.565288   -0.255823
     16          1           0       -2.590158    1.731006   -1.254535
     17          6           0        4.418629    0.645676    0.018822
     18          1           0        5.441516    0.267025    0.019617
     19          1           0        4.242319    1.239292    0.923988
     20          1           0        4.256215    1.271951   -0.866825
 ---------------------------------------------------------------------
 Rotational constants (GHZ):           2.4288081           0.4168559           0.3847045
 Basis read from rwf:  (6D, 7F)
 There are   248 symmetry adapted cartesian basis functions of A   symmetry.
 There are   248 symmetry adapted basis functions of A   symmetry.
   248 basis functions,   440 primitive gaussians,   248 cartesian basis functions
    49 alpha electrons       49 beta electrons
       nuclear repulsion energy       808.4450534708 Hartrees.
 NAtoms=   20 NActive=   20 NUniq=   20 SFac= 1.00D+00 NAtFMM=   60 NAOKFM=F Big=F
 Integral buffers will be    131072 words long.
 Raffenetti 2 integral format.
 Two-electron integral symmetry is turned on.
 One-electron integrals computed using PRISM.
 NBasis=   248 RedAO= T EigKep=  1.78D-06  NBF=   248
 NBsUse=   248 1.00D-06 EigRej= -1.00D+00 NBFU=   248
 Initial guess from the checkpoint file:  "/jobfs/48698451.gadi-pbs/Gau-1614726.chk"
 B after Tr=     0.000000    0.000000   -0.000000
         Rot=    0.999960    0.008892   -0.000056   -0.000350 Ang=   1.02 deg.
 ExpMin= 4.05D-02 ExpMax= 2.19D+04 ExpMxC= 3.30D+03 IAcc=3 IRadAn=         5 AccDes= 0.00D+00
 Harris functional with IExCor= 1009 and IRadAn=       5 diagonalized for initial guess.
 HarFok:  IExCor= 1009 AccDes= 0.00D+00 IRadAn=         5 IDoV= 1 UseB2=F ITyADJ=14
 ICtDFT=  3500011 ScaDFX=  1.000000  1.000000  1.000000  1.000000
 FoFCou: FMM=F IPFlag=           0 FMFlag=      100000 FMFlg1=           0
         NFxFlg=           0 DoJE=T BraDBF=F KetDBF=T FulRan=T
         wScrn=  0.000000 ICntrl=       500 IOpCl=  0 I1Cent=   200000004 NGrid=           0
         NMat0=    1 NMatS0=      1 NMatT0=    0 NMatD0=    1 NMtDS0=    0 NMtDT0=    0
 Petite list used in FoFCou.
 Requested convergence on RMS density matrix=1.00D-08 within 128 cycles.
 Requested convergence on MAX density matrix=1.00D-06.
 Requested convergence on             energy=1.00D-06.
 No special actions if energy rises.
 SCF Done:  E(RM062X) =  -949.894216550     A.U. after   14 cycles
            NFock= 14  Conv=0.70D-08     -V/T= 2.0064
 Calling FoFJK, ICntrl=      2127 FMM=F ISym2X=0 I1Cent= 0 IOpClX= 0 NMat=1 NMatS=1 NMatT=0.
 ***** Axes restored to original set *****
 -------------------------------------------------------------------
 Center     Atomic                   Forces (Hartrees/Bohr)
 Number     Number              X              Y              Z
 -------------------------------------------------------------------
      1        6           0.001264767   -0.000126336   -0.003439662
      2        6           0.000106607    0.000535492   -0.002691942
      3        1          -0.000184200    0.000150119    0.000460503
      4        6          -0.000463648   -0.000093198    0.000653016
      5        1          -0.000087067    0.000009426   -0.000259722
      6        6           0.000126539   -0.000604568    0.004131398
      7        8           0.002276356    0.000484909   -0.003722935
      8        6          -0.000098396    0.000303755   -0.000529024
      9        1           0.000269783    0.000016895    0.000078994
     10        6           0.000152211   -0.000722286   -0.002787127
     11        1           0.000023093    0.000041904    0.000582587
     12       16          -0.006541367   -0.001532345   -0.004161790
     13        8           0.003325495   -0.004090141    0.003215687
     14        8           0.003032703    0.007646736    0.004338937
     15        7           0.001424919   -0.001961502    0.001045124
     16        1          -0.002444836    0.000034903    0.002176012
     17        6          -0.005046408   -0.000161638    0.001987129
     18        1           0.000807148    0.000043042   -0.000559888
     19        1           0.001021582   -0.000122047   -0.000283401
     20        1           0.001034720    0.000146881   -0.000233895
 -------------------------------------------------------------------
 Cartesian Forces:  Max     0.007646736 RMS     0.002255691

 GradGradGradGradGradGradGradGradGradGradGradGradGradGradGradGradGradGrad
 Berny optimization.
 Using GEDIIS/GDIIS optimizer.
 FormGI is forming the generalized inverse of G from B-inverse, IUseBI=4.
 Internal  Forces:  Max     0.007897888 RMS     0.001961659
 Search for a local minimum.
 Step number   2 out of a maximum of  100
 All quantities printed in internal units (Hartrees-Bohrs-Radians)
 Mixed Optimization -- RFO/linear search
 Update second derivatives using D2CorX and points    1    2
 DE= -2.49D-03 DEPred=-3.16D-03 R= 7.88D-01
 TightC=F SS=  1.41D+00  RLast= 2.22D-01 DXNew= 5.0454D-01 6.6602D-01
 Trust test= 7.88D-01 RLast= 2.22D-01 DXMaxT set to 5.05D-01
 ITU=  1  0
 Use linear search instead of GDIIS.
     Eigenvalues ---    0.00401   0.01365   0.01461   0.02089   0.02112
     Eigenvalues ---    0.02131   0.02149   0.02170   0.02174   0.02178
     Eigenvalues ---    0.02201   0.02219   0.02920   0.10104   0.10663
     Eigenvalues ---    0.11231   0.12470   0.15206   0.15999   0.16000
     Eigenvalues ---    0.16000   0.16000   0.16000   0.16000   0.16003
     Eigenvalues ---    0.21141   0.21994   0.22598   0.23634   0.23953
     Eigenvalues ---    0.24913   0.24991   0.25000   0.25017   0.29007
     Eigenvalues ---    0.34223   0.34277   0.34859   0.35230   0.35273
     Eigenvalues ---    0.35281   0.35532   0.40572   0.42089   0.42256
     Eigenvalues ---    0.43824   0.45555   0.46058   0.47241   0.47831
     Eigenvalues ---    0.51653   0.59760   0.74532   0.77965
 RFO step:  Lambda=-1.37181727D-03 EMin= 4.01092973D-03
 Quartic linear search produced a step of -0.13659.
 Iteration  1 RMS(Cart)=  0.05079414 RMS(Int)=  0.00147285
 Iteration  2 RMS(Cart)=  0.00165576 RMS(Int)=  0.00004700
 Iteration  3 RMS(Cart)=  0.00000117 RMS(Int)=  0.00004700
 Iteration  4 RMS(Cart)=  0.00000000 RMS(Int)=  0.00004700
 Variable       Old X    -DE/DX   Delta X   Delta X   Delta X     New X
                                 (Linear)    (Quad)   (Total)
    R1        2.64105   0.00123   0.00061   0.00079   0.00141   2.64245
    R2        2.61552   0.00117   0.00092  -0.00022   0.00070   2.61622
    R3        3.42338   0.00660  -0.00371   0.03096   0.02726   3.45064
    R4        2.05194   0.00037   0.00018   0.00042   0.00060   2.05254
    R5        2.62242  -0.00082  -0.00074   0.00046  -0.00028   2.62214
    R6        2.05302   0.00022  -0.00011   0.00082   0.00070   2.05372
    R7        2.64732  -0.00006   0.00069  -0.00203  -0.00134   2.64598
    R8        2.59050   0.00283  -0.00189   0.00954   0.00765   2.59815
    R9        2.63412  -0.00059   0.00045  -0.00235  -0.00190   2.63222
   R10        2.66466  -0.00234   0.00378  -0.01462  -0.01085   2.65381
   R11        2.05012   0.00021  -0.00027   0.00122   0.00094   2.05106
   R12        2.65028  -0.00043  -0.00113   0.00217   0.00103   2.65131
   R13        2.05349   0.00034  -0.00016   0.00124   0.00107   2.05456
   R14        2.81932  -0.00434   0.00170  -0.00921  -0.00751   2.81181
   R15        2.80324  -0.00790   0.00247  -0.01495  -0.01248   2.79076
   R16        2.95421   0.00004  -0.00086   0.00230   0.00144   2.95565
   R17        1.93304  -0.00042   0.00009  -0.00105  -0.00096   1.93207
   R18        2.06117   0.00037  -0.00031   0.00171   0.00140   2.06256
   R19        2.07250   0.00059  -0.00052   0.00283   0.00231   2.07481
   R20        2.07265   0.00061  -0.00055   0.00295   0.00240   2.07505
    A1        2.08446  -0.00116   0.00175  -0.00823  -0.00647   2.07799
    A2        2.08720   0.00041  -0.00071   0.00308   0.00237   2.08956
    A3        2.11112   0.00074  -0.00104   0.00506   0.00402   2.11514
    A4        2.07645  -0.00055   0.00326  -0.01119  -0.00794   2.06851
    A5        2.10160   0.00049  -0.00131   0.00545   0.00414   2.10574
    A6        2.10510   0.00006  -0.00194   0.00570   0.00375   2.10886
    A7        2.12022   0.00029  -0.00105   0.00427   0.00322   2.12344
    A8        2.09548  -0.00024  -0.00022  -0.00061  -0.00084   2.09465
    A9        2.06748  -0.00005   0.00127  -0.00366  -0.00239   2.06509
   A10        2.02141  -0.00024  -0.00024   0.00000  -0.00024   2.02117
   A11        2.09134   0.00069   0.00115  -0.00104   0.00012   2.09146
   A12        2.17043  -0.00045  -0.00091   0.00103   0.00012   2.17056
   A13        2.04306   0.00025   0.00113  -0.00211  -0.00098   2.04208
   A14        2.11454   0.00038   0.00049   0.00057   0.00106   2.11560
   A15        2.08479  -0.00038  -0.00051  -0.00034  -0.00085   2.08394
   A16        2.08385  -0.00000   0.00002  -0.00023  -0.00021   2.08363
   A17        2.10868   0.00059  -0.00087   0.00475   0.00388   2.11256
   A18        2.06883  -0.00077   0.00311  -0.01189  -0.00878   2.06005
   A19        2.10562   0.00018  -0.00223   0.00715   0.00492   2.11054
   A20        1.75438   0.00551   0.00696   0.01172   0.01877   1.77315
   A21        1.78780   0.00405   0.00606   0.00483   0.01086   1.79866
   A22        1.87780   0.00383   0.00714   0.00177   0.00901   1.88680
   A23        2.02359  -0.00160  -0.00775   0.00582  -0.00187   2.02172
   A24        2.03206  -0.00403  -0.00255  -0.01154  -0.01381   2.01825
   A25        1.95139  -0.00436  -0.00629  -0.00766  -0.01376   1.93763
   A26        1.86875  -0.00258   0.00299  -0.02148  -0.01849   1.85026
   A27        1.84630   0.00108   0.00007   0.00579   0.00584   1.85214
   A28        1.93730   0.00085  -0.00062   0.00599   0.00536   1.94265
   A29        1.93754   0.00083  -0.00061   0.00585   0.00523   1.94277
   A30        1.91566  -0.00081  -0.00002  -0.00399  -0.00403   1.91163
   A31        1.91525  -0.00080   0.00000  -0.00400  -0.00402   1.91124
   A32        1.91089  -0.00111   0.00114  -0.00932  -0.00819   1.90270
    D1       -3.13643   0.00006  -0.00055   0.00306   0.00251  -3.13392
    D2       -0.00385  -0.00003   0.00017  -0.00228  -0.00210  -0.00596
    D3        0.03553   0.00009  -0.00071   0.00616   0.00544   0.04097
    D4       -3.11507   0.00000   0.00000   0.00082   0.00082  -3.11425
    D5        0.00542   0.00011  -0.00003   0.00463   0.00458   0.01000
    D6       -3.12494  -0.00004  -0.00190   0.00423   0.00236  -3.12258
    D7        3.11622   0.00007   0.00014   0.00144   0.00158   3.11779
    D8       -0.01414  -0.00008  -0.00172   0.00105  -0.00065  -0.01479
    D9       -0.81343  -0.00024  -0.00350   0.07702   0.07341  -0.74002
   D10        1.27702   0.00139  -0.00695   0.08915   0.08228   1.35930
   D11       -2.94726  -0.00001  -0.00780   0.08354   0.07576  -2.87151
   D12        2.35901  -0.00018  -0.00371   0.08040   0.07659   2.43560
   D13       -1.83372   0.00145  -0.00717   0.09254   0.08546  -1.74827
   D14        0.22518   0.00005  -0.00801   0.08692   0.07894   0.30411
   D15       -3.13856   0.00002  -0.00015   0.00135   0.00120  -3.13736
   D16        0.00069  -0.00003  -0.00012  -0.00054  -0.00066   0.00003
   D17       -0.00614  -0.00007   0.00059  -0.00417  -0.00358  -0.00972
   D18        3.13312  -0.00012   0.00062  -0.00606  -0.00544   3.12768
   D19       -3.14086   0.00007   0.00012   0.00214   0.00226  -3.13860
   D20        0.00094   0.00002  -0.00006   0.00107   0.00100   0.00194
   D21       -0.00153   0.00002   0.00015   0.00032   0.00046  -0.00107
   D22        3.14026  -0.00003  -0.00003  -0.00075  -0.00079   3.13948
   D23       -3.13470   0.00002  -0.00016   0.00110   0.00094  -3.13376
   D24        0.00668   0.00006   0.00003   0.00223   0.00226   0.00894
   D25        3.13808   0.00003   0.00072  -0.00102  -0.00030   3.13777
   D26        0.00059   0.00005   0.00019   0.00122   0.00141   0.00200
   D27       -0.00329  -0.00002   0.00052  -0.00219  -0.00167  -0.00496
   D28       -3.14078   0.00000  -0.00001   0.00005   0.00004  -3.14074
   D29        3.13695   0.00001   0.00009   0.00004   0.00013   3.13708
   D30        1.06001  -0.00012   0.00041  -0.00185  -0.00145   1.05856
   D31       -1.06964   0.00013  -0.00019   0.00183   0.00165  -1.06799
   D32       -0.00381  -0.00012  -0.00014  -0.00413  -0.00427  -0.00808
   D33        3.12631   0.00003   0.00176  -0.00385  -0.00207   3.12424
   D34       -3.14137  -0.00010  -0.00066  -0.00192  -0.00260   3.13922
   D35       -0.01125   0.00005   0.00124  -0.00165  -0.00039  -0.01164
   D36        1.30352   0.00264  -0.00458   0.06601   0.06136   1.36488
   D37       -0.64782  -0.00456  -0.01676   0.05653   0.03970  -0.60812
   D38       -3.02973   0.00739   0.00325   0.06889   0.07228  -2.95745
         Item               Value     Threshold  Converged?
 Maximum Force            0.007898     0.000450     NO 
 RMS     Force            0.001962     0.000300     NO 
 Maximum Displacement     0.201826     0.001800     NO 
 RMS     Displacement     0.050744     0.001200     NO 
 Predicted change in Energy=-7.868899D-04
 GradGradGradGradGradGradGradGradGradGradGradGradGradGradGradGradGradGrad

                          Input orientation:                          
 ---------------------------------------------------------------------
 Center     Atomic      Atomic             Coordinates (Angstroms)
 Number     Number       Type             X           Y           Z
 ---------------------------------------------------------------------
      1          6           0       -1.327482    0.764891   -0.932404
      2          6           0       -2.495420    0.900731   -1.689227
      3          1           0       -3.451599    0.887075   -1.174178
      4          6           0       -2.431339    1.065690   -3.065474
      5          1           0       -3.328215    1.176682   -3.669123
      6          6           0       -1.188701    1.097419   -3.709980
      7          8           0       -1.225995    1.268386   -5.073680
      8          6           0       -0.018800    0.960715   -2.966442
      9          1           0        0.956056    0.978482   -3.443280
     10          6           0       -0.102175    0.789977   -1.576353
     11          1           0        0.794257    0.664833   -0.974015
     12         16           0       -1.442568    0.506137    0.871501
     13          8           0       -2.513562    1.469544    1.244063
     14          8           0       -1.796137   -0.923492    0.981575
     15          7           0       -0.034880    0.785358    1.493386
     16          1           0        0.055873    1.802641    1.540491
     17          6           0        0.006142    1.294216   -5.746978
     18          1           0       -0.228917    1.431614   -6.803935
     19          1           0        0.554170    0.352411   -5.612293
     20          1           0        0.633340    2.125956   -5.399726
 ---------------------------------------------------------------------
                    Distance matrix (angstroms):
                    1          2          3          4          5
     1  C    0.000000
     2  C    1.398325   0.000000
     3  H    2.141321   1.086158   0.000000
     4  C    2.420530   1.387578   2.156347   0.000000
     5  H    3.414987   2.165568   2.514726   1.086784   0.000000
     6  C    2.800851   2.414466   3.405179   1.400194   2.141372
     7  O    4.173006   3.633337   4.506088   2.350922   2.529925
     8  C    2.426584   2.787208   3.873208   2.416852   3.390079
     9  H    3.400687   3.872394   4.958286   3.409514   4.294795
    10  C    1.384442   2.398464   3.374880   2.778219   3.864785
    11  H    2.124505   3.374782   4.256378   3.865146   4.951805
    12  S    1.825999   2.796700   2.892425   4.097626   4.962113
    13  O    2.576883   2.987986   2.658396   4.329199   4.988870
    14  O    2.594916   3.309074   3.265881   4.554001   5.327944
    15  N    2.748763   4.024500   4.335922   5.157985   6.136016
    16  H    3.017583   4.213504   4.528802   5.286231   6.243714
    17  C    5.023830   4.783094   5.747368   3.630978   3.930551
    18  H    6.010512   5.619530   6.509714   4.354384   4.415619
    19  H    5.060842   4.999111   6.002409   3.988524   4.419078
    20  H    5.065006   5.005809   6.006397   3.995642   4.426062
                    6          7          8          9         10
     6  C    0.000000
     7  O    1.374881   0.000000
     8  C    1.392913   2.447945   0.000000
     9  H    2.164546   2.739268   1.085373   0.000000
    10  C    2.414006   3.704476   1.403015   2.154253   0.000000
    11  H    3.406576   4.610092   2.172182   2.494359   1.087227
    12  S    4.626449   5.997759   4.118685   4.959218   2.805211
    13  O    5.141622   6.450749   4.920477   5.852399   3.772445
    14  O    5.144293   6.464944   4.721864   5.547199   3.514040
    15  N    5.338886   6.691669   4.463303   5.038842   3.070480
    16  H    5.441852   6.758393   4.585506   5.131038   3.281034
    17  C    2.369755   1.404335   2.800576   2.511782   4.202393
    18  H    3.256598   2.003644   3.871983   3.592143   5.268338
    19  H    2.685411   2.073186   2.774681   2.293053   4.112307
    20  H    2.689417   2.073369   2.775598   2.290965   4.116309
                   11         12         13         14         15
    11  H    0.000000
    12  S    2.904221   0.000000
    13  O    4.063139   1.487946   0.000000
    14  O    3.613482   1.476809   2.512015   0.000000
    15  N    2.605775   1.564063   2.583436   2.506820   0.000000
    16  H    2.857019   2.091362   2.607838   3.342773   1.022408
    17  C    4.878364   6.820858   7.433324   7.310258   7.258340
    18  H    5.968485   7.825713   8.366081   8.283530   8.324713
    19  H    4.654984   6.786029   7.593983   7.115544   7.143186
    20  H    4.663442   6.801581   7.380636   7.478134   7.053985
                   16         17         18         19         20
    16  H    0.000000
    17  C    7.305353   0.000000
    18  H    8.357525   1.091462   0.000000
    19  H    7.315312   1.097940   1.788272   0.000000
    20  H    6.971701   1.098068   1.788128   1.787992   0.000000
 Stoichiometry    C7H8NO3S(1-)
 Framework group  C1[X(C7H8NO3S)]
 Deg. of freedom    54
 Full point group                 C1      NOp   1
 Largest Abelian subgroup         C1      NOp   1
 Largest concise Abelian subgroup C1      NOp   1
                         Standard orientation:                         
 ---------------------------------------------------------------------
 Center     Atomic      Atomic             Coordinates (Angstroms)
 Number     Number       Type             X           Y           Z
 ---------------------------------------------------------------------
      1          6           0       -0.545050   -0.051848   -0.015126
      2          6           0        0.064882   -1.310075   -0.027733
      3          1           0       -0.567613   -2.192717   -0.052892
      4          6           0        1.447610   -1.425958   -0.024759
      5          1           0        1.938900   -2.395261   -0.038318
      6          6           0        2.246782   -0.276342   -0.008971
      7          8           0        3.604741   -0.491385   -0.010921
      8          6           0        1.650081    0.982200    0.006067
      9          1           0        2.247861    1.887982    0.022001
     10          6           0        0.250546    1.080931    0.007623
     11          1           0       -0.241181    2.050207    0.035395
     12         16           0       -2.366495    0.070961    0.023968
     13          8           0       -2.758266   -0.983247   -0.950273
     14          8           0       -2.689359   -0.207358    1.437921
     15          7           0       -2.763552    1.532973   -0.364824
     16          1           0       -2.678127    1.587324   -1.382207
     17          6           0        4.430204    0.644450    0.014506
     18          1           0        5.456596    0.273227    0.013377
     19          1           0        4.257412    1.243025    0.918565
     20          1           0        4.267683    1.275788   -0.869097
 ---------------------------------------------------------------------
 Rotational constants (GHZ):           2.4452924           0.4127265           0.3813199
 Basis read from rwf:  (6D, 7F)
 There are   248 symmetry adapted cartesian basis functions of A   symmetry.
 There are   248 symmetry adapted basis functions of A   symmetry.
   248 basis functions,   440 primitive gaussians,   248 cartesian basis functions
    49 alpha electrons       49 beta electrons
       nuclear repulsion energy       807.0727390926 Hartrees.
 NAtoms=   20 NActive=   20 NUniq=   20 SFac= 1.00D+00 NAtFMM=   60 NAOKFM=F Big=F
 Integral buffers will be    131072 words long.
 Raffenetti 2 integral format.
 Two-electron integral symmetry is turned on.
 One-electron integrals computed using PRISM.
 NBasis=   248 RedAO= T EigKep=  1.89D-06  NBF=   248
 NBsUse=   248 1.00D-06 EigRej= -1.00D+00 NBFU=   248
 Initial guess from the checkpoint file:  "/jobfs/48698451.gadi-pbs/Gau-1614726.chk"
 B after Tr=    -0.000000   -0.000000    0.000000
         Rot=    0.999829    0.018506   -0.000507   -0.000408 Ang=   2.12 deg.
 ExpMin= 4.05D-02 ExpMax= 2.19D+04 ExpMxC= 3.30D+03 IAcc=3 IRadAn=         5 AccDes= 0.00D+00
 Harris functional with IExCor= 1009 and IRadAn=       5 diagonalized for initial guess.
 HarFok:  IExCor= 1009 AccDes= 0.00D+00 IRadAn=         5 IDoV= 1 UseB2=F ITyADJ=14
 ICtDFT=  3500011 ScaDFX=  1.000000  1.000000  1.000000  1.000000
 FoFCou: FMM=F IPFlag=           0 FMFlag=      100000 FMFlg1=           0
         NFxFlg=           0 DoJE=T BraDBF=F KetDBF=T FulRan=T
         wScrn=  0.000000 ICntrl=       500 IOpCl=  0 I1Cent=   200000004 NGrid=           0
         NMat0=    1 NMatS0=      1 NMatT0=    0 NMatD0=    1 NMtDS0=    0 NMtDT0=    0
 Petite list used in FoFCou.
 Requested convergence on RMS density matrix=1.00D-08 within 128 cycles.
 Requested convergence on MAX density matrix=1.00D-06.
 Requested convergence on             energy=1.00D-06.
 No special actions if energy rises.
 SCF Done:  E(RM062X) =  -949.895111571     A.U. after   15 cycles
            NFock= 15  Conv=0.34D-08     -V/T= 2.0064
 Calling FoFJK, ICntrl=      2127 FMM=F ISym2X=0 I1Cent= 0 IOpClX= 0 NMat=1 NMatS=1 NMatT=0.
 ***** Axes restored to original set *****
 -------------------------------------------------------------------
 Center     Atomic                   Forces (Hartrees/Bohr)
 Number     Number              X              Y              Z
 -------------------------------------------------------------------
      1        6          -0.001159498    0.000104940   -0.001034958
      2        6          -0.000505311    0.000513987   -0.000076650
      3        1          -0.000506055    0.000152951   -0.000158416
      4        6          -0.000514736    0.000090145   -0.000114609
      5        1          -0.000070944   -0.000032691    0.000206623
      6        6          -0.000659557   -0.000235095    0.001328067
      7        8          -0.000219046    0.000018921    0.000708906
      8        6           0.000971348   -0.000189243    0.000577906
      9        1          -0.000073108   -0.000018990    0.000287454
     10        6           0.001119247   -0.001270314   -0.000577063
     11        1           0.000498089    0.000720309   -0.000038070
     12       16          -0.001348273   -0.001121902   -0.000508822
     13        8           0.000674576   -0.000888612   -0.000464045
     14        8          -0.000064962    0.001271395    0.000335988
     15        7           0.001605761    0.000436419   -0.001712317
     16        1          -0.000328684    0.000424667    0.001839695
     17        6          -0.000407098    0.000012195   -0.000039713
     18        1           0.000424033   -0.000005373   -0.000108559
     19        1           0.000283884   -0.000004221   -0.000218328
     20        1           0.000280337    0.000020511   -0.000233091
 -------------------------------------------------------------------
 Cartesian Forces:  Max     0.001839695 RMS     0.000686652

 GradGradGradGradGradGradGradGradGradGradGradGradGradGradGradGradGradGrad
 Berny optimization.
 Using GEDIIS/GDIIS optimizer.
 FormGI is forming the generalized inverse of G from B-inverse, IUseBI=4.
 Internal  Forces:  Max     0.001915768 RMS     0.000569606
 Search for a local minimum.
 Step number   3 out of a maximum of  100
 All quantities printed in internal units (Hartrees-Bohrs-Radians)
 Mixed Optimization -- En-DIIS/RFO-DIIS
 Update second derivatives using D2CorX and points    1    2    3
 DE= -8.95D-04 DEPred=-7.87D-04 R= 1.14D+00
 TightC=F SS=  1.41D+00  RLast= 2.26D-01 DXNew= 8.4853D-01 6.7716D-01
 Trust test= 1.14D+00 RLast= 2.26D-01 DXMaxT set to 6.77D-01
 ITU=  1  1  0
 Use linear search instead of GDIIS.
     Eigenvalues ---    0.00335   0.01365   0.01456   0.02078   0.02091
     Eigenvalues ---    0.02124   0.02132   0.02152   0.02173   0.02175
     Eigenvalues ---    0.02187   0.02230   0.02352   0.10060   0.10604
     Eigenvalues ---    0.11068   0.12556   0.15516   0.15999   0.16000
     Eigenvalues ---    0.16000   0.16000   0.16000   0.16003   0.16399
     Eigenvalues ---    0.21205   0.22000   0.22722   0.23912   0.24482
     Eigenvalues ---    0.24624   0.25000   0.25003   0.25390   0.32265
     Eigenvalues ---    0.34221   0.34278   0.34865   0.35217   0.35262
     Eigenvalues ---    0.35296   0.35565   0.41415   0.42192   0.42260
     Eigenvalues ---    0.43938   0.45650   0.46140   0.47500   0.47877
     Eigenvalues ---    0.51898   0.59837   0.73481   0.78111
 RFO step:  Lambda=-4.45824035D-04 EMin= 3.35159659D-03
 Quartic linear search produced a step of  0.25443.
 Iteration  1 RMS(Cart)=  0.05852303 RMS(Int)=  0.00210961
 Iteration  2 RMS(Cart)=  0.00242261 RMS(Int)=  0.00001713
 Iteration  3 RMS(Cart)=  0.00000326 RMS(Int)=  0.00001707
 Iteration  4 RMS(Cart)=  0.00000000 RMS(Int)=  0.00001707
 Variable       Old X    -DE/DX   Delta X   Delta X   Delta X     New X
                                 (Linear)    (Quad)   (Total)
    R1        2.64245   0.00050   0.00036   0.00111   0.00147   2.64392
    R2        2.61622   0.00087   0.00018   0.00174   0.00192   2.61814
    R3        3.45064  -0.00055   0.00694   0.00071   0.00764   3.45828
    R4        2.05254   0.00037   0.00015   0.00123   0.00138   2.05392
[...]
 76,-0.28239856,0.04320501,-0.11243004,0.00591915,0.00074714,-0.0052406
 3,0.72569228,-0.01452334,0.01039791,0.00096615,0.00587469,-0.00605261,
 0.01128935,0.00000026,-0.00070743,0.00010897,0.01213750,0.00835651,-0.
 01053423,0.00051301,0.00494370,0.00048847,0.03142932,-0.07273766,0.029
 07256,0.00520612,0.00528787,0.00699737,-0.06748328,0.14176229,0.085055
 75,-0.00587841,-0.02327077,-0.03009467,0.01031462,-0.05835583,-0.00102
 433,0.00017316,-0.00076048,-0.03355766,-0.00401755,0.06400460,0.004200
 10,0.00033405,-0.00070499,-0.03380964,0.02000968,-0.17102838,-0.034217
 67,0.00996654,-0.03644382,-0.04080165,-0.07541896,0.68493549,0.0020529
 2,0.00058084,0.00031051,0.00027552,-0.00001182,-0.00093718,-0.00003744
 ,-0.00011080,0.00005749,-0.00270348,0.00162856,-0.00420341,-0.00107384
 ,0.00006313,0.00080534,-0.01822386,0.00021876,0.01614562,0.00130006,-0
 .00054748,0.00023129,-0.28910802,0.01469832,0.11288507,0.30398375,0.00
 083467,0.00673414,0.00154924,0.00001087,-0.00076803,0.00008550,-0.0001
 3869,-0.00086085,-0.00013798,0.00138118,0.00516825,0.00155426,0.000291
 24,0.00027693,-0.00010750,0.00462206,0.00267825,-0.00326941,-0.0008116
 4,-0.00268118,-0.00060590,0.01431314,-0.03282053,-0.00196548,-0.015581
 70,0.02472071,-0.00037715,0.00203370,-0.00593511,-0.00095464,0.0001778
 1,-0.00125424,0.00008169,-0.00014616,0.00001419,-0.00284695,0.00131559
 ,-0.00119877,-0.00091318,0.00011333,0.00039087,-0.01338616,0.00023725,
 0.01234387,0.00208815,-0.00071326,0.00037251,0.11525599,-0.00226793,-0
 .11363405,-0.12665928,0.00090264,0.12395276,-0.30203773,0.01286010,0.1
 2243335,-0.05606001,0.01135014,-0.03097692,-0.00350754,0.00152358,-0.0
 0353830,-0.02657946,-0.00165998,0.03351859,0.00010475,-0.00032288,0.00
 091578,0.05112977,-0.00166563,-0.02815522,-0.00849972,0.00173059,-0.00
 054446,-0.12578869,0.01202146,-0.02519860,0.00217234,-0.00440865,0.029
 34706,0.72166796,0.01836727,-0.06751152,0.00075881,0.00577479,0.006893
 68,-0.00339605,0.00180794,0.00601404,0.00147066,-0.00162753,-0.0034168
 2,0.00179892,-0.00028794,-0.00096877,-0.00012132,0.00527963,0.00088541
 ,0.00769393,0.00134973,0.00621476,0.00115357,0.00221688,-0.06669442,0.
 04380547,0.00008932,0.00258917,-0.00181247,-0.07049468,0.16094080,0.06
 457211,0.00815904,-0.16922908,0.02033758,-0.00973523,0.06983294,-0.003
 35155,0.00147289,-0.00190239,0.03581458,0.00278957,-0.05342893,0.00105
 491,-0.00029591,-0.00097350,-0.08894042,0.01456376,-0.02676960,0.00435
 601,0.00086594,-0.00100025,0.04776999,0.03440291,-0.33754372,-0.000265
 96,0.00184485,-0.00937645,0.01956912,-0.08062951,0.69155399,-0.0197651
 6,0.00477401,-0.01449179,-0.00410877,0.00069443,0.00342113,-0.00097355
 ,0.00024889,-0.00092709,0.00012285,-0.00027362,0.00113024,-0.00001022,
 -0.00005507,-0.00012650,0.00148333,0.00029636,0.00168598,0.00038662,-0
 .00010499,0.00027141,0.00677169,-0.00092606,0.00368284,0.00062783,-0.0
 0038192,-0.00049918,-0.25551636,0.04087701,-0.12639616,0.27163199,0.00
 074462,0.00449392,0.00013397,0.00110170,0.00659461,0.00073861,-0.00003
 263,-0.00027439,0.00006115,-0.00017160,-0.00075649,-0.00030453,-0.0000
 8967,-0.00076823,-0.00011501,0.00017349,0.00681953,0.00146739,0.000188
 85,0.00009937,0.00022516,0.00350021,0.00305657,0.00192025,-0.00060445,
 -0.00401315,-0.00068650,0.04003758,-0.04783125,0.02779187,-0.04470583,
 0.03617476,0.01036041,-0.00283168,0.01316867,0.00354688,0.00060403,-0.
 00160302,0.00084632,-0.00015609,0.00076433,0.00063070,-0.00007240,-0.0
 0056112,-0.00008439,-0.00009662,0.00001465,0.00223235,0.00119600,-0.00
 411183,-0.00128609,0.00027802,-0.00125979,-0.02427509,0.00501054,-0.01
 123710,0.00014279,-0.00063165,0.00109766,-0.12803138,0.02823961,-0.139
 32436,0.13551078,-0.03172018,0.14274662,-0.07041952,0.00024616,0.00461
 221,0.01194625,0.00247663,-0.01505868,-0.00390720,0.00018455,-0.004196
 35,-0.00421194,0.00252855,-0.00518255,0.00010257,0.00015199,-0.0013943
 9,-0.00498154,0.00050775,0.00002231,-0.00044354,0.00011127,-0.00037518
 ,-0.00465488,0.00003137,0.00540653,-0.00005424,-0.00006594,0.00140642,
 0.00847032,-0.00587021,0.01782458,-0.00335638,0.00036026,0.00377585,0.
 77948365,0.00204116,-0.05815672,0.01501428,-0.00025852,-0.00032972,0.0
 0144299,0.00024406,-0.00175607,0.00116325,0.00099027,0.00545901,0.0002
 9544,-0.00012509,0.00043967,-0.00021441,0.00096289,-0.00028981,0.00085
 608,0.00018906,-0.00043930,-0.00131744,0.00136534,0.00533190,-0.001951
 97,0.00025973,0.00046109,-0.00052629,-0.00245795,-0.00002474,-0.002292
 29,0.00033434,-0.00096985,0.00008513,-0.06333656,0.88270387,-0.0010908
 7,0.01158210,-0.14314903,-0.01153121,0.00305107,-0.01053510,0.00263933
 ,-0.00061541,0.00102004,0.00091104,0.00038188,0.00467577,0.00073420,-0
 .00020693,0.00194502,-0.00127391,0.00139150,-0.00867202,-0.00208503,-0
 .00139369,0.01192677,-0.00134422,-0.00011505,0.00594335,-0.00096985,0.
 00001930,0.00207826,0.01410619,-0.00109373,-0.01137161,-0.00283556,0.0
 0067628,0.00055855,0.00127280,0.06517963,0.46673904,-0.00834237,0.0098
 8372,0.00135443,-0.00529753,-0.00020959,-0.00135585,0.00237201,0.00015
 614,0.00218289,0.00193220,-0.00102099,0.00158966,0.00008802,-0.0001091
 4,0.00059703,0.00057508,0.00018809,-0.00170916,0.00019280,-0.00031837,
 0.00225382,-0.00048453,-0.00030104,-0.00059044,-0.00011245,-0.00012939
 ,0.00047249,0.00066553,-0.00055670,0.00622601,0.00082530,0.00007641,-0
 .00088708,-0.37714435,0.14935857,0.08782453,0.41100634,0.00430503,0.00
 724202,0.00246558,0.00175143,0.00057319,0.00101791,-0.00082064,-0.0008
 9458,-0.00045812,-0.00032522,0.00012465,-0.00101815,-0.00002804,-0.000
 00030,-0.00022118,-0.00086066,-0.00018613,0.00040651,-0.00000822,0.000
 17984,-0.00065150,0.00054386,-0.00083979,0.00081029,0.00001898,-0.0001
 3534,-0.00020893,0.00031255,0.00145397,-0.00308698,-0.00028032,0.00007
 340,0.00000925,0.14106398,-0.15994146,-0.04505178,-0.17492015,0.150137
 02,0.03172143,-0.01167901,-0.00729215,-0.00063494,-0.00053802,-0.00238
 327,0.00177624,-0.00018969,-0.00116240,0.00121672,-0.00000281,0.000285
 32,-0.00022362,0.00000511,-0.00027287,0.00108996,-0.00055765,0.0020601
 4,0.00068293,0.00035638,-0.00321105,0.00217057,0.00095745,-0.00198328,
 0.00025682,0.00022098,-0.00092947,-0.00463288,0.00088369,-0.00618404,0
 .00049073,-0.00053589,-0.00022434,0.09008642,-0.05012715,-0.11316362,-
 0.10842025,0.05768745,0.10161506,0.01206147,-0.00084123,0.00019116,-0.
 00189744,-0.00030039,0.00003574,0.00035424,-0.00026108,0.00057403,-0.0
 0001334,-0.00031814,0.00175231,0.00000033,0.00006259,0.00018088,0.0017
 6235,-0.00015814,-0.00001967,0.00004126,0.00000624,0.00013579,0.000217
 72,-0.00004797,-0.00190956,0.00000779,-0.00001854,-0.00021307,-0.00174
 855,0.00072677,-0.00029765,0.00053260,0.00063931,-0.00067276,-0.082555
 93,0.00870945,0.00081870,0.00439418,0.03633267,0.00056319,0.06623481,-
 0.00002841,-0.01546064,0.00026167,-0.00210485,-0.00066338,0.00390040,-
 0.00009771,-0.00110192,-0.00046788,0.00048722,0.00097180,0.00139150,0.
 00015986,-0.00012709,0.00064320,-0.00012434,0.00013748,-0.00211704,-0.
 00065799,-0.00048182,0.00342780,-0.00039158,0.00138045,0.00156700,-0.0
 0026892,-0.00011397,0.00060518,0.00196000,0.00016781,0.00338049,-0.000
 45919,-0.00146368,-0.00022312,0.01041668,-0.50992669,0.02011531,0.0007
 2567,-0.01544648,0.00017819,-0.00455826,0.56883984,0.00010948,0.028238
 73,-0.00187889,0.00271280,0.00103778,-0.00042308,-0.00028616,0.0007217
 4,-0.00021995,0.00013618,-0.00168267,-0.00136972,-0.00015836,-0.000045
 06,-0.00042913,-0.00025134,-0.00032301,0.00240998,0.00069064,0.0005737
 2,-0.00369380,-0.00027803,-0.00140770,-0.00045655,0.00020231,-0.000060
 02,-0.00036003,-0.00191816,0.00151580,-0.00062214,0.00040282,0.0002716
 5,-0.00021089,-0.00121996,0.03507137,-0.08297137,0.00344817,-0.0119406
 2,0.01641256,0.00491773,-0.02917377,0.06078838,-0.00314371,-0.00729372
 ,-0.00012736,0.00032865,0.00060060,-0.00427623,0.00069806,-0.00046095,
 0.00083321,-0.00010645,0.00034359,0.00037800,-0.00005691,0.00006712,-0
 .00038254,0.00072488,-0.00029253,0.00154557,0.00076933,0.00007416,-0.0
 0219377,0.00152019,0.00105021,-0.00140587,0.00016919,0.00003302,-0.000
 54296,-0.00301052,0.00242826,0.00018516,0.00123558,-0.00169583,-0.0012
 9364,-0.23946003,-0.05830374,-0.07706182,-0.03375097,-0.01020503,-0.01
 667436,0.00417743,0.00003838,-0.00401735,0.30837612,-0.00272148,0.0098
 7323,0.00204792,0.00023278,0.00057384,-0.00303175,0.00024669,0.0002013
 2,-0.00011006,-0.00095296,-0.00050376,0.00057499,-0.00002677,-0.000095
 97,-0.00020735,0.00083196,-0.00059286,0.00023508,0.00014353,0.00010983
 ,-0.00043234,-0.00010684,0.00033597,-0.00087905,0.00004507,-0.00001851
 ,-0.00016858,-0.00098205,0.00030678,0.00061532,-0.00000986,-0.00119978
 ,0.00028158,-0.10738857,-0.13750450,-0.05651325,0.01360990,0.01273571,
 0.00126868,-0.03467645,-0.02607269,-0.01948147,0.02800557,0.53672350,-
 0.02275729,-0.01125109,-0.00486913,0.00415482,-0.00125261,-0.00405185,
 -0.00046687,-0.00054748,-0.00024381,-0.00066653,0.00172708,-0.00190852
 ,-0.00009360,0.00033449,-0.00074780,-0.00117585,-0.00017742,0.00238257
 ,0.00074557,0.00051185,-0.00384929,-0.00056776,0.00007726,0.00046582,0
 .00025034,-0.00007505,-0.00029065,0.00034880,0.00003239,-0.00220825,-0
 .00124775,0.00058292,-0.00034185,-0.09724036,-0.04453120,-0.11782032,0
 .00555199,-0.00037715,0.01821198,-0.00441339,-0.00226440,0.00809261,0.
 10457386,0.13248681,0.12575061,-0.00146853,0.00094926,-0.00006783,0.00
 022022,0.00002395,-0.00012100,-0.00006610,-0.00001401,-0.00014838,-0.0
 0007106,0.00005231,-0.00008436,0.00000810,-0.00001501,-0.00001950,-0.0
 0016187,-0.00000455,-0.00001575,-0.00002695,0.00001160,0.00014021,0.00
 011088,-0.00037446,0.00023708,-0.00001711,0.00002658,0.00004053,-0.000
 19398,-0.00019304,0.00020925,0.00014029,0.00042323,-0.00019116,-0.0090
 8173,-0.03964788,-0.01286469,0.00272871,0.00319725,0.00132661,-0.00348
 754,-0.00584809,-0.00365289,-0.03781624,0.10391001,0.01388143,0.049132
 14,-0.00004928,0.00036753,0.00047410,-0.00000972,0.00019932,0.00011260
 ,-0.00005317,0.00000224,-0.00010781,-0.00004340,-0.00015121,0.00002252
 ,0.00000761,-0.00000756,0.00001987,0.00001162,0.00013839,-0.00005476,-
 0.00003679,-0.00000212,0.00009787,-0.00008637,-0.00027708,0.00003267,-
 0.00001080,-0.00000535,0.00002643,0.00029502,0.00035024,0.00014700,-0.
 00003985,0.00000606,0.00002125,0.01864229,-0.02495297,0.00274690,0.003
 52735,0.00492396,0.00205726,-0.00530321,-0.00046842,-0.00342002,0.0456
 3456,-0.39488651,-0.07524396,-0.06251248,0.41476804,-0.00140577,0.0026
 1890,-0.00079369,-0.00017462,0.00020684,-0.00112154,0.00005007,0.00007
 480,0.00003220,-0.00049263,-0.00014187,0.00026535,0.00001553,-0.000029
 31,-0.00003919,0.00033884,-0.00011106,-0.00040854,-0.00009965,-0.00005
 921,0.00055956,-0.00006446,0.00021748,-0.00035487,-0.00001833,-0.00000
 884,-0.00001460,-0.00007933,-0.00018221,0.00004429,-0.00004715,-0.0004
 4477,0.00019083,0.00024922,-0.01830161,-0.00523594,0.00181259,0.000550
 75,-0.00227850,-0.00166924,-0.00069592,0.00430257,0.00011300,-0.056776
 99,-0.01920847,0.00135705,0.07308501,0.02415588,0.00063039,-0.00041591
 ,-0.00164098,-0.00068408,0.00046176,-0.00102511,0.00007491,-0.00000017
 ,-0.00026137,0.00100408,0.00072977,-0.00328293,0.00003195,-0.00011937,
 0.00008331,-0.00031703,-0.00296189,0.01680064,-0.23082713,0.01123672,0
 .08658998,0.00389095,0.00059186,-0.00881939,-0.00092886,0.00021269,-0.
 00144970,-0.00160891,0.00027820,0.00020167,-0.00002485,0.00007571,-0.0
 0051534,0.00025245,-0.00046571,0.00414874,0.00052215,-0.00013173,-0.00
 116050,-0.00007731,0.00115909,-0.00127438,-0.00097020,-0.00022765,-0.0
 0135318,0.00007453,0.00004198,0.00017385,0.52400676,-0.00015907,0.0002
 0333,0.00011419,0.00002528,0.00148446,0.00051765,-0.00002389,-0.000221
 77,0.00003984,0.00078946,0.00190564,0.00115478,-0.00014856,-0.00063659
 ,-0.00011726,-0.00648277,-0.00380125,0.00260972,0.01637182,-0.06272899
 ,-0.00302724,-0.00047638,-0.00119134,0.00116378,-0.00011660,-0.0003765
 4,0.00062399,0.00001089,0.00039585,-0.00009516,0.00001062,-0.00009259,
 0.00002391,-0.00003090,0.00006631,-0.00024953,0.00002136,-0.00004932,0
 .00004617,0.00001274,-0.00031273,0.00012251,-0.00003961,-0.00004060,0.
 00000529,0.00002695,-0.00000848,-0.00002218,0.00033497,0.57851223,0.00
 037983,0.00016256,0.00092976,0.00191217,0.00005786,-0.00055960,-0.0001
 2813,0.00003606,-0.00026539,-0.00401215,0.00117939,-0.00269158,0.00039
 200,-0.00015145,0.00002826,0.04010067,-0.00075213,-0.03832840,0.052625
 28,0.00197234,-0.12508418,-0.00095192,-0.00012828,-0.00041363,0.001468
 49,0.00032367,-0.00369057,0.00179327,-0.00019500,0.00042035,-0.0000371
 8,-0.00006443,0.00034232,0.00011313,0.00020971,-0.00222079,-0.00040963
 ,0.00009537,0.00058023,-0.00002148,-0.00063271,0.00070824,0.00037770,0
 .00007387,0.00077046,-0.00002548,-0.00002032,-0.00011861,0.04844289,-0
 .01179132,0.61138233,0.00020177,0.00002771,-0.00013867,-0.00052420,0.0
 0007451,-0.00016482,0.00001955,-0.00002937,0.00012276,0.00040793,-0.00
 027354,0.00171142,-0.00002039,0.00001878,-0.00005758,-0.00488695,0.000
 75581,0.00057762,-0.00042085,-0.00585044,0.04348703,-0.00144166,0.0002
 8765,-0.00045063,0.00095057,-0.00008820,-0.00056094,0.00048811,-0.0000
 8786,0.00028984,-0.00001201,-0.00000423,0.00006818,-0.00000251,-0.0000
 0861,-0.00002272,0.00003699,-0.00001323,-0.00000495,0.00000373,-0.0000
 1177,0.00001666,0.00003044,0.00000317,0.00001025,-0.00000108,-0.000001
 16,-0.00000100,-0.06579621,0.01195600,-0.07658294,0.07579963,-0.000057
 30,-0.00010707,0.00003172,0.00003282,0.00001074,0.00005027,-0.00000872
 ,-0.00004522,-0.00001281,0.00002599,0.00023604,-0.00006410,-0.00000324
 ,0.00001325,0.00000573,0.00032501,0.00073312,-0.00030488,-0.00051293,0
 .00075186,-0.00258550,0.00021540,0.00036776,0.00012930,-0.00019672,-0.
 00044473,0.00000220,-0.00002334,0.00025609,-0.00002196,0.00000446,0.00
 003308,-0.00000207,-0.00000697,-0.00002169,-0.00010872,-0.00001646,0.0
 0001342,0.00002634,-0.00000219,-0.00002906,0.00004296,0.00001467,0.000
 01254,0.00002706,-0.00000218,0.00000005,-0.00000092,0.01028513,-0.0606
 9736,0.04332909,-0.01187322,0.05601378,0.00000451,-0.00004884,-0.00018
 076,0.00034259,-0.00002167,-0.00007386,-0.00000848,0.00000761,-0.00007
 428,-0.00029902,0.00022725,-0.00106247,0.00006057,-0.00001371,0.000026
 64,0.00292270,-0.00077257,0.00267499,0.00462551,0.00275506,-0.02369609
 ,0.00010976,0.00003067,0.00013757,0.00014571,-0.00008722,0.00007181,0.
 00001640,0.00002832,-0.00003022,0.00000024,0.00000957,-0.00002118,0.00
 000714,-0.00010314,0.00068535,0.00012072,-0.00003490,-0.00023271,0.000
 00721,0.00019981,-0.00020456,-0.00012159,-0.00002769,-0.00024606,0.000
 00902,0.00000623,0.00003595,-0.06419917,0.04167808,-0.30026639,0.06152
 233,-0.04630898,0.33196710,0.00042756,0.00002974,0.00036844,-0.0000980
 7,-0.00019615,-0.00046058,-0.00001134,0.00003616,0.00004357,-0.0006764
 1,-0.00049611,0.00106883,0.00018068,0.00019716,-0.00003781,0.00053658,
 0.00131340,-0.00623809,-0.02898336,0.02952429,0.00894036,0.00059216,-0
 .00063523,0.00011870,0.00024755,-0.00004801,-0.00014448,-0.00016256,-0
 .00010952,0.00041189,0.00000475,-0.00001376,0.00005350,0.00003203,0.00
 015342,-0.00063142,-0.00010794,0.00001662,0.00017728,-0.00000873,-0.00
 021607,0.00018143,0.00011798,0.00001004,0.00022514,-0.00000849,-0.0000
 0768,-0.00003188,-0.08732818,0.08712863,-0.01278495,-0.00184063,0.0070
 7240,-0.00179759,0.10686952,0.00010022,-0.00015757,-0.00008621,-0.0001
 7834,0.00005021,-0.00007092,-0.00000043,0.00000856,-0.00002929,-0.0001
 5463,-0.00014672,-0.00041308,-0.00010526,-0.00001538,0.00004937,-0.000
 02068,0.00021064,0.00225473,0.00755849,0.00605235,-0.00585654,0.001471
 19,-0.00001124,-0.00005547,-0.00079687,0.00010142,0.00023678,-0.000562
 10,-0.00001336,0.00007474,0.00000403,0.00002531,-0.00006573,0.00001381
 ,-0.00006759,0.00031339,0.00000222,0.00002694,-0.00006005,-0.00001547,
 0.00014307,-0.00011057,-0.00007678,0.00000786,-0.00009546,-0.00000118,
 0.00000455,0.00002122,0.08959395,-0.26704512,0.02852192,0.00006103,-0.
 00252659,0.00063424,-0.10562186,0.28424867,-0.00106136,0.00019871,0.00
 004222,0.00047736,-0.00001212,0.00106764,0.00000259,-0.00002948,-0.000
 00294,0.00087013,0.00048870,-0.00128650,-0.00014501,-0.00010454,0.0000
 2043,0.00014849,-0.00238627,0.00470721,0.01515154,-0.01759006,-0.00162
 922,-0.00087880,0.00003023,0.00035721,-0.00022879,-0.00140803,-0.00200
 012,0.00050221,0.00052116,-0.00088938,0.00000112,-0.00006226,-0.000008
 97,-0.00006405,-0.00007862,-0.00020991,-0.00002375,0.00001377,0.000062
 94,0.00001897,-0.00006220,0.00008669,0.00002851,0.00003861,0.00003219,
 -0.00000216,0.00000056,0.00000110,-0.01512638,0.03260403,-0.05738690,-
 0.01168062,0.02878542,-0.00127855,0.00869649,-0.02956038,0.05654384,0.
 00039662,-0.00006706,0.00036175,-0.00000607,0.00031388,-0.00036641,-0.
 00002054,-0.00004378,0.00004149,-0.00051565,0.00022792,0.00129091,0.00
 015639,-0.00021686,-0.00011380,0.00031504,0.00050578,-0.00690320,-0.03
 685494,-0.02029359,0.00389604,0.00034708,0.00044962,0.00029404,0.00047
 179,-0.00005278,-0.00014463,0.00001525,0.00003167,0.00042904,0.0000044
 6,-0.00000338,0.00006918,-0.00001350,-0.00000423,-0.00074422,-0.000099
 17,0.00005087,0.00019259,0.00000093,-0.00017974,0.00023841,0.00016719,
 0.00005390,0.00024036,-0.00001420,-0.00000652,-0.00002611,-0.14192543,
 -0.10921096,-0.05265155,-0.00299222,-0.00527263,-0.00346857,0.01021690
 ,0.00872866,0.00331352,0.17035009,0.00004506,0.,-0.00003071,0.00006740
 ,-0.00000910,-0.00008322,0.00000518,0.00000127,0.00001937,0.00005516,-
 0.00026990,0.00036623,0.00009143,0.00000084,-0.00004037,-0.00012252,0.
 00040019,-0.00168669,-0.00122242,0.00816403,0.00592914,-0.00133728,0.0
 0011117,-0.00005990,0.00064348,-0.00049175,0.00025522,0.00047534,-0.00
 000773,0.00004866,-0.00000746,-0.00000718,0.00005023,-0.00003615,-0.00
 008073,-0.00010929,0.00003237,0.00000927,0.00000257,0.00001129,0.00002
 812,0.00004863,0.00007806,0.00003459,0.00003067,-0.00000828,-0.0000007
 0,-0.00000011,-0.11067940,-0.18536513,-0.06222619,0.00505699,0.0054299
 9,0.00184189,-0.01813746,-0.02089600,-0.01138721,0.12498923,0.19294875
 ,-0.00104975,0.00008082,0.00004074,0.00045865,-0.00036412,0.00097878,0
 .00001125,0.00002920,0.00001011,0.00074231,-0.00039809,-0.00129410,-0.
 00008829,0.00012239,0.00004397,0.00059597,0.00098597,0.00456580,0.0182
 4584,0.01488724,0.00439889,-0.00124337,0.00022275,0.00034343,0.0003810
 2,0.00185665,-0.00163786,0.00052450,-0.00047204,-0.00099765,0.00001107
 ,0.00005475,0.00002085,-0.00004509,0.00012622,-0.00022242,-0.00003816,
 -0.00000758,0.00008947,0.00002109,-0.00003349,0.00003908,0.00006246,0.
 00000569,0.00007977,-0.00000796,-0.00000340,-0.00001379,-0.05633264,-0
 .06540124,-0.08413590,-0.01814122,-0.02302014,-0.00823231,0.00184116,0
 .00429733,0.00177103,0.05405117,0.06703109,0.08415211\\-0.00002677,0.0
 0001665,-0.00000910,0.00001271,-0.00001043,0.00001764,-0.00000424,0.00
 000544,-0.00000495,0.00001012,0.00000431,-0.00002030,-0.00000150,0.,0.
 00000332,-0.00002272,-0.00000243,-0.00000746,0.00001176,0.00000374,0.0
 0000794,0.00000936,-0.00000404,0.00001909,-0.00000177,0.00000036,0.000
 00357,0.00001676,-0.00000398,-0.00001884,-0.00000289,0.00000368,0.0000
 0776,0.00000416,-0.00002828,0.00000593,0.00000307,-0.00000407,-0.00000
 161,-0.00000551,0.00001706,0.00000074,-0.00000723,0.00000149,0.0000013
 3,0.00000039,0.00000058,-0.00000040,-0.00000687,-0.00000257,-0.0000038
 8,0.00000456,-0.00000021,-0.00000057,0.00000260,0.00000135,0.,0.000004
 01,0.00000133,-0.00000024\\\@
 The archive entry for this job was punched.


 WE ARE PERHAPS NOT FAR REMOVED FROM THE TIME WHEN WE SHALL BE ABLE TO SUBMIT
 THE BULK OF CHEMICAL PHENOMENA TO CALCULATION.

            -- JOSEPH LOUIS GAY-LUSSAC
               MEMOIRES DE LA SOCIETE D'ARCUEIL, 2, 207 (1808)
 Job cpu time:       0 days  0 hours 51 minutes 46.9 seconds.
 Elapsed time:       0 days  0 hours  3 minutes 16.2 seconds.
 File lengths (MBytes):  RWF=    147 Int=      0 D2E=      0 Chk=      6 Scr=      1
 Normal termination of Gaussian 16 at Wed Jun 29 11:43:17 2022.
