 Entering Gaussian System, Link 0=g16
 AtFile(1): /home/561/yj5695/Basis/6-31pGd.gbs
 Initial command:
 /apps/gaussian/g16c01/g16/l1.exe "/jobfs/41454877.gadi-pbs/Gau-3027355.inp" -scrdir="/jobfs/41454877.gadi-pbs/"
 Entering Link 1 = /apps/gaussian/g16c01/g16/l1.exe PID=   3027356.
  
 Copyright (c) 1988-2019, Gaussian, Inc.  All Rights Reserved.
  
 This is part of the Gaussian(R) 16 program.  It is based on
 the Gaussian(R) 09 system (copyright 2009, Gaussian, Inc.),
 the Gaussian(R) 03 system (copyright 2003, Gaussian, Inc.),
 the Gaussian(R) 98 system (copyright 1998, Gaussian, Inc.),
 the Gaussian(R) 94 system (copyright 1995, Gaussian, Inc.),
 the Gaussian 92(TM) system (copyright 1992, Gaussian, Inc.),
 the Gaussian 90(TM) system (copyright 1990, Gaussian, Inc.),
 the Gaussian 88(TM) system (copyright 1988, Gaussian, Inc.),
 the Gaussian 86(TM) system (copyright 1986, Carnegie Mellon
 University), and the Gaussian 82(TM) system (copyright 1983,
 Carnegie Mellon University). Gaussian is a federally registered
 trademark of Gaussian, Inc.
  
 This software contains proprietary and confidential information,
 including trade secrets, belonging to Gaussian, Inc.
  
 This software is provided under written license and may be
 used, copied, transmitted, or stored only in accord with that
 written license.
  
 The following legend is applicable only to US Government
 contracts under FAR:
  
                    RESTRICTED RIGHTS LEGEND
  
 Use, reproduction and disclosure by the US Government is
 subject to restrictions as set forth in subparagraphs (a)
 and (c) of the Commercial Computer Software - Restricted
 Rights clause in FAR 52.227-19.
  
 Gaussian, Inc.
 340 Quinnipiac St., Bldg. 40, Wallingford CT 06492
  
  
 ---------------------------------------------------------------
 Warning -- This program may not be used in any manner that
 competes with the business of Gaussian, Inc. or will provide
 assistance to any competitor of Gaussian, Inc.  The licensee
 of this program is prohibited from giving any competitor of
 Gaussian, Inc. access to this program.  By using this program,
 the user acknowledges that Gaussian, Inc. is engaged in the
 business of creating and licensing software in the field of
 computational chemistry and represents and warrants to the
 licensee that it is not a competitor of Gaussian, Inc. and that
 it will not use this program in any manner prohibited above.
 ---------------------------------------------------------------
  

 Cite this work as:
 Gaussian 16, Revision C.01,
 M. J. Frisch, G. W. Trucks, H. B. Schlegel, G. E. Scuseria, 
 M. A. Robb, J. R. Cheeseman, G. Scalmani, V. Barone, 
 G. A. Petersson, H. Nakatsuji, X. Li, M. Caricato, A. V. Marenich, 
 J. Bloino, B. G. Janesko, R. Gomperts, B. Mennucci, H. P. Hratchian, 
 J. V. Ortiz, A. F. Izmaylov, J. L. Sonnenberg, D. Williams-Young, 
 F. Ding, F. Lipparini, F. Egidi, J. Goings, B. Peng, A. Petrone, 
 T. Henderson, D. Ranasinghe, V. G. Zakrzewski, J. Gao, N. Rega, 
 G. Zheng, W. Liang, M. Hada, M. Ehara, K. Toyota, R. Fukuda, 
 J. Hasegawa, M. Ishida, T. Nakajima, Y. Honda, O. Kitao, H. Nakai, 
 T. Vreven, K. Throssell, J. A. Montgomery, Jr., J. E. Peralta, 
 F. Ogliaro, M. J. Bearpark, J. J. Heyd, E. N. Brothers, K. N. Kudin, 
 V. N. Staroverov, T. A. Keith, R. Kobayashi, J. Normand, 
 K. Raghavachari, A. P. Rendell, J. C. Burant, S. S. Iyengar, 
 J. Tomasi, M. Cossi, J. M. Millam, M. Klene, C. Adamo, R. Cammi, 
 J. W. Ochterski, R. L. Martin, K. Morokuma, O. Farkas, 
 J. B. Foresman, and D. J. Fox, Gaussian, Inc., Wallingford CT, 2019.
 
 ******************************************
 Gaussian 16:  ES64L-G16RevC.01  3-Jul-2019
                27-May-2022 
 ******************************************
 %nproc=16
 Will use up to   16 processors via shared memory.
 %mem=40gb
 --------------------------------------------------
 #M062X/gen 6D INT(grid=ultrafine) OPT Freq=noraman
 --------------------------------------------------
 1/18=20,19=15,26=4,38=1/1,3;
 2/9=110,12=2,17=6,18=5,40=1/2;
 3/5=7,8=2,11=2,25=1,30=1,71=1,74=-55,75=-5/1,2,3;
 4//1;
 5/5=2,38=5/2;
 6/7=2,8=2,9=2,10=2,28=1/1;
 7//1,2,3,16;
 1/18=20,19=15,26=4/3(2);
 2/9=110/2;
 99//99;
 2/9=110/2;
 3/5=7,6=1,8=2,11=2,25=1,30=1,71=1,74=-55,75=-5,82=7/1,2,3;
 4/5=5,16=3,69=1/1;
 5/5=2,38=5/2;
 7//1,2,3,16;
 1/18=20,19=15,26=4/3(-5);
 2/9=110/2;
 6/7=2,8=2,9=2,10=2,19=2,28=1/1;
 99/9=1/99;
 -------------
 HA.19.a1.freq
 -------------
 Symbolic Z-matrix:
 Charge =  0 Multiplicity = 1
 C                    -1.48016   1.35562  -1.90314 
 S                    -1.77533   1.55848  -0.18875 
 O                    -0.75812   2.46252   0.33927 
 O                    -3.1919    1.88307  -0.06998 
 N                    -1.54378   0.12051   0.57178 
 H                    -0.56683  -0.17876   0.54468 
 H                    -2.16566  -0.61043   0.22041 
 C                    -2.33255   1.3338   -2.96262 
 C                    -1.49716   1.0826   -4.10192 
 C                    -0.22346   0.96768  -3.59868 
 O                    -0.16881   1.12971  -2.25973 
 C                    -1.5005    0.93124  -5.53151 
 C                    -0.24904   0.71166  -6.02103 
 S                     1.00307   0.6896   -4.76868 
 H                    -3.40299   1.48303  -2.92118 
 H                    -2.37712   0.98149  -6.16763 
 C                     0.14521   0.47657  -7.4466 
 N                     1.14906   1.42551  -7.92923 
 C                     0.61225   2.78959  -7.92454 
 C                     1.62529   3.75869  -8.5043 
 O                     1.98489   3.39401  -9.83349 
 C                     2.51573   2.07243  -9.8586 
 C                     1.51548   1.07523  -9.30487 
 H                    -0.77779   0.52901  -8.05099 
 H                     0.55629  -0.53265  -7.56414 
 H                     0.37839   3.08962  -6.89807 
 H                    -0.3215    2.8378   -8.51508 
 H                     2.52957   3.7828   -7.87874 
 H                     1.20293   4.7645   -8.55657 
 H                     3.44681   2.04482  -9.27411 
 H                     2.74391   1.84358  -10.90181 
 H                     1.95452   0.07247  -9.31674 
 H                     0.61986   1.06496  -9.95284 
 

 GradGradGradGradGradGradGradGradGradGradGradGradGradGradGradGradGradGrad
 Berny optimization.
 Initialization pass.
                           ----------------------------
                           !    Initial Parameters    !
                           ! (Angstroms and Degrees)  !
 --------------------------                            --------------------------
 ! Name  Definition              Value          Derivative Info.                !
 --------------------------------------------------------------------------------
 ! R1    R(1,2)                  1.7514         estimate D2E/DX2                !
 ! R2    R(1,8)                  1.36           estimate D2E/DX2                !
 ! R3    R(1,11)                 1.3776         estimate D2E/DX2                !
 ! R4    R(2,3)                  1.4597         estimate D2E/DX2                !
 ! R5    R(2,4)                  1.4581         estimate D2E/DX2                !
 ! R6    R(2,5)                  1.6431         estimate D2E/DX2                !
 ! R7    R(5,6)                  1.0221         estimate D2E/DX2                !
 ! R8    R(5,7)                  1.022          estimate D2E/DX2                !
 ! R9    R(8,9)                  1.4349         estimate D2E/DX2                !
 ! R10   R(8,15)                 1.0816         estimate D2E/DX2                !
 ! R11   R(9,10)                 1.3743         estimate D2E/DX2                !
 ! R12   R(9,12)                 1.4376         estimate D2E/DX2                !
 ! R13   R(10,11)                1.3498         estimate D2E/DX2                !
 ! R14   R(10,14)                1.7177         estimate D2E/DX2                !
 ! R15   R(12,13)                1.3616         estimate D2E/DX2                !
 ! R16   R(12,16)                1.0843         estimate D2E/DX2                !
 ! R17   R(13,14)                1.7711         estimate D2E/DX2                !
 ! R18   R(13,17)                1.4977         estimate D2E/DX2                !
 ! R19   R(17,18)                1.4633         estimate D2E/DX2                !
 ! R20   R(17,24)                1.1045         estimate D2E/DX2                !
 ! R21   R(17,25)                1.0961         estimate D2E/DX2                !
 ! R22   R(18,19)                1.4659         estimate D2E/DX2                !
 ! R23   R(18,23)                1.4661         estimate D2E/DX2                !
 ! R24   R(19,20)                1.5171         estimate D2E/DX2                !
 ! R25   R(19,26)                1.0947         estimate D2E/DX2                !
 ! R26   R(19,27)                1.1059         estimate D2E/DX2                !
 ! R27   R(20,21)                1.4244         estimate D2E/DX2                !
 ! R28   R(20,28)                1.0998         estimate D2E/DX2                !
 ! R29   R(20,29)                1.0921         estimate D2E/DX2                !
 ! R30   R(21,22)                1.4244         estimate D2E/DX2                !
 ! R31   R(22,23)                1.5171         estimate D2E/DX2                !
 ! R32   R(22,30)                1.0997         estimate D2E/DX2                !
 ! R33   R(22,31)                1.0921         estimate D2E/DX2                !
 ! R34   R(23,32)                1.0947         estimate D2E/DX2                !
 ! R35   R(23,33)                1.1055         estimate D2E/DX2                !
 ! A1    A(2,1,8)              131.2087         estimate D2E/DX2                !
 ! A2    A(2,1,11)             115.6454         estimate D2E/DX2                !
 ! A3    A(8,1,11)             113.0996         estimate D2E/DX2                !
 ! A4    A(1,2,3)              107.9609         estimate D2E/DX2                !
 ! A5    A(1,2,4)              105.6194         estimate D2E/DX2                !
 ! A6    A(1,2,5)              109.1451         estimate D2E/DX2                !
 ! A7    A(3,2,4)              120.6413         estimate D2E/DX2                !
 ! A8    A(3,2,5)              106.044          estimate D2E/DX2                !
 ! A9    A(4,2,5)              107.0988         estimate D2E/DX2                !
 ! A10   A(2,5,6)              112.251          estimate D2E/DX2                !
 ! A11   A(2,5,7)              112.398          estimate D2E/DX2                !
 ! A12   A(6,5,7)              111.2892         estimate D2E/DX2                !
 ! A13   A(1,8,9)              104.8604         estimate D2E/DX2                !
 ! A14   A(1,8,15)             126.0323         estimate D2E/DX2                !
 ! A15   A(9,8,15)             129.1065         estimate D2E/DX2                !
 ! A16   A(8,9,10)             105.2753         estimate D2E/DX2                !
 ! A17   A(8,9,12)             143.7699         estimate D2E/DX2                !
 ! A18   A(10,9,12)            110.9461         estimate D2E/DX2                !
 ! A19   A(9,10,11)            112.9986         estimate D2E/DX2                !
 ! A20   A(9,10,14)            115.2064         estimate D2E/DX2                !
 ! A21   A(11,10,14)           131.7721         estimate D2E/DX2                !
 ! A22   A(1,11,10)            103.7633         estimate D2E/DX2                !
 ! A23   A(9,12,13)            111.8611         estimate D2E/DX2                !
 ! A24   A(9,12,16)            125.4803         estimate D2E/DX2                !
 ! A25   A(13,12,16)           122.6586         estimate D2E/DX2                !
 ! A26   A(12,13,14)           113.427          estimate D2E/DX2                !
 ! A27   A(12,13,17)           127.5515         estimate D2E/DX2                !
 ! A28   A(14,13,17)           119.0138         estimate D2E/DX2                !
 ! A29   A(10,14,13)            88.5565         estimate D2E/DX2                !
 ! A30   A(13,17,18)           113.1264         estimate D2E/DX2                !
 ! A31   A(13,17,24)           107.0631         estimate D2E/DX2                !
 ! A32   A(13,17,25)           110.2026         estimate D2E/DX2                !
 ! A33   A(18,17,24)           111.2245         estimate D2E/DX2                !
 ! A34   A(18,17,25)           107.7255         estimate D2E/DX2                !
 ! A35   A(24,17,25)           107.3647         estimate D2E/DX2                !
 ! A36   A(17,18,19)           110.5597         estimate D2E/DX2                !
 ! A37   A(17,18,23)           109.0268         estimate D2E/DX2                !
 ! A38   A(19,18,23)           108.4731         estimate D2E/DX2                !
 ! A39   A(18,19,20)           110.406          estimate D2E/DX2                !
 ! A40   A(18,19,26)           109.6496         estimate D2E/DX2                !
 ! A41   A(18,19,27)           110.3683         estimate D2E/DX2                !
 ! A42   A(20,19,26)           109.0208         estimate D2E/DX2                !
 ! A43   A(20,19,27)           109.3846         estimate D2E/DX2                !
 ! A44   A(26,19,27)           107.9627         estimate D2E/DX2                !
 ! A45   A(19,20,21)           111.2002         estimate D2E/DX2                !
 ! A46   A(19,20,28)           110.2229         estimate D2E/DX2                !
 ! A47   A(19,20,29)           110.3863         estimate D2E/DX2                !
 ! A48   A(21,20,28)           109.1956         estimate D2E/DX2                !
 ! A49   A(21,20,29)           106.7827         estimate D2E/DX2                !
 ! A50   A(28,20,29)           108.9659         estimate D2E/DX2                !
 ! A51   A(20,21,22)           110.3689         estimate D2E/DX2                !
 ! A52   A(21,22,23)           110.9601         estimate D2E/DX2                !
 ! A53   A(21,22,30)           109.2358         estimate D2E/DX2                !
 ! A54   A(21,22,31)           106.8056         estimate D2E/DX2                !
 ! A55   A(23,22,30)           110.3485         estimate D2E/DX2                !
 ! A56   A(23,22,31)           110.406          estimate D2E/DX2                !
 ! A57   A(30,22,31)           108.9981         estimate D2E/DX2                !
 ! A58   A(18,23,22)           110.5012         estimate D2E/DX2                !
 ! A59   A(18,23,32)           109.2243         estimate D2E/DX2                !
 ! A60   A(18,23,33)           110.4702         estimate D2E/DX2                !
 ! A61   A(22,23,32)           109.4949         estimate D2E/DX2                !
 ! A62   A(22,23,33)           109.0456         estimate D2E/DX2                !
 ! A63   A(32,23,33)           108.0617         estimate D2E/DX2                !
 ! D1    D(8,1,2,3)           -137.2295         estimate D2E/DX2                !
 ! D2    D(8,1,2,4)             -6.918          estimate D2E/DX2                !
 ! D3    D(8,1,2,5)            107.9307         estimate D2E/DX2                !
 ! D4    D(11,1,2,3)            45.4508         estimate D2E/DX2                !
 ! D5    D(11,1,2,4)           175.7623         estimate D2E/DX2                !
 ! D6    D(11,1,2,5)           -69.389          estimate D2E/DX2                !
 ! D7    D(2,1,8,9)           -177.8553         estimate D2E/DX2                !
 ! D8    D(2,1,8,15)             2.4617         estimate D2E/DX2                !
 ! D9    D(11,1,8,9)            -0.4821         estimate D2E/DX2                !
 ! D10   D(11,1,8,15)          179.8349         estimate D2E/DX2                !
 ! D11   D(2,1,11,10)          178.0402         estimate D2E/DX2                !
 ! D12   D(8,1,11,10)            0.2321         estimate D2E/DX2                !
 ! D13   D(1,2,5,6)             66.7502         estimate D2E/DX2                !
 ! D14   D(1,2,5,7)            -59.6138         estimate D2E/DX2                !
 ! D15   D(3,2,5,6)            -49.321          estimate D2E/DX2                !
 ! D16   D(3,2,5,7)           -175.685          estimate D2E/DX2                !
 ! D17   D(4,2,5,6)           -179.3597         estimate D2E/DX2                !
 ! D18   D(4,2,5,7)             54.2762         estimate D2E/DX2                !
 ! D19   D(1,8,9,10)             0.5257         estimate D2E/DX2                !
 ! D20   D(1,8,9,12)          -178.198          estimate D2E/DX2                !
 ! D21   D(15,8,9,10)         -179.8046         estimate D2E/DX2                !
 ! D22   D(15,8,9,12)            1.4717         estimate D2E/DX2                !
 ! D23   D(8,9,10,11)           -0.423          estimate D2E/DX2                !
 ! D24   D(8,9,10,14)         -178.8911         estimate D2E/DX2                !
 ! D25   D(12,9,10,11)         178.7693         estimate D2E/DX2                !
 ! D26   D(12,9,10,14)           0.3012         estimate D2E/DX2                !
 ! D27   D(8,9,12,13)          178.7789         estimate D2E/DX2                !
 ! D28   D(8,9,12,16)           -1.195          estimate D2E/DX2                !
 ! D29   D(10,9,12,13)           0.0973         estimate D2E/DX2                !
 ! D30   D(10,9,12,16)        -179.8766         estimate D2E/DX2                !
 ! D31   D(9,10,11,1)            0.137          estimate D2E/DX2                !
 ! D32   D(14,10,11,1)         178.2784         estimate D2E/DX2                !
 ! D33   D(9,10,14,13)          -0.4553         estimate D2E/DX2                !
 ! D34   D(11,10,14,13)       -178.5644         estimate D2E/DX2                !
 ! D35   D(9,12,13,14)          -0.4391         estimate D2E/DX2                !
 ! D36   D(9,12,13,17)         178.53           estimate D2E/DX2                !
 ! D37   D(16,12,13,14)        179.5357         estimate D2E/DX2                !
 ! D38   D(16,12,13,17)         -1.4952         estimate D2E/DX2                !
 ! D39   D(12,13,14,10)          0.5073         estimate D2E/DX2                !
 ! D40   D(17,13,14,10)       -178.5581         estimate D2E/DX2                !
 ! D41   D(12,13,17,18)        123.7589         estimate D2E/DX2                !
 ! D42   D(12,13,17,24)          0.8797         estimate D2E/DX2                !
 ! D43   D(12,13,17,25)       -115.5825         estimate D2E/DX2                !
 ! D44   D(14,13,17,18)        -57.3228         estimate D2E/DX2                !
 ! D45   D(14,13,17,24)        179.798          estimate D2E/DX2                !
 ! D46   D(14,13,17,25)         63.3359         estimate D2E/DX2                !
 ! D47   D(13,17,18,19)        -63.5568         estimate D2E/DX2                !
 ! D48   D(13,17,18,23)        177.2789         estimate D2E/DX2                !
 ! D49   D(24,17,18,19)         56.9836         estimate D2E/DX2                !
 ! D50   D(24,17,18,23)        -62.1807         estimate D2E/DX2                !
 ! D51   D(25,17,18,19)        174.3876         estimate D2E/DX2                !
 ! D52   D(25,17,18,23)         55.2233         estimate D2E/DX2                !
 ! D53   D(17,18,19,20)       -176.5622         estimate D2E/DX2                !
 ! D54   D(17,18,19,26)         63.301          estimate D2E/DX2                !
 ! D55   D(17,18,19,27)        -55.5068         estimate D2E/DX2                !
 ! D56   D(23,18,19,20)        -57.0634         estimate D2E/DX2                !
 ! D57   D(23,18,19,26)       -177.2002         estimate D2E/DX2                !
 ! D58   D(23,18,19,27)         63.992          estimate D2E/DX2                !
 ! D59   D(17,18,23,22)        177.7497         estimate D2E/DX2                !
 ! D60   D(17,18,23,32)        -61.7385         estimate D2E/DX2                !
 ! D61   D(17,18,23,33)         56.9896         estimate D2E/DX2                !
 ! D62   D(19,18,23,22)         57.2945         estimate D2E/DX2                !
 ! D63   D(19,18,23,32)        177.8063         estimate D2E/DX2                !
 ! D64   D(19,18,23,33)        -63.4656         estimate D2E/DX2                !
 ! D65   D(18,19,20,21)         58.2547         estimate D2E/DX2                !
 ! D66   D(18,19,20,28)        -62.9915         estimate D2E/DX2                !
 ! D67   D(18,19,20,29)        176.5842         estimate D2E/DX2                !
 ! D68   D(26,19,20,21)        178.7686         estimate D2E/DX2                !
 ! D69   D(26,19,20,28)         57.5225         estimate D2E/DX2                !
 ! D70   D(26,19,20,29)        -62.9019         estimate D2E/DX2                !
 ! D71   D(27,19,20,21)        -63.3846         estimate D2E/DX2                !
 ! D72   D(27,19,20,28)        175.3692         estimate D2E/DX2                !
 ! D73   D(27,19,20,29)         54.9449         estimate D2E/DX2                !
 ! D74   D(19,20,21,22)        -58.0161         estimate D2E/DX2                !
 ! D75   D(28,20,21,22)         63.8295         estimate D2E/DX2                !
 ! D76   D(29,20,21,22)       -178.496          estimate D2E/DX2                !
 ! D77   D(20,21,22,23)         58.0503         estimate D2E/DX2                !
 ! D78   D(20,21,22,30)        -63.8238         estimate D2E/DX2                !
 ! D79   D(20,21,22,31)        178.43           estimate D2E/DX2                !
 ! D80   D(21,22,23,18)        -58.529          estimate D2E/DX2                !
 ! D81   D(21,22,23,32)       -178.8789         estimate D2E/DX2                !
 ! D82   D(21,22,23,33)         63.0766         estimate D2E/DX2                !
 ! D83   D(30,22,23,18)         62.6928         estimate D2E/DX2                !
 ! D84   D(30,22,23,32)        -57.6571         estimate D2E/DX2                !
 ! D85   D(30,22,23,33)       -175.7016         estimate D2E/DX2                !
 ! D86   D(31,22,23,18)       -176.7483         estimate D2E/DX2                !
 ! D87   D(31,22,23,32)         62.9017         estimate D2E/DX2                !
 ! D88   D(31,22,23,33)        -55.1427         estimate D2E/DX2                !
 --------------------------------------------------------------------------------
 Trust Radius=3.00D-01 FncErr=1.00D-07 GrdErr=1.00D-06 EigMax=2.50D+02 EigMin=1.00D-04
 Number of steps in this run=    196 maximum allowed number of steps=    198.
 GradGradGradGradGradGradGradGradGradGradGradGradGradGradGradGradGradGrad

                          Input orientation:                          
 ---------------------------------------------------------------------
 Center     Atomic      Atomic             Coordinates (Angstroms)
 Number     Number       Type             X           Y           Z
 ---------------------------------------------------------------------
      1          6           0       -1.480155    1.355624   -1.903141
      2         16           0       -1.775331    1.558484   -0.188745
      3          8           0       -0.758123    2.462523    0.339272
      4          8           0       -3.191896    1.883071   -0.069981
      5          7           0       -1.543785    0.120515    0.571779
      6          1           0       -0.566826   -0.178760    0.544683
      7          1           0       -2.165660   -0.610428    0.220406
      8          6           0       -2.332545    1.333796   -2.962621
      9          6           0       -1.497162    1.082601   -4.101922
     10          6           0       -0.223461    0.967682   -3.598676
     11          8           0       -0.168815    1.129708   -2.259732
     12          6           0       -1.500504    0.931237   -5.531506
     13          6           0       -0.249045    0.711660   -6.021027
     14         16           0        1.003070    0.689605   -4.768679
     15          1           0       -3.402993    1.483035   -2.921175
     16          1           0       -2.377123    0.981487   -6.167632
     17          6           0        0.145205    0.476574   -7.446601
     18          7           0        1.149056    1.425511   -7.929235
     19          6           0        0.612252    2.789591   -7.924542
     20          6           0        1.625294    3.758693   -8.504295
     21          8           0        1.984894    3.394009   -9.833487
     22          6           0        2.515725    2.072433   -9.858600
     23          6           0        1.515480    1.075231   -9.304865
     24          1           0       -0.777794    0.529005   -8.050987
     25          1           0        0.556293   -0.532654   -7.564138
     26          1           0        0.378394    3.089619   -6.898066
     27          1           0       -0.321497    2.837801   -8.515081
     28          1           0        2.529567    3.782804   -7.878737
     29          1           0        1.202929    4.764503   -8.556574
     30          1           0        3.446805    2.044817   -9.274111
     31          1           0        2.743909    1.843579  -10.901807
     32          1           0        1.954517    0.072465   -9.316735
     33          1           0        0.619856    1.064958   -9.952843
 ---------------------------------------------------------------------
                    Distance matrix (angstroms):
                    1          2          3          4          5
     1  C    0.000000
     2  S    1.751409   0.000000
     3  O    2.602878   1.459726   0.000000
     4  O    2.562954   1.458121   2.535055   0.000000
     5  N    2.766726   1.643097   2.481194   2.496944   0.000000
     6  H    3.029909   2.239736   2.656155   3.394104   1.022129
     7  H    2.974009   2.241415   3.382058   2.712014   1.021993
     8  C    1.359979   2.838196   3.828228   3.067174   3.819185
     9  C    2.215732   3.951809   4.708988   4.446282   4.771925
    10  C    2.145837   3.792753   4.245921   4.701195   4.455743
    11  O    1.377610   2.655886   2.979682   3.808095   3.305522
    12  C    3.653156   5.386470   6.112447   5.796124   6.157048
    13  C    4.345953   6.087871   6.616501   6.741478   6.744694
    14  S    3.849844   5.426809   5.686493   6.410917   5.943974
    15  H    2.179434   3.181376   4.311062   2.886850   4.184955
    16  H    4.373833   6.036735   6.866909   6.217561   6.845100
    17  C    5.843328   7.585214   8.085779   8.217604   8.202066
    18  N    6.575062   8.275561   8.548739   8.990056   9.012306
    19  C    6.533888   8.188939   8.383050   8.774249   9.162965
    20  C    7.680742   9.249516   9.250374   9.892469  10.278839
    21  O    8.891117  10.513301  10.577185  11.153840  11.464593
    22  C    8.931416  10.591666  10.717595  11.332690  11.361444
    23  C    7.989867   9.703949  10.005161  10.396879  10.383578
    24  H    6.242806   7.991856   8.610188   8.447357   8.666355
    25  H    6.305521   8.012849   8.553518   8.720495   8.427936
    26  H    5.604482   7.210956   7.352821   7.799069   8.264922
    27  H    6.874379   8.548576   8.873052   8.970530   9.562879
    28  H    7.594526   9.089319   8.949175   9.865130  10.070540
    29  H    7.942768   9.442942   9.395792   9.981954  10.603673
    30  H    8.892757  10.490525  10.501097  11.349649  11.204931
    31  H    9.952728  11.630757  11.790215  12.351672  12.369173
    32  H    8.270722   9.971972  10.310639  10.736215  10.489192
    33  H    8.324196  10.065690  10.477579  10.624017  10.786148
                    6          7          8          9         10
     6  H    0.000000
     7  H    1.687531   0.000000
     8  C    4.207941   3.733566   0.000000
     9  C    4.903825   4.689963   1.434912   0.000000
    10  C    4.312732   4.565956   2.233124   1.374328   0.000000
    11  O    3.120136   3.628574   2.284170   2.271649   1.349818
    12  C    6.246913   5.991966   2.730113   1.437579   2.316895
    13  C    6.633429   6.661592   3.752582   2.319128   2.435977
    14  S    5.608070   6.051603   3.847487   2.617283   1.717734
    15  H    4.776775   3.972797   1.081595   2.277433   3.291507
    16  H    7.048300   6.586801   3.224625   2.247602   3.352311
    17  C    8.049663   8.081130   5.194243   3.775118   3.896618
    18  N    8.793476   9.030450   6.066071   4.665660   4.565868
    19  C    9.051470   9.252951   5.950784   4.687842   4.767691
    20  C   10.109052  10.468093   7.228747   6.024292   5.939086
    21  O   11.268645  11.590659   8.372190   7.093529   7.045336
    22  C   11.081439  11.432386   8.462023   7.086774   6.921724
    23  C   10.145053  10.350025   7.422818   6.012211   5.966245
    24  H    8.627340   8.464067   5.381116   4.052046   4.508081
    25  H    8.193877   8.247072   5.744822   4.337357   4.310906
    26  H    8.183535   8.416365   5.091153   3.919726   3.968730
    27  H    9.551919   9.570786   6.093944   4.892738   5.260988
    28  H    9.809977  10.341265   7.335255   6.145728   5.815754
    29  H   10.507176  10.829249   7.453968   6.378935   6.405559
    30  H   10.838001  11.344423   8.587279   7.219433   6.844095
    31  H   12.086064  12.402807   9.437210   8.050106   7.931469
    32  H   10.181741  10.411496   7.768180   6.334725   6.183947
    33  H   10.637345  10.679935   7.592902   6.222167   6.410623
                   11         12         13         14         15
    11  O    0.000000
    12  C    3.537978   0.000000
    13  C    3.785305   1.361615   0.000000
    14  S    2.803893   2.628341   1.771059   0.000000
    15  H    3.319978   3.276854   4.489041   4.843159   0.000000
    16  H    4.491133   1.084270   2.150121   3.669873   3.441430
    17  C    5.237251   2.565671   1.497652   2.820032   5.837992
    18  N    5.828168   3.607434   2.470937   3.248382   6.767948
    19  C    5.954439   3.693757   2.946693   3.810794   6.546981
    20  C    7.008920   5.157771   4.354789   4.874556   7.850702
    21  O    8.193124   6.059727   5.169172   5.824951   8.970017
    22  C    8.114078   6.013000   4.921649   5.487042   9.138187
    23  C    7.243874   4.832715   3.745575   4.581294   8.069026
    24  H    5.854087   2.651770   2.105630   3.737755   5.840960
    25  H    5.605885   3.241139   2.139644   3.083523   6.426200
    26  H    5.065059   3.171176   2.611048   3.268727   5.718012
    27  H    6.486160   3.731858   3.278115   4.517162   6.528613
    28  H    6.774466   5.466480   4.539129   4.644409   8.066078
    29  H    7.398893   5.581533   4.996275   5.567125   7.983750
    30  H    7.944284   6.302621   5.100899   5.301638   9.359227
    31  H    9.147624   6.905617   5.836183   6.478999  10.079924
    32  H    7.444971   5.196404   4.015713   4.687316   8.461430
    33  H    7.733702   4.905307   4.042152   5.211842   8.111871
                   16         17         18         19         20
    16  H    0.000000
    17  C    2.872776   0.000000
    18  N    3.966654   1.463262   0.000000
    19  C    3.910542   2.407615   1.465911   0.000000
    20  C    5.402982   3.752558   2.449742   1.517079   0.000000
    21  O    6.187564   4.194414   2.863526   2.427661   1.424449
    22  C    6.225220   3.739501   2.451273   2.806796   2.338906
    23  C    5.000338   2.385202   1.466057   2.379106   2.802489
    24  H    2.511896   1.104518   2.128685   2.656777   4.051075
    25  H    3.584380   1.096060   2.078238   3.342205   4.521318
    26  H    3.545509   2.680163   2.103921   1.094696   2.140653
    27  H    3.630704   2.633412   2.121393   1.105870   2.153638
    28  H    5.903462   4.099155   2.732249   2.159783   1.099824
    29  H    5.730185   4.553807   3.397841   2.156071   1.092144
    30  H    6.685733   4.086531   2.733474   3.226564   2.616848
    31  H    7.027132   4.534359   3.399194   3.781932   3.266041
    32  H    5.431968   2.633308   2.098728   3.335063   3.789027
    33  H    4.828734   2.617774   2.122509   2.662410   3.219536
                   21         22         23         24         25
    21  O    0.000000
    22  C    1.424421   0.000000
    23  C    2.424154   1.517077   0.000000
    24  H    4.360963   4.061638   2.670146   0.000000
    25  H    4.754948   3.986277   2.556455   1.773113   0.000000
    26  H    3.360088   3.790463   3.338174   3.036897   3.687297
    27  H    2.714223   3.231202   2.665502   2.398776   3.610371
    28  H    2.066125   2.616374   3.223843   4.642791   4.755623
    29  H    2.029835   3.265876   3.777348   4.703012   5.427977
    30  H    2.066496   1.099681   2.161263   4.651984   4.233488
    31  H    2.030085   1.092119   2.156297   4.717803   4.644586
    32  H    3.361638   2.146728   1.094729   3.045664   2.322239
    33  H    2.702232   2.149002   1.105497   2.420274   2.874424
                   26         27         28         29         30
    26  H    0.000000
    27  H    1.779887   0.000000
    28  H    2.463689   3.070265   0.000000
    29  H    2.497147   2.457189   1.784142   0.000000
    30  H    4.018999   3.924928   2.410186   3.598130   0.000000
    31  H    4.814376   4.010194   3.597984   4.050499   1.784363
    32  H    4.175804   3.670146   4.020588   4.812271   2.473643
    33  H    3.672768   2.469065   3.916069   3.997021   3.067970
                   31         32         33
    31  H    0.000000
    32  H    2.504483   0.000000
    33  H    2.453239   1.780728   0.000000
 Stoichiometry    C11H14N2O4S2
 Framework group  C1[X(C11H14N2O4S2)]
 Deg. of freedom    93
 Full point group                 C1      NOp   1
 Largest Abelian subgroup         C1      NOp   1
 Largest concise Abelian subgroup C1      NOp   1
                         Standard orientation:                         
 ---------------------------------------------------------------------
 Center     Atomic      Atomic             Coordinates (Angstroms)
 Number     Number       Type             X           Y           Z
 ---------------------------------------------------------------------
      1          6           0        2.955188    0.027905    0.245004
      2         16           0        4.636768    0.473222    0.041489
      3          8           0        4.684240    1.712367   -0.728618
      4          8           0        5.225446    0.403151    1.373654
      5          7           0        5.387378   -0.662373   -0.878715
      6          1           0        5.038972   -0.674081   -1.839560
      7          1           0        5.347469   -1.592978   -0.458176
      8          6           0        2.277109   -0.441032    1.326599
      9          6           0        0.941152   -0.666532    0.854009
     10          6           0        0.963412   -0.317156   -0.474983
     11          8           0        2.174382    0.114201   -0.886678
     12          6           0       -0.373374   -1.091307    1.251774
     13          6           0       -1.256893   -1.042088    0.216899
     14         16           0       -0.538663   -0.463966   -1.295243
     15          1           0        2.685492   -0.593700    2.316430
     16          1           0       -0.655547   -1.415946    2.247079
     17          6           0       -2.702579   -1.432906    0.231585
     18          7           0       -3.593839   -0.354477   -0.197111
     19          6           0       -3.517348    0.776657    0.732179
     20          6           0       -4.503958    1.857473    0.332224
     21          8           0       -5.836250    1.354183    0.304748
     22          6           0       -5.933324    0.257266   -0.598760
     23          6           0       -4.973011   -0.851470   -0.211427
     24          1           0       -2.938842   -1.762284    1.259034
     25          1           0       -2.870196   -2.288343   -0.432853
     26          1           0       -2.505782    1.194935    0.720462
     27          1           0       -3.736521    0.443019    1.763488
     28          1           0       -4.248042    2.257646   -0.659734
     29          1           0       -4.489876    2.673071    1.058434
     30          1           0       -5.720632    0.608302   -1.618972
     31          1           0       -6.964672   -0.099057   -0.553159
     32          1           0       -5.052961   -1.672160   -0.931502
     33          1           0       -5.254081   -1.240633    0.784402
 ---------------------------------------------------------------------
 Rotational constants (GHZ):           1.0948547           0.1103503           0.1093182
 General basis read from cards:  (6D, 7F)
 There are   397 symmetry adapted cartesian basis functions of A   symmetry.
 There are   397 symmetry adapted basis functions of A   symmetry.
   397 basis functions,   712 primitive gaussians,   397 cartesian basis functions
    79 alpha electrons       79 beta electrons
       nuclear repulsion energy      1724.4319063795 Hartrees.
 NAtoms=   33 NActive=   33 NUniq=   33 SFac= 1.00D+00 NAtFMM=   60 NAOKFM=F Big=F
 Integral buffers will be    131072 words long.
 Raffenetti 2 integral format.
 Two-electron integral symmetry is turned on.
 One-electron integrals computed using PRISM.
 NBasis=   397 RedAO= T EigKep=  1.71D-06  NBF=   397
 NBsUse=   396 1.00D-06 EigRej=  4.67D-07 NBFU=   396
 ExpMin= 4.05D-02 ExpMax= 2.19D+04 ExpMxC= 3.30D+03 IAcc=3 IRadAn=         5 AccDes= 0.00D+00
 Harris functional with IExCor= 1009 and IRadAn=       5 diagonalized for initial guess.
 HarFok:  IExCor= 1009 AccDes= 0.00D+00 IRadAn=         5 IDoV= 1 UseB2=F ITyADJ=14
 ICtDFT=  3500011 ScaDFX=  1.000000  1.000000  1.000000  1.000000
 FoFCou: FMM=F IPFlag=           0 FMFlag=      100000 FMFlg1=           0
         NFxFlg=           0 DoJE=T BraDBF=F KetDBF=T FulRan=T
         wScrn=  0.000000 ICntrl=       500 IOpCl=  0 I1Cent=   200000004 NGrid=           0
         NMat0=    1 NMatS0=      1 NMatT0=    0 NMatD0=    1 NMtDS0=    0 NMtDT0=    0
 Petite list used in FoFCou.
 Requested convergence on RMS density matrix=1.00D-08 within 128 cycles.
 Requested convergence on MAX density matrix=1.00D-06.
 Requested convergence on             energy=1.00D-06.
 No special actions if energy rises.
 SCF Done:  E(RM062X) =  -1633.86211932     A.U. after   16 cycles
            NFock= 16  Conv=0.51D-08     -V/T= 2.0059

 **********************************************************************

            Population analysis using the SCF Density.

 **********************************************************************

 Orbital symmetries:
       Occupied  (A) (A) (A) (A) (A) (A) (A) (A) (A) (A) (A) (A)
                 (A) (A) (A) (A) (A) (A) (A) (A) (A) (A) (A) (A)
                 (A) (A) (A) (A) (A) (A) (A) (A) (A) (A) (A) (A)
                 (A) (A) (A) (A) (A) (A) (A) (A) (A) (A) (A) (A)
                 (A) (A) (A) (A) (A) (A) (A) (A) (A) (A) (A) (A)
                 (A) (A) (A) (A) (A) (A) (A) (A) (A) (A) (A) (A)
                 (A) (A) (A) (A) (A) (A) (A)
       Virtual   (A) (A) (A) (A) (A) (A) (A) (A) (A) (A) (A) (A)
                 (A) (A) (A) (A) (A) (A) (A) (A) (A) (A) (A) (A)
                 (A) (A) (A) (A) (A) (A) (A) (A) (A) (A) (A) (A)
                 (A) (A) (A) (A) (A) (A) (A) (A) (A) (A) (A) (A)
                 (A) (A) (A) (A) (A) (A) (A) (A) (A) (A) (A) (A)
                 (A) (A) (A) (A) (A) (A) (A) (A) (A) (A) (A) (A)
                 (A) (A) (A) (A) (A) (A) (A) (A) (A) (A) (A) (A)
                 (A) (A) (A) (A) (A) (A) (A) (A) (A) (A) (A) (A)
                 (A) (A) (A) (A) (A) (A) (A) (A) (A) (A) (A) (A)
                 (A) (A) (A) (A) (A) (A) (A) (A) (A) (A) (A) (A)
                 (A) (A) (A) (A) (A) (A) (A) (A) (A) (A) (A) (A)
                 (A) (A) (A) (A) (A) (A) (A) (A) (A) (A) (A) (A)
                 (A) (A) (A) (A) (A) (A) (A) (A) (A) (A) (A) (A)
                 (A) (A) (A) (A) (A) (A) (A) (A) (A) (A) (A) (A)
                 (A) (A) (A) (A) (A) (A) (A) (A) (A) (A) (A) (A)
                 (A) (A) (A) (A) (A) (A) (A) (A) (A) (A) (A) (A)
                 (A) (A) (A) (A) (A) (A) (A) (A) (A) (A) (A) (A)
                 (A) (A) (A) (A) (A) (A) (A) (A) (A) (A) (A) (A)
                 (A) (A) (A) (A) (A) (A) (A) (A) (A) (A) (A) (A)
                 (A) (A) (A) (A) (A) (A) (A) (A) (A) (A) (A) (A)
                 (A) (A) (A) (A) (A) (A) (A) (A) (A) (A) (A) (A)
                 (A) (A) (A) (A) (A) (A) (A) (A) (A) (A) (A) (A)
                 (A) (A) (A) (A) (A) (A) (A) (A) (A) (A) (A) (A)
                 (A) (A) (A) (A) (A) (A) (A) (A) (A) (A) (A) (A)
                 (A) (A) (A) (A) (A) (A) (A) (A) (A) (A) (A) (A)
                 (A) (A) (A) (A) (A) (A) (A) (A) (A) (A) (A) (A)
                 (A) (A) (A) (A) (A)
 The electronic state is 1-A.
 Alpha  occ. eigenvalues --  -90.18182 -89.98395 -19.75823 -19.65585 -19.65100
 Alpha  occ. eigenvalues --  -19.64783 -14.81847 -14.78166 -10.65863 -10.65257
 Alpha  occ. eigenvalues --  -10.61235 -10.60730 -10.60349 -10.60171 -10.59966
 Alpha  occ. eigenvalues --  -10.58733 -10.58712 -10.58594 -10.58326  -8.49041
 Alpha  occ. eigenvalues --   -8.32739  -6.41264  -6.41195  -6.41168  -6.24759
 Alpha  occ. eigenvalues --   -6.24543  -6.24238  -1.28564  -1.25065  -1.16966
 Alpha  occ. eigenvalues --   -1.13427  -1.06077  -1.04431  -1.01005  -0.93982
 Alpha  occ. eigenvalues --   -0.89060  -0.88389  -0.84965  -0.83566  -0.77477
 Alpha  occ. eigenvalues --   -0.75530  -0.74378  -0.70918  -0.67625  -0.67218
 Alpha  occ. eigenvalues --   -0.66190  -0.63042  -0.61896  -0.59823  -0.59713
 Alpha  occ. eigenvalues --   -0.58517  -0.57195  -0.56806  -0.55559  -0.55039
 Alpha  occ. eigenvalues --   -0.53592  -0.53278  -0.52329  -0.51305  -0.50147
 Alpha  occ. eigenvalues --   -0.48455  -0.48017  -0.46127  -0.45501  -0.44690
 Alpha  occ. eigenvalues --   -0.43371  -0.42819  -0.42571  -0.41915  -0.41127
 Alpha  occ. eigenvalues --   -0.40650  -0.39308  -0.38744  -0.38496  -0.37934
 Alpha  occ. eigenvalues --   -0.33859  -0.31541  -0.30901  -0.29446
 Alpha virt. eigenvalues --   -0.01051  -0.00791  -0.00380   0.00790   0.01566
 Alpha virt. eigenvalues --    0.02018   0.02377   0.02703   0.03060   0.03901
 Alpha virt. eigenvalues --    0.04093   0.04620   0.05379   0.05516   0.05575
 Alpha virt. eigenvalues --    0.05937   0.06760   0.07233   0.07513   0.07861
 Alpha virt. eigenvalues --    0.08022   0.08183   0.08842   0.09086   0.09700
 Alpha virt. eigenvalues --    0.09826   0.09926   0.10585   0.10821   0.11293
 Alpha virt. eigenvalues --    0.11741   0.12533   0.12766   0.12941   0.13697
 Alpha virt. eigenvalues --    0.14051   0.14356   0.14628   0.15373   0.15575
 Alpha virt. eigenvalues --    0.16219   0.16429   0.16842   0.17204   0.17698
 Alpha virt. eigenvalues --    0.18011   0.18516   0.18651   0.18984   0.19170
 Alpha virt. eigenvalues --    0.19786   0.19974   0.20259   0.20928   0.21059
 Alpha virt. eigenvalues --    0.21280   0.21781   0.21964   0.22419   0.22946
 Alpha virt. eigenvalues --    0.23129   0.23822   0.24212   0.25009   0.25052
 Alpha virt. eigenvalues --    0.25297   0.25546   0.26024   0.26607   0.27270
 Alpha virt. eigenvalues --    0.27851   0.28026   0.28233   0.28401   0.28811
 Alpha virt. eigenvalues --    0.29170   0.29703   0.30547   0.30907   0.31299
 Alpha virt. eigenvalues --    0.31428   0.32163   0.32292   0.32703   0.32938
 Alpha virt. eigenvalues --    0.33216   0.33860   0.34254   0.34828   0.35009
 Alpha virt. eigenvalues --    0.35074   0.35618   0.35798   0.36247   0.36944
 Alpha virt. eigenvalues --    0.37497   0.37740   0.38294   0.38949   0.39493
 Alpha virt. eigenvalues --    0.40032   0.40847   0.41517   0.42720   0.42918
 Alpha virt. eigenvalues --    0.43482   0.44627   0.45263   0.46753   0.47946
 Alpha virt. eigenvalues --    0.49763   0.51433   0.55937   0.56421   0.56731
 Alpha virt. eigenvalues --    0.58648   0.60771   0.65343   0.65611   0.66432
 Alpha virt. eigenvalues --    0.68002   0.69188   0.69907   0.70145   0.70835
 Alpha virt. eigenvalues --    0.71703   0.72589   0.72862   0.74253   0.74770
 Alpha virt. eigenvalues --    0.75824   0.76445   0.77284   0.77794   0.79550
 Alpha virt. eigenvalues --    0.80674   0.81316   0.82329   0.83161   0.84013
 Alpha virt. eigenvalues --    0.85411   0.85734   0.87365   0.89045   0.90986
 Alpha virt. eigenvalues --    0.91868   0.92907   0.93144   0.94009   0.94206
 Alpha virt. eigenvalues --    0.96419   0.97670   0.98171   0.99218   1.00213
 Alpha virt. eigenvalues --    1.00851   1.01346   1.01711   1.03248   1.03946
 Alpha virt. eigenvalues --    1.03985   1.04780   1.06180   1.08166   1.08807
 Alpha virt. eigenvalues --    1.09093   1.09731   1.10904   1.11521   1.12420
 Alpha virt. eigenvalues --    1.13241   1.14531   1.15402   1.16303   1.16734
 Alpha virt. eigenvalues --    1.17148   1.17934   1.18508   1.20580   1.21273
 Alpha virt. eigenvalues --    1.23685   1.24454   1.25223   1.25623   1.28501
 Alpha virt. eigenvalues --    1.30208   1.31077   1.32898   1.33430   1.34493
 Alpha virt. eigenvalues --    1.34773   1.36155   1.36879   1.37623   1.38281
 Alpha virt. eigenvalues --    1.38720   1.39500   1.41044   1.42230   1.42752
 Alpha virt. eigenvalues --    1.44264   1.46228   1.46922   1.47135   1.47796
 Alpha virt. eigenvalues --    1.49918   1.50613   1.51745   1.53125   1.53286
 Alpha virt. eigenvalues --    1.56265   1.58902   1.62280   1.62309   1.63262
 Alpha virt. eigenvalues --    1.66697   1.67976   1.69614   1.70785   1.72978
 Alpha virt. eigenvalues --    1.75587   1.78513   1.80089   1.81018   1.81364
 Alpha virt. eigenvalues --    1.82115   1.84227   1.85084   1.86739   1.87503
 Alpha virt. eigenvalues --    1.90303   1.91158   1.92656   1.93769   1.94052
 Alpha virt. eigenvalues --    1.95723   1.97027   1.98249   1.99369   2.02063
 Alpha virt. eigenvalues --    2.03577   2.04451   2.05375   2.06649   2.09239
 Alpha virt. eigenvalues --    2.10006   2.12187   2.13500   2.13972   2.14904
 Alpha virt. eigenvalues --    2.16166   2.17020   2.18064   2.19632   2.20499
 Alpha virt. eigenvalues --    2.20997   2.22317   2.22864   2.23898   2.27339
 Alpha virt. eigenvalues --    2.28750   2.31542   2.34837   2.36088   2.37857
 Alpha virt. eigenvalues --    2.39195   2.39637   2.41409   2.41790   2.45243
 Alpha virt. eigenvalues --    2.45312   2.48555   2.49106   2.50388   2.51507
 Alpha virt. eigenvalues --    2.53883   2.55281   2.56955   2.58031   2.59873
 Alpha virt. eigenvalues --    2.67710   2.71277   2.74006   2.79171   2.80413
 Alpha virt. eigenvalues --    2.82274   2.85525   2.88054   2.89527   2.90116
 Alpha virt. eigenvalues --    2.92764   2.93800   2.96668   3.00023   3.02812
 Alpha virt. eigenvalues --    3.08100   3.14211   3.23363   3.87714   4.02183
 Alpha virt. eigenvalues --    4.05594   4.20162   4.22364   4.24194   4.25792
 Alpha virt. eigenvalues --    4.27904   4.31992   4.34020   4.36800   4.45348
 Alpha virt. eigenvalues --    4.45849   4.48085   4.53108   4.59723   4.66909
 Alpha virt. eigenvalues --    4.67662   4.69512
          Condensed to atoms (all electrons):
               1          2          3          4          5          6
     1  C   15.911578   0.085760   0.028043  -0.192824  -0.441061  -0.019877
     2  S    0.085760  17.620977   0.459616   0.230197  -0.708054   0.071199
     3  O    0.028043   0.459616   8.702154  -0.208060  -0.197492  -0.001710
     4  O   -0.192824   0.230197  -0.208060   8.721967  -0.157132   0.010556
     5  N   -0.441061  -0.708054  -0.197492  -0.157132   8.165159   0.226204
     6  H   -0.019877   0.071199  -0.001710   0.010556   0.226204   0.311176
     7  H   -0.014876   0.111358   0.010724  -0.003172   0.226048  -0.022168
     8  C   -1.919056  -0.315065  -0.317497   0.070435   0.467673  -0.019307
     9  C   -1.251916  -2.328017  -0.017359   0.106599   0.251537   0.001635
    10  C   -1.368998  -0.459160   0.059572  -0.042710   0.026204  -0.007964
    11  O   -0.141865  -0.093129   0.006071   0.000285  -0.006947   0.001012
    12  C   -3.614295  -0.719928  -0.045293  -0.029151   0.052427  -0.001456
    13  C   -0.956032   0.013092   0.011932   0.014750   0.003284   0.000380
    14  S   -0.349009   0.009450   0.001620   0.004446   0.002876  -0.000805
    15  H    0.024890   0.014485   0.000154  -0.000315  -0.000039   0.000000
    16  H   -0.009526  -0.000611  -0.000000  -0.000003  -0.000004   0.000000
    17  C    1.126890   0.121284   0.001768   0.001956  -0.001682   0.000035
    18  N    0.015266   0.000657   0.000003   0.000001   0.000028  -0.000000
    19  C   -0.012710  -0.001782  -0.000014  -0.000031   0.000021  -0.000000
    20  C   -0.010267  -0.000618   0.000002  -0.000005  -0.000001   0.000000
    21  O   -0.000031  -0.000001  -0.000000   0.000000   0.000000  -0.000000
    22  C    0.005479   0.000263   0.000001   0.000000  -0.000002   0.000000
    23  C    0.015049   0.000987   0.000000   0.000006  -0.000002   0.000000
    24  H    0.000093  -0.000003  -0.000000  -0.000000  -0.000000  -0.000000
    25  H    0.000903   0.000022   0.000000   0.000000   0.000000   0.000000
    26  H   -0.001222  -0.000044  -0.000000  -0.000000   0.000000  -0.000000
    27  H    0.000087  -0.000003   0.000000  -0.000000   0.000000  -0.000000
    28  H   -0.000056  -0.000001  -0.000000  -0.000000   0.000000   0.000000
    29  H    0.000035   0.000001   0.000000   0.000000   0.000000   0.000000
    30  H    0.000004   0.000000   0.000000  -0.000000   0.000000  -0.000000
    31  H    0.000001   0.000000   0.000000   0.000000   0.000000   0.000000
    32  H    0.000008   0.000000   0.000000   0.000000   0.000000  -0.000000
    33  H    0.000030   0.000000   0.000000   0.000000   0.000000  -0.000000
               7          8          9         10         11         12
     1  C   -0.014876  -1.919056  -1.251916  -1.368998  -0.141865  -3.614295
     2  S    0.111358  -0.315065  -2.328017  -0.459160  -0.093129  -0.719928
     3  O    0.010724  -0.317497  -0.017359   0.059572   0.006071  -0.045293
     4  O   -0.003172   0.070435   0.106599  -0.042710   0.000285  -0.029151
     5  N    0.226048   0.467673   0.251537   0.026204  -0.006947   0.052427
     6  H   -0.022168  -0.019307   0.001635  -0.007964   0.001012  -0.001456
     7  H    0.319096  -0.026465  -0.040147   0.001613   0.000051  -0.003717
     8  C   -0.026465  22.166071 -12.278976  -2.272901  -0.386204   6.293230
     9  C   -0.040147 -12.278976  22.629165   0.868739   0.422566  -6.359023
    10  C    0.001613  -2.272901   0.868739  11.536003   0.047811   1.141430
    11  O    0.000051  -0.386204   0.422566   0.047811   8.297126  -0.093282
    12  C   -0.003717   6.293230  -6.359023   1.141430  -0.093282  21.023507
    13  C    0.000724  -5.269031   1.348488  -0.117112   0.184665  -2.413190
    14  S    0.000609   0.062818  -0.416358  -0.879980  -0.058078  -1.823841
    15  H   -0.000006   0.296715  -0.000140   0.007598   0.005825  -0.047204
    16  H    0.000000  -0.072178   0.012669   0.037748  -0.000446   0.311226
    17  C    0.000143  -0.352967   2.423591  -1.611805   0.028770  -7.238504
    18  N    0.000000  -0.005174   0.085992  -0.079952   0.001172  -0.246908
    19  C   -0.000001  -0.026791  -0.080715   0.093930  -0.001267   0.121085
    20  C   -0.000000  -0.008006  -0.019244  -0.015370   0.000430  -0.039771
    21  O   -0.000000  -0.000227  -0.002001  -0.000906   0.000001  -0.006253
    22  C    0.000000   0.008108   0.057018  -0.008815  -0.000034   0.009916
    23  C    0.000000   0.016706   0.049251  -0.017718   0.000190  -0.094388
    24  H   -0.000000  -0.000028   0.020116   0.000533   0.000040  -0.050930
    25  H    0.000000  -0.006181  -0.012612  -0.018884  -0.000003  -0.084096
    26  H   -0.000000  -0.005508  -0.015798  -0.000714  -0.000026  -0.006590
    27  H   -0.000000  -0.001366   0.002186   0.002849   0.000001  -0.010920
    28  H   -0.000000   0.000108   0.000041   0.000192  -0.000000   0.003034
    29  H    0.000000  -0.000232  -0.000087  -0.000686   0.000000  -0.004714
    30  H   -0.000000   0.000014   0.000343  -0.000112   0.000000   0.000310
    31  H    0.000000  -0.000004  -0.000018  -0.000006   0.000000  -0.000366
    32  H    0.000000  -0.000069  -0.000325  -0.000923  -0.000000  -0.005642
    33  H   -0.000000  -0.000132   0.000781   0.000003   0.000000  -0.003585
              13         14         15         16         17         18
     1  C   -0.956032  -0.349009   0.024890  -0.009526   1.126890   0.015266
     2  S    0.013092   0.009450   0.014485  -0.000611   0.121284   0.000657
     3  O    0.011932   0.001620   0.000154  -0.000000   0.001768   0.000003
     4  O    0.014750   0.004446  -0.000315  -0.000003   0.001956   0.000001
     5  N    0.003284   0.002876  -0.000039  -0.000004  -0.001682   0.000028
     6  H    0.000380  -0.000805   0.000000   0.000000   0.000035  -0.000000
     7  H    0.000724   0.000609  -0.000006   0.000000   0.000143   0.000000
     8  C   -5.269031   0.062818   0.296715  -0.072178  -0.352967  -0.005174
     9  C    1.348488  -0.416358  -0.000140   0.012669   2.423591   0.085992
    10  C   -0.117112  -0.879980   0.007598   0.037748  -1.611805  -0.079952
    11  O    0.184665  -0.058078   0.005825  -0.000446   0.028770   0.001172
    12  C   -2.413190  -1.823841  -0.047204   0.311226  -7.238504  -0.246908
    13  C   18.637021   0.634078   0.004289   0.023476  -5.191809  -0.460431
    14  S    0.634078  17.035687  -0.000355  -0.004982   1.181126   0.119720
    15  H    0.004289  -0.000355   0.417765   0.000478   0.001504   0.000002
    16  H    0.023476  -0.004982   0.000478   0.466947  -0.006334   0.001100
    17  C   -5.191809   1.181126   0.001504  -0.006334  14.663670   0.626561
    18  N   -0.460431   0.119720   0.000002   0.001100   0.626561   7.263243
    19  C    0.289622  -0.117482   0.000028   0.002915  -0.393768   0.172971
    20  C    0.057133   0.010067   0.000003   0.001577   0.019925   0.006256
    21  O   -0.006304   0.004250  -0.000000   0.000001   0.012275  -0.027796
    22  C   -0.196376  -0.009414   0.000000   0.000071  -0.018563   0.000100
    23  C   -0.271217   0.023069   0.000002   0.001525  -0.001202   0.213546
    24  H   -0.135367   0.019110   0.000000   0.001585   0.482002  -0.050028
    25  H   -0.082124   0.015038   0.000000   0.000089   0.556690  -0.056410
    26  H    0.061521  -0.008143  -0.000000   0.000034  -0.025939  -0.050692
    27  H   -0.022747   0.002246  -0.000000  -0.000051   0.017822  -0.055325
    28  H    0.006678   0.000089  -0.000000  -0.000000  -0.010006   0.014323
    29  H   -0.005475   0.001540   0.000000   0.000000   0.007484   0.005499
    30  H   -0.000490  -0.000210  -0.000000  -0.000000  -0.009918   0.016122
    31  H   -0.005244   0.000369   0.000000  -0.000000   0.006599  -0.000731
    32  H   -0.028037   0.005150   0.000000  -0.000000   0.005748  -0.061266
    33  H   -0.033264   0.001014  -0.000000   0.000000   0.010721  -0.043203
              19         20         21         22         23         24
     1  C   -0.012710  -0.010267  -0.000031   0.005479   0.015049   0.000093
     2  S   -0.001782  -0.000618  -0.000001   0.000263   0.000987  -0.000003
     3  O   -0.000014   0.000002  -0.000000   0.000001   0.000000  -0.000000
     4  O   -0.000031  -0.000005   0.000000   0.000000   0.000006  -0.000000
     5  N    0.000021  -0.000001   0.000000  -0.000002  -0.000002  -0.000000
     6  H   -0.000000   0.000000  -0.000000   0.000000   0.000000  -0.000000
     7  H   -0.000001  -0.000000  -0.000000   0.000000   0.000000  -0.000000
     8  C   -0.026791  -0.008006  -0.000227   0.008108   0.016706  -0.000028
     9  C   -0.080715  -0.019244  -0.002001   0.057018   0.049251   0.020116
    10  C    0.093930  -0.015370  -0.000906  -0.008815  -0.017718   0.000533
    11  O   -0.001267   0.000430   0.000001  -0.000034   0.000190   0.000040
    12  C    0.121085  -0.039771  -0.006253   0.009916  -0.094388  -0.050930
    13  C    0.289622   0.057133  -0.006304  -0.196376  -0.271217  -0.135367
    14  S   -0.117482   0.010067   0.004250  -0.009414   0.023069   0.019110
    15  H    0.000028   0.000003  -0.000000   0.000000   0.000002   0.000000
    16  H    0.002915   0.001577   0.000001   0.000071   0.001525   0.001585
    17  C   -0.393768   0.019925   0.012275  -0.018563  -0.001202   0.482002
    18  N    0.172971   0.006256  -0.027796   0.000100   0.213546  -0.050028
    19  C    6.499616  -0.569563  -0.067350   0.162810  -0.402829  -0.017601
    20  C   -0.569563   6.113742   0.175573  -0.392732   0.223957   0.002153
    21  O   -0.067350   0.175573   8.329377   0.194919  -0.068074  -0.000120
    22  C    0.162810  -0.392732   0.194919   6.228768  -0.477886  -0.007344
    23  C   -0.402829   0.223957  -0.068074  -0.477886   6.373566   0.001922
    24  H   -0.017601   0.002153  -0.000120  -0.007344   0.001922   0.533228
    25  H    0.014594   0.001163   0.000149   0.001717  -0.022630  -0.037674
    26  H    0.337855   0.004688   0.006877   0.000637   0.016843  -0.001190
    27  H    0.381629  -0.034058   0.001611  -0.016324   0.000105   0.010578
    28  H   -0.154734   0.495960  -0.048994  -0.015332   0.004512   0.000009
    29  H   -0.066369   0.430323  -0.054265   0.011932  -0.002529   0.000011
    30  H   -0.003955  -0.009003  -0.049608   0.500029  -0.146237   0.000008
    31  H   -0.004603   0.012470  -0.053448   0.406622  -0.041190   0.000015
    32  H    0.020890  -0.006832   0.007544   0.028064   0.349521  -0.001369
    33  H   -0.023647   0.007637  -0.000238  -0.075070   0.432263   0.009630
              25         26         27         28         29         30
     1  C    0.000903  -0.001222   0.000087  -0.000056   0.000035   0.000004
     2  S    0.000022  -0.000044  -0.000003  -0.000001   0.000001   0.000000
     3  O    0.000000  -0.000000   0.000000  -0.000000   0.000000   0.000000
     4  O    0.000000  -0.000000  -0.000000  -0.000000   0.000000  -0.000000
     5  N    0.000000   0.000000   0.000000   0.000000   0.000000   0.000000
     6  H    0.000000  -0.000000  -0.000000   0.000000   0.000000  -0.000000
     7  H    0.000000  -0.000000  -0.000000  -0.000000   0.000000  -0.000000
     8  C   -0.006181  -0.005508  -0.001366   0.000108  -0.000232   0.000014
     9  C   -0.012612  -0.015798   0.002186   0.000041  -0.000087   0.000343
    10  C   -0.018884  -0.000714   0.002849   0.000192  -0.000686  -0.000112
    11  O   -0.000003  -0.000026   0.000001  -0.000000   0.000000   0.000000
    12  C   -0.084096  -0.006590  -0.010920   0.003034  -0.004714   0.000310
    13  C   -0.082124   0.061521  -0.022747   0.006678  -0.005475  -0.000490
    14  S    0.015038  -0.008143   0.002246   0.000089   0.001540  -0.000210
    15  H    0.000000  -0.000000  -0.000000  -0.000000   0.000000  -0.000000
    16  H    0.000089   0.000034  -0.000051  -0.000000   0.000000  -0.000000
    17  C    0.556690  -0.025939   0.017822  -0.010006   0.007484  -0.009918
    18  N   -0.056410  -0.050692  -0.055325   0.014323   0.005499   0.016122
    19  C    0.014594   0.337855   0.381629  -0.154734  -0.066369  -0.003955
    20  C    0.001163   0.004688  -0.034058   0.495960   0.430323  -0.009003
    21  O    0.000149   0.006877   0.001611  -0.048994  -0.054265  -0.049608
    22  C    0.001717   0.000637  -0.016324  -0.015332   0.011932   0.500029
    23  C   -0.022630   0.016843   0.000105   0.004512  -0.002529  -0.146237
    24  H   -0.037674  -0.001190   0.010578   0.000009   0.000011   0.000008
    25  H    0.493143   0.000011  -0.000309   0.000008   0.000002   0.000015
    26  H    0.000011   0.487617  -0.037415  -0.001907  -0.001196   0.000028
    27  H   -0.000309  -0.037415   0.529534   0.003912  -0.002581   0.000120
    28  H    0.000008  -0.001907   0.003912   0.516147  -0.031325   0.007206
    29  H    0.000002  -0.001196  -0.002581  -0.031325   0.498871  -0.000211
    30  H    0.000015   0.000028   0.000120   0.007206  -0.000211   0.516475
    31  H   -0.000010   0.000015   0.000031  -0.000229  -0.000070  -0.031622
    32  H    0.005541  -0.000065  -0.000367   0.000023   0.000016  -0.002019
    33  H   -0.001776  -0.000342   0.008512   0.000104   0.000027   0.003814
              31         32         33
     1  C    0.000001   0.000008   0.000030
     2  S    0.000000   0.000000   0.000000
     3  O    0.000000   0.000000   0.000000
     4  O    0.000000   0.000000   0.000000
     5  N    0.000000   0.000000   0.000000
     6  H    0.000000  -0.000000  -0.000000
     7  H    0.000000   0.000000  -0.000000
     8  C   -0.000004  -0.000069  -0.000132
     9  C   -0.000018  -0.000325   0.000781
    10  C   -0.000006  -0.000923   0.000003
    11  O    0.000000  -0.000000   0.000000
    12  C   -0.000366  -0.005642  -0.003585
    13  C   -0.005244  -0.028037  -0.033264
    14  S    0.000369   0.005150   0.001014
    15  H    0.000000   0.000000  -0.000000
    16  H   -0.000000  -0.000000   0.000000
    17  C    0.006599   0.005748   0.010721
    18  N   -0.000731  -0.061266  -0.043203
    19  C   -0.004603   0.020890  -0.023647
    20  C    0.012470  -0.006832   0.007637
    21  O   -0.053448   0.007544  -0.000238
    22  C    0.406622   0.028064  -0.075070
    23  C   -0.041190   0.349521   0.432263
    24  H    0.000015  -0.001369   0.009630
    25  H   -0.000010   0.005541  -0.001776
    26  H    0.000015  -0.000065  -0.000342
    27  H    0.000031  -0.000367   0.008512
    28  H   -0.000229   0.000023   0.000104
    29  H   -0.000070   0.000016   0.000027
    30  H   -0.031622  -0.002019   0.003814
    31  H    0.502367  -0.000773  -0.002287
    32  H   -0.000773   0.514796  -0.039168
    33  H   -0.002287  -0.039168   0.523772
 Mulliken charges:
               1
     1  C   -0.910495
     2  S    1.887069
     3  O   -0.494237
     4  O   -0.527793
     5  N   -0.909043
     6  H    0.451091
     7  H    0.440185
     8  C   -0.098511
     9  C    0.542019
    10  C   -0.919511
    11  O   -0.214735
    12  C   -0.013118
    13  C   -0.096884
    14  S    0.534283
    15  H    0.274322
    16  H    0.232695
    17  C   -0.434068
    18  N   -0.404647
    19  C   -0.152757
    20  C   -0.457588
    21  O   -0.346960
    22  C   -0.398562
    23  C   -0.177121
    24  H    0.220623
    25  H    0.233625
    26  H    0.240666
    27  H    0.220243
    28  H    0.210238
    29  H    0.214001
    30  H    0.208900
    31  H    0.212112
    32  H    0.209555
    33  H    0.224402
 Sum of Mulliken charges =  -0.00000
 Mulliken charges with hydrogens summed into heavy atoms:
               1
     1  C   -0.910495
     2  S    1.887069
     3  O   -0.494237
     4  O   -0.527793
     5  N   -0.017767
     8  C    0.175811
     9  C    0.542019
    10  C   -0.919511
    11  O   -0.214735
    12  C    0.219577
    13  C   -0.096884
    14  S    0.534283
    17  C    0.020180
    18  N   -0.404647
    19  C    0.308152
    20  C   -0.033349
    21  O   -0.346960
    22  C    0.022450
    23  C    0.256837
 Electronic spatial extent (au):  <R**2>=           9519.5764
 Charge=             -0.0000 electrons
 Dipole moment (field-independent basis, Debye):
    X=             -3.9806    Y=             -5.7679    Z=             -0.5596  Tot=              7.0304
 Quadrupole moment (field-independent basis, Debye-Ang):
   XX=           -155.1068   YY=           -126.7038   ZZ=           -123.1606
   XY=            -12.7595   XZ=             -4.9309   YZ=              1.4270
 Traceless Quadrupole moment (field-independent basis, Debye-Ang):
   XX=            -20.1164   YY=              8.2866   ZZ=             11.8298
   XY=            -12.7595   XZ=             -4.9309   YZ=              1.4270
 Octapole moment (field-independent basis, Debye-Ang**2):
  XXX=            -97.5087  YYY=              3.1858  ZZZ=             -6.0721  XYY=             -2.4642
  XXY=           -160.6084  XXZ=            -85.7729  XZZ=              7.5934  YZZ=             -6.4401
  YYZ=              1.7654  XYZ=             12.7876
 Hexadecapole moment (field-independent basis, Debye-Ang**3):
 XXXX=         -12406.6295 YYYY=           -805.3026 ZZZZ=           -638.6667 XXXY=           -110.4412
 XXXZ=            -33.4239 YYYX=            -71.8851 YYYZ=             24.1289 ZZZX=            -51.6900
 ZZZY=             -9.0245 XXYY=          -1997.2591 XXZZ=          -1963.3688 YYZZ=           -242.2549
 XXYZ=             44.8932 YYXZ=              7.9847 ZZXY=            -35.1325
 N-N= 1.724431906380D+03 E-N=-7.290489557147D+03  KE= 1.624270837013D+03
 Calling FoFJK, ICntrl=      2127 FMM=F ISym2X=0 I1Cent= 0 IOpClX= 0 NMat=1 NMatS=1 NMatT=0.
 ***** Axes restored to original set *****
 -------------------------------------------------------------------
 Center     Atomic                   Forces (Hartrees/Bohr)
 Number     Number              X              Y              Z
 -------------------------------------------------------------------
      1        6           0.004791558   -0.004143685   -0.001593062
      2       16          -0.006176862    0.035279070    0.014146735
      3        8          -0.005064301   -0.012446143   -0.006609188
      4        8           0.007800818   -0.008558401   -0.005011838
      5        7           0.003757701   -0.015070855   -0.003087434
      6        1          -0.002548286    0.002162123    0.001553145
      7        1           0.000751740    0.002729528    0.002527186
      8        6           0.000218796   -0.000442390   -0.000461833
      9        6          -0.000635695    0.000231801   -0.001831670
     10        6           0.000642299    0.000239348    0.003522803
     11        8          -0.005935834   -0.000624818   -0.005415250
     12        6           0.000298601    0.000193742    0.001227766
     13        6           0.001853543   -0.000487457    0.002107232
     14       16           0.000154630    0.000920577   -0.002762544
     15        1           0.000815632    0.000430733    0.001558310
     16        1           0.000043945    0.000021599    0.000067009
     17        6           0.002738798    0.001752352    0.001219578
     18        7          -0.005053206   -0.000564619   -0.002917940
     19        6           0.001214750   -0.000265747    0.002438966
     20        6           0.003344442   -0.001718147   -0.006964990
     21        8          -0.000172717   -0.004292179    0.004019347
     22        6          -0.001664558    0.008287619    0.000361439
     23        6           0.000973884   -0.000460323    0.002622237
     24        1          -0.001380489   -0.000301409   -0.001242903
     25        1           0.000375205   -0.000505790   -0.000184737
     26        1          -0.000308478   -0.001206023    0.000804519
     27        1          -0.000664871    0.000349194   -0.000810077
     28        1          -0.000176793   -0.000455089    0.001201452
     29        1           0.000219955    0.000094579   -0.000776874
     30        1           0.000181760   -0.001072169    0.000815969
     31        1          -0.000054016    0.000768579   -0.000381473
     32        1           0.000160743   -0.001057015    0.000828194
     33        1          -0.000502692    0.000211413   -0.000970073
 -------------------------------------------------------------------
 Cartesian Forces:  Max     0.035279070 RMS     0.005062843

 GradGradGradGradGradGradGradGradGradGradGradGradGradGradGradGradGradGrad
 Berny optimization.
 FormGI is forming the generalized inverse of G from B-inverse, IUseBI=4.
 Internal  Forces:  Max     0.013627302 RMS     0.002133463
 Search for a local minimum.
 Step number   1 out of a maximum of  196
 All quantities printed in internal units (Hartrees-Bohrs-Radians)
 Mixed Optimization -- RFO/linear search
 Second derivative matrix not updated -- first step.
 ITU=  0
     Eigenvalues ---    0.00797   0.00855   0.00855   0.01013   0.01095
     Eigenvalues ---    0.01401   0.01531   0.01609   0.01693   0.01778
     Eigenvalues ---    0.02003   0.02049   0.02069   0.02103   0.02207
     Eigenvalues ---    0.02323   0.02815   0.03346   0.04487   0.04604
     Eigenvalues ---    0.04997   0.05133   0.05205   0.05648   0.05875
     Eigenvalues ---    0.06379   0.06408   0.06560   0.08557   0.09072
     Eigenvalues ---    0.09095   0.09401   0.09604   0.10111   0.10698
     Eigenvalues ---    0.10855   0.11604   0.11661   0.13349   0.13363
     Eigenvalues ---    0.14362   0.14477   0.15978   0.16000   0.16000
     Eigenvalues ---    0.16000   0.16000   0.17693   0.19902   0.21165
     Eigenvalues ---    0.22008   0.23571   0.23913   0.24975   0.24979
     Eigenvalues ---    0.24996   0.24997   0.25000   0.28177   0.29073
     Eigenvalues ---    0.30351   0.30649   0.32625   0.32926   0.33041
     Eigenvalues ---    0.33081   0.33187   0.33702   0.33717   0.34122
     Eigenvalues ---    0.34272   0.34276   0.34465   0.34566   0.34569
     Eigenvalues ---    0.34844   0.35483   0.35802   0.36559   0.38377
     Eigenvalues ---    0.38970   0.40410   0.40704   0.42126   0.43712
     Eigenvalues ---    0.44000   0.44022   0.48309   0.50015   0.51395
     Eigenvalues ---    0.53915   0.91724   0.92403
 RFO step:  Lambda=-3.90047378D-03 EMin= 7.97006399D-03
 Linear search not attempted -- first point.
 Iteration  1 RMS(Cart)=  0.07446713 RMS(Int)=  0.00162095
 Iteration  2 RMS(Cart)=  0.00303539 RMS(Int)=  0.00015775
 Iteration  3 RMS(Cart)=  0.00000243 RMS(Int)=  0.00015774
 Iteration  4 RMS(Cart)=  0.00000000 RMS(Int)=  0.00015774
 Variable       Old X    -DE/DX   Delta X   Delta X   Delta X     New X
                                 (Linear)    (Quad)   (Total)
    R1        3.30968   0.00417   0.00000   0.01357   0.01357   3.32325
    R2        2.56999  -0.00061   0.00000  -0.00108  -0.00108   2.56891
    R3        2.60331  -0.00361   0.00000  -0.00770  -0.00770   2.59561
    R4        2.75848  -0.01363   0.00000  -0.01479  -0.01479   2.74369
    R5        2.75545  -0.00989   0.00000  -0.01066  -0.01066   2.74479
    R6        3.10500   0.00964   0.00000   0.02186   0.02186   3.12686
    R7        1.93154  -0.00311   0.00000  -0.00701  -0.00701   1.92454
    R8        1.93129  -0.00328   0.00000  -0.00739  -0.00739   1.92390
    R9        2.71159   0.00087   0.00000   0.00278   0.00278   2.71437
   R10        2.04392  -0.00069   0.00000  -0.00190  -0.00190   2.04202
   R11        2.59710  -0.00026   0.00000  -0.00025  -0.00026   2.59685
   R12        2.71663  -0.00100   0.00000  -0.00244  -0.00244   2.71419
   R13        2.55079  -0.00363   0.00000  -0.00688  -0.00688   2.54391
   R14        3.24605   0.00075   0.00000   0.00220   0.00220   3.24824
   R15        2.57308   0.00054   0.00000   0.00099   0.00100   2.57408
   R16        2.04897  -0.00007   0.00000  -0.00021  -0.00021   2.04877
   R17        3.34682  -0.00221   0.00000  -0.00772  -0.00772   3.33910
   R18        2.83015  -0.00019   0.00000  -0.00057  -0.00057   2.82958
   R19        2.76516  -0.00271   0.00000  -0.00733  -0.00733   2.75784
   R20        2.08724   0.00182   0.00000   0.00542   0.00542   2.09265
   R21        2.07125   0.00063   0.00000   0.00182   0.00182   2.07307
   R22        2.77017  -0.00171   0.00000  -0.00432  -0.00419   2.76598
   R23        2.77045  -0.00195   0.00000  -0.00531  -0.00518   2.76527
   R24        2.86686   0.00137   0.00000   0.00437   0.00436   2.87123
   R25        2.06868   0.00049   0.00000   0.00141   0.00141   2.07009
   R26        2.08979   0.00101   0.00000   0.00302   0.00302   2.09281
   R27        2.69182  -0.00575   0.00000  -0.01364  -0.01378   2.67804
   R28        2.07837   0.00053   0.00000   0.00155   0.00155   2.07991
   R29        2.06385   0.00004   0.00000   0.00011   0.00011   2.06396
   R30        2.69177  -0.00654   0.00000  -0.01581  -0.01595   2.67582
   R31        2.86686   0.00146   0.00000   0.00475   0.00475   2.87161
   R32        2.07810   0.00061   0.00000   0.00180   0.00180   2.07990
   R33        2.06381   0.00019   0.00000   0.00055   0.00055   2.06436
   R34        2.06874   0.00102   0.00000   0.00296   0.00296   2.07170
   R35        2.08909   0.00097   0.00000   0.00291   0.00291   2.09200
    A1        2.29002  -0.00181   0.00000  -0.00680  -0.00680   2.28322
    A2        2.01839   0.00336   0.00000   0.01357   0.01357   2.03196
    A3        1.97396  -0.00154   0.00000  -0.00658  -0.00658   1.96738
    A4        1.88427   0.00075   0.00000   0.00132   0.00093   1.88520
    A5        1.84341  -0.00188   0.00000  -0.01628  -0.01695   1.82645
    A6        1.90494  -0.00596   0.00000  -0.04086  -0.04148   1.86346
    A7        2.10559   0.00623   0.00000   0.05986   0.05992   2.16551
    A8        1.85082  -0.00040   0.00000  -0.00541  -0.00571   1.84510
    A9        1.86923   0.00001   0.00000  -0.00816  -0.00896   1.86026
   A10        1.95915  -0.00018   0.00000   0.00572   0.00554   1.96469
   A11        1.96172   0.00085   0.00000   0.01197   0.01178   1.97350
   A12        1.94236   0.00095   0.00000   0.01706   0.01677   1.95913
   A13        1.83016   0.00046   0.00000   0.00341   0.00337   1.83353
   A14        2.19968  -0.00190   0.00000  -0.01197  -0.01200   2.18768
   A15        2.25333   0.00145   0.00000   0.00848   0.00844   2.26177
   A16        1.83740  -0.00115   0.00000  -0.00315  -0.00315   1.83425
   A17        2.50926   0.00173   0.00000   0.00594   0.00595   2.51521
   A18        1.93638  -0.00058   0.00000  -0.00281  -0.00282   1.93355
   A19        1.97220  -0.00066   0.00000  -0.00291  -0.00291   1.96928
   A20        2.01073   0.00054   0.00000   0.00235   0.00232   2.01306
   A21        2.29986   0.00012   0.00000   0.00038   0.00038   2.30024
   A22        1.81101   0.00289   0.00000   0.00917   0.00917   1.82018
   A23        1.95234  -0.00014   0.00000  -0.00052  -0.00053   1.95181
   A24        2.19004   0.00004   0.00000   0.00006   0.00006   2.19011
   A25        2.14080   0.00010   0.00000   0.00046   0.00046   2.14126
   A26        1.97967   0.00086   0.00000   0.00346   0.00339   1.98306
   A27        2.22619   0.00140   0.00000   0.00564   0.00557   2.23176
   A28        2.07718  -0.00225   0.00000  -0.00877  -0.00883   2.06835
   A29        1.54560  -0.00067   0.00000  -0.00264  -0.00266   1.54294
   A30        1.97443  -0.00354   0.00000  -0.01656  -0.01663   1.95780
   A31        1.86860   0.00156   0.00000   0.01369   0.01374   1.88235
   A32        1.92340   0.00079   0.00000  -0.00294  -0.00312   1.92028
   A33        1.94123   0.00155   0.00000   0.01341   0.01348   1.95471
   A34        1.88017   0.00028   0.00000  -0.00740  -0.00754   1.87262
   A35        1.87387  -0.00050   0.00000   0.00060   0.00062   1.87449
   A36        1.92963   0.00073   0.00000   0.01962   0.01881   1.94844
   A37        1.90288   0.00144   0.00000   0.02502   0.02429   1.92717
   A38        1.89321  -0.00027   0.00000   0.01431   0.01392   1.90714
   A39        1.92695  -0.00119   0.00000  -0.00917  -0.00896   1.91799
   A40        1.91375  -0.00039   0.00000  -0.00678  -0.00688   1.90687
   A41        1.92629   0.00046   0.00000   0.00339   0.00338   1.92967
   A42        1.90277   0.00111   0.00000   0.01033   0.01024   1.91301
   A43        1.90912   0.00016   0.00000  -0.00004  -0.00011   1.90901
   A44        1.88431  -0.00011   0.00000   0.00267   0.00268   1.88699
   A45        1.94081   0.00161   0.00000   0.00306   0.00297   1.94378
   A46        1.92375  -0.00129   0.00000  -0.00807  -0.00808   1.91567
   A47        1.92660   0.00008   0.00000   0.00295   0.00300   1.92960
   A48        1.90582   0.00015   0.00000   0.00657   0.00667   1.91249
   A49        1.86371  -0.00094   0.00000  -0.00617  -0.00620   1.85751
   A50        1.90181   0.00040   0.00000   0.00186   0.00186   1.90367
   A51        1.92630  -0.00048   0.00000  -0.00246  -0.00246   1.92384
   A52        1.93662   0.00139   0.00000   0.00201   0.00193   1.93855
   A53        1.90652   0.00031   0.00000   0.00634   0.00643   1.91295
   A54        1.86411  -0.00097   0.00000  -0.00577  -0.00580   1.85831
   A55        1.92594  -0.00136   0.00000  -0.00851  -0.00851   1.91743
   A56        1.92695   0.00026   0.00000   0.00394   0.00399   1.93094
   A57        1.90238   0.00039   0.00000   0.00221   0.00221   1.90459
   A58        1.92861  -0.00084   0.00000  -0.00847  -0.00827   1.92034
   A59        1.90632  -0.00029   0.00000  -0.00505  -0.00516   1.90116
   A60        1.92807   0.00057   0.00000   0.00594   0.00594   1.93401
   A61        1.91105   0.00063   0.00000   0.00459   0.00449   1.91554
   A62        1.90320  -0.00005   0.00000   0.00028   0.00024   1.90345
   A63        1.88603  -0.00001   0.00000   0.00301   0.00304   1.88907
    D1       -2.39511  -0.00295   0.00000  -0.00110  -0.00100  -2.39611
    D2       -0.12074   0.00396   0.00000   0.06268   0.06238  -0.05836
    D3        1.88375   0.00022   0.00000   0.02574   0.02595   1.90969
    D4        0.79327  -0.00303   0.00000  -0.00665  -0.00655   0.78672
    D5        3.06763   0.00388   0.00000   0.05714   0.05683   3.12446
    D6       -1.21107   0.00013   0.00000   0.02019   0.02039  -1.19067
    D7       -3.10416  -0.00042   0.00000  -0.01444  -0.01438  -3.11854
    D8        0.04296  -0.00004   0.00000   0.00020   0.00014   0.04310
    D9       -0.00841  -0.00023   0.00000  -0.00858  -0.00856  -0.01697
   D10        3.13871   0.00014   0.00000   0.00606   0.00595  -3.13852
   D11        3.10739   0.00025   0.00000   0.01239   0.01240   3.11979
   D12        0.00405   0.00021   0.00000   0.00798   0.00797   0.01202
   D13        1.16501   0.00188   0.00000   0.02647   0.02649   1.19150
   D14       -1.04046   0.00005   0.00000  -0.01096  -0.01108  -1.05154
   D15       -0.86081   0.00413   0.00000   0.04781   0.04772  -0.81310
   D16       -3.06628   0.00230   0.00000   0.01037   0.01015  -3.05614
   D17       -3.13042  -0.00323   0.00000  -0.01677  -0.01650   3.13627
   D18        0.94730  -0.00506   0.00000  -0.05420  -0.05407   0.89323
   D19        0.00917   0.00016   0.00000   0.00557   0.00558   0.01476
   D20       -3.11014   0.00021   0.00000   0.00744   0.00747  -3.10267
   D21       -3.13818  -0.00025   0.00000  -0.00978  -0.00987   3.13513
   D22        0.02569  -0.00020   0.00000  -0.00791  -0.00798   0.01771
   D23       -0.00738  -0.00003   0.00000  -0.00089  -0.00091  -0.00829
   D24       -3.12224   0.00010   0.00000   0.00531   0.00529  -3.11695
   D25        3.12011  -0.00003   0.00000  -0.00195  -0.00197   3.11815
   D26        0.00526   0.00011   0.00000   0.00426   0.00423   0.00949
   D27        3.12028   0.00007   0.00000   0.00548   0.00546   3.12574
   D28       -0.02086  -0.00003   0.00000   0.00037   0.00036  -0.02049
   D29        0.00170   0.00012   0.00000   0.00741   0.00741   0.00910
   D30       -3.13944   0.00003   0.00000   0.00230   0.00231  -3.13713
   D31        0.00239  -0.00010   0.00000  -0.00405  -0.00405  -0.00166
   D32        3.11155  -0.00026   0.00000  -0.01155  -0.01155   3.10000
   D33       -0.00795  -0.00022   0.00000  -0.01075  -0.01074  -0.01869
   D34       -3.11654  -0.00005   0.00000  -0.00304  -0.00303  -3.11956
   D35       -0.00766  -0.00030   0.00000  -0.01560  -0.01564  -0.02330
   D36        3.11594   0.00008   0.00000   0.00644   0.00651   3.12245
   D37        3.13349  -0.00021   0.00000  -0.01066  -0.01071   3.12278
   D38       -0.02610   0.00017   0.00000   0.01138   0.01144  -0.01466
   D39        0.00885   0.00029   0.00000   0.01504   0.01504   0.02389
   D40       -3.11643  -0.00009   0.00000  -0.00509  -0.00500  -3.12143
   D41        2.16000   0.00100   0.00000   0.03977   0.03974   2.19974
   D42        0.01535   0.00021   0.00000   0.02379   0.02382   0.03918
   D43       -2.01730  -0.00049   0.00000   0.01690   0.01695  -2.00034
   D44       -1.00047   0.00143   0.00000   0.06302   0.06295  -0.93752
   D45        3.13807   0.00064   0.00000   0.04703   0.04703  -3.09808
   D46        1.10542  -0.00006   0.00000   0.04015   0.04017   1.14558
   D47       -1.10928  -0.00025   0.00000  -0.00412  -0.00379  -1.11306
   D48        3.09410  -0.00127   0.00000  -0.04909  -0.04929   3.04481
   D49        0.99455   0.00040   0.00000   0.01169   0.01195   1.00650
   D50       -1.08526  -0.00062   0.00000  -0.03328  -0.03355  -1.11881
   D51        3.04364   0.00083   0.00000   0.01547   0.01567   3.05931
[...]
 9,0.19819256,0.00001390,-0.00000675,-0.00003628,0.00000998,0.00003328,
 0.00007500,-0.00001740,-0.00002448,-0.00002064,0.00000772,-0.00000644,
 -0.00001788,-0.00000401,0.00000014,-0.00002114,0.00000278,0.00000182,0
 .00000484,-0.00000122,-0.00000242,0.00000453,0.00000626,-0.00000169,0.
 00000542,0.00005078,-0.00001451,0.00000349,-0.00003002,0.00006381,0.00
 010006,-0.00000196,-0.00000366,-0.00003471,0.00004645,-0.00000641,-0.0
 0003872,-0.00003575,-0.00001596,-0.00003344,0.00001196,-0.00002664,-0.
 00000072,0.00000097,0.00000037,-0.00000282,0.00000849,0.00001076,-0.00
 000467,-0.00033738,-0.00010112,0.00023734,0.00019193,0.00193246,-0.000
 72922,-0.01622432,0.00086126,-0.01210065,0.01781802,-0.05793011,0.0164
 3579,-0.00434292,0.00055396,-0.01165851,-0.00281826,0.00228174,-0.0027
 8117,-0.00010201,-0.00043947,-0.00012793,0.00027212,-0.00006269,0.0001
 3391,0.00009975,-0.00002042,0.00003811,0.00066466,0.00049545,0.0001133
 8,-0.00278963,-0.00148910,0.00080624,-0.01550260,0.05346490,-0.0000094
 0,0.00000400,0.00001628,-0.00001876,-0.00002373,-0.00002135,0.00001383
 ,0.00001428,0.00000605,0.00000670,0.00000507,0.00000339,0.00000398,0.0
 0000383,0.00000474,-0.00000270,-0.00000177,-0.00000011,-0.00000097,-0.
 00000039,-0.00000063,0.00000692,0.00000371,-0.00000196,0.00000530,-0.0
 0000398,0.00000493,-0.00000385,-0.00001116,0.00000019,0.00001209,0.000
 00365,0.00001519,0.00002552,-0.00000644,0.00001925,-0.00008860,-0.0000
 1614,0.00000371,-0.00015155,-0.00015255,0.00009740,-0.00000058,-0.0000
 0112,-0.00000050,0.00000159,-0.00000200,0.00000042,0.00021663,-0.00000
 677,0.00004783,0.00017571,-0.00060424,0.00002744,0.00589034,0.00089658
 ,0.00748404,-0.12418898,0.01297329,-0.16039791,-0.01169514,-0.00690828
 ,-0.04247737,-0.00288605,0.00564887,0.00011502,0.00065723,-0.00064374,
 -0.00030176,-0.00004148,0.00007028,-0.00006828,-0.00004369,0.00002080,
 -0.00002570,-0.00066608,-0.00066926,0.00050787,0.00166646,0.00176480,0
 .00045978,0.13250718,-0.01190072,0.19350907,0.00002445,0.00000435,0.00
 002346,0.00000943,0.00000145,-0.00002580,0.00000013,0.00000113,0.00000
 685,-0.00000810,-0.00000037,0.00000571,0.00000067,-0.00000543,0.000009
 49,-0.00000161,0.00000086,-0.00000131,0.00000080,0.00000130,-0.0000017
 0,0.00001026,-0.00000098,-0.00001925,0.00001207,0.00000723,0.00004019,
 -0.00002837,0.00000944,0.00004351,-0.00001719,0.00000111,0.00003354,0.
 00002551,0.00002384,0.00001824,-0.00002535,0.00000083,-0.00021092,-0.0
 0002591,-0.00000954,-0.00000873,0.00000005,-0.00000154,0.00000093,0.00
 000798,-0.00001447,-0.00000289,0.00087877,-0.00152683,-0.00026152,-0.0
 0478461,-0.00304289,0.00199397,0.01017917,-0.02545383,0.00194547,-0.07
 216661,0.06829434,-0.01096810,-0.00546753,0.01629406,0.00253195,-0.000
 49390,-0.00046646,0.00297552,-0.00054379,0.00033623,0.00062887,-0.0000
 2273,0.00003651,-0.00004065,-0.00039625,-0.00046678,0.00016583,0.00081
 687,0.00093453,0.00009531,0.00075733,0.00054293,-0.00066091,-0.0049099
 5,0.02230383,-0.00273425,0.07566918,0.00003682,0.00001858,0.00009435,0
 .00001717,-0.00006526,-0.00016634,0.00002164,0.00004639,0.00004723,-0.
 00003435,0.00001434,0.00003981,0.00000334,-0.00000325,0.00005102,-0.00
 000447,-0.00000148,-0.00001104,0.00000413,0.00000552,-0.00001135,0.000
 00927,-0.00000326,-0.00005099,-0.00003274,0.00001879,0.00006588,-0.000
 00457,-0.00002384,-0.00004760,-0.00003363,0.00001337,0.00010775,0.0000
 1920,0.00001345,0.00001771,-0.00006328,-0.00001554,-0.00017724,0.00001
 437,0.00003601,-0.00005578,-0.00000110,-0.00000555,0.00000404,0.000012
 61,-0.00001952,-0.00000624,0.00076267,-0.00063345,-0.00058723,-0.00418
 615,-0.00079708,0.00158321,0.00695052,-0.01526866,0.00282277,0.0697087
 7,-0.30127077,0.03053486,0.00554342,-0.01013528,-0.00459233,-0.0000930
 5,0.00223559,-0.00222066,0.00013713,0.00051251,0.00043096,-0.00012264,
 -0.00003838,-0.00001139,-0.00023919,-0.00025226,0.00010235,-0.00019514
 ,0.00010755,0.00035486,-0.00007631,0.00041958,-0.00052951,0.00008000,0
 .00002941,0.00104794,-0.07832498,0.32570222,-0.00001460,-0.00001560,-0
 .00006605,-0.00000340,0.00004892,0.00011919,-0.00001881,-0.00003566,-0
 .00003321,0.00002038,-0.00001019,-0.00002838,-0.00000433,0.00000276,-0
 .00003580,0.00000327,0.00000089,0.00000769,-0.00000218,-0.00000433,0.0
 0000791,-0.00000016,0.00000204,0.00003134,0.00003334,-0.00001477,-0.00
 003119,-0.00001288,0.00003962,0.00006431,0.00001698,-0.00000690,-0.000
 07299,0.00001209,-0.00000041,-0.00000510,-0.00003187,-0.00002080,0.000
 05220,-0.00003700,-0.00006407,0.00006111,0.00000143,0.00000270,-0.0000
 0270,-0.00000577,0.00000922,0.00000336,-0.00016332,0.00044435,0.000764
 67,0.00228490,0.00220561,-0.00008826,-0.00534004,0.00542409,-0.0001087
 5,-0.01384813,0.04193590,-0.05373721,0.01422989,-0.03926198,-0.0035609
 4,0.00156845,0.00006801,-0.00557741,0.00062630,-0.00027093,-0.00062652
 ,0.00015754,0.00010272,-0.00003760,0.00017532,0.00015980,-0.00009325,-
 0.00036818,-0.00008120,-0.00006355,0.00019866,-0.00040451,0.00026292,-
 0.00455189,0.02052790,-0.00043374,0.00438673,-0.02891054,0.06273631,0.
 00001070,0.00000214,0.00000800,-0.00002323,0.00000486,-0.00000325,0.00
 000991,0.00000013,0.00000176,0.00001361,-0.00000102,-0.00000062,0.0000
 0663,-0.00000405,0.00000117,-0.00000385,-0.00000008,0.00000163,-0.0000
 0206,-0.00000030,0.00000078,0.00001779,0.00000009,-0.00000992,0.000055
 39,-0.00000901,0.00003484,-0.00004513,0.00001235,0.00011324,0.00000770
 ,0.00000448,0.00002019,0.00007765,0.00000257,-0.00002699,-0.00009346,-
 0.00001770,-0.00000148,-0.00009880,-0.00000773,0.00005257,-0.00000026,
 0.00000011,-0.00000471,0.00001422,0.00000424,-0.00000984,0.00016102,-0
 .00028277,0.00036309,0.00217149,0.00108679,-0.00063854,-0.00037125,0.0
 0034356,0.00014640,0.00033018,-0.00094563,-0.00257917,-0.00663921,0.01
 377370,-0.00543545,-0.18375043,0.01330089,-0.11936671,-0.02072461,-0.0
 0051386,-0.01979325,0.00038745,0.00010204,-0.00005026,-0.00002757,0.00
 003602,-0.00006029,-0.00005995,-0.00001393,0.00007689,0.00022376,-0.00
 011220,-0.00005221,-0.00028096,0.00033916,0.00095761,0.00024749,0.0000
 1986,0.00036653,0.20065669,0.00000598,0.00000086,0.00000712,-0.0000028
 6,-0.00000789,-0.00000852,0.00000306,0.00000481,0.00000250,0.00000006,
 0.00000222,0.00000226,0.00000109,0.00000044,0.00000226,-0.00000080,0.0
 0000002,-0.00000007,-0.00000063,0.00000013,-0.00000023,0.00000240,0.00
 000361,-0.00000295,0.00000155,-0.00000532,0.00001204,0.00000034,-0.000
 01161,0.00003200,-0.00000694,0.00000533,0.00001799,0.00000237,0.000022
 21,0.00001216,0.00000962,-0.00000321,-0.00000199,-0.00001419,0.0000233
 8,0.00002611,-0.00000052,-0.00000147,-0.00000044,0.00000384,-0.0000043
 3,-0.00000554,0.00006315,-0.00007770,0.00012675,0.00158247,0.00039587,
 -0.00006986,0.00001128,-0.00054521,-0.00081906,-0.00035776,0.00205696,
 0.00706308,0.03396954,-0.02401280,0.02213820,0.01320337,-0.04899703,0.
 00959794,-0.01694889,0.00258076,-0.01485763,0.00020543,0.00002786,-0.0
 0003067,-0.00000291,0.00003686,-0.00005078,0.00013628,0.00027501,-0.00
 008415,-0.00012706,-0.00019190,-0.00003378,-0.00101207,0.00045565,-0.0
 0139869,-0.00038649,0.00004735,-0.00025053,-0.02198843,0.06729675,0.00
 000855,0.00000368,0.00004262,-0.00000825,0.00000884,-0.00010108,0.0000
 1305,0.00000835,0.00002935,-0.00000784,-0.00000215,0.00002421,0.000010
 67,-0.00001997,0.00003382,-0.00000657,0.00000128,-0.00000622,0.0000012
 5,0.00000491,-0.00000606,0.00000919,-0.00000116,-0.00002132,0.00000345
 ,0.00001309,0.00002510,-0.00001499,-0.00002443,-0.00000495,0.00000071,
 0.00000270,0.00004401,0.00002685,-0.00002252,0.00000108,-0.00013422,-0
 .00005018,-0.00006684,-0.00003532,0.00002639,-0.00001661,-0.00000019,0
 .00000199,-0.00000164,0.00000850,0.00000637,-0.00000127,0.00025010,0.0
 0015388,0.00011608,0.00017565,0.00024084,0.00172963,0.00018415,0.00023
 531,-0.00008956,0.00246794,-0.00124969,0.00219665,-0.00128636,0.006364
 78,0.00190070,-0.12309367,0.01146834,-0.17029547,0.00680913,-0.0001671
 0,0.00382284,-0.00002401,0.00004787,-0.00018165,-0.00002951,-0.0000269
 6,0.00002731,-0.00004559,0.00002334,-0.00000116,-0.00009720,-0.0001198
 1,-0.00026538,-0.00106633,0.00066412,0.00089460,0.00002759,0.00008976,
 0.00023393,0.13664619,-0.01949450,0.17662672,0.00003206,0.00000622,0.0
 0006338,0.00001396,-0.00000718,-0.00012626,0.00001090,0.00001613,0.000
 03634,-0.00002345,0.00000105,0.00003049,0.00000622,-0.00001801,0.00004
 254,-0.00000511,0.00000105,-0.00000810,0.00000352,0.00000595,-0.000008
 20,0.00001931,-0.00000316,-0.00003360,-0.00002539,0.00004088,0.0000617
 2,-0.00003336,-0.00001077,0.00001141,-0.00001754,0.00001273,0.00007609
 ,0.00007211,0.00000907,0.00010672,-0.00052548,-0.00027110,-0.00003801,
 -0.00002970,0.00000882,-0.00003038,0.00000028,0.00000045,-0.00000002,0
 .00001309,-0.00001305,-0.00000479,-0.00009070,0.00076722,0.00125379,-0
 .00328872,-0.00450124,0.00024412,0.00041256,-0.00039552,-0.00012645,0.
 00016025,0.00132077,-0.00150621,-0.00421084,0.00701331,0.01032114,-0.0
 8478349,0.01687632,0.08190742,-0.00743224,0.00633242,0.02416961,-0.000
 06937,0.00002999,-0.00001837,0.00003032,0.00001860,0.00003402,-0.00004
 795,0.00000893,0.00002584,-0.00002899,0.00007539,-0.00003467,0.0000887
 6,0.00011756,0.00049286,0.00008165,0.00012129,0.00056615,0.01031654,-0
 .00517563,-0.02151408,0.08828551,0.00002526,0.00000628,0.00005024,0.00
 000398,-0.00002662,-0.00008623,0.00001237,0.00002083,0.00002402,-0.000
 01442,0.00000544,0.00002038,0.00000397,-0.00000613,0.00002805,-0.00000
 330,-0.00000022,-0.00000525,0.00000179,0.00000358,-0.00000538,0.000011
 30,0.00000251,-0.00002524,-0.00002423,0.00004354,0.00005687,-0.0000328
 0,-0.00001388,-0.00000101,-0.00001670,0.00001311,0.00006691,0.00002793
 ,0.00002124,0.00009873,-0.00039969,-0.00025488,-0.00006966,0.00002965,
 0.00001641,-0.00003613,-0.00000069,-0.00000153,0.00000123,0.00001097,-
 0.00002786,-0.00000305,-0.00051079,0.00093455,0.00081393,-0.00445995,-
 0.00287179,0.00150185,-0.00000874,-0.00116366,-0.00027342,0.00125229,-
 0.00588570,0.00289688,0.01720122,-0.01866552,-0.03741584,0.01370174,-0
 .05657108,-0.04080438,-0.00393828,0.00746575,0.01818865,-0.00019231,-0
 .00009615,0.00003422,0.00006685,0.00001882,-0.00000819,0.00007213,0.00
 024469,0.00000774,-0.00001596,0.00020392,-0.00000320,-0.00020126,0.000
 05415,-0.00011077,0.00093579,-0.00060813,-0.00162227,-0.00182551,0.001
 87171,0.00173279,-0.02303709,0.07440327,-0.00002759,-0.00001089,-0.000
 08130,-0.00002458,-0.00000116,0.00019558,-0.00001144,-0.00001959,-0.00
 005686,0.00003913,0.00000098,-0.00004919,-0.00000930,0.00003016,-0.000
 06540,0.00000655,-0.00000240,0.00001439,-0.00000588,-0.00000972,0.0000
 1362,-0.00000628,0.00000381,0.00004239,0.00003985,-0.00000684,-0.00003
 302,-0.00001570,0.00002957,0.00006888,0.00002457,-0.00000909,-0.000092
 29,-0.00000592,0.00001156,-0.00003258,0.00010164,0.00005719,0.00006727
 ,-0.00002056,-0.00002989,0.00003235,-0.00000021,-0.00000220,-0.0000013
 7,-0.00001200,-0.00000029,0.00000312,0.00012223,-0.00066655,0.00020286
 ,0.00154912,0.00166222,0.00044330,-0.00042689,0.00031314,0.00013595,-0
 .00054756,0.00022013,0.00196199,-0.00061884,-0.00230104,0.00369667,0.0
 8731669,-0.05083887,-0.28592431,-0.00075193,-0.00156420,-0.00517215,0.
 00021155,0.00008596,-0.00004388,-0.00000574,0.00000246,-0.00002118,-0.
 00001526,-0.00002175,-0.00002750,0.00008317,-0.00002885,0.00001327,-0.
 00000096,0.00016002,0.00037734,0.00024789,0.00003764,0.00000836,0.0075
 2079,-0.00325508,-0.01741933,-0.09529679,0.05564222,0.30141071,-0.0000
 3407,-0.00001173,-0.00003622,-0.00000284,0.00001797,0.00004980,-0.0000
 0940,-0.00001390,-0.00001635,0.00000804,-0.00000420,-0.00001096,-0.000
 00144,0.00000073,-0.00001599,0.00000277,0.00000069,0.00000298,-0.00000
 079,-0.00000072,0.00000421,-0.00001979,0.00001664,0.00002989,-0.000022
 10,0.00002203,-0.00007864,0.00005980,-0.00002640,-0.00006385,0.0000100
 5,0.00000035,-0.00004235,-0.00007106,-0.00002753,-0.00001132,0.0001859
 8,-0.00022581,-0.00002612,0.00004546,0.00001580,-0.00006696,-0.0000001
 0,0.00000416,0.00000155,-0.00000760,-0.00000697,0.00000753,0.00012717,
 0.00238013,-0.00032273,-0.00500924,0.01247488,0.00191902,-0.00102934,0
 .00012240,0.00319306,-0.00099145,0.00019119,0.00140483,-0.00347349,-0.
 00648742,0.00105744,0.01189003,-0.02244157,-0.00013397,-0.07707656,0.0
 7772281,-0.00751364,-0.00012738,-0.00008917,-0.00009975,-0.00027803,-0
 .00060102,0.00054232,0.00016756,0.00097764,0.00016455,0.00024472,-0.00
 051852,-0.00004798,0.00010884,-0.00002636,-0.00018979,0.00007916,-0.00
 001373,-0.00017861,0.00061768,0.00075070,-0.00066944,0.00066383,0.0009
 5347,0.00027815,0.08068995,-0.00000670,-0.00000011,-0.00003840,-0.0000
 0343,-0.00003463,0.00008571,-0.00000203,0.00000637,-0.00002340,0.00001
 155,0.00000869,-0.00002105,-0.00000946,0.00002632,-0.00003019,0.000004
 72,-0.00000333,0.00000428,-0.00000167,-0.00000597,0.00000451,-0.000003
 59,-0.00001215,0.00002657,-0.00002398,-0.00006134,-0.00002628,0.000020
 86,0.00006789,-0.00000570,0.00000409,0.00000533,-0.00001972,-0.0000347
 8,0.00006394,0.00009807,-0.00013647,0.00059851,-0.00014841,0.00001595,
 -0.00012730,0.00004218,-0.00000012,-0.00000428,0.00000084,-0.00000932,
 -0.00000610,-0.00000125,-0.00139400,0.00073419,0.00128097,0.00336427,-
 0.01079990,-0.00280355,0.00043481,0.00195232,-0.00215407,-0.00006947,0
 .00080556,0.00107881,-0.00409934,-0.00319437,0.00060484,0.00957191,-0.
 01591851,0.00097053,0.07894777,-0.28633407,0.01842204,0.00011967,-0.00
 017279,0.00000743,0.00043761,0.00062998,-0.00004529,0.00007225,-0.0006
 0862,0.00018930,0.00005085,0.00007731,0.00008332,-0.00001451,-0.000062
 45,-0.00016693,-0.00002620,-0.00005573,-0.00004048,-0.00019165,0.00057
 113,-0.00055029,-0.00015749,0.00030754,0.00038855,-0.08705263,0.312256
 11,0.00000428,0.00000813,0.00001995,0.00001147,-0.00001320,-0.00003700
 ,0.00000112,0.00000866,0.00001070,-0.00001247,0.00000229,0.00001017,-0
 .00000074,-0.00000103,0.00001218,0.00000005,-0.00000039,-0.00000301,0.
 00000178,0.00000173,-0.00000353,0.00000036,-0.00000470,-0.00000032,-0.
 00005715,-0.00002338,0.00002465,0.00002052,0.00003785,-0.00004034,-0.0
 0001128,0.00000802,0.00001548,-0.00001094,0.00001094,0.00010155,-0.000
 29973,-0.00008899,0.00011616,-0.00000485,-0.00007426,0.00003751,-0.000
 00032,-0.00000270,0.00000221,-0.00000566,0.00001519,-0.00000645,-0.000
 31729,-0.00235673,0.00071431,0.01172795,-0.03424910,-0.00300260,0.0027
 6050,0.00006018,-0.00530832,0.00082538,-0.00003292,-0.00112229,0.00204
 018,0.00298679,0.00117468,-0.00553315,0.00529426,-0.00085801,-0.009087
 69,0.02668063,-0.05041773,0.00007943,0.00042999,-0.00010532,0.00019494
 ,0.00070556,0.00004773,0.00056291,-0.00168306,0.00010116,0.00034215,-0
 .00036700,0.00013658,-0.00012348,0.00006624,0.00015846,-0.00010856,0.0
 0002828,0.00012557,0.00013209,-0.00041555,0.00023940,-0.00027838,-0.00
 012417,-0.00021607,0.00308116,-0.01797744,0.05885684,-0.00003279,-0.00
 000126,-0.00002529,-0.00004311,0.00000671,0.00009005,0.00000606,-0.000
 00868,-0.00002603,0.00003388,-0.00000055,-0.00002370,0.00000308,0.0000
 1136,-0.00003206,-0.00000032,-0.00000125,0.00000846,-0.00000541,-0.000
 00523,0.00000737,0.00000280,-0.00000128,0.00002463,0.00005479,0.000023
 40,-0.00001497,0.00002453,-0.00004463,0.00017995,-0.00000291,-0.000021
 47,-0.00005764,0.00000600,-0.00004805,-0.00009836,0.00003560,0.0001028
 2,0.00008763,-0.00023922,0.00002215,-0.00005970,-0.00000104,-0.0000013
 8,-0.00000529,-0.00001558,0.00001516,0.00000024,0.00397649,0.00048968,
 0.00157960,0.00995438,-0.00029586,0.01032006,0.00196424,-0.00192106,0.
 00157046,-0.00013192,0.00009132,-0.00011145,0.00374126,0.00052327,0.00
 114737,-0.02209490,0.00436149,-0.01977464,-0.17138713,0.01257550,-0.11
 441601,0.00022671,0.00079702,-0.00182690,-0.00024033,0.00000793,-0.000
 16825,-0.00004321,-0.00015119,-0.00008411,-0.00025002,-0.00117690,-0.0
 0106721,-0.00019153,0.00026753,0.00008194,0.00009095,-0.00003686,-0.00
 006680,-0.00320509,-0.00392735,0.00139060,0.00040144,0.00037100,0.0002
 6212,-0.00674639,0.00018054,-0.00593459,0.18410870,-0.00000265,-0.0000
 0247,-0.00003247,0.00000254,0.00000606,0.00004979,-0.00000833,-0.00000
 966,-0.00001440,0.00000571,-0.00000194,-0.00001104,-0.00000400,0.00000
 602,-0.00001465,0.00000250,-0.00000063,0.00000243,-0.00000034,-0.00000
 195,0.00000249,0.00000180,-0.00001121,0.00002104,-0.00000700,-0.000002
 37,-0.00005905,0.00003776,0.00006828,-0.00001061,0.00000505,0.00000854
 ,-0.00001934,-0.00000132,0.00001237,0.00003039,0.00006882,-0.00005560,
 -0.00002466,-0.00005012,-0.00009539,-0.00000155,0.00000106,0.00000180,
 -0.00000160,-0.00000705,0.00000047,0.00000666,0.00009315,0.00009754,0.
 00052453,-0.00534955,0.00060671,-0.01004907,-0.00262091,0.00203811,-0.
 00239119,-0.00002522,-0.00036308,-0.00033370,0.00102682,0.00231179,0.0
 0015256,-0.01603334,0.00059311,-0.01354751,0.01411404,-0.05577659,0.01
 268578,0.00019378,0.00009807,0.00015836,0.00047027,-0.00018278,-0.0000
 5765,0.00021533,0.00003519,0.00018266,0.00031395,0.00049302,0.00069496
 ,0.00018103,-0.00002484,0.00017159,-0.00000297,-0.00002325,0.00004064,
 -0.00311912,-0.00182046,0.00063013,0.00080610,0.00055581,0.00012281,0.
 02189611,-0.00070951,0.02106987,-0.01220390,0.05214886,-0.00001514,-0.
 00003090,-0.00019646,-0.00005717,0.00001716,0.00041292,-0.00002522,-0.
 00004921,-0.00011572,0.00008930,-0.00000085,-0.00010199,-0.00001571,0.
 00005396,-0.00013214,0.00001204,-0.00000402,0.00002767,-0.00001273,-0.
 00001972,0.00002683,0.00001792,-0.00001502,0.00008616,0.00016379,-0.00
 007720,-0.00013783,0.00000010,0.00025996,0.00028857,0.00005787,0.00001
 433,-0.00014132,0.00007155,0.00006894,-0.00006528,0.00080957,0.0000745
 3,0.00004166,-0.00016635,-0.00035001,0.00064291,0.00000119,-0.00000402
 ,-0.00001425,0.00001817,0.00000517,-0.00002293,-0.00414924,-0.00286475
 ,0.00123405,-0.01257697,-0.00411311,-0.04185175,-0.00200635,0.00469391
 ,0.00032616,0.00053284,-0.00045028,-0.00058523,-0.00009719,-0.00066344
 ,0.00012600,0.00601510,0.00024126,0.00649392,-0.11833841,0.01199475,-0
 .16014493,0.00186532,0.00038456,0.00024130,0.00008070,0.00025695,-0.00
 018790,0.00058077,-0.00008954,0.00030546,0.00115187,-0.00133952,0.0009
 5044,0.00012855,0.00013286,-0.00002370,-0.00013646,-0.00008218,0.00012
 379,0.00158893,0.00173960,0.00049052,-0.00041932,-0.00057051,0.0005484
 1,-0.00221182,0.00076450,-0.00078428,0.12704253,-0.00997818,0.19213895
 \\-0.00000277,0.00002644,-0.00001282,-0.00000076,0.00001036,0.00002117
 ,0.00000800,-0.00000952,-0.00000857,0.00000330,-0.00000785,-0.00000636
 ,-0.00000189,0.00000632,-0.00000049,-0.00000287,-0.00000801,-0.0000009
 7,0.00000091,-0.00000211,0.00000516,0.00000095,-0.00002194,0.00000545,
 0.00000208,0.00000857,0.00000443,-0.00000400,0.00000186,0.00000094,0.0
 0000468,-0.00000503,0.00000044,-0.00000233,-0.00000650,-0.00000353,0.0
 0000529,0.00000887,0.00000704,-0.00000688,-0.00000040,-0.00000801,0.00
 000042,0.00000658,-0.00000384,-0.00000122,0.00000452,0.00000163,-0.000
 02016,-0.00001459,-0.00000058,0.00001086,-0.00000690,0.00002041,0.0000
 0183,0.00002568,-0.00000701,-0.00000480,-0.00000532,0.00001003,0.00000
 231,0.00000363,-0.00000852,-0.00000842,-0.00001273,0.00000351,0.000010
 17,0.00000353,-0.00001761,0.00000621,0.00000551,-0.00000179,-0.0000008
 3,-0.00000037,-0.00000105,0.00000200,-0.00000187,0.00000124,-0.0000005
 2,-0.00000112,-0.00000067,0.00000153,-0.00000221,-0.00000248,0.0000009
 9,0.00000003,0.00000079,-0.00000051,-0.00000082,-0.00000013,0.00000004
 ,-0.00000362,-0.00000081,-0.00000057,-0.00000223,0.00000082,-0.0000030
 7,0.00000124,0.00000219\\\@
 The archive entry for this job was punched.


 MICHAEL FARADAY, ASKED BY A POLITICIAN WHAT GOOD
 HIS ELECTRICAL DISCOVERIES WERE, REPLIED 
 "AT PRESENT I DO NOT KNOW, BUT ONE DAY YOU WILL BE
 ABLE TO TAX THEM."
 Job cpu time:       0 days  3 hours 42 minutes 20.2 seconds.
 Elapsed time:       0 days  0 hours 14 minutes  0.3 seconds.
 File lengths (MBytes):  RWF=    595 Int=      0 D2E=      0 Chk=     14 Scr=      1
 Normal termination of Gaussian 16 at Fri May 27 10:24:53 2022.
