 Entering Gaussian System, Link 0=g16
 AtFile(1): /home/561/yj5695/Basis/6-31pGd.gbs
 Initial command:
 /apps/gaussian/g16c01/g16/l1.exe "/jobfs/40919096.gadi-pbs/Gau-503689.inp" -scrdir="/jobfs/40919096.gadi-pbs/"
 Entering Link 1 = /apps/gaussian/g16c01/g16/l1.exe PID=    503690.
  
 Copyright (c) 1988-2019, Gaussian, Inc.  All Rights Reserved.
  
 This is part of the Gaussian(R) 16 program.  It is based on
 the Gaussian(R) 09 system (copyright 2009, Gaussian, Inc.),
 the Gaussian(R) 03 system (copyright 2003, Gaussian, Inc.),
 the Gaussian(R) 98 system (copyright 1998, Gaussian, Inc.),
 the Gaussian(R) 94 system (copyright 1995, Gaussian, Inc.),
 the Gaussian 92(TM) system (copyright 1992, Gaussian, Inc.),
 the Gaussian 90(TM) system (copyright 1990, Gaussian, Inc.),
 the Gaussian 88(TM) system (copyright 1988, Gaussian, Inc.),
 the Gaussian 86(TM) system (copyright 1986, Carnegie Mellon
 University), and the Gaussian 82(TM) system (copyright 1983,
 Carnegie Mellon University). Gaussian is a federally registered
 trademark of Gaussian, Inc.
  
 This software contains proprietary and confidential information,
 including trade secrets, belonging to Gaussian, Inc.
  
 This software is provided under written license and may be
 used, copied, transmitted, or stored only in accord with that
 written license.
  
 The following legend is applicable only to US Government
 contracts under FAR:
  
                    RESTRICTED RIGHTS LEGEND
  
 Use, reproduction and disclosure by the US Government is
 subject to restrictions as set forth in subparagraphs (a)
 and (c) of the Commercial Computer Software - Restricted
 Rights clause in FAR 52.227-19.
  
 Gaussian, Inc.
 340 Quinnipiac St., Bldg. 40, Wallingford CT 06492
  
  
 ---------------------------------------------------------------
 Warning -- This program may not be used in any manner that
 competes with the business of Gaussian, Inc. or will provide
 assistance to any competitor of Gaussian, Inc.  The licensee
 of this program is prohibited from giving any competitor of
 Gaussian, Inc. access to this program.  By using this program,
 the user acknowledges that Gaussian, Inc. is engaged in the
 business of creating and licensing software in the field of
 computational chemistry and represents and warrants to the
 licensee that it is not a competitor of Gaussian, Inc. and that
 it will not use this program in any manner prohibited above.
 ---------------------------------------------------------------
  

 Cite this work as:
 Gaussian 16, Revision C.01,
 M. J. Frisch, G. W. Trucks, H. B. Schlegel, G. E. Scuseria, 
 M. A. Robb, J. R. Cheeseman, G. Scalmani, V. Barone, 
 G. A. Petersson, H. Nakatsuji, X. Li, M. Caricato, A. V. Marenich, 
 J. Bloino, B. G. Janesko, R. Gomperts, B. Mennucci, H. P. Hratchian, 
 J. V. Ortiz, A. F. Izmaylov, J. L. Sonnenberg, D. Williams-Young, 
 F. Ding, F. Lipparini, F. Egidi, J. Goings, B. Peng, A. Petrone, 
 T. Henderson, D. Ranasinghe, V. G. Zakrzewski, J. Gao, N. Rega, 
 G. Zheng, W. Liang, M. Hada, M. Ehara, K. Toyota, R. Fukuda, 
 J. Hasegawa, M. Ishida, T. Nakajima, Y. Honda, O. Kitao, H. Nakai, 
 T. Vreven, K. Throssell, J. A. Montgomery, Jr., J. E. Peralta, 
 F. Ogliaro, M. J. Bearpark, J. J. Heyd, E. N. Brothers, K. N. Kudin, 
 V. N. Staroverov, T. A. Keith, R. Kobayashi, J. Normand, 
 K. Raghavachari, A. P. Rendell, J. C. Burant, S. S. Iyengar, 
 J. Tomasi, M. Cossi, J. M. Millam, M. Klene, C. Adamo, R. Cammi, 
 J. W. Ochterski, R. L. Martin, K. Morokuma, O. Farkas, 
 J. B. Foresman, and D. J. Fox, Gaussian, Inc., Wallingford CT, 2019.
 
 ******************************************
 Gaussian 16:  ES64L-G16RevC.01  3-Jul-2019
                22-May-2022 
 ******************************************
 %nproc=16
 Will use up to   16 processors via shared memory.
 %mem=20gb
 --------------------------------------------------
 #M062X/gen 6D INT(grid=ultrafine) OPT Freq=noraman
 --------------------------------------------------
 1/18=20,19=15,26=4,38=1/1,3;
 2/9=110,12=2,17=6,18=5,40=1/2;
 3/5=7,8=2,11=2,25=1,30=1,71=1,74=-55,75=-5/1,2,3;
 4//1;
 5/5=2,38=5/2;
 6/7=2,8=2,9=2,10=2,28=1/1;
 7//1,2,3,16;
 1/18=20,19=15,26=4/3(2);
 2/9=110/2;
 99//99;
 2/9=110/2;
 3/5=7,6=1,8=2,11=2,25=1,30=1,71=1,74=-55,75=-5,82=7/1,2,3;
 4/5=5,16=3,69=1/1;
 5/5=2,38=5/2;
 7//1,2,3,16;
 1/18=20,19=15,26=4/3(-5);
 2/9=110/2;
 6/7=2,8=2,9=2,10=2,19=2,28=1/1;
 99/9=1/99;
 ---------------
 HA.14.a2d2.freq
 ---------------
 Symbolic Z-matrix:
 Charge =  0 Multiplicity = 1
 C                    -1.17285   0.71082  -0.82297 
 C                    -2.36217   0.47028  -1.52605 
 C                    -3.64743   0.06415  -0.87602 
 C                    -2.36726   0.61889  -2.91145 
 H                    -3.28326   0.41964  -3.45953 
 C                    -1.21617   1.03509  -3.57993 
 C                    -0.04737   1.28883  -2.86853 
 H                     0.85183   1.60743  -3.38567 
 C                    -0.01807   1.11468  -1.48458 
 H                     0.89954   1.27412  -0.92823 
 S                    -1.05133   0.40885   0.93853 
 O                    -1.89874  -0.74427   1.2429 
 O                     0.37163   0.35697   1.27111 
 N                    -1.66175   1.69213   1.77082 
 H                    -2.63845   1.86481   1.52375 
 H                    -1.09378   2.5307    1.63442 
 O                    -4.33189  -0.86155  -1.26115 
 O                    -3.97873   0.86471   0.13344 
 C                    -5.14416   0.48734   0.89092 
 H                    -1.23664   1.15726  -4.65813 
 H                    -5.21892   1.22272   1.68975 
 H                    -5.00472  -0.51582   1.29879 
 H                    -6.02754   0.52118   0.25137 
 

 GradGradGradGradGradGradGradGradGradGradGradGradGradGradGradGradGradGrad
 Berny optimization.
 Initialization pass.
                           ----------------------------
                           !    Initial Parameters    !
                           ! (Angstroms and Degrees)  !
 --------------------------                            --------------------------
 ! Name  Definition              Value          Derivative Info.                !
 --------------------------------------------------------------------------------
 ! R1    R(1,2)                  1.4024         estimate D2E/DX2                !
 ! R2    R(1,9)                  1.3908         estimate D2E/DX2                !
 ! R3    R(1,11)                 1.7913         estimate D2E/DX2                !
 ! R4    R(2,3)                  1.4965         estimate D2E/DX2                !
 ! R5    R(2,4)                  1.3934         estimate D2E/DX2                !
 ! R6    R(3,17)                 1.214          estimate D2E/DX2                !
 ! R7    R(3,18)                 1.3303         estimate D2E/DX2                !
 ! R8    R(4,5)                  1.0859         estimate D2E/DX2                !
 ! R9    R(4,6)                  1.3947         estimate D2E/DX2                !
 ! R10   R(6,7)                  1.3916         estimate D2E/DX2                !
 ! R11   R(6,20)                 1.0853         estimate D2E/DX2                !
 ! R12   R(7,8)                  1.0851         estimate D2E/DX2                !
 ! R13   R(7,9)                  1.3952         estimate D2E/DX2                !
 ! R14   R(9,10)                 1.0849         estimate D2E/DX2                !
 ! R15   R(11,12)                1.463          estimate D2E/DX2                !
 ! R16   R(11,13)                1.4622         estimate D2E/DX2                !
 ! R17   R(11,14)                1.6469         estimate D2E/DX2                !
 ! R18   R(14,15)                1.0222         estimate D2E/DX2                !
 ! R19   R(14,16)                1.022          estimate D2E/DX2                !
 ! R20   R(18,19)                1.4403         estimate D2E/DX2                !
 ! R21   R(19,21)                1.0883         estimate D2E/DX2                !
 ! R22   R(19,22)                1.0919         estimate D2E/DX2                !
 ! R23   R(19,23)                1.0911         estimate D2E/DX2                !
 ! A1    A(2,1,9)              121.0282         estimate D2E/DX2                !
 ! A2    A(2,1,11)             121.4407         estimate D2E/DX2                !
 ! A3    A(9,1,11)             117.4139         estimate D2E/DX2                !
 ! A4    A(1,2,3)              123.8594         estimate D2E/DX2                !
 ! A5    A(1,2,4)              118.9006         estimate D2E/DX2                !
 ! A6    A(3,2,4)              117.2394         estimate D2E/DX2                !
 ! A7    A(2,3,17)             123.5996         estimate D2E/DX2                !
 ! A8    A(2,3,18)             112.3457         estimate D2E/DX2                !
 ! A9    A(17,3,18)            124.0014         estimate D2E/DX2                !
 ! A10   A(2,4,5)              119.036          estimate D2E/DX2                !
 ! A11   A(2,4,6)              120.3571         estimate D2E/DX2                !
 ! A12   A(5,4,6)              120.6013         estimate D2E/DX2                !
 ! A13   A(4,6,7)              120.1715         estimate D2E/DX2                !
 ! A14   A(4,6,20)             119.6175         estimate D2E/DX2                !
 ! A15   A(7,6,20)             120.2108         estimate D2E/DX2                !
 ! A16   A(6,7,8)              120.3908         estimate D2E/DX2                !
 ! A17   A(6,7,9)              120.1309         estimate D2E/DX2                !
 ! A18   A(8,7,9)              119.4707         estimate D2E/DX2                !
 ! A19   A(1,9,7)              119.3858         estimate D2E/DX2                !
 ! A20   A(1,9,10)             120.0662         estimate D2E/DX2                !
 ! A21   A(7,9,10)             120.5386         estimate D2E/DX2                !
 ! A22   A(1,11,12)            107.3467         estimate D2E/DX2                !
 ! A23   A(1,11,13)            107.1966         estimate D2E/DX2                !
 ! A24   A(1,11,14)            109.9052         estimate D2E/DX2                !
 ! A25   A(12,11,13)           119.2342         estimate D2E/DX2                !
 ! A26   A(12,11,14)           107.1184         estimate D2E/DX2                !
 ! A27   A(13,11,14)           105.8667         estimate D2E/DX2                !
 ! A28   A(11,14,15)           111.3247         estimate D2E/DX2                !
 ! A29   A(11,14,16)           111.4662         estimate D2E/DX2                !
 ! A30   A(15,14,16)           111.1103         estimate D2E/DX2                !
 ! A31   A(3,18,19)            116.291          estimate D2E/DX2                !
 ! A32   A(18,19,21)           105.3409         estimate D2E/DX2                !
 ! A33   A(18,19,22)           109.5027         estimate D2E/DX2                !
 ! A34   A(18,19,23)           109.7988         estimate D2E/DX2                !
 ! A35   A(21,19,22)           110.8175         estimate D2E/DX2                !
 ! A36   A(21,19,23)           110.7112         estimate D2E/DX2                !
 ! A37   A(22,19,23)           110.539          estimate D2E/DX2                !
 ! D1    D(9,1,2,3)           -178.5702         estimate D2E/DX2                !
 ! D2    D(9,1,2,4)              1.1455         estimate D2E/DX2                !
 ! D3    D(11,1,2,3)             5.4673         estimate D2E/DX2                !
 ! D4    D(11,1,2,4)          -174.817          estimate D2E/DX2                !
 ! D5    D(2,1,9,7)              0.3128         estimate D2E/DX2                !
 ! D6    D(2,1,9,10)          -178.5764         estimate D2E/DX2                !
 ! D7    D(11,1,9,7)           176.4325         estimate D2E/DX2                !
 ! D8    D(11,1,9,10)           -2.4567         estimate D2E/DX2                !
 ! D9    D(2,1,11,12)           33.6862         estimate D2E/DX2                !
 ! D10   D(2,1,11,13)          162.9038         estimate D2E/DX2                !
 ! D11   D(2,1,11,14)          -82.486          estimate D2E/DX2                !
 ! D12   D(9,1,11,12)         -142.4165         estimate D2E/DX2                !
 ! D13   D(9,1,11,13)          -13.1989         estimate D2E/DX2                !
 ! D14   D(9,1,11,14)          101.4113         estimate D2E/DX2                !
 ! D15   D(1,2,3,17)          -131.6517         estimate D2E/DX2                !
 ! D16   D(1,2,3,18)            50.9109         estimate D2E/DX2                !
 ! D17   D(4,2,3,17)            48.6283         estimate D2E/DX2                !
 ! D18   D(4,2,3,18)          -128.8091         estimate D2E/DX2                !
 ! D19   D(1,2,4,5)            179.1471         estimate D2E/DX2                !
 ! D20   D(1,2,4,6)             -1.7102         estimate D2E/DX2                !
 ! D21   D(3,2,4,5)             -1.1184         estimate D2E/DX2                !
 ! D22   D(3,2,4,6)            178.0243         estimate D2E/DX2                !
 ! D23   D(2,3,18,19)         -175.0447         estimate D2E/DX2                !
 ! D24   D(17,3,18,19)           7.53           estimate D2E/DX2                !
 ! D25   D(2,4,6,7)              0.8269         estimate D2E/DX2                !
 ! D26   D(2,4,6,20)          -179.3375         estimate D2E/DX2                !
 ! D27   D(5,4,6,7)            179.9561         estimate D2E/DX2                !
 ! D28   D(5,4,6,20)            -0.2083         estimate D2E/DX2                !
 ! D29   D(4,6,7,8)            179.6552         estimate D2E/DX2                !
 ! D30   D(4,6,7,9)              0.6596         estimate D2E/DX2                !
 ! D31   D(20,6,7,8)            -0.1794         estimate D2E/DX2                !
 ! D32   D(20,6,7,9)          -179.175          estimate D2E/DX2                !
 ! D33   D(6,7,9,1)             -1.2197         estimate D2E/DX2                !
 ! D34   D(6,7,9,10)           177.6641         estimate D2E/DX2                !
 ! D35   D(8,7,9,1)            179.7755         estimate D2E/DX2                !
 ! D36   D(8,7,9,10)            -1.3407         estimate D2E/DX2                !
 ! D37   D(1,11,14,15)          58.7183         estimate D2E/DX2                !
 ! D38   D(1,11,14,16)         -65.9596         estimate D2E/DX2                !
 ! D39   D(12,11,14,15)        -57.5976         estimate D2E/DX2                !
 ! D40   D(12,11,14,16)        177.7245         estimate D2E/DX2                !
 ! D41   D(13,11,14,15)        174.1738         estimate D2E/DX2                !
 ! D42   D(13,11,14,16)         49.4959         estimate D2E/DX2                !
 ! D43   D(3,18,19,21)         177.1138         estimate D2E/DX2                !
 ! D44   D(3,18,19,22)          57.8969         estimate D2E/DX2                !
 ! D45   D(3,18,19,23)         -63.6425         estimate D2E/DX2                !
 --------------------------------------------------------------------------------
 Trust Radius=3.00D-01 FncErr=1.00D-07 GrdErr=1.00D-06 EigMax=2.50D+02 EigMin=1.00D-04
 Number of steps in this run=    115 maximum allowed number of steps=    138.
 GradGradGradGradGradGradGradGradGradGradGradGradGradGradGradGradGradGrad

                          Input orientation:                          
 ---------------------------------------------------------------------
 Center     Atomic      Atomic             Coordinates (Angstroms)
 Number     Number       Type             X           Y           Z
 ---------------------------------------------------------------------
      1          6           0       -1.172846    0.710825   -0.822966
      2          6           0       -2.362171    0.470284   -1.526050
      3          6           0       -3.647429    0.064150   -0.876017
      4          6           0       -2.367263    0.618892   -2.911451
      5          1           0       -3.283263    0.419639   -3.459530
      6          6           0       -1.216172    1.035088   -3.579933
      7          6           0       -0.047371    1.288825   -2.868532
      8          1           0        0.851832    1.607426   -3.385668
      9          6           0       -0.018069    1.114680   -1.484582
     10          1           0        0.899539    1.274121   -0.928234
     11         16           0       -1.051334    0.408849    0.938530
     12          8           0       -1.898741   -0.744272    1.242895
     13          8           0        0.371629    0.356969    1.271107
     14          7           0       -1.661745    1.692134    1.770821
     15          1           0       -2.638445    1.864815    1.523750
     16          1           0       -1.093777    2.530705    1.634416
     17          8           0       -4.331891   -0.861552   -1.261155
     18          8           0       -3.978735    0.864713    0.133444
     19          6           0       -5.144164    0.487343    0.890924
     20          1           0       -1.236641    1.157260   -4.658134
     21          1           0       -5.218916    1.222717    1.689747
     22          1           0       -5.004724   -0.515822    1.298787
     23          1           0       -6.027544    0.521182    0.251372
 ---------------------------------------------------------------------
                    Distance matrix (angstroms):
                    1          2          3          4          5
     1  C    0.000000
     2  C    1.402384   0.000000
     3  C    2.558235   1.496455   0.000000
     4  C    2.407666   1.393358   2.467703   0.000000
     5  H    3.389707   2.142269   2.633159   1.085885   0.000000
     6  C    2.776309   2.418833   3.763629   1.394668   2.160125
     7  C    2.405228   2.798315   4.293060   2.415067   3.402316
     8  H    3.386836   3.883437   5.378048   3.400684   4.302941
     9  C    1.390807   2.431415   3.827038   2.792932   3.878787
    10  H    2.150155   3.412080   4.705495   3.877431   4.963207
    11  S    1.791319   2.792173   3.186081   4.074082   4.931993
    12  O    2.629070   3.058917   2.863781   4.397308   5.038292
    13  O    2.625978   3.912875   4.566039   5.006388   5.978385
    14  N    2.815976   3.585091   3.687686   4.855232   5.621844
    15  H    2.997790   3.364866   3.165331   4.614853   5.228517
    16  H    3.058912   3.980290   4.348254   5.093300   5.932852
    17  O    3.555832   2.392436   1.213978   2.962255   2.752076
    18  O    2.968402   2.350058   1.330292   3.453789   3.686629
    19  C    4.331135   3.685314   2.354015   4.710259   4.732228
    20  H    3.861592   3.398339   4.616406   2.149197   2.483828
    21  H    4.790245   4.366749   3.224127   5.446794   5.559383
    22  H    4.548603   3.991891   2.628381   5.096066   5.145881
    23  H    4.975768   4.073915   2.672982   4.838457   4.616513
                    6          7          8          9         10
     6  C    0.000000
     7  C    1.391607   0.000000
     8  H    2.154518   1.085128   0.000000
     9  C    2.415011   1.395171   2.147942   0.000000
    10  H    3.400717   2.159076   2.480393   1.084873   0.000000
    11  S    4.564632   4.034355   4.874148   2.727143   2.835385
    12  O    5.185721   4.946199   5.875349   3.798916   4.076528
    13  O    5.149131   4.263863   4.845595   2.884409   2.440688
    14  N    5.409327   4.928738   5.737127   3.692259   3.744304
    15  H    5.362732   5.132014   6.029151   4.059450   4.344937
    16  H    5.425983   4.786833   5.462516   3.590324   3.481306
    17  O    4.322231   5.056174   6.122123   4.750207   5.660370
    18  O    4.631410   4.964610   6.022470   4.285716   5.009225
    19  C    5.976430   6.383822   7.449549   5.684490   6.360401
    20  H    1.085293   2.152753   2.486672   3.399729   4.299892
    21  H    6.620174   6.893995   7.922236   6.094001   6.655221
    22  H    6.368702   6.722994   7.794328   5.939058   6.559256
    23  H    6.171897   6.788634   7.857086   6.283277   7.067027
                   11         12         13         14         15
    11  S    0.000000
    12  O    1.463019   0.000000
    13  O    1.462231   2.523511   0.000000
    14  N    1.646855   2.504185   2.483342   0.000000
    15  H    2.231869   2.726421   3.376088   1.022157   0.000000
    16  H    2.233457   3.395104   2.646608   1.021957   1.685722
    17  O    4.149047   3.493457   5.479073   4.779526   4.249297
    18  O    3.070123   2.854135   4.525234   2.955346   2.174748
    19  C    4.093860   3.489058   5.530416   3.788532   2.928570
    20  H    5.649523   6.235090   6.195393   6.465158   6.378195
    21  H    4.312245   3.884879   5.672651   3.588926   2.664334
    22  H    4.076040   3.114875   5.446806   4.034029   3.364122
    23  H    5.024687   4.430746   6.481993   4.768653   3.861384
                   16         17         18         19         20
    16  H    0.000000
    17  O    5.511544   0.000000
    18  O    3.653960   2.247135   0.000000
    19  C    4.597145   2.666599   1.440281   0.000000
    20  H    6.442278   5.019526   5.528461   6.819793   0.000000
    21  H    4.327895   3.720055   2.021954   1.088338   7.493891
    22  H    4.968851   2.669370   2.077632   1.091850   7.244485
    23  H    5.503913   2.659875   2.080755   1.091115   6.889166
                   21         22         23
    21  H    0.000000
    22  H    1.794783   0.000000
    23  H    1.793029   1.794050   0.000000
 Stoichiometry    C8H9NO4S
 Framework group  C1[X(C8H9NO4S)]
 Deg. of freedom    63
 Full point group                 C1      NOp   1
 Largest Abelian subgroup         C1      NOp   1
 Largest concise Abelian subgroup C1      NOp   1
                         Standard orientation:                         
 ---------------------------------------------------------------------
 Center     Atomic      Atomic             Coordinates (Angstroms)
 Number     Number       Type             X           Y           Z
 ---------------------------------------------------------------------
      1          6           0       -0.902520    0.302697    0.006953
      2          6           0       -0.514383   -1.043453   -0.055581
      3          6           0        0.904267   -1.496130   -0.203546
      4          6           0       -1.493459   -2.031216    0.029165
      5          1           0       -1.196898   -3.073966   -0.033060
      6          6           0       -2.831952   -1.683302    0.209413
      7          6           0       -3.201925   -0.344132    0.288855
      8          1           0       -4.242999   -0.069279    0.423472
      9          6           0       -2.236935    0.657003    0.174729
     10          1           0       -2.522708    1.703305    0.197877
     11         16           0        0.278899    1.627846   -0.231907
     12          8           0        1.265925    1.161926   -1.206137
     13          8           0       -0.484933    2.842343   -0.514181
     14          7           0        1.085691    1.919878    1.173773
     15          1           0        1.575635    1.084815    1.501539
     16          1           0        0.460741    2.286608    1.894427
     17          8           0        1.263592   -2.326201   -1.013243
     18          8           0        1.712265   -0.926945    0.686872
     19          6           0        3.116460   -1.217239    0.551312
     20          1           0       -3.583314   -2.462827    0.284634
     21          1           0        3.608007   -0.628814    1.323722
     22          1           0        3.456770   -0.916034   -0.441463
     23          1           0        3.290434   -2.282840    0.708663
 ---------------------------------------------------------------------
 Rotational constants (GHZ):           0.7718395           0.6913334           0.4170431
 General basis read from cards:  (6D, 7F)
 There are   288 symmetry adapted cartesian basis functions of A   symmetry.
 There are   288 symmetry adapted basis functions of A   symmetry.
   288 basis functions,   508 primitive gaussians,   288 cartesian basis functions
    56 alpha electrons       56 beta electrons
       nuclear repulsion energy      1084.7386895387 Hartrees.
 NAtoms=   23 NActive=   23 NUniq=   23 SFac= 1.00D+00 NAtFMM=   60 NAOKFM=F Big=F
 Integral buffers will be    131072 words long.
 Raffenetti 2 integral format.
 Two-electron integral symmetry is turned on.
 One-electron integrals computed using PRISM.
 NBasis=   288 RedAO= T EigKep=  2.06D-06  NBF=   288
 NBsUse=   287 1.00D-06 EigRej=  8.74D-07 NBFU=   287
 ExpMin= 4.05D-02 ExpMax= 2.19D+04 ExpMxC= 3.30D+03 IAcc=3 IRadAn=         5 AccDes= 0.00D+00
 Harris functional with IExCor= 1009 and IRadAn=       5 diagonalized for initial guess.
 HarFok:  IExCor= 1009 AccDes= 0.00D+00 IRadAn=         5 IDoV= 1 UseB2=F ITyADJ=14
 ICtDFT=  3500011 ScaDFX=  1.000000  1.000000  1.000000  1.000000
 FoFCou: FMM=F IPFlag=           0 FMFlag=      100000 FMFlg1=           0
         NFxFlg=           0 DoJE=T BraDBF=F KetDBF=T FulRan=T
         wScrn=  0.000000 ICntrl=       500 IOpCl=  0 I1Cent=   200000004 NGrid=           0
         NMat0=    1 NMatS0=      1 NMatT0=    0 NMatD0=    1 NMtDS0=    0 NMtDT0=    0
 Petite list used in FoFCou.
 Requested convergence on RMS density matrix=1.00D-08 within 128 cycles.
 Requested convergence on MAX density matrix=1.00D-06.
 Requested convergence on             energy=1.00D-06.
 No special actions if energy rises.
 SCF Done:  E(RM062X) =  -1063.76281094     A.U. after   16 cycles
            NFock= 16  Conv=0.49D-08     -V/T= 2.0066

 **********************************************************************

            Population analysis using the SCF Density.

 **********************************************************************

 Orbital symmetries:
       Occupied  (A) (A) (A) (A) (A) (A) (A) (A) (A) (A) (A) (A)
                 (A) (A) (A) (A) (A) (A) (A) (A) (A) (A) (A) (A)
                 (A) (A) (A) (A) (A) (A) (A) (A) (A) (A) (A) (A)
                 (A) (A) (A) (A) (A) (A) (A) (A) (A) (A) (A) (A)
                 (A) (A) (A) (A) (A) (A) (A) (A)
       Virtual   (A) (A) (A) (A) (A) (A) (A) (A) (A) (A) (A) (A)
                 (A) (A) (A) (A) (A) (A) (A) (A) (A) (A) (A) (A)
                 (A) (A) (A) (A) (A) (A) (A) (A) (A) (A) (A) (A)
                 (A) (A) (A) (A) (A) (A) (A) (A) (A) (A) (A) (A)
                 (A) (A) (A) (A) (A) (A) (A) (A) (A) (A) (A) (A)
                 (A) (A) (A) (A) (A) (A) (A) (A) (A) (A) (A) (A)
                 (A) (A) (A) (A) (A) (A) (A) (A) (A) (A) (A) (A)
                 (A) (A) (A) (A) (A) (A) (A) (A) (A) (A) (A) (A)
                 (A) (A) (A) (A) (A) (A) (A) (A) (A) (A) (A) (A)
                 (A) (A) (A) (A) (A) (A) (A) (A) (A) (A) (A) (A)
                 (A) (A) (A) (A) (A) (A) (A) (A) (A) (A) (A) (A)
                 (A) (A) (A) (A) (A) (A) (A) (A) (A) (A) (A) (A)
                 (A) (A) (A) (A) (A) (A) (A) (A) (A) (A) (A) (A)
                 (A) (A) (A) (A) (A) (A) (A) (A) (A) (A) (A) (A)
                 (A) (A) (A) (A) (A) (A) (A) (A) (A) (A) (A) (A)
                 (A) (A) (A) (A) (A) (A) (A) (A) (A) (A) (A) (A)
                 (A) (A) (A) (A) (A) (A) (A) (A) (A) (A) (A) (A)
                 (A) (A) (A) (A) (A) (A) (A) (A) (A) (A) (A) (A)
                 (A) (A) (A) (A) (A) (A) (A) (A) (A) (A) (A) (A)
                 (A) (A) (A)
 The electronic state is 1-A.
 Alpha  occ. eigenvalues --  -90.17349 -19.71927 -19.65644 -19.64559 -19.64465
 Alpha  occ. eigenvalues --  -14.81050 -10.71033 -10.61964 -10.61700 -10.60971
 Alpha  occ. eigenvalues --  -10.59503 -10.59347 -10.59204 -10.59111  -8.48291
 Alpha  occ. eigenvalues --   -6.40503  -6.40447  -6.40385  -1.26322  -1.24623
 Alpha  occ. eigenvalues --   -1.16084  -1.12870  -1.03789  -1.00707  -0.90710
 Alpha  occ. eigenvalues --   -0.89358  -0.84645  -0.77866  -0.74164  -0.71059
 Alpha  occ. eigenvalues --   -0.68026  -0.65992  -0.62799  -0.61574  -0.59586
 Alpha  occ. eigenvalues --   -0.58278  -0.57850  -0.56706  -0.55478  -0.53867
 Alpha  occ. eigenvalues --   -0.52209  -0.51351  -0.49205  -0.47252  -0.46713
 Alpha  occ. eigenvalues --   -0.45980  -0.44670  -0.42012  -0.40611  -0.40125
 Alpha  occ. eigenvalues --   -0.39724  -0.38418  -0.37766  -0.37568  -0.34213
 Alpha  occ. eigenvalues --   -0.34002
 Alpha virt. eigenvalues --   -0.03938  -0.01856  -0.00022   0.01261   0.01925
 Alpha virt. eigenvalues --    0.02920   0.03888   0.04235   0.04749   0.05372
 Alpha virt. eigenvalues --    0.05480   0.06112   0.06689   0.06894   0.08597
 Alpha virt. eigenvalues --    0.08968   0.09533   0.09748   0.10436   0.10845
 Alpha virt. eigenvalues --    0.11098   0.11607   0.11983   0.12779   0.13073
 Alpha virt. eigenvalues --    0.14330   0.15053   0.15471   0.15868   0.16057
 Alpha virt. eigenvalues --    0.16364   0.16956   0.18099   0.18409   0.19095
 Alpha virt. eigenvalues --    0.19485   0.19917   0.20196   0.21018   0.21036
 Alpha virt. eigenvalues --    0.22229   0.22369   0.23027   0.23218   0.23443
 Alpha virt. eigenvalues --    0.24265   0.25372   0.25473   0.26025   0.26754
 Alpha virt. eigenvalues --    0.27793   0.28044   0.28772   0.29488   0.29634
 Alpha virt. eigenvalues --    0.30240   0.31191   0.31805   0.32054   0.32687
 Alpha virt. eigenvalues --    0.32950   0.34408   0.35010   0.35715   0.35922
 Alpha virt. eigenvalues --    0.36468   0.37082   0.38169   0.38364   0.38892
 Alpha virt. eigenvalues --    0.39829   0.40935   0.41414   0.41931   0.43771
 Alpha virt. eigenvalues --    0.44779   0.45409   0.47309   0.52254   0.54878
 Alpha virt. eigenvalues --    0.56507   0.57389   0.61515   0.65753   0.67246
 Alpha virt. eigenvalues --    0.67685   0.69154   0.70108   0.71632   0.71870
 Alpha virt. eigenvalues --    0.73005   0.74487   0.76038   0.77175   0.77222
 Alpha virt. eigenvalues --    0.78441   0.80264   0.81859   0.82330   0.83397
 Alpha virt. eigenvalues --    0.84736   0.87118   0.88352   0.93101   0.94494
 Alpha virt. eigenvalues --    0.94695   0.95244   0.97342   0.97986   0.98560
 Alpha virt. eigenvalues --    1.00469   1.00943   1.01889   1.04925   1.05660
 Alpha virt. eigenvalues --    1.06791   1.09289   1.10659   1.10960   1.13226
 Alpha virt. eigenvalues --    1.14291   1.14789   1.15831   1.17451   1.17873
 Alpha virt. eigenvalues --    1.19060   1.20135   1.21616   1.26037   1.28141
 Alpha virt. eigenvalues --    1.29103   1.31525   1.33587   1.36407   1.37296
 Alpha virt. eigenvalues --    1.37434   1.37901   1.40703   1.40919   1.41414
 Alpha virt. eigenvalues --    1.42512   1.42803   1.43977   1.45199   1.47546
 Alpha virt. eigenvalues --    1.47840   1.49545   1.50429   1.51454   1.51998
 Alpha virt. eigenvalues --    1.53747   1.56879   1.60237   1.61452   1.65989
 Alpha virt. eigenvalues --    1.69437   1.73053   1.74100   1.76363   1.79703
 Alpha virt. eigenvalues --    1.80647   1.81077   1.82921   1.84050   1.87421
 Alpha virt. eigenvalues --    1.89159   1.90553   1.91051   1.93458   1.94703
 Alpha virt. eigenvalues --    1.97458   1.99000   2.00535   2.03153   2.03856
 Alpha virt. eigenvalues --    2.05900   2.07745   2.09349   2.12021   2.12962
 Alpha virt. eigenvalues --    2.15595   2.16384   2.17141   2.18176   2.19508
 Alpha virt. eigenvalues --    2.20892   2.22587   2.24708   2.27701   2.29662
 Alpha virt. eigenvalues --    2.30377   2.33723   2.35849   2.36297   2.40017
 Alpha virt. eigenvalues --    2.44549   2.46417   2.49234   2.50478   2.59630
 Alpha virt. eigenvalues --    2.61854   2.63285   2.66222   2.68612   2.72693
 Alpha virt. eigenvalues --    2.73204   2.77347   2.81669   2.85595   2.90594
 Alpha virt. eigenvalues --    2.95012   2.97970   2.98509   3.15551   3.16682
 Alpha virt. eigenvalues --    3.22652   3.38312   3.94736   4.08875   4.23516
 Alpha virt. eigenvalues --    4.24381   4.27518   4.29721   4.32768   4.35313
 Alpha virt. eigenvalues --    4.40040   4.42827   4.48268   4.55951   4.60604
 Alpha virt. eigenvalues --    4.75713
          Condensed to atoms (all electrons):
               1          2          3          4          5          6
     1  C   30.301912 -10.563301  -7.093630  -2.587502   0.081056   1.177547
     2  C  -10.563301  29.523350  -3.890398  -5.008689  -0.000480   0.943969
     3  C   -7.093630  -3.890398  17.294768   2.194347   0.014688  -1.780852
     4  C   -2.587502  -5.008689   2.194347  10.833528   0.283421  -1.136334
     5  H    0.081056  -0.000480   0.014688   0.283421   0.454294  -0.055684
     6  C    1.177547   0.943969  -1.780852  -1.136334  -0.055684   7.746981
     7  C   -3.362139  -1.326890   1.280514   0.793531   0.004831  -0.743925
     8  H    0.061018  -0.023046  -0.001556   0.006055  -0.000123   0.021937
     9  C   -2.431556  -2.177090  -0.118236   1.533233  -0.029685  -0.750103
    10  H   -0.069297   0.067836   0.013120  -0.011974   0.000012  -0.009012
    11  S    2.392514  -1.211126  -3.145900  -0.714985   0.001070   0.467968
    12  O   -0.350197   0.124806  -0.258259  -0.051177   0.000092   0.031680
    13  O    0.225898  -0.358753  -0.158658  -0.031349   0.000016   0.035187
    14  N   -0.837699   0.341259   0.621262   0.063709   0.000060  -0.053200
    15  H    0.066750  -0.040422  -0.107164   0.002268  -0.000000   0.000274
    16  H    0.016719   0.039171  -0.019035  -0.013582  -0.000000   0.004913
    17  O   -0.001423  -0.024955   0.497840  -0.007875   0.000567  -0.008602
    18  O    0.008235  -0.466352   0.264895   0.036095   0.001079   0.025118
    19  C    0.030183  -0.356365   0.145882   0.059904   0.000391  -0.014979
    20  H    0.005956   0.019031  -0.002689  -0.031657  -0.003176   0.299449
    21  H   -0.003845   0.021323  -0.003524  -0.005057   0.000000   0.000337
    22  H   -0.010457   0.011914  -0.024508   0.010804   0.000000   0.000819
    23  H    0.014438  -0.030156   0.009110  -0.006111  -0.000001  -0.001919
               7          8          9         10         11         12
     1  C   -3.362139   0.061018  -2.431556  -0.069297   2.392514  -0.350197
     2  C   -1.326890  -0.023046  -2.177090   0.067836  -1.211126   0.124806
     3  C    1.280514  -0.001556  -0.118236   0.013120  -3.145900  -0.258259
     4  C    0.793531   0.006055   1.533233  -0.011974  -0.714985  -0.051177
     5  H    0.004831  -0.000123  -0.029685   0.000012   0.001070   0.000092
     6  C   -0.743925   0.021937  -0.750103  -0.009012   0.467968   0.031680
     7  C   10.136968   0.277464  -0.927133   0.004450  -0.429801   0.068501
     8  H    0.277464   0.473505  -0.033891  -0.003544   0.000517   0.000039
     9  C   -0.927133  -0.033891  10.702561   0.326033  -0.217185   0.132123
    10  H    0.004450  -0.003544   0.326033   0.427695  -0.012517   0.000445
    11  S   -0.429801   0.000517  -0.217185  -0.012517  17.389930   0.516606
    12  O    0.068501   0.000039   0.132123   0.000445   0.516606   8.673250
    13  O    0.035909   0.000260  -0.007143  -0.002304   0.355426  -0.152071
    14  N    0.180391   0.000011   0.169676   0.000442  -1.101354  -0.151206
    15  H    0.001641   0.000000   0.034117  -0.000005   0.063774   0.000197
    16  H   -0.025372   0.000001  -0.085490  -0.000050   0.139158   0.008702
    17  O    0.010011  -0.000002   0.003777   0.000013  -0.000085  -0.005724
    18  O    0.006123   0.000002  -0.046870   0.000094   0.055787  -0.036967
    19  C   -0.001032  -0.000001  -0.005305  -0.000013  -0.087654  -0.036969
    20  H    0.017714  -0.003481   0.000419  -0.000112  -0.000201  -0.000001
    21  H   -0.000050  -0.000000  -0.001388   0.000000   0.000444   0.000831
    22  H   -0.000037  -0.000000   0.001296   0.000000  -0.007864   0.000285
    23  H    0.000157   0.000000   0.000367  -0.000000   0.003727  -0.000493
              13         14         15         16         17         18
     1  C    0.225898  -0.837699   0.066750   0.016719  -0.001423   0.008235
     2  C   -0.358753   0.341259  -0.040422   0.039171  -0.024955  -0.466352
     3  C   -0.158658   0.621262  -0.107164  -0.019035   0.497840   0.264895
     4  C   -0.031349   0.063709   0.002268  -0.013582  -0.007875   0.036095
     5  H    0.000016   0.000060  -0.000000  -0.000000   0.000567   0.001079
     6  C    0.035187  -0.053200   0.000274   0.004913  -0.008602   0.025118
     7  C    0.035909   0.180391   0.001641  -0.025372   0.010011   0.006123
     8  H    0.000260   0.000011   0.000000   0.000001  -0.000002   0.000002
     9  C   -0.007143   0.169676   0.034117  -0.085490   0.003777  -0.046870
    10  H   -0.002304   0.000442  -0.000005  -0.000050   0.000013   0.000094
    11  S    0.355426  -1.101354   0.063774   0.139158  -0.000085   0.055787
    12  O   -0.152071  -0.151206   0.000197   0.008702  -0.005724  -0.036967
    13  O    8.770503  -0.150602   0.012595  -0.005616   0.000199  -0.001465
    14  N   -0.150602   8.464987   0.190076   0.203471  -0.003543   0.014052
    15  H    0.012595   0.190076   0.310020  -0.021274   0.000622  -0.000189
    16  H   -0.005616   0.203471  -0.021274   0.315335   0.000021  -0.000342
    17  O    0.000199  -0.003543   0.000622   0.000021   8.124261  -0.153125
    18  O   -0.001465   0.014052  -0.000189  -0.000342  -0.153125   8.702668
    19  C    0.001830   0.018988   0.005503  -0.002672  -0.036177   0.096718
    20  H   -0.000004   0.000023  -0.000000  -0.000000   0.000020   0.000031
    21  H   -0.000028   0.001510   0.000119  -0.000000   0.002381  -0.052719
    22  H    0.000011   0.000494   0.000058   0.000000   0.001450  -0.031727
    23  H    0.000004  -0.000703   0.000009   0.000000  -0.002404  -0.030016
              19         20         21         22         23
     1  C    0.030183   0.005956  -0.003845  -0.010457   0.014438
     2  C   -0.356365   0.019031   0.021323   0.011914  -0.030156
     3  C    0.145882  -0.002689  -0.003524  -0.024508   0.009110
     4  C    0.059904  -0.031657  -0.005057   0.010804  -0.006111
     5  H    0.000391  -0.003176   0.000000   0.000000  -0.000001
     6  C   -0.014979   0.299449   0.000337   0.000819  -0.001919
     7  C   -0.001032   0.017714  -0.000050  -0.000037   0.000157
     8  H   -0.000001  -0.003481  -0.000000  -0.000000   0.000000
     9  C   -0.005305   0.000419  -0.001388   0.001296   0.000367
    10  H   -0.000013  -0.000112   0.000000   0.000000  -0.000000
    11  S   -0.087654  -0.000201   0.000444  -0.007864   0.003727
    12  O   -0.036969  -0.000001   0.000831   0.000285  -0.000493
    13  O    0.001830  -0.000004  -0.000028   0.000011   0.000004
    14  N    0.018988   0.000023   0.001510   0.000494  -0.000703
    15  H    0.005503  -0.000000   0.000119   0.000058   0.000009
    16  H   -0.002672  -0.000000  -0.000000   0.000000   0.000000
    17  O   -0.036177   0.000020   0.002381   0.001450  -0.002404
    18  O    0.096718   0.000031  -0.052719  -0.031727  -0.030016
    19  C    5.394033  -0.000022   0.386462   0.402454   0.397307
    20  H   -0.000022   0.472386   0.000000  -0.000000   0.000000
    21  H    0.386462   0.000000   0.489151  -0.024723  -0.025946
    22  H    0.402454  -0.000000  -0.024723   0.437375  -0.028582
    23  H    0.397307   0.000000  -0.025946  -0.028582   0.465375
 Mulliken charges:
               1
     1  C   -1.071180
     2  C    0.385364
     3  C    0.267983
     4  C   -0.210606
     5  H    0.247572
     6  C   -0.201569
     7  C   -0.001823
     8  H    0.224836
     9  C   -0.072529
    10  H    0.268687
    11  S    1.541752
    12  O   -0.514491
    13  O   -0.569844
    14  N   -0.972104
    15  H    0.481032
    16  H    0.445943
    17  O   -0.397247
    18  O   -0.391123
    19  C   -0.398464
    20  H    0.226314
    21  H    0.214722
    22  H    0.260938
    23  H    0.235839
 Sum of Mulliken charges =  -0.00000
 Mulliken charges with hydrogens summed into heavy atoms:
               1
     1  C   -1.071180
     2  C    0.385364
     3  C    0.267983
     4  C    0.036966
     6  C    0.024745
     7  C    0.223013
     9  C    0.196159
    11  S    1.541752
    12  O   -0.514491
    13  O   -0.569844
    14  N   -0.045130
    17  O   -0.397247
    18  O   -0.391123
    19  C    0.313034
 Electronic spatial extent (au):  <R**2>=           2721.1486
 Charge=             -0.0000 electrons
 Dipole moment (field-independent basis, Debye):
    X=             -1.9156    Y=             -2.7316    Z=              5.6597  Tot=              6.5699
 Quadrupole moment (field-independent basis, Debye-Ang):
   XX=            -71.8374   YY=            -98.0578   ZZ=            -91.1207
   XY=              0.7711   XZ=              5.1626   YZ=              3.1284
 Traceless Quadrupole moment (field-independent basis, Debye-Ang):
   XX=             15.1679   YY=            -11.0525   ZZ=             -4.1154
   XY=              0.7711   XZ=              5.1626   YZ=              3.1284
 Octapole moment (field-independent basis, Debye-Ang**2):
  XXX=             10.6965  YYY=            -29.0850  ZZZ=             10.6547  XYY=            -11.4307
  XXY=            -18.2237  XXZ=             15.8543  XZZ=             12.1424  YZZ=             16.1912
  YYZ=             26.2014  XYZ=             -5.6749
 Hexadecapole moment (field-independent basis, Debye-Ang**3):
 XXXX=          -1520.4882 YYYY=          -1555.8175 ZZZZ=           -290.2573 XXXY=            -40.6178
 XXXZ=              7.6183 YYYX=             30.3331 YYYZ=              3.1286 ZZZX=             20.1289
 ZZZY=             22.3422 XXYY=           -518.1928 XXZZ=           -366.6317 YYZZ=           -300.7106
 XXYZ=            -12.9445 YYXZ=              8.8446 ZZXY=             -6.0697
 N-N= 1.084738689539D+03 E-N=-4.667265299315D+03  KE= 1.056757449685D+03
 Calling FoFJK, ICntrl=      2127 FMM=F ISym2X=0 I1Cent= 0 IOpClX= 0 NMat=1 NMatS=1 NMatT=0.
 ***** Axes restored to original set *****
 -------------------------------------------------------------------
 Center     Atomic                   Forces (Hartrees/Bohr)
 Number     Number              X              Y              Z
 -------------------------------------------------------------------
      1        6          -0.002056258    0.002560534   -0.001035449
      2        6           0.002043867    0.002038771   -0.000311883
      3        6          -0.007828202   -0.021202238   -0.008999639
      4        6           0.000893058    0.000865063   -0.000651651
      5        1           0.000028851   -0.000920052    0.000503108
      6        6          -0.000574264   -0.000200595    0.000229789
      7        6          -0.000161725   -0.000171104    0.000471754
      8        1           0.000083326   -0.000026824   -0.000339853
      9        6          -0.000019356    0.000706587   -0.002396922
     10        1          -0.000366565   -0.001273311    0.001626336
     11       16           0.012217232   -0.030296410    0.012362465
     12        8           0.001516860    0.012624831   -0.005430795
     13        8          -0.008936231    0.007292193   -0.006116788
     14        7          -0.005194416    0.013023480   -0.001947207
     15        1           0.002444030   -0.001670022    0.000363424
     16        1          -0.000443372   -0.003084748    0.001958709
     17        8           0.007142064    0.013374376    0.003808228
     18        8          -0.004168749    0.007718412    0.009252088
     19        6           0.003155195   -0.001063675   -0.002794118
     20        1           0.000096281   -0.000023455   -0.000169445
     21        1          -0.000255616    0.000323199    0.000446469
     22        1           0.000309726    0.000124047   -0.000700304
     23        1           0.000074265   -0.000719057   -0.000128315
 -------------------------------------------------------------------
 Cartesian Forces:  Max     0.030296410 RMS     0.006436353

 GradGradGradGradGradGradGradGradGradGradGradGradGradGradGradGradGradGrad
 Berny optimization.
 FormGI is forming the generalized inverse of G from B-inverse, IUseBI=4.
 Internal  Forces:  Max     0.015433451 RMS     0.003099243
 Search for a local minimum.
 Step number   1 out of a maximum of  115
 All quantities printed in internal units (Hartrees-Bohrs-Radians)
 Mixed Optimization -- RFO/linear search
 Second derivative matrix not updated -- first step.
 ITU=  0
     Eigenvalues ---    0.00485   0.00813   0.01159   0.01426   0.01495
     Eigenvalues ---    0.01711   0.01999   0.02109   0.02167   0.02170
     Eigenvalues ---    0.02174   0.02180   0.02185   0.02191   0.02614
     Eigenvalues ---    0.04669   0.09174   0.10283   0.10360   0.10721
     Eigenvalues ---    0.14510   0.15996   0.15998   0.15998   0.16000
     Eigenvalues ---    0.16000   0.16000   0.16000   0.16000   0.16000
     Eigenvalues ---    0.20008   0.21998   0.22489   0.24458   0.24942
     Eigenvalues ---    0.24986   0.25000   0.25000   0.25000   0.25000
     Eigenvalues ---    0.26813   0.32752   0.34600   0.34684   0.35005
     Eigenvalues ---    0.35292   0.35362   0.35382   0.35412   0.39547
     Eigenvalues ---    0.42120   0.42423   0.43129   0.43996   0.44027
     Eigenvalues ---    0.45875   0.46576   0.46746   0.47045   0.59437
     Eigenvalues ---    0.90353   0.90679   0.98102
 RFO step:  Lambda=-4.12477237D-03 EMin= 4.85134048D-03
 Linear search not attempted -- first point.
 Iteration  1 RMS(Cart)=  0.08629285 RMS(Int)=  0.00235634
 Iteration  2 RMS(Cart)=  0.00409634 RMS(Int)=  0.00017928
 Iteration  3 RMS(Cart)=  0.00000806 RMS(Int)=  0.00017925
 Iteration  4 RMS(Cart)=  0.00000000 RMS(Int)=  0.00017925
 Variable       Old X    -DE/DX   Delta X   Delta X   Delta X     New X
                                 (Linear)    (Quad)   (Total)
    R1        2.65012  -0.00102   0.00000  -0.00233  -0.00231   2.64782
    R2        2.62824  -0.00027   0.00000  -0.00059  -0.00061   2.62763
    R3        3.38510   0.00163   0.00000   0.00600   0.00600   3.39110
    R4        2.82789   0.00213   0.00000   0.00641   0.00641   2.83430
    R5        2.63306   0.00008   0.00000   0.00012   0.00015   2.63322
    R6        2.29409  -0.01543   0.00000  -0.01567  -0.01567   2.27842
    R7        2.51389   0.00867   0.00000   0.01449   0.01449   2.52838
    R8        2.05203  -0.00011   0.00000  -0.00030  -0.00030   2.05172
    R9        2.63554  -0.00053   0.00000  -0.00110  -0.00108   2.63446
   R10        2.62976  -0.00006   0.00000  -0.00004  -0.00006   2.62970
   R11        2.05091   0.00016   0.00000   0.00046   0.00046   2.05137
   R12        2.05059   0.00022   0.00000   0.00062   0.00062   2.05122
   R13        2.63649  -0.00016   0.00000  -0.00031  -0.00034   2.63615
   R14        2.05011   0.00034   0.00000   0.00094   0.00094   2.05105
   R15        2.76471  -0.01196   0.00000  -0.01318  -0.01318   2.75153
   R16        2.76322  -0.01035   0.00000  -0.01136  -0.01136   2.75186
   R17        3.11210   0.00782   0.00000   0.01795   0.01795   3.13005
   R18        1.93160  -0.00271   0.00000  -0.00609  -0.00609   1.92550
   R19        1.93122  -0.00304   0.00000  -0.00684  -0.00684   1.92438
   R20        2.72174  -0.00398   0.00000  -0.00995  -0.00995   2.71178
   R21        2.05666   0.00056   0.00000   0.00159   0.00159   2.05825
   R22        2.06330  -0.00034   0.00000  -0.00096  -0.00096   2.06234
   R23        2.06191  -0.00001   0.00000  -0.00002  -0.00002   2.06189
    A1        2.11234  -0.00021   0.00000  -0.00098  -0.00093   2.11141
    A2        2.11954   0.00109   0.00000   0.00450   0.00448   2.12402
    A3        2.04926  -0.00087   0.00000  -0.00323  -0.00327   2.04599
    A4        2.16176   0.00090   0.00000   0.00372   0.00348   2.16523
    A5        2.07521  -0.00017   0.00000  -0.00089  -0.00097   2.07423
    A6        2.04621  -0.00073   0.00000  -0.00268  -0.00292   2.04330
    A7        2.15722  -0.00052   0.00000  -0.00253  -0.00278   2.15444
    A8        1.96080   0.00231   0.00000   0.00856   0.00832   1.96912
    A9        2.16423  -0.00182   0.00000  -0.00771  -0.00796   2.15628
   A10        2.07757  -0.00090   0.00000  -0.00492  -0.00507   2.07250
   A11        2.10063   0.00051   0.00000   0.00225   0.00225   2.10288
   A12        2.10489   0.00040   0.00000   0.00301   0.00286   2.10775
   A13        2.09739  -0.00030   0.00000  -0.00115  -0.00113   2.09626
   A14        2.08772   0.00023   0.00000   0.00107   0.00102   2.08874
   A15        2.09807   0.00006   0.00000   0.00004  -0.00001   2.09806
   A16        2.10122  -0.00007   0.00000  -0.00086  -0.00086   2.10035
   A17        2.09668  -0.00040   0.00000  -0.00158  -0.00159   2.09509
   A18        2.08516   0.00046   0.00000   0.00237   0.00237   2.08752
   A19        2.08367   0.00057   0.00000   0.00246   0.00244   2.08611
   A20        2.09555  -0.00219   0.00000  -0.01295  -0.01297   2.08258
   A21        2.10380   0.00162   0.00000   0.01030   0.01028   2.11408
   A22        1.87355  -0.00037   0.00000  -0.00653  -0.00705   1.86650
   A23        1.87093  -0.00118   0.00000  -0.01213  -0.01280   1.85814
   A24        1.91821  -0.00738   0.00000  -0.04845  -0.04923   1.86898
   A25        2.08103   0.00648   0.00000   0.06541   0.06544   2.14647
   A26        1.86957   0.00073   0.00000  -0.00209  -0.00276   1.86681
   A27        1.84772   0.00051   0.00000  -0.00500  -0.00586   1.84186
   A28        1.94298  -0.00143   0.00000  -0.00533  -0.00534   1.93764
   A29        1.94545   0.00044   0.00000   0.00605   0.00604   1.95149
   A30        1.93924   0.00128   0.00000   0.01365   0.01363   1.95287
   A31        2.02966  -0.00859   0.00000  -0.03378  -0.03378   1.99588
   A32        1.83855   0.00076   0.00000   0.00583   0.00583   1.84437
   A33        1.91118  -0.00119   0.00000  -0.00811  -0.00812   1.90306
   A34        1.91635   0.00010   0.00000   0.00026   0.00024   1.91659
   A35        1.93413   0.00038   0.00000   0.00294   0.00294   1.93707
   A36        1.93228   0.00030   0.00000   0.00362   0.00361   1.93589
   A37        1.92927  -0.00033   0.00000  -0.00424  -0.00427   1.92500
    D1       -3.11664  -0.00112   0.00000  -0.04690  -0.04694   3.11961
    D2        0.01999  -0.00034   0.00000  -0.00992  -0.00992   0.01008
    D3        0.09542  -0.00118   0.00000  -0.05175  -0.05180   0.04363
    D4       -3.05113  -0.00039   0.00000  -0.01476  -0.01477  -3.06590
    D5        0.00546   0.00024   0.00000   0.00815   0.00815   0.01361
    D6       -3.11675   0.00050   0.00000   0.01930   0.01923  -3.09752
    D7        3.07933   0.00037   0.00000   0.01310   0.01310   3.09243
    D8       -0.04288   0.00063   0.00000   0.02425   0.02418  -0.01870
    D9        0.58794  -0.00341   0.00000  -0.03624  -0.03599   0.55194
   D10        2.84321   0.00358   0.00000   0.03233   0.03201   2.87522
   D11       -1.43965  -0.00019   0.00000  -0.00464  -0.00456  -1.44421
   D12       -2.48564  -0.00349   0.00000  -0.04099  -0.04075  -2.52639
   D13       -0.23036   0.00350   0.00000   0.02758   0.02726  -0.20311
   D14        1.76996  -0.00027   0.00000  -0.00939  -0.00932   1.76064
   D15       -2.29776  -0.00098   0.00000  -0.08238  -0.08239  -2.38015
   D16        0.88856  -0.00022   0.00000  -0.04199  -0.04197   0.84659
   D17        0.84872  -0.00175   0.00000  -0.11880  -0.11882   0.72991
   D18       -2.24814  -0.00099   0.00000  -0.07841  -0.07840  -2.32654
   D19        3.12671  -0.00052   0.00000  -0.02237  -0.02228   3.10442
   D20       -0.02985   0.00017   0.00000   0.00370   0.00371  -0.02614
   D21       -0.01952   0.00022   0.00000   0.01219   0.01218  -0.00734
   D22        3.10711   0.00090   0.00000   0.03826   0.03818  -3.13790
   D23       -3.05511   0.00113   0.00000   0.02888   0.02893  -3.02617
   D24        0.13142   0.00184   0.00000   0.06930   0.06925   0.20067
   D25        0.01443   0.00008   0.00000   0.00411   0.00410   0.01853
   D26       -3.13003  -0.00028   0.00000  -0.00984  -0.00986  -3.13989
   D27        3.14083   0.00076   0.00000   0.03052   0.03056  -3.11180
   D28       -0.00364   0.00041   0.00000   0.01657   0.01660   0.01296
   D29        3.13557  -0.00028   0.00000  -0.01092  -0.01093   3.12464
   D30        0.01151  -0.00017   0.00000  -0.00593  -0.00593   0.00558
   D31       -0.00313   0.00007   0.00000   0.00310   0.00310  -0.00003
   D32       -3.12719   0.00018   0.00000   0.00809   0.00810  -3.11909
   D33       -0.02129   0.00001   0.00000  -0.00017  -0.00016  -0.02145
   D34        3.10082  -0.00029   0.00000  -0.01163  -0.01171   3.08911
   D35        3.13767   0.00013   0.00000   0.00480   0.00484  -3.14067
   D36       -0.02340  -0.00018   0.00000  -0.00666  -0.00671  -0.03011
   D37        1.02483   0.00029   0.00000  -0.00731  -0.00735   1.01748
   D38       -1.15121  -0.00065   0.00000  -0.02571  -0.02576  -1.17697
   D39       -1.00527   0.00418   0.00000   0.02692   0.02679  -0.97847
   D40        3.10188   0.00324   0.00000   0.00852   0.00838   3.11026
   D41        3.03991  -0.00441   0.00000  -0.04778  -0.04760   2.99231
   D42        0.86387  -0.00534   0.00000  -0.06618  -0.06601   0.79786
   D43        3.09122   0.00007   0.00000   0.01475   0.01473   3.10595
   D44        1.01049  -0.00020   0.00000   0.01218   0.01220   1.02270
   D45       -1.11077   0.00090   0.00000   0.02247   0.02246  -1.08831
         Item               Value     Threshold  Converged?
 Maximum Force            0.015433     0.000450     NO 
 RMS     Force            0.003099     0.000300     NO 
 Maximum Displacement     0.317294     0.001800     NO 
 RMS     Displacement     0.086712     0.001200     NO 
 Predicted change in Energy=-2.189975D-03
 GradGradGradGradGradGradGradGradGradGradGradGradGradGradGradGradGradGrad

                          Input orientation:                          
 ---------------------------------------------------------------------
 Center     Atomic      Atomic             Coordinates (Angstroms)
 Number     Number       Type             X           Y           Z
 ---------------------------------------------------------------------
      1          6           0       -1.183088    0.715458   -0.811148
      2          6           0       -2.377116    0.517389   -1.517070
      3          6           0       -3.671686    0.108111   -0.879791
      4          6           0       -2.372437    0.669967   -2.902122
      5          1           0       -3.290005    0.481976   -3.451236
      6          6           0       -1.206480    1.044071   -3.568523
      7          6           0       -0.029173    1.247121   -2.854938
      8          1           0        0.884580    1.523131   -3.371745
      9          6           0       -0.011836    1.070101   -1.471333
     10          1           0        0.907032    1.176488   -0.903538
     11         16           0       -1.074205    0.428024    0.956826
     12          8           0       -2.003082   -0.648728    1.269657
     13          8           0        0.344767    0.369489    1.278807
     14          7           0       -1.643430    1.790482    1.707290
     15          1           0       -2.601053    1.991311    1.422948
     16          1           0       -1.028328    2.588588    1.560013
     17          8           0       -4.403814   -0.730880   -1.342141
     18          8           0       -3.976175    0.843755    0.195501
     19          6           0       -5.128581    0.386695    0.918219
     20          1           0       -1.218099    1.160682   -4.647715
     21          1           0       -5.223860    1.054812    1.773121
     22          1           0       -4.960529   -0.641666    1.242661
     23          1           0       -6.011646    0.442593    0.279801
 ---------------------------------------------------------------------
                    Distance matrix (angstroms):
                    1          2          3          4          5
     1  C    0.000000
     2  C    1.401164   0.000000
     3  C    2.562558   1.499848   0.000000
     4  C    2.405991   1.393439   2.468512   0.000000
     5  H    3.385805   2.139070   2.626363   1.085724   0.000000
     6  C    2.776985   2.419967   3.765971   1.394095   2.161199
     7  C    2.406504   2.799149   4.297261   2.413756   3.402064
     8  H    3.388841   3.884585   5.382535   3.399500   4.303195
     9  C    1.390484   2.429430   3.830124   2.789212   3.874571
    10  H    2.142355   3.405357   4.701771   3.873735   4.958652
    11  S    1.794493   2.797449   3.197251   4.078655   4.933933
    12  O    2.619760   3.043941   2.824389   4.390799   5.022100
    13  O    2.611886   3.904798   4.567249   4.995364   5.966367
    14  N    2.776711   3.543382   3.692856   4.799343   5.570798
    15  H    2.937620   3.296406   3.161536   4.528183   5.148826
    16  H    3.025718   3.946838   4.369525   5.039681   5.887751
    17  O    3.570283   2.386688   1.205688   2.919315   2.675794
    18  O    2.971723   2.365672   1.337961   3.492484   3.728325
    19  C    4.320384   3.676721   2.330878   4.719277   4.741474
    20  H    3.862473   3.399718   4.617926   2.149510   2.486965
    21  H    4.808477   4.383848   3.216120   5.489682   5.600164
    22  H    4.508767   3.953928   2.593855   5.059429   5.107435
    23  H    4.957782   4.055139   2.632859   4.839439   4.618389
                    6          7          8          9         10
     6  C    0.000000
     7  C    1.391576   0.000000
     8  H    2.154241   1.085457   0.000000
     9  C    2.413722   1.394990   2.149503   0.000000
    10  H    3.403911   2.165510   2.492531   1.085370   0.000000
    11  S    4.569003   4.036404   4.875718   2.727058   2.818945
    12  O    5.187304   4.950034   5.882021   3.799008   4.064843
    13  O    5.134008   4.242396   4.821818   2.860297   2.393746
    14  N    5.346238   4.869804   5.679693   3.644818   3.701117
    15  H    5.268479   5.046651   5.946251   3.991182   4.287555
    16  H    5.359025   4.721190   5.395985   3.539508   3.436383
    17  O    4.281375   5.033738   6.096472   4.748652   5.659992
    18  O    4.677522   5.004668   6.067432   4.306455   5.016404
    19  C    5.995488   6.401641   7.473513   5.688417   6.353833
    20  H    1.085536   2.152921   2.486108   3.398923   4.305264
    21  H    6.683757   6.959934   8.000125   6.139374   6.690825
    22  H    6.331041   6.684018   7.755282   5.897921   6.506929
    23  H    6.185547   6.801752   7.877772   6.281557   7.057407
                   11         12         13         14         15
    11  S    0.000000
    12  O    1.456046   0.000000
    13  O    1.456221   2.559149   0.000000
    14  N    1.656353   2.504120   2.481078   0.000000
    15  H    2.234368   2.711250   3.365849   1.018933   0.000000
    16  H    2.243652   3.393327   2.624665   1.018339   1.687894
    17  O    4.208872   3.548485   5.534365   4.824522   4.278549
    18  O    3.028841   2.697112   4.479846   2.936579   2.171283
    19  C    4.054771   3.311246   5.485240   3.839209   3.036107
    20  H    5.654058   6.237423   6.179984   6.400285   6.281358
    21  H    4.275376   3.678170   5.632372   3.655820   2.806915
    22  H    4.040972   2.957578   5.400917   4.139368   3.540085
    23  H    4.983663   4.270759   6.434854   4.789138   3.916307
                   16         17         18         19         20
    16  H    0.000000
    17  O    5.552951   0.000000
    18  O    3.687293   2.242029   0.000000
    19  C    4.698117   2.623640   1.435014   0.000000
    20  H    6.372662   4.965239   5.582487   6.846207   0.000000
    21  H    4.472177   3.683209   2.022411   1.089181   7.568650
    22  H    5.098770   2.645580   2.066875   1.091344   7.207688
    23  H    5.574737   2.567656   2.076338   1.091103   6.911885
                   21         22         23
    21  H    0.000000
    22  H    1.796877   0.000000
    23  H    1.795946   1.790968   0.000000
 Stoichiometry    C8H9NO4S
 Framework group  C1[X(C8H9NO4S)]
 Deg. of freedom    63
 Full point group                 C1      NOp   1
 Largest Abelian subgroup         C1      NOp   1
 Largest concise Abelian subgroup C1      NOp   1
                         Standard orientation:                         
 ---------------------------------------------------------------------
 Center     Atomic      Atomic             Coordinates (Angstroms)
 Number     Number       Type             X           Y           Z
 ---------------------------------------------------------------------
      1          6           0       -0.903399    0.293976   -0.010091
      2          6           0       -0.496642   -1.046799   -0.021650
      3          6           0        0.928242   -1.491064   -0.169561
      4          6           0       -1.465349   -2.044017    0.072344
      5          1           0       -1.151683   -3.082499    0.028009
      6          6           0       -2.812364   -1.711082    0.207271
      7          6           0       -3.202709   -0.375520    0.226995
      8          1           0       -4.251965   -0.112186    0.316065
      9          6           0       -2.246936    0.633250    0.105009
     10          1           0       -2.536061    1.678803    0.069610
     11         16           0        0.265331    1.635881   -0.241538
     12          8           0        1.312127    1.139483   -1.123513
     13          8           0       -0.523418    2.823690   -0.537450
     14          7           0        0.970045    1.926464    1.228988
     15          1           0        1.431519    1.090546    1.584665
     16          1           0        0.304240    2.306839    1.899087
     17          8           0        1.269917   -2.400621   -0.883456
     18          8           0        1.762178   -0.841484    0.650644
     19          6           0        3.150750   -1.131644    0.433985
     20          1           0       -3.555858   -2.498593    0.280975
     21          1           0        3.695539   -0.508516    1.141962
     22          1           0        3.411850   -0.875007   -0.594118
     23          1           0        3.340811   -2.189872    0.619822
 ---------------------------------------------------------------------
 Rotational constants (GHZ):           0.7803241           0.6957703           0.4157645
 Basis read from rwf:  (6D, 7F)
 There are   288 symmetry adapted cartesian basis functions of A   symmetry.
 There are   288 symmetry adapted basis functions of A   symmetry.
   288 basis functions,   508 primitive gaussians,   288 cartesian basis functions
    56 alpha electrons       56 beta electrons
       nuclear repulsion energy      1087.3012416244 Hartrees.
 NAtoms=   23 NActive=   23 NUniq=   23 SFac= 1.00D+00 NAtFMM=   60 NAOKFM=F Big=F
 Integral buffers will be    131072 words long.
 Raffenetti 2 integral format.
 Two-electron integral symmetry is turned on.
 One-electron integrals computed using PRISM.
 NBasis=   288 RedAO= T EigKep=  2.05D-06  NBF=   288
 NBsUse=   287 1.00D-06 EigRej=  9.04D-07 NBFU=   287
 Initial guess from the checkpoint file:  "/jobfs/40919096.gadi-pbs/Gau-503690.chk"
 B after Tr=     0.000000   -0.000000   -0.000000
         Rot=    0.999957    0.004873    0.003021   -0.007339 Ang=   1.07 deg.
 ExpMin= 4.05D-02 ExpMax= 2.19D+04 ExpMxC= 3.30D+03 IAcc=3 IRadAn=         5 AccDes= 0.00D+00
 Harris functional with IExCor= 1009 and IRadAn=       5 diagonalized for initial guess.
 HarFok:  IExCor= 1009 AccDes= 0.00D+00 IRadAn=         5 IDoV= 1 UseB2=F ITyADJ=14
 ICtDFT=  3500011 ScaDFX=  1.000000  1.000000  1.000000  1.000000
 FoFCou: FMM=F IPFlag=           0 FMFlag=      100000 FMFlg1=           0
         NFxFlg=           0 DoJE=T BraDBF=F KetDBF=T FulRan=T
         wScrn=  0.000000 ICntrl=       500 IOpCl=  0 I1Cent=   200000004 NGrid=           0
         NMat0=    1 NMatS0=      1 NMatT0=    0 NMatD0=    1 NMtDS0=    0 NMtDT0=    0
 Petite list used in FoFCou.
 Requested convergence on RMS density matrix=1.00D-08 within 128 cycles.
 Requested convergence on MAX density matrix=1.00D-06.
 Requested convergence on             energy=1.00D-06.
 No special actions if energy rises.
 SCF Done:  E(RM062X) =  -1063.76429060     A.U. after   15 cycles
            NFock= 15  Conv=0.72D-08     -V/T= 2.0066
 Calling FoFJK, ICntrl=      2127 FMM=F ISym2X=0 I1Cent= 0 IOpClX= 0 NMat=1 NMatS=1 NMatT=0.
 ***** Axes restored to original set *****
 -------------------------------------------------------------------
 Center     Atomic                   Forces (Hartrees/Bohr)
 Number     Number              X              Y              Z
 -------------------------------------------------------------------
      1        6          -0.000701609   -0.000399956   -0.000896020
      2        6           0.001149830   -0.000617339    0.001499893
      3        6          -0.002587845    0.000092510   -0.006295903
      4        6           0.000435861   -0.000388232   -0.001011511
      5        1          -0.000166589   -0.000064412    0.000241419
      6        6          -0.000654653   -0.000245782   -0.000010559
      7        6           0.000282219    0.000109157    0.000673183
      8        1          -0.000009769   -0.000020711   -0.000105654
      9        6           0.000381402    0.000519063   -0.001553145
     10        1          -0.000159899   -0.000260927    0.000254852
     11       16           0.001116685   -0.005516482    0.000979760
     12        8           0.007688630    0.002155847    0.000998205
     13        8          -0.004603438   -0.000712859   -0.000021536
     14        7          -0.002257040    0.004182300    0.000649413
     15        1          -0.000209836   -0.001021794    0.000281735
     16        1           0.000711145   -0.001403082    0.000796927
     17        8           0.002020662   -0.000141930    0.000549565
     18        8          -0.002775083    0.003177812    0.001751076
     19        6           0.000823701    0.001048878    0.000284505
     20        1          -0.000030907    0.000196459    0.000047374
     21        1           0.000055464   -0.000340493    0.000096090
     22        1          -0.000255520   -0.000009909    0.000495556
     23        1          -0.000253413   -0.000338116    0.000294775
 -------------------------------------------------------------------
 Cartesian Forces:  Max     0.007688630 RMS     0.001831672

 GradGradGradGradGradGradGradGradGradGradGradGradGradGradGradGradGradGrad
 Berny optimization.
 Using GEDIIS/GDIIS optimizer.
 FormGI is forming the generalized inverse of G from B-inverse, IUseBI=4.
 Internal  Forces:  Max     0.006287848 RMS     0.001818119
 Search for a local minimum.
 Step number   2 out of a maximum of  115
 All quantities printed in internal units (Hartrees-Bohrs-Radians)
 Mixed Optimization -- RFO/linear search
 Update second derivatives using D2CorX and points    1    2
 DE= -1.48D-03 DEPred=-2.19D-03 R= 6.76D-01
 TightC=F SS=  1.41D+00  RLast= 2.63D-01 DXNew= 5.0454D-01 7.8755D-01
 Trust test= 6.76D-01 RLast= 2.63D-01 DXMaxT set to 5.05D-01
 ITU=  1  0
 Use linear search instead of GDIIS.
     Eigenvalues ---    0.00467   0.00993   0.01159   0.01441   0.01499
     Eigenvalues ---    0.01764   0.01956   0.02135   0.02169   0.02172
     Eigenvalues ---    0.02178   0.02184   0.02188   0.02420   0.02694
     Eigenvalues ---    0.04557   0.09724   0.10332   0.10660   0.11483
     Eigenvalues ---    0.13870   0.15789   0.15995   0.15998   0.15998
     Eigenvalues ---    0.15999   0.16000   0.16000   0.16000   0.16111
     Eigenvalues ---    0.19493   0.21998   0.22334   0.23321   0.24470
     Eigenvalues ---    0.24952   0.24963   0.24999   0.25000   0.26544
     Eigenvalues ---    0.29892   0.32714   0.34603   0.34684   0.35010
     Eigenvalues ---    0.35293   0.35362   0.35381   0.35412   0.39402
     Eigenvalues ---    0.41804   0.42404   0.42729   0.43960   0.44024
     Eigenvalues ---    0.45939   0.46578   0.46747   0.47084   0.57745
     Eigenvalues ---    0.84884   0.90566   0.97303
 RFO step:  Lambda=-3.22277455D-03 EMin= 4.66934107D-03
 Quartic linear search produced a step of -0.22639.
 Iteration  1 RMS(Cart)=  0.12950284 RMS(Int)=  0.00741598
 Iteration  2 RMS(Cart)=  0.01059606 RMS(Int)=  0.00007663
 Iteration  3 RMS(Cart)=  0.00006669 RMS(Int)=  0.00006740
 Iteration  4 RMS(Cart)=  0.00000001 RMS(Int)=  0.00006740
 Variable       Old X    -DE/DX   Delta X   Delta X   Delta X     New X
                                 (Linear)    (Quad)   (Total)
    R1        2.64782   0.00294   0.00052   0.00277   0.00327   2.65108
    R2        2.62763   0.00115   0.00014   0.00138   0.00154   2.62917
    R3        3.39110   0.00414  -0.00136   0.01806   0.01670   3.40780
    R4        2.83430   0.00042  -0.00145   0.00773   0.00628   2.84058
    R5        2.63322   0.00070  -0.00003   0.00136   0.00129   2.63451
    R6        2.27842  -0.00134   0.00355  -0.01761  -0.01406   2.26435
    R7        2.52838   0.00485  -0.00328   0.02156   0.01827   2.54665
    R8        2.05172   0.00003   0.00007  -0.00025  -0.00018   2.05154
    R9        2.63446  -0.00090   0.00025  -0.00278  -0.00255   2.63191
   R10        2.62970  -0.00033   0.00001  -0.00082  -0.00079   2.62891
   R11        2.05137  -0.00002  -0.00010   0.00043   0.00033   2.05169
   R12        2.05122   0.00004  -0.00014   0.00073   0.00059   2.05181
   R13        2.63615  -0.00060   0.00008  -0.00141  -0.00129   2.63486
   R14        2.05105  -0.00003  -0.00021   0.00093   0.00071   2.05176
   R15        2.75153  -0.00629   0.00298  -0.01927  -0.01628   2.73525
   R16        2.75186  -0.00446   0.00257  -0.01578  -0.01321   2.73865
   R17        3.13005   0.00283  -0.00406   0.02396   0.01990   3.14995
   R18        1.92550  -0.00008   0.00138  -0.00658  -0.00520   1.92031
   R19        1.92438  -0.00078   0.00155  -0.00857  -0.00703   1.91735
   R20        2.71178   0.00018   0.00225  -0.01016  -0.00790   2.70388
   R21        2.05825  -0.00014  -0.00036   0.00138   0.00102   2.05928
   R22        2.06234   0.00012   0.00022  -0.00075  -0.00053   2.06181
   R23        2.06189   0.00001   0.00001  -0.00000   0.00001   2.06189
    A1        2.11141  -0.00190   0.00021  -0.00649  -0.00633   2.10508
    A2        2.12402   0.00617  -0.00101   0.02291   0.02188   2.14590
    A3        2.04599  -0.00429   0.00074  -0.01710  -0.01636   2.02963
    A4        2.16523   0.00478  -0.00079   0.01810   0.01739   2.18262
    A5        2.07423  -0.00037   0.00022  -0.00157  -0.00141   2.07282
    A6        2.04330  -0.00439   0.00066  -0.01651  -0.01577   2.02752
    A7        2.15444  -0.00047   0.00063  -0.00460  -0.00408   2.15036
    A8        1.96912  -0.00093  -0.00188   0.00568   0.00369   1.97281
    A9        2.15628   0.00140   0.00180  -0.00437  -0.00268   2.15359
   A10        2.07250  -0.00079   0.00115  -0.00833  -0.00712   2.06537
   A11        2.10288   0.00096  -0.00051   0.00532   0.00475   2.10763
   A12        2.10775  -0.00016  -0.00065   0.00299   0.00240   2.11015
   A13        2.09626  -0.00013   0.00026  -0.00255  -0.00232   2.09394
   A14        2.08874   0.00008  -0.00023   0.00186   0.00165   2.09039
   A15        2.09806   0.00006   0.00000   0.00067   0.00069   2.09876
   A16        2.10035  -0.00013   0.00020  -0.00119  -0.00104   2.09932
   A17        2.09509   0.00004   0.00036  -0.00229  -0.00193   2.09316
   A18        2.08752   0.00008  -0.00054   0.00321   0.00264   2.09016
   A19        2.08611   0.00138  -0.00055   0.00730   0.00667   2.09278
   A20        2.08258  -0.00104   0.00294  -0.01787  -0.01505   2.06753
   A21        2.11408  -0.00036  -0.00233   0.00975   0.00729   2.12137
   A22        1.86650   0.00255   0.00160   0.00530   0.00692   1.87342
   A23        1.85814  -0.00021   0.00290  -0.01560  -0.01292   1.84522
   A24        1.86898   0.00024   0.01115  -0.04593  -0.03489   1.83409
   A25        2.14647  -0.00301  -0.01481   0.04799   0.03318   2.17964
   A26        1.86681   0.00019   0.00062   0.00059   0.00131   1.86811
   A27        1.84186   0.00053   0.00133  -0.00591  -0.00487   1.83699
   A28        1.93764  -0.00051   0.00121  -0.00617  -0.00498   1.93266
   A29        1.95149  -0.00081  -0.00137   0.00435   0.00296   1.95445
   A30        1.95287   0.00128  -0.00309   0.02349   0.02037   1.97325
   A31        1.99588   0.00364   0.00765  -0.02453  -0.01688   1.97900
   A32        1.84437  -0.00003  -0.00132   0.00572   0.00439   1.84877
   A33        1.90306   0.00044   0.00184  -0.00661  -0.00477   1.89829
   A34        1.91659   0.00076  -0.00005   0.00425   0.00419   1.92078
   A35        1.93707  -0.00063  -0.00067  -0.00080  -0.00147   1.93560
   A36        1.93589  -0.00011  -0.00082   0.00366   0.00282   1.93871
   A37        1.92500  -0.00038   0.00097  -0.00583  -0.00486   1.92014
    D1        3.11961   0.00213   0.01063   0.02523   0.03585  -3.12772
    D2        0.01008   0.00126   0.00224   0.02486   0.02702   0.03710
    D3        0.04363   0.00268   0.01173   0.03834   0.05017   0.09380
    D4       -3.06590   0.00181   0.00334   0.03798   0.04133  -3.02457
    D5        0.01361  -0.00088  -0.00185  -0.01458  -0.01644  -0.00283
    D6       -3.09752  -0.00027  -0.00435   0.01567   0.01112  -3.08639
    D7        3.09243  -0.00102  -0.00297  -0.02568  -0.02846   3.06397
    D8       -0.01870  -0.00041  -0.00547   0.00456  -0.00090  -0.01960
    D9        0.55194   0.00279   0.00815   0.13522   0.14330   0.69524
   D10        2.87522   0.00063  -0.00725   0.18816   0.18078   3.05601
   D11       -1.44421   0.00124   0.00103   0.15379   0.15495  -1.28927
   D12       -2.52639   0.00324   0.00923   0.14755   0.15676  -2.36963
   D13       -0.20311   0.00109  -0.00617   0.20049   0.19424  -0.00887
   D14        1.76064   0.00170   0.00211   0.16612   0.16840   1.92904
   D15       -2.38015   0.00137   0.01865   0.02891   0.04757  -2.33258
   D16        0.84659   0.00140   0.00950   0.07091   0.08040   0.92699
   D17        0.72991   0.00229   0.02690   0.02950   0.05642   0.78633
   D18       -2.32654   0.00232   0.01775   0.07151   0.08925  -2.23729
   D19        3.10442  -0.00007   0.00504  -0.02215  -0.01717   3.08725
   D20       -0.02614  -0.00082  -0.00084  -0.01945  -0.02032  -0.04646
   D21       -0.00734  -0.00105  -0.00276  -0.02311  -0.02582  -0.03316
   D22       -3.13790  -0.00179  -0.00864  -0.02041  -0.02897   3.11632
   D23       -3.02617   0.00106  -0.00655   0.05797   0.05141  -2.97477
   D24        0.20067   0.00119  -0.01568   0.10004   0.08438   0.28505
   D25        0.01853  -0.00001  -0.00093   0.00392   0.00300   0.02154
   D26       -3.13989   0.00042   0.00223   0.00267   0.00490  -3.13499
   D27       -3.11180  -0.00077  -0.00692   0.00675  -0.00017  -3.11197
   D28        0.01296  -0.00034  -0.00376   0.00549   0.00173   0.01469
   D29        3.12464   0.00015   0.00248  -0.00740  -0.00494   3.11970
   D30        0.00558   0.00042   0.00134   0.00668   0.00800   0.01358
   D31       -0.00003  -0.00028  -0.00070  -0.00615  -0.00685  -0.00688
   D32       -3.11909  -0.00001  -0.00183   0.00793   0.00609  -3.11300
   D33       -0.02145   0.00001   0.00004  -0.00142  -0.00133  -0.02278
   D34        3.08911  -0.00062   0.00265  -0.03272  -0.03016   3.05895
   D35       -3.14067   0.00028  -0.00109   0.01261   0.01159  -3.12909
   D36       -0.03011  -0.00035   0.00152  -0.01869  -0.01724  -0.04736
   D37        1.01748   0.00120   0.00166  -0.00039   0.00123   1.01871
   D38       -1.17697   0.00052   0.00583  -0.02993  -0.02416  -1.20113
   D39       -0.97847  -0.00193  -0.00607   0.01502   0.00896  -0.96952
   D40        3.11026  -0.00261  -0.00190  -0.01452  -0.01644   3.09383
   D41        2.99231   0.00130   0.01078  -0.04065  -0.02981   2.96250
   D42        0.79786   0.00063   0.01494  -0.07020  -0.05520   0.74266
   D43        3.10595  -0.00014  -0.00334   0.01887   0.01552   3.12148
   D44        1.02270   0.00040  -0.00276   0.02006   0.01729   1.03999
   D45       -1.08831   0.00012  -0.00508   0.02875   0.02368  -1.06463
         Item               Value     Threshold  Converged?
 Maximum Force            0.006288     0.000450     NO 
 RMS     Force            0.001818     0.000300     NO 
 Maximum Displacement     0.592283     0.001800     NO 
 RMS     Displacement     0.132995     0.001200     NO 
 Predicted change in Energy=-2.115277D-03
 GradGradGradGradGradGradGradGradGradGradGradGradGradGradGradGradGradGrad

                          Input orientation:                          
 ---------------------------------------------------------------------
 Center     Atomic      Atomic             Coordinates (Angstroms)
 Number     Number       Type             X           Y           Z
 ---------------------------------------------------------------------
      1          6           0       -1.151675    0.705298   -0.805773
      2          6           0       -2.359558    0.522889   -1.495595
      3          6           0       -3.669349    0.149865   -0.859338
      4          6           0       -2.368600    0.667085   -2.882211
      5          1           0       -3.295006    0.474178   -3.414324
      6          6           0       -1.214657    1.040063   -3.567079
      7          6           0       -0.029113    1.248214   -2.869594
      8          1           0        0.878249    1.519267   -3.400746
      9          6           0        0.005878    1.067229   -1.487526
     10          1           0        0.932391    1.148272   -0.927302
     11         16           0       -0.970024    0.376283    0.957960
     12          8           0       -1.717160   -0.828213    1.251273
     13          8           0        0.435711    0.571739    1.251184
     14          7           0       -1.755513    1.635231    1.717272
     15          1           0       -2.729063    1.677889    1.429163
     16          1           0       -1.266428    2.515972    1.596669
     17          8           0       -4.388999   -0.705098   -1.291694
     18          8           0       -4.015502    0.968416    0.153709
     19          6           0       -5.141028    0.500303    0.902938
     20          1           0       -1.241362    1.153656   -4.646500
     21          1           0       -5.300060    1.233553    1.693221
     22          1           0       -4.901217   -0.478035    1.322181
     23          1           0       -6.016158    0.424911    0.255655
 ---------------------------------------------------------------------
                    Distance matrix (angstroms):
                    1          2          3          4          5
     1  C    0.000000
     2  C    1.402892   0.000000
     3  C    2.578770   1.503171   0.000000
     4  C    2.407064   1.394122   2.459976   0.000000
     5  H    3.384054   2.135172   2.602550   1.085627   0.000000
     6  C    2.782237   2.422666   3.761625   1.392746   2.161345
     7  C    2.411278   2.800882   4.301025   2.410616   3.400282
     8  H    3.393674   3.886613   5.386526   3.396634   4.302145
     9  C    1.391298   2.427274   3.839722   2.782697   3.867828
    10  H    2.134087   3.398675   4.709294   3.866491   4.950815
    11  S    1.803331   2.823513   3.261930   4.097254   4.952978
    12  O    2.627331   3.127848   3.036833   4.443644   5.094469
    13  O    2.601673   3.919273   4.635061   4.995818   5.974506
    14  N    2.755931   3.453214   3.536664   4.740086   5.481912
    15  H    2.903279   3.166191   2.907960   4.442927   5.022806
    16  H    3.010554   3.837891   4.171865   4.969258   5.778763
    17  O    3.564492   2.380789   1.198245   2.914557   2.663281
    18  O    3.031722   2.379254   1.347632   3.466972   3.673451
    19  C    4.344727   3.672880   2.322555   4.694840   4.695447
    20  H    3.867848   3.402416   4.609264   2.149449   2.489458
    21  H    4.871665   4.395469   3.217010   5.463416   5.539305
    22  H    4.470742   3.924505   2.582786   5.040075   5.091277
    23  H    4.986827   4.055515   2.612733   4.817627   4.569009
                    6          7          8          9         10
     6  C    0.000000
     7  C    1.391160   0.000000
     8  H    2.153499   1.085771   0.000000
     9  C    2.411428   1.394307   2.150763   0.000000
[...]
 .00014653,-0.00003796,-0.00020736,0.00042800,0.00059737,-0.00039567,0.
 00002226,0.00006513,-0.00029623,-0.00109033,-0.00014274,-0.00271732,-0
 .00008095,-0.00058942,0.00024509,0.04451025,-0.17710095,-0.07799758,0.
 00392781,-0.02647663,-0.01556391,0.00324651,0.00179202,-0.00480863,0.0
 6467903,0.58147410,0.01082858,-0.02075867,-0.00493449,0.00121696,-0.00
 005897,0.00000640,0.00429125,-0.00062048,-0.00362040,0.00008967,0.0015
 7669,-0.00075452,-0.00003961,0.00011211,-0.00029773,-0.00039604,-0.000
 01696,-0.00071793,-0.00008292,0.00199584,0.00006641,0.00007395,0.00010
 064,-0.00046596,-0.00297321,-0.00155444,-0.00298416,0.00022004,-0.0007
 9396,-0.00048574,0.01577092,-0.04740651,-0.09112910,0.00124221,0.00476
 198,0.00953450,-0.00786330,0.00585799,0.01176867,0.08289130,0.03536859
 ,0.14882766,0.00152418,-0.00174682,0.00013460,0.00017462,0.00024229,0.
 00033610,0.00393124,-0.00269968,-0.00550185,-0.00023630,0.00006777,-0.
 00002575,0.00001157,0.00003818,-0.00013628,0.00003844,0.00003836,-0.00
 020459,-0.00016460,0.00018352,-0.00004580,-0.00000005,0.00002298,-0.00
 008533,-0.00054716,-0.00024289,-0.00044477,-0.00007118,-0.00007865,0.0
 0001675,-0.01118981,0.01152826,0.00028399,-0.00075476,-0.00242811,0.00
 012884,0.00145025,0.00038443,-0.00038998,-0.37921951,0.06401750,-0.111
 87131,0.40613290,-0.00101641,-0.00012057,-0.00023554,0.00016516,0.0000
 7901,-0.00032951,0.00197569,-0.00253094,-0.00380493,-0.00022990,-0.000
 12804,-0.00010635,0.00001847,0.00004236,-0.00005551,-0.00004331,-0.000
 01372,0.00002299,-0.00012218,-0.00006497,0.00008729,-0.00001038,-0.000
 00825,0.00001210,-0.00002787,0.00011826,0.00008106,-0.00006303,-0.0001
 0645,0.00014247,0.02696054,0.00164958,0.01532732,-0.00429751,-0.000201
 19,-0.00094461,0.00558007,-0.00399489,-0.00410279,0.08108989,-0.083810
 05,0.01462821,-0.07826257,0.07592196,-0.00135336,0.00016783,-0.0005277
 2,0.00009266,-0.00004445,-0.00057548,0.00074401,-0.00254012,-0.0034861
 7,-0.00025528,0.00010536,-0.00033084,0.00001341,0.00001250,-0.00006248
 ,-0.00016170,-0.00014746,0.00000634,-0.00000200,-0.00010109,0.00019597
 ,-0.00001490,-0.00001119,0.00002254,0.00019109,0.00021582,0.00005896,-
 0.00003205,-0.00002052,0.00023671,0.02033425,-0.00680170,0.00315587,-0
 .00049238,0.00063196,-0.00197567,0.00497715,-0.00498390,0.00070375,-0.
 15025726,0.02601654,-0.05700580,0.11998218,-0.01547624,0.06027096,-0.0
 0098658,0.00032605,0.00009571,-0.00019592,-0.00013289,-0.00013641,-0.0
 0066763,0.00045377,0.00054985,-0.00005224,-0.00000743,-0.00003102,-0.0
 0000147,-0.00000642,0.00002118,0.00002050,0.00001707,0.00006048,-0.000
 09964,-0.00009075,-0.00004216,-0.00000247,-0.00000133,0.00006550,0.000
 39637,0.00002887,0.00040343,-0.00010203,0.00012449,0.00009195,0.014097
 69,0.00952381,-0.00132378,0.00043847,0.00664049,0.00146435,-0.00290375
 ,-0.00085299,-0.00038570,-0.21241429,-0.18137478,0.01302936,-0.0119103
 2,-0.02934694,0.00705151,0.21464786,0.00091119,0.00130846,0.00034131,-
 0.00013462,-0.00002610,-0.00002980,-0.00001942,-0.00056401,-0.00037913
 ,-0.00005639,-0.00010322,0.00020432,0.00000432,-0.00000590,0.00003133,
 0.00018007,0.00004043,0.00012493,0.00010428,-0.00012010,-0.00017165,-0
 .00002709,0.00000815,0.00001517,-0.00006626,0.00003641,-0.00006344,0.0
 0007112,0.00006385,-0.00013542,-0.02108859,-0.02155430,0.00599971,0.00
 183596,-0.00487711,-0.00316467,0.00097606,0.00478193,0.00040866,-0.187
 28648,-0.29668649,0.00876146,0.00821009,0.01123485,0.00033960,0.195677
 01,0.30537768,0.00144856,0.00048449,-0.00034481,-0.00026085,0.00020568
 ,-0.00029152,-0.00072145,-0.00011382,0.00063988,-0.00010758,-0.0001274
 1,0.00023533,-0.00000169,-0.00002961,0.00001217,0.00025435,0.00001888,
 0.00005833,0.00019398,0.00013499,-0.00031579,-0.00002232,0.00000659,-0
 .00003458,-0.00007030,0.00022529,-0.00040089,0.00020884,-0.00015426,0.
 00000274,-0.00592080,-0.01960903,-0.00484086,-0.00010709,-0.00238540,0
 .00246555,-0.00219932,0.00188602,-0.00201300,0.03322511,0.04300301,-0.
 00969733,-0.00621819,-0.00963009,-0.00278230,-0.01923737,-0.01355976,0
 .01832816,0.00058300,-0.00110304,0.00530555,-0.03077744,-0.03971726,-0
 .01116970,-0.37025057,-0.30596961,-0.14127153,-0.00326746,-0.00151774,
 -0.00360324,-0.00015894,-0.00076528,0.00110724,0.00093588,0.00177251,0
 .00037387,-0.00117198,-0.00037065,-0.00141996,0.00004543,-0.00024023,-
 0.00000087,-0.00321128,0.00114849,0.00120679,-0.00058064,0.00007554,0.
 00053017,-0.00014808,-0.00289546,0.00623084,0.00133940,0.00181253,-0.0
 0148672,-0.00069795,0.00044829,-0.00163097,0.00064746,-0.00042974,-0.0
 0225689,-0.00023075,0.00007529,0.00067700,0.00007323,0.00026274,0.0003
 5681,0.38080681,-0.00075659,0.00055797,0.00531867,-0.03152921,-0.00559
 180,-0.00996173,-0.31026884,-0.41883687,-0.17470473,0.00051280,0.00011
 007,-0.00413565,0.00041733,-0.00041180,0.00072457,-0.00001592,-0.00000
 783,0.00032660,0.00003674,0.00005931,-0.00028960,0.00000278,-0.0000136
 4,0.00007568,-0.00152307,-0.00041423,-0.00086313,-0.00035522,-0.000236
 83,0.00032280,0.00239534,-0.00484241,0.00120129,0.00030476,0.00318666,
 0.00007544,-0.00106432,0.00088247,-0.00046745,-0.00126092,0.00029328,-
 0.00063101,0.00176015,0.00155939,0.00142586,-0.00030873,0.00045662,0.0
 0009612,0.36293754,0.47314815,0.00168579,0.00147632,-0.00126157,0.0035
 9623,-0.00043782,0.01903883,-0.14390990,-0.17854397,-0.18440511,0.0001
 1037,0.00091807,-0.00381397,0.00048345,-0.00031276,0.00166282,-0.00089
 571,-0.00002455,0.00186697,0.00089032,0.00000646,0.00062814,0.00015104
 ,-0.00002771,0.00011890,0.00133396,0.00040450,0.00057277,0.00021714,-0
 .00005578,-0.00025472,0.00404309,-0.00067588,-0.00430585,-0.00223548,-
 0.00016868,0.00097763,-0.00098117,0.00004540,0.00102263,-0.00169794,0.
 00036876,0.00074102,0.00203582,0.00120946,0.00108455,-0.00023297,0.000
 22493,-0.00011648,0.16424231,0.24763916,0.20341681,0.00128127,0.000192
 49,0.00065721,-0.00969582,0.01630004,0.03606347,-0.12137385,0.00825032
 ,0.06068824,-0.00599021,-0.00112999,-0.00096419,0.00008023,0.00074143,
 0.00011903,0.00046133,-0.00124471,0.00139546,-0.00035047,0.00003139,0.
 00014985,-0.00011462,0.00009883,0.00000999,-0.00019521,-0.00050265,0.0
 0012958,-0.00011202,-0.00007206,0.00013317,0.00197730,0.00241846,0.003
 04499,-0.00644973,0.00450624,-0.00476655,-0.00164099,-0.00041459,-0.00
 112018,-0.00115983,-0.00426760,-0.00408865,-0.00723582,-0.00097871,-0.
 00126504,-0.00050254,0.00071134,-0.00063483,0.02844537,-0.01728548,-0.
 01951262,0.33412298,-0.00075381,-0.00015222,0.00067431,-0.00265485,0.0
 1099416,-0.00020252,-0.00111897,-0.13302298,-0.07612386,0.00006439,0.0
 0088349,0.00036999,-0.00025751,-0.00040480,0.00072011,-0.00041313,-0.0
 0090297,0.00030981,0.00051643,0.00007942,0.00058851,0.00004211,0.00007
 174,0.00007825,0.00096629,-0.00019873,-0.00069345,0.00007100,-0.000019
 81,-0.00007118,0.00200169,-0.00878235,-0.00304023,0.00527293,0.0010040
 5,0.00266043,-0.00065438,0.00160017,0.00091188,-0.00391603,0.00074601,
 -0.00069636,-0.00001518,0.00071079,0.00071211,-0.00075571,0.00071631,-
 0.00041874,-0.01949568,-0.04588570,-0.06899360,0.08066535,0.27189397,-
 0.00135649,-0.00080722,-0.00246247,0.01687350,-0.01471146,-0.02186058,
 0.04985764,-0.09359293,-0.20962891,0.00383148,0.00106988,0.00139448,-0
 .00011404,-0.00114931,0.00067754,-0.00032270,0.00102511,-0.00013514,0.
 00070141,-0.00001950,0.00042563,0.00016966,-0.00013762,0.00013700,0.00
 184203,0.00095380,0.00019009,0.00036855,0.00020204,-0.00046031,0.00765
 888,-0.00005645,-0.01307152,-0.00840532,0.00197689,0.00259900,-0.00171
 848,-0.00000922,0.00298369,-0.00532211,-0.00178468,0.00250731,0.001351
 34,0.00246848,-0.00100048,-0.00134535,0.00089031,-0.00093094,-0.018736
 26,-0.07121139,-0.04006705,-0.15688402,0.12677705,0.41317497,0.0002401
 0,-0.00015620,-0.00074733,0.00424010,-0.00255102,0.00126656,-0.0137979
 0,0.01601450,0.03564336,-0.00022699,0.00050862,0.00044355,0.00005234,-
 0.00022179,0.00008442,0.00004278,0.00023659,0.00024875,0.00023081,0.00
 005221,-0.00000300,0.00004606,-0.00002256,-0.00002283,0.00017649,0.000
 16965,-0.00009390,0.00004718,0.00005072,-0.00006351,-0.00306029,-0.000
 50828,-0.00111682,0.00190871,-0.00090210,0.00119377,0.00109478,0.00000
 061,0.00042735,0.00043054,0.00078055,0.00092394,-0.00122356,-0.0014648
 0,-0.00172933,0.00016224,-0.00028484,-0.00014567,-0.00768928,-0.008087
 26,-0.01048053,-0.16127870,-0.04254511,0.05901095,0.52546317,-0.000421
 81,-0.00017992,-0.00006968,-0.00064646,-0.00069246,-0.00547538,0.01930
 328,0.01294877,-0.00745760,0.00145836,0.00040720,-0.00038678,-0.000041
 89,-0.00006371,0.00005858,-0.00026047,0.00016321,-0.00039371,0.0000110
 9,-0.00001781,0.00006099,0.00002337,0.00000368,0.00000865,0.00014162,-
 0.00003897,0.00010455,0.00002575,-0.00000080,-0.00003785,-0.00014490,0
 .00260882,-0.00033745,-0.00038599,-0.00155886,0.00085067,0.00010098,-0
 .00056649,0.00013194,0.00042515,-0.00046588,-0.00021060,-0.00155258,-0
 .00058279,0.00032390,0.00014155,-0.00018600,-0.00004641,0.00256941,-0.
 00533320,-0.00361945,-0.06024295,-0.10017831,0.02759516,-0.04065928,0.
 61117449,0.00028414,0.00035201,-0.00007041,0.00029020,-0.00325924,0.00
 073041,0.03677340,-0.00174223,-0.03965728,-0.00007720,-0.00007475,-0.0
 0007892,0.00008562,-0.00004365,-0.00016908,-0.00006079,0.00018294,-0.0
 0002374,-0.00006142,-0.00004638,0.00006672,-0.00002614,-0.00004939,0.0
 0000452,-0.00002499,0.00030347,-0.00009571,-0.00001737,-0.00001604,0.0
 0004452,0.00255690,-0.00092691,0.00191646,-0.00118846,0.00108559,-0.00
 142987,-0.00059638,0.00014344,-0.00041543,-0.00053015,-0.00061799,-0.0
 0188679,-0.00026809,0.00092852,0.00279543,-0.00012539,0.00019250,-0.00
 001284,0.00316719,0.00904926,0.00418098,0.04615619,0.00819808,-0.11135
 730,0.06231437,0.04698058,0.58813138,-0.00146367,-0.00031962,-0.000093
 12,-0.00392085,-0.00313791,0.00222012,0.00108869,0.00011983,0.00098305
 ,0.00484371,-0.00285606,0.02757881,0.00054682,0.00120486,-0.00037020,-
 0.05927182,-0.00439489,-0.00192889,0.00521208,0.00309219,-0.02741730,0
 .00062128,0.00105193,0.00061684,-0.00409423,-0.00242583,-0.00287398,0.
 00022720,0.00024883,-0.00119942,-0.00047829,0.00015601,0.00011847,0.00
 021450,0.00011519,-0.00003945,0.00023305,0.00005655,-0.00014253,0.0000
 5201,0.00001438,0.00005034,-0.00002922,-0.00003680,-0.00002635,-0.0000
 0323,0.00000297,0.00001253,-0.00027487,-0.00011046,-0.00018915,-0.0005
 3285,0.00004495,0.00041034,0.00004133,0.00011943,-0.00002822,0.0570552
 0,-0.00035596,-0.00048925,-0.00013721,-0.00287379,0.00612735,0.0018392
 3,0.00044234,0.00015884,0.00033425,0.00069310,0.00350687,0.00784912,0.
 00126285,-0.00367756,-0.00051097,-0.00474221,-0.04510053,0.03260900,0.
 00019950,0.00499216,-0.00485529,0.00109803,-0.00387948,-0.00037041,-0.
 00254454,0.00697791,0.00008062,0.00007462,-0.00006040,-0.00030605,0.00
 013029,-0.00092105,-0.00035600,-0.00016240,-0.00007841,0.00017190,0.00
 015037,0.00004174,0.00006346,0.00010441,-0.00011748,-0.00029961,-0.000
 04016,-0.00000161,-0.00000280,0.00000148,0.00002030,-0.00000128,-0.000
 20350,-0.00014863,-0.00002010,-0.00024421,-0.00004655,0.00016393,-0.00
 004307,0.00004328,-0.00003480,0.00707866,0.03265134,-0.00003373,-0.000
 17441,0.00083541,0.00239643,0.00133964,0.00069216,-0.00089969,-0.00019
 617,-0.00019460,-0.00219380,0.00095408,-0.00962233,0.00021997,-0.00044
 210,0.00059526,-0.00194231,0.03283726,-0.34709541,0.00240808,0.0022303
 2,-0.01061866,-0.00000277,-0.00052704,0.00061718,-0.00312723,0.0000518
 8,0.00027807,0.00028066,0.00010385,-0.00051269,-0.00011017,-0.00008647
 ,0.00009206,0.00000791,0.00006076,-0.00005642,0.00004609,0.00004967,-0
 .00015231,0.00004243,-0.00008070,-0.00007897,0.00000364,0.00001796,0.0
 0002142,-0.00000207,0.00001883,0.00001093,0.00030387,0.00014549,0.0000
 4489,0.00036751,-0.00000612,-0.00030960,-0.00008774,-0.00007168,0.0000
 4948,0.00227668,-0.03624235,0.36543724,0.00011714,-0.00006784,0.000081
 58,0.00004923,0.00076019,0.00113278,-0.00504215,-0.00541637,-0.0008804
 2,-0.00039915,-0.00009535,-0.00000079,-0.00000325,0.00003274,-0.000005
 39,0.00003143,-0.00006700,0.00007928,-0.00001591,0.00000531,0.00000350
 ,-0.00000549,0.00000813,-0.00000809,-0.00007437,-0.00004719,-0.0000620
 9,-0.00002114,-0.00001232,0.00002750,-0.00033373,0.00058691,0.00089940
 ,0.00012926,-0.00006833,-0.00038866,0.00013839,-0.00011681,-0.00018887
 ,0.00035597,-0.00016022,-0.00048805,-0.00062668,-0.00026131,0.00060391
 ,0.00007566,-0.00008938,-0.00003000,0.00239613,0.00103100,-0.00069647,
 -0.01176707,0.01885836,0.03235015,-0.05103271,0.01128841,0.00772535,-0
 .00003569,-0.00001270,0.00002063,0.05970765,0.00002395,0.00000675,0.00
 005394,-0.00006109,0.00047328,0.00037230,-0.00353567,-0.00201971,0.000
 85029,-0.00008060,-0.00001146,0.00001916,-0.00000106,0.00001136,0.0000
 2890,0.00002353,-0.00004999,0.00003812,0.00000257,0.00000319,-0.000001
 09,0.00000090,0.00000467,0.00000164,0.00000861,-0.00002440,0.00000036,
 -0.00000004,-0.00000114,-0.00000341,0.00008473,-0.00012482,-0.00025387
 ,0.00005113,0.00012549,0.00018990,0.00004970,0.00002582,0.00003218,-0.
 00006895,-0.00000334,0.00016483,0.00011923,0.00020032,-0.00027720,-0.0
 0002149,0.00001487,0.00002714,0.00146757,0.00120381,-0.00077008,-0.004
 59619,0.01006288,0.01579689,0.01874843,-0.17692721,-0.14561163,-0.0000
 0650,0.00000113,0.00000365,-0.01315641,0.18084003,-0.00006957,0.000020
 70,-0.00006335,0.00004888,-0.00056608,-0.00054126,0.00209407,0.0030104
 1,0.00087009,0.00027513,0.00009462,-0.00003060,-0.00000490,-0.00004256
 ,0.00002309,-0.00005753,0.00004923,-0.00002566,0.00005486,0.00000847,0
 .00003235,0.00001079,-0.00000860,0.00000199,0.00008558,0.00004990,-0.0
 0001880,0.00001682,0.00000840,-0.00001919,-0.00006100,-0.00027254,-0.0
 0054098,0.00009413,-0.00004035,0.00015104,0.00001268,0.00004479,0.0001
 2716,-0.00005982,0.00028642,0.00020862,0.00057209,-0.00012602,-0.00017
 509,0.00001422,-0.00002180,0.00000708,0.00007502,-0.00047259,0.0001971
 8,0.00776146,-0.01052270,-0.01937857,0.01519830,-0.13680402,-0.2107920
 3,0.00002562,0.00000478,-0.00002076,-0.02637677,0.15046738,0.23006926,
 0.00006931,0.00021311,0.00014476,-0.00063220,0.00063141,-0.00062585,0.
 00120867,-0.00441766,-0.00301436,0.00003598,-0.00004889,-0.00014389,-0
 .00000347,0.00003983,-0.00002197,-0.00001499,-0.00002078,-0.00007256,-
 0.00004599,-0.00002483,-0.00002133,-0.00000407,0.00000693,-0.00001337,
 -0.00011134,-0.00005388,-0.00006847,-0.00003191,-0.00001358,0.00003973
 ,-0.00080803,-0.00178524,0.00113567,0.00119928,0.00093698,-0.00044726,
 0.00029426,0.00035219,-0.00019384,0.00008580,0.00028828,-0.00028820,0.
 00012154,0.00000833,0.00039445,-0.00003961,0.00006167,0.00000963,0.000
 51466,0.00093866,0.00127678,-0.00440421,-0.03194947,0.02117360,-0.0652
 9428,0.06652949,-0.02542567,-0.00000809,0.00000321,0.00000859,0.000099
 52,0.00091425,-0.00162167,0.07076240,0.00008386,0.00010711,0.00003103,
 -0.00009915,-0.00008102,0.00029817,0.00088961,-0.00078524,-0.00359482,
 -0.00002494,0.00001496,-0.00007051,0.00000114,0.00001781,-0.00001837,-
 0.00001375,-0.00003918,-0.00002433,-0.00000792,-0.00000605,0.00000733,
 -0.00000306,0.00000417,-0.00000445,-0.00002345,0.00000837,-0.00000916,
 -0.00000438,-0.00000044,0.00001470,-0.00030103,-0.00059757,0.00043279,
 0.00018430,0.00019589,-0.00047112,0.00007485,0.00012790,-0.00006895,0.
 00000931,0.00013374,-0.00019266,0.00018687,-0.00009729,0.00032320,-0.0
 0000287,0.00001199,-0.00001246,0.00055094,0.00073740,0.00081170,-0.007
 44081,-0.00767279,0.00881965,0.05822049,-0.28769146,0.08355212,-0.0000
 0572,-0.00000011,0.00000447,0.00499079,-0.01510494,0.00672092,-0.05751
 964,0.30803565,0.00000601,-0.00003722,-0.00009258,0.00033757,-0.000535
 42,0.00024899,0.00109178,0.00690404,0.00343638,-0.00008277,-0.00000881
 ,0.00011200,0.00000290,-0.00000158,-0.00002187,0.00003743,0.00002598,0
 .00002194,0.00000874,0.00001208,-0.00001498,0.00000146,-0.00000816,-0.
 00000343,-0.00001546,0.00005245,-0.00000269,0.00000233,0.00000895,-0.0
 0000249,-0.00014337,0.00013544,-0.00006699,0.00000076,-0.00019878,-0.0
 0012798,-0.00000796,-0.00003146,0.00001652,0.00006528,0.00004873,0.000
 04122,0.00010569,-0.00013865,-0.00015787,0.00001527,-0.00003019,-0.000
 02637,-0.00202272,-0.00214737,0.00020794,0.00622457,0.01865146,-0.0145
 7088,-0.02133251,0.07799803,-0.08072381,-0.00000110,-0.00000212,-0.000
 00354,0.00517515,-0.02340720,0.01134091,0.01522940,-0.09454762,0.08521
 477,0.00007858,0.00002361,-0.00000790,0.00022463,0.00005420,0.00071635
 ,-0.00107115,-0.00547914,-0.00631604,-0.00019101,0.00003046,-0.0001045
 1,0.00000034,0.00001168,0.00003040,-0.00002467,-0.00005324,0.00009915,
 0.00003142,0.00001686,0.00005347,-0.00000409,-0.00000171,0.00000851,0.
 00005572,0.00001977,-0.00005290,-0.00000100,-0.00000443,-0.00000016,0.
 00081515,-0.00010560,0.00016948,-0.00027356,0.00015910,-0.00016908,-0.
 00018737,0.00001010,-0.00003150,-0.00019966,-0.00015386,-0.00028032,0.
 00005497,0.00028828,0.00052803,-0.00003031,0.00004426,-0.00003235,0.00
 267186,0.00222892,0.00076563,-0.03356454,-0.00397366,-0.00139474,-0.23
 057295,0.00221846,-0.13092310,-0.00002307,-0.00001628,0.00001699,0.006
 25696,0.00003339,0.00191162,-0.00299325,0.00025456,-0.00469845,0.25894
 699,0.00001108,0.00004863,0.00007653,-0.00011880,-0.00008046,0.0000309
 8,0.00175050,0.00087765,-0.00070766,-0.00005472,-0.00003737,-0.0000462
 5,0.00000997,0.00002705,-0.00001793,-0.00002363,-0.00001247,0.00001815
 ,0.00000223,-0.00000854,0.00002132,-0.00000389,-0.00000220,-0.00000192
 ,-0.00003557,0.00002793,-0.00006399,-0.00001428,-0.00000175,0.00001664
 ,-0.00000986,-0.00078047,0.00030415,0.00027170,0.00044370,-0.00034832,
 0.00001612,0.00015440,-0.00006078,-0.00009224,0.00012212,-0.00008812,0
 .00026703,0.00014425,0.00013198,-0.00003226,0.00005139,0.00000006,-0.0
 0041264,-0.00047220,0.00054561,-0.01549595,-0.00149576,-0.00425939,0.0
 0266395,-0.05286559,0.00145450,-0.00001201,0.00000014,0.00000917,-0.01
 799062,0.00129342,-0.01188875,0.02490963,0.00268111,0.01725741,0.00439
 426,0.04988503,-0.00021414,-0.00010600,0.00011199,-0.00058118,0.000585
 97,-0.00087254,0.00184867,0.00220494,0.00284962,0.00026206,-0.00002064
 ,-0.00001724,-0.00000150,-0.00000408,-0.00001040,-0.00004290,-0.000024
 68,-0.00006786,0.00001464,-0.00000590,0.00001734,0.,0.00000168,0.00000
 468,0.00001641,-0.00000593,-0.00000355,0.00000440,-0.00000093,-0.00001
 018,0.00000634,0.00028260,-0.00053958,-0.00015945,-0.00027029,0.000356
 25,-0.00006585,-0.00005003,0.00008152,-0.00005373,0.00007262,0.0003571
 2,0.00024088,0.00002437,-0.00047261,-0.00000057,0.00000279,0.00004755,
 0.00002218,-0.00151628,-0.00153730,0.02633534,0.00011677,0.01114405,-0
 .14093216,0.00079756,-0.15120671,0.00001692,0.00002269,-0.00000880,-0.
 01897363,0.00227779,-0.01142245,-0.00745416,-0.00200162,-0.00482520,0.
 13971142,-0.00238340,0.15602432\\-0.00000318,-0.00000258,0.00000041,0.
 00000992,0.00000252,-0.00001221,-0.00002732,-0.00000441,0.00000468,0.0
 0000373,0.00000419,0.00000481,0.00000165,-0.00000041,-0.00000106,0.000
 00193,0.00000123,0.00000052,0.00000377,0.00000255,0.00000219,0.0000011
 1,0.00000385,0.00000257,-0.00000024,0.00000135,-0.00000170,0.00000026,
 -0.00000048,0.00000287,0.00001045,-0.00001179,-0.00000894,-0.00000400,
 0.00000401,-0.00000027,-0.00000221,0.00000025,0.00000461,-0.00001056,0
 .00000560,0.00001477,-0.00000082,0.00000266,-0.00000051,-0.00000447,-0
 .00000153,-0.00000060,0.00001054,0.00000510,-0.00000052,0.00002259,-0.
 00000617,-0.00000237,-0.00001638,-0.00000219,0.00000158,0.00000374,0.0
 0000124,0.00000095,-0.00000308,0.00000051,-0.00000590,0.00000097,-0.00
 000131,-0.00000249,0.00000161,-0.00000419,-0.00000336\\\@
 The archive entry for this job was punched.


 The cat could very well be man's best friend
 but would never stoop to admitting it.
                               -- Doug Larson
 Job cpu time:       0 days  1 hours 29 minutes 14.8 seconds.
 Elapsed time:       0 days  0 hours  5 minutes 36.8 seconds.
 File lengths (MBytes):  RWF=    218 Int=      0 D2E=      0 Chk=      8 Scr=      1
 Normal termination of Gaussian 16 at Sun May 22 15:58:22 2022.
