 Entering Gaussian System, Link 0=g16
 AtFile(1): /home/561/yj5695/Basis/6-31pGd.gbs
 Initial command:
 /apps/gaussian/g16c01/g16/l1.exe "/jobfs/40918522.gadi-pbs/Gau-3155056.inp" -scrdir="/jobfs/40918522.gadi-pbs/"
 Entering Link 1 = /apps/gaussian/g16c01/g16/l1.exe PID=   3155057.
  
 Copyright (c) 1988-2019, Gaussian, Inc.  All Rights Reserved.
  
 This is part of the Gaussian(R) 16 program.  It is based on
 the Gaussian(R) 09 system (copyright 2009, Gaussian, Inc.),
 the Gaussian(R) 03 system (copyright 2003, Gaussian, Inc.),
 the Gaussian(R) 98 system (copyright 1998, Gaussian, Inc.),
 the Gaussian(R) 94 system (copyright 1995, Gaussian, Inc.),
 the Gaussian 92(TM) system (copyright 1992, Gaussian, Inc.),
 the Gaussian 90(TM) system (copyright 1990, Gaussian, Inc.),
 the Gaussian 88(TM) system (copyright 1988, Gaussian, Inc.),
 the Gaussian 86(TM) system (copyright 1986, Carnegie Mellon
 University), and the Gaussian 82(TM) system (copyright 1983,
 Carnegie Mellon University). Gaussian is a federally registered
 trademark of Gaussian, Inc.
  
 This software contains proprietary and confidential information,
 including trade secrets, belonging to Gaussian, Inc.
  
 This software is provided under written license and may be
 used, copied, transmitted, or stored only in accord with that
 written license.
  
 The following legend is applicable only to US Government
 contracts under FAR:
  
                    RESTRICTED RIGHTS LEGEND
  
 Use, reproduction and disclosure by the US Government is
 subject to restrictions as set forth in subparagraphs (a)
 and (c) of the Commercial Computer Software - Restricted
 Rights clause in FAR 52.227-19.
  
 Gaussian, Inc.
 340 Quinnipiac St., Bldg. 40, Wallingford CT 06492
  
  
 ---------------------------------------------------------------
 Warning -- This program may not be used in any manner that
 competes with the business of Gaussian, Inc. or will provide
 assistance to any competitor of Gaussian, Inc.  The licensee
 of this program is prohibited from giving any competitor of
 Gaussian, Inc. access to this program.  By using this program,
 the user acknowledges that Gaussian, Inc. is engaged in the
 business of creating and licensing software in the field of
 computational chemistry and represents and warrants to the
 licensee that it is not a competitor of Gaussian, Inc. and that
 it will not use this program in any manner prohibited above.
 ---------------------------------------------------------------
  

 Cite this work as:
 Gaussian 16, Revision C.01,
 M. J. Frisch, G. W. Trucks, H. B. Schlegel, G. E. Scuseria, 
 M. A. Robb, J. R. Cheeseman, G. Scalmani, V. Barone, 
 G. A. Petersson, H. Nakatsuji, X. Li, M. Caricato, A. V. Marenich, 
 J. Bloino, B. G. Janesko, R. Gomperts, B. Mennucci, H. P. Hratchian, 
 J. V. Ortiz, A. F. Izmaylov, J. L. Sonnenberg, D. Williams-Young, 
 F. Ding, F. Lipparini, F. Egidi, J. Goings, B. Peng, A. Petrone, 
 T. Henderson, D. Ranasinghe, V. G. Zakrzewski, J. Gao, N. Rega, 
 G. Zheng, W. Liang, M. Hada, M. Ehara, K. Toyota, R. Fukuda, 
 J. Hasegawa, M. Ishida, T. Nakajima, Y. Honda, O. Kitao, H. Nakai, 
 T. Vreven, K. Throssell, J. A. Montgomery, Jr., J. E. Peralta, 
 F. Ogliaro, M. J. Bearpark, J. J. Heyd, E. N. Brothers, K. N. Kudin, 
 V. N. Staroverov, T. A. Keith, R. Kobayashi, J. Normand, 
 K. Raghavachari, A. P. Rendell, J. C. Burant, S. S. Iyengar, 
 J. Tomasi, M. Cossi, J. M. Millam, M. Klene, C. Adamo, R. Cammi, 
 J. W. Ochterski, R. L. Martin, K. Morokuma, O. Farkas, 
 J. B. Foresman, and D. J. Fox, Gaussian, Inc., Wallingford CT, 2019.
 
 ******************************************
 Gaussian 16:  ES64L-G16RevC.01  3-Jul-2019
                22-May-2022 
 ******************************************
 %nproc=16
 Will use up to   16 processors via shared memory.
 %mem=20gb
 --------------------------------------------------
 #M062X/gen 6D INT(grid=ultrafine) OPT Freq=noraman
 --------------------------------------------------
 1/18=20,19=15,26=4,38=1/1,3;
 2/9=110,12=2,17=6,18=5,40=1/2;
 3/5=7,8=2,11=2,25=1,30=1,71=1,74=-55,75=-5/1,2,3;
 4//1;
 5/5=2,38=5/2;
 6/7=2,8=2,9=2,10=2,28=1/1;
 7//1,2,3,16;
 1/18=20,19=15,26=4/3(2);
 2/9=110/2;
 99//99;
 2/9=110/2;
 3/5=7,6=1,8=2,11=2,25=1,30=1,71=1,74=-55,75=-5,82=7/1,2,3;
 4/5=5,16=3,69=1/1;
 5/5=2,38=5/2;
 7//1,2,3,16;
 1/18=20,19=15,26=4/3(-5);
 2/9=110/2;
 6/7=2,8=2,9=2,10=2,19=2,28=1/1;
 99/9=1/99;
 ---------------
 HA.13.a2d3.freq
 ---------------
 Symbolic Z-matrix:
 Charge =  0 Multiplicity = 1
 C                    -1.44462   0.56536  -0.85821 
 C                    -2.45842   0.03426  -1.65035 
 H                    -3.30276  -0.47938  -1.20247 
 C                    -2.36114   0.16471  -3.03275 
 H                    -3.13637  -0.24896  -3.66786 
 C                    -1.26453   0.82498  -3.59268 
 C                    -1.12467   0.9831   -5.07164 
 C                    -0.25976   1.35637  -2.77946 
 H                     0.58766   1.86359  -3.2285 
 C                    -0.34411   1.22845  -1.39833 
 H                     0.4345    1.63102  -0.75768 
 S                    -1.57618   0.44017   0.91509 
 O                    -2.53209  -0.62219   1.22265 
 O                    -0.2214    0.37606   1.46167 
 N                    -2.23612   1.83889   1.48838 
 H                    -3.17801   1.99341   1.12263 
 H                    -1.6384    2.64686   1.30137 
 O                    -2.11703   0.41704  -5.75289 
 O                    -0.19805   1.56914  -5.60231 
 C                    -2.04703   0.52815  -7.18453 
 H                    -2.92998   0.01312  -7.55741 
 H                    -1.13789   0.047    -7.54986 
 H                    -2.06265   1.57982  -7.47644 
 

 GradGradGradGradGradGradGradGradGradGradGradGradGradGradGradGradGradGrad
 Berny optimization.
 Initialization pass.
                           ----------------------------
                           !    Initial Parameters    !
                           ! (Angstroms and Degrees)  !
 --------------------------                            --------------------------
 ! Name  Definition              Value          Derivative Info.                !
 --------------------------------------------------------------------------------
 ! R1    R(1,2)                  1.3919         estimate D2E/DX2                !
 ! R2    R(1,10)                 1.3938         estimate D2E/DX2                !
 ! R3    R(1,12)                 1.7826         estimate D2E/DX2                !
 ! R4    R(2,3)                  1.085          estimate D2E/DX2                !
 ! R5    R(2,4)                  1.392          estimate D2E/DX2                !
 ! R6    R(4,5)                  1.0842         estimate D2E/DX2                !
 ! R7    R(4,6)                  1.3972         estimate D2E/DX2                !
 ! R8    R(6,7)                  1.494          estimate D2E/DX2                !
 ! R9    R(6,8)                  1.3976         estimate D2E/DX2                !
 ! R10   R(7,18)                 1.3301         estimate D2E/DX2                !
 ! R11   R(7,19)                 1.2181         estimate D2E/DX2                !
 ! R12   R(8,9)                  1.0849         estimate D2E/DX2                !
 ! R13   R(8,10)                 1.3896         estimate D2E/DX2                !
 ! R14   R(10,11)                1.0857         estimate D2E/DX2                !
 ! R15   R(12,13)                1.4618         estimate D2E/DX2                !
 ! R16   R(12,14)                1.4623         estimate D2E/DX2                !
 ! R17   R(12,15)                1.6494         estimate D2E/DX2                !
 ! R18   R(15,16)                1.0222         estimate D2E/DX2                !
 ! R19   R(15,17)                1.0223         estimate D2E/DX2                !
 ! R20   R(18,20)                1.4376         estimate D2E/DX2                !
 ! R21   R(20,21)                1.0881         estimate D2E/DX2                !
 ! R22   R(20,22)                1.0916         estimate D2E/DX2                !
 ! R23   R(20,23)                1.0915         estimate D2E/DX2                !
 ! A1    A(2,1,10)             122.4192         estimate D2E/DX2                !
 ! A2    A(2,1,12)             119.0516         estimate D2E/DX2                !
 ! A3    A(10,1,12)            118.5026         estimate D2E/DX2                !
 ! A4    A(1,2,3)              120.8304         estimate D2E/DX2                !
 ! A5    A(1,2,4)              118.5905         estimate D2E/DX2                !
 ! A6    A(3,2,4)              120.5765         estimate D2E/DX2                !
 ! A7    A(2,4,5)              119.7387         estimate D2E/DX2                !
 ! A8    A(2,4,6)              119.8121         estimate D2E/DX2                !
 ! A9    A(5,4,6)              120.4491         estimate D2E/DX2                !
 ! A10   A(4,6,7)              121.3484         estimate D2E/DX2                !
 ! A11   A(4,6,8)              120.7152         estimate D2E/DX2                !
 ! A12   A(7,6,8)              117.9363         estimate D2E/DX2                !
 ! A13   A(6,7,18)             113.0873         estimate D2E/DX2                !
 ! A14   A(6,7,19)             123.6031         estimate D2E/DX2                !
 ! A15   A(18,7,19)            123.3095         estimate D2E/DX2                !
 ! A16   A(6,8,9)              119.8989         estimate D2E/DX2                !
 ! A17   A(6,8,10)             119.9792         estimate D2E/DX2                !
 ! A18   A(9,8,10)             120.1211         estimate D2E/DX2                !
 ! A19   A(1,10,8)             118.4826         estimate D2E/DX2                !
 ! A20   A(1,10,11)            120.9308         estimate D2E/DX2                !
 ! A21   A(8,10,11)            120.5853         estimate D2E/DX2                !
 ! A22   A(1,12,13)            107.9748         estimate D2E/DX2                !
 ! A23   A(1,12,14)            107.851          estimate D2E/DX2                !
 ! A24   A(1,12,15)            108.4056         estimate D2E/DX2                !
 ! A25   A(13,12,14)           119.6914         estimate D2E/DX2                !
 ! A26   A(13,12,15)           106.35           estimate D2E/DX2                !
 ! A27   A(14,12,15)           106.1381         estimate D2E/DX2                !
 ! A28   A(12,15,16)           111.8703         estimate D2E/DX2                !
 ! A29   A(12,15,17)           111.8824         estimate D2E/DX2                !
 ! A30   A(16,15,17)           110.7228         estimate D2E/DX2                !
 ! A31   A(7,18,20)            116.155          estimate D2E/DX2                !
 ! A32   A(18,20,21)           105.377          estimate D2E/DX2                !
 ! A33   A(18,20,22)           109.8631         estimate D2E/DX2                !
 ! A34   A(18,20,23)           109.8814         estimate D2E/DX2                !
 ! A35   A(21,20,22)           110.6415         estimate D2E/DX2                !
 ! A36   A(21,20,23)           110.6585         estimate D2E/DX2                !
 ! A37   A(22,20,23)           110.3105         estimate D2E/DX2                !
 ! D1    D(10,1,2,3)           179.8495         estimate D2E/DX2                !
 ! D2    D(10,1,2,4)             0.4343         estimate D2E/DX2                !
 ! D3    D(12,1,2,3)            -2.0547         estimate D2E/DX2                !
 ! D4    D(12,1,2,4)           178.5301         estimate D2E/DX2                !
 ! D5    D(2,1,10,8)            -0.2336         estimate D2E/DX2                !
 ! D6    D(2,1,10,11)         -179.8223         estimate D2E/DX2                !
 ! D7    D(12,1,10,8)         -178.3394         estimate D2E/DX2                !
 ! D8    D(12,1,10,11)           2.0719         estimate D2E/DX2                !
 ! D9    D(2,1,12,13)           19.5248         estimate D2E/DX2                !
 ! D10   D(2,1,12,14)          150.1846         estimate D2E/DX2                !
 ! D11   D(2,1,12,15)          -95.3011         estimate D2E/DX2                !
 ! D12   D(10,1,12,13)        -162.3042         estimate D2E/DX2                !
 ! D13   D(10,1,12,14)         -31.6445         estimate D2E/DX2                !
 ! D14   D(10,1,12,15)          82.8698         estimate D2E/DX2                !
 ! D15   D(1,2,4,5)            179.5162         estimate D2E/DX2                !
 ! D16   D(1,2,4,6)             -0.3517         estimate D2E/DX2                !
 ! D17   D(3,2,4,5)              0.0995         estimate D2E/DX2                !
 ! D18   D(3,2,4,6)           -179.7684         estimate D2E/DX2                !
 ! D19   D(2,4,6,7)            179.9223         estimate D2E/DX2                !
 ! D20   D(2,4,6,8)              0.0843         estimate D2E/DX2                !
 ! D21   D(5,4,6,7)              0.0553         estimate D2E/DX2                !
 ! D22   D(5,4,6,8)           -179.7827         estimate D2E/DX2                !
 ! D23   D(4,6,7,18)            -1.2549         estimate D2E/DX2                !
 ! D24   D(4,6,7,19)           178.7724         estimate D2E/DX2                !
 ! D25   D(8,6,7,18)           178.5874         estimate D2E/DX2                !
 ! D26   D(8,6,7,19)            -1.3852         estimate D2E/DX2                !
 ! D27   D(4,6,8,9)            179.7931         estimate D2E/DX2                !
 ! D28   D(4,6,8,10)             0.1198         estimate D2E/DX2                !
 ! D29   D(7,6,8,9)             -0.0503         estimate D2E/DX2                !
 ! D30   D(7,6,8,10)          -179.7236         estimate D2E/DX2                !
 ! D31   D(6,7,18,20)         -179.9076         estimate D2E/DX2                !
 ! D32   D(19,7,18,20)           0.0651         estimate D2E/DX2                !
 ! D33   D(6,8,10,1)            -0.0477         estimate D2E/DX2                !
 ! D34   D(6,8,10,11)          179.5425         estimate D2E/DX2                !
 ! D35   D(9,8,10,1)          -179.7203         estimate D2E/DX2                !
 ! D36   D(9,8,10,11)           -0.1301         estimate D2E/DX2                !
 ! D37   D(1,12,15,16)          61.7941         estimate D2E/DX2                !
 ! D38   D(1,12,15,17)         -63.1032         estimate D2E/DX2                !
 ! D39   D(13,12,15,16)        -54.0908         estimate D2E/DX2                !
 ! D40   D(13,12,15,17)       -178.9881         estimate D2E/DX2                !
 ! D41   D(14,12,15,16)        177.4274         estimate D2E/DX2                !
 ! D42   D(14,12,15,17)         52.5301         estimate D2E/DX2                !
 ! D43   D(7,18,20,21)         179.9923         estimate D2E/DX2                !
 ! D44   D(7,18,20,22)          60.7773         estimate D2E/DX2                !
 ! D45   D(7,18,20,23)         -60.7632         estimate D2E/DX2                !
 --------------------------------------------------------------------------------
 Trust Radius=3.00D-01 FncErr=1.00D-07 GrdErr=1.00D-06 EigMax=2.50D+02 EigMin=1.00D-04
 Number of steps in this run=    115 maximum allowed number of steps=    138.
 GradGradGradGradGradGradGradGradGradGradGradGradGradGradGradGradGradGrad

                          Input orientation:                          
 ---------------------------------------------------------------------
 Center     Atomic      Atomic             Coordinates (Angstroms)
 Number     Number       Type             X           Y           Z
 ---------------------------------------------------------------------
      1          6           0       -1.444618    0.565359   -0.858212
      2          6           0       -2.458417    0.034258   -1.650346
      3          1           0       -3.302758   -0.479381   -1.202468
      4          6           0       -2.361140    0.164710   -3.032754
      5          1           0       -3.136370   -0.248956   -3.667859
      6          6           0       -1.264527    0.824977   -3.592682
      7          6           0       -1.124670    0.983103   -5.071644
      8          6           0       -0.259756    1.356373   -2.779455
      9          1           0        0.587660    1.863588   -3.228501
     10          6           0       -0.344107    1.228454   -1.398331
     11          1           0        0.434500    1.631016   -0.757683
     12         16           0       -1.576178    0.440174    0.915087
     13          8           0       -2.532095   -0.622186    1.222653
     14          8           0       -0.221398    0.376058    1.461671
     15          7           0       -2.236121    1.838890    1.488384
     16          1           0       -3.178005    1.993407    1.122632
     17          1           0       -1.638396    2.646857    1.301374
     18          8           0       -2.117030    0.417044   -5.752890
     19          8           0       -0.198053    1.569138   -5.602314
     20          6           0       -2.047028    0.528151   -7.184527
     21          1           0       -2.929976    0.013116   -7.557405
     22          1           0       -1.137892    0.046996   -7.549856
     23          1           0       -2.062647    1.579817   -7.476437
 ---------------------------------------------------------------------
                    Distance matrix (angstroms):
                    1          2          3          4          5
     1  C    0.000000
     2  C    1.391881   0.000000
     3  H    2.159323   1.085049   0.000000
     4  C    2.393568   1.391953   2.156721   0.000000
     5  H    3.379238   2.147135   2.481720   1.084186   0.000000
     6  C    2.752665   2.413147   3.401303   1.397152   2.159348
     7  C    4.246161   3.792686   4.674767   2.521051   2.745090
     8  C    2.391815   2.803031   3.888025   2.428999   3.411928
     9  H    3.381394   3.887879   4.972893   3.408802   4.303984
    10  C    1.393753   2.441295   3.421794   2.805587   3.889760
    11  H    2.162595   3.422784   4.314940   3.891222   4.975393
    12  S    1.782574   2.743094   2.882828   4.034538   4.890040
    13  O    2.631134   2.947960   2.548632   4.330926   4.941817
    14  O    2.629441   3.847821   4.162233   4.982271   5.932940
    15  N    2.784756   3.627359   3.708473   4.822779   5.635280
    16  H    2.994611   3.470660   3.396518   4.612877   5.289492
    17  H    3.005661   4.026259   4.337359   5.046591   5.943310
    18  O    4.942875   4.134481   4.787052   2.742699   2.414532
    19  O    5.006795   4.804492   5.761446   3.640605   3.959961
    20  C    6.355041   5.571385   6.194918   4.179471   3.762648
    21  H    6.884072   5.925889   6.384884   4.562786   3.903825
    22  H    6.718696   6.045508   6.727039   4.681282   4.376232
    23  H    6.723986   6.040589   6.718695   4.673108   4.359192
                    6          7          8          9         10
     6  C    0.000000
     7  C    1.493952   0.000000
     8  C    1.397599   2.478212   0.000000
     9  H    2.154516   2.665428   1.084907   0.000000
    10  C    2.413533   3.763337   1.389598   2.149676   0.000000
    11  H    3.402001   4.632608   2.155222   2.486460   1.085686
    12  S    4.534885   6.028232   4.027658   4.886473   2.737021
    13  O    5.185408   6.646500   5.009500   5.977015   3.883518
    14  O    5.180360   6.623338   4.353118   4.986484   2.986846
    15  N    5.271550   6.708327   4.727926   5.497576   3.505063
    16  H    5.221189   6.603480   4.914089   5.755818   3.869287
    17  H    5.235534   6.606614   4.496573   5.107700   3.312923
    18  O    2.357895   1.330150   3.629479   3.972453   4.771145
    19  O    2.393692   1.218059   2.831538   2.517744   4.220292
    20  C    3.688057   2.349894   4.825448   4.937117   6.072103
    21  H    4.376285   3.221648   5.635887   5.876855   6.789548
    22  H    4.034912   2.649152   5.024173   4.995163   6.314048
    23  H    4.036128   2.649320   5.036068   5.014939   6.326153
                   11         12         13         14         15
    11  H    0.000000
    12  S    2.873864   0.000000
    13  O    4.218926   1.461842   0.000000
    14  O    2.632614   1.462290   2.528427   0.000000
    15  N    3.495747   1.649424   2.493012   2.489920   0.000000
    16  H    4.088656   2.240861   2.696021   3.387077   1.022152
    17  H    3.093308   2.241102   3.389917   2.681438   1.022281
    18  O    5.739000   6.689916   7.064734   7.459557   7.380506
    19  O    4.886143   6.756501   7.538555   7.164067   7.382715
    20  C    6.977006   8.113766   8.499367   8.838144   8.773436
    21  H    7.757159   8.590592   8.811999   9.424004   9.254252
    22  H    7.149486   8.485396   8.907778   9.063987   9.279373
    23  H    7.167985   8.482518   8.985731   9.204836   8.970240
                   16         17         18         19         20
    16  H    0.000000
    17  H    1.682065   0.000000
    18  O    7.133260   7.413758   0.000000
    19  O    7.367837   7.134211   2.243317   0.000000
    20  C    8.510875   8.755936   1.437648   2.646840   0.000000
    21  H    8.906521   9.331813   2.019979   3.702295   1.088070
    22  H    9.119355   9.238726   2.079600   2.644454   1.091560
    23  H    8.680960   8.852600   2.079811   2.643703   1.091539
                   21         22         23
    21  H    0.000000
    22  H    1.792420   0.000000
    23  H    1.792587   1.791677   0.000000
 Stoichiometry    C8H9NO4S
 Framework group  C1[X(C8H9NO4S)]
 Deg. of freedom    63
 Full point group                 C1      NOp   1
 Largest Abelian subgroup         C1      NOp   1
 Largest concise Abelian subgroup C1      NOp   1
                         Standard orientation:                         
 ---------------------------------------------------------------------
 Center     Atomic      Atomic             Coordinates (Angstroms)
 Number     Number       Type             X           Y           Z
 ---------------------------------------------------------------------
      1          6           0        1.168748    0.009488   -0.099786
      2          6           0        0.416440   -1.161161   -0.069054
      3          1           0        0.899057   -2.132864   -0.083418
      4          6           0       -0.971357   -1.060326   -0.031867
      5          1           0       -1.575723   -1.960289   -0.015480
      6          6           0       -1.576184    0.199056   -0.018705
      7          6           0       -3.062288    0.347185    0.019284
      8          6           0       -0.802625    1.362774   -0.044256
      9          1           0       -1.286249    2.333896   -0.037016
     10          6           0        0.583536    1.274351   -0.085731
     11          1           0        1.193755    2.171897   -0.113313
     12         16           0        2.947643   -0.104710   -0.107593
     13          8           0        3.311317   -1.451576   -0.544256
     14          8           0        3.468163    1.055866   -0.828992
     15          7           0        3.485694    0.041246    1.444759
     16          1           0        3.134251   -0.710302    2.041801
     17          1           0        3.258630    0.955259    1.842354
     18          8           0       -3.703030   -0.818441    0.011214
     19          8           0       -3.631822    1.423344    0.053631
     20          6           0       -5.138788   -0.752600    0.044298
     21          1           0       -5.475422   -1.787210    0.031848
     22          1           0       -5.505872   -0.217916   -0.833691
     23          1           0       -5.466487   -0.251971    0.957228
 ---------------------------------------------------------------------
 Rotational constants (GHZ):           1.9946397           0.2633206           0.2449810
 General basis read from cards:  (6D, 7F)
 There are   288 symmetry adapted cartesian basis functions of A   symmetry.
 There are   288 symmetry adapted basis functions of A   symmetry.
   288 basis functions,   508 primitive gaussians,   288 cartesian basis functions
    56 alpha electrons       56 beta electrons
       nuclear repulsion energy      1005.5355259759 Hartrees.
 NAtoms=   23 NActive=   23 NUniq=   23 SFac= 1.00D+00 NAtFMM=   60 NAOKFM=F Big=F
 Integral buffers will be    131072 words long.
 Raffenetti 2 integral format.
 Two-electron integral symmetry is turned on.
 One-electron integrals computed using PRISM.
 NBasis=   288 RedAO= T EigKep=  2.03D-06  NBF=   288
 NBsUse=   287 1.00D-06 EigRej=  9.18D-07 NBFU=   287
 ExpMin= 4.05D-02 ExpMax= 2.19D+04 ExpMxC= 3.30D+03 IAcc=3 IRadAn=         5 AccDes= 0.00D+00
 Harris functional with IExCor= 1009 and IRadAn=       5 diagonalized for initial guess.
 HarFok:  IExCor= 1009 AccDes= 0.00D+00 IRadAn=         5 IDoV= 1 UseB2=F ITyADJ=14
 ICtDFT=  3500011 ScaDFX=  1.000000  1.000000  1.000000  1.000000
 FoFCou: FMM=F IPFlag=           0 FMFlag=      100000 FMFlg1=           0
         NFxFlg=           0 DoJE=T BraDBF=F KetDBF=T FulRan=T
         wScrn=  0.000000 ICntrl=       500 IOpCl=  0 I1Cent=   200000004 NGrid=           0
         NMat0=    1 NMatS0=      1 NMatT0=    0 NMatD0=    1 NMtDS0=    0 NMtDT0=    0
 Petite list used in FoFCou.
 Requested convergence on RMS density matrix=1.00D-08 within 128 cycles.
 Requested convergence on MAX density matrix=1.00D-06.
 Requested convergence on             energy=1.00D-06.
 No special actions if energy rises.
 SCF Done:  E(RM062X) =  -1063.76598082     A.U. after   16 cycles
            NFock= 16  Conv=0.56D-08     -V/T= 2.0066

 **********************************************************************

            Population analysis using the SCF Density.

 **********************************************************************

 Orbital symmetries:
       Occupied  (A) (A) (A) (A) (A) (A) (A) (A) (A) (A) (A) (A)
                 (A) (A) (A) (A) (A) (A) (A) (A) (A) (A) (A) (A)
                 (A) (A) (A) (A) (A) (A) (A) (A) (A) (A) (A) (A)
                 (A) (A) (A) (A) (A) (A) (A) (A) (A) (A) (A) (A)
                 (A) (A) (A) (A) (A) (A) (A) (A)
       Virtual   (A) (A) (A) (A) (A) (A) (A) (A) (A) (A) (A) (A)
                 (A) (A) (A) (A) (A) (A) (A) (A) (A) (A) (A) (A)
                 (A) (A) (A) (A) (A) (A) (A) (A) (A) (A) (A) (A)
                 (A) (A) (A) (A) (A) (A) (A) (A) (A) (A) (A) (A)
                 (A) (A) (A) (A) (A) (A) (A) (A) (A) (A) (A) (A)
                 (A) (A) (A) (A) (A) (A) (A) (A) (A) (A) (A) (A)
                 (A) (A) (A) (A) (A) (A) (A) (A) (A) (A) (A) (A)
                 (A) (A) (A) (A) (A) (A) (A) (A) (A) (A) (A) (A)
                 (A) (A) (A) (A) (A) (A) (A) (A) (A) (A) (A) (A)
                 (A) (A) (A) (A) (A) (A) (A) (A) (A) (A) (A) (A)
                 (A) (A) (A) (A) (A) (A) (A) (A) (A) (A) (A) (A)
                 (A) (A) (A) (A) (A) (A) (A) (A) (A) (A) (A) (A)
                 (A) (A) (A) (A) (A) (A) (A) (A) (A) (A) (A) (A)
                 (A) (A) (A) (A) (A) (A) (A) (A) (A) (A) (A) (A)
                 (A) (A) (A) (A) (A) (A) (A) (A) (A) (A) (A) (A)
                 (A) (A) (A) (A) (A) (A) (A) (A) (A) (A) (A) (A)
                 (A) (A) (A) (A) (A) (A) (A) (A) (A) (A) (A) (A)
                 (A) (A) (A) (A) (A) (A) (A) (A) (A) (A) (A) (A)
                 (A) (A) (A) (A) (A) (A) (A) (A) (A) (A) (A) (A)
                 (A) (A) (A)
 The electronic state is 1-A.
 Alpha  occ. eigenvalues --  -90.17507 -19.71551 -19.65545 -19.64853 -19.64776
 Alpha  occ. eigenvalues --  -14.81804 -10.70769 -10.62024 -10.61625 -10.60250
 Alpha  occ. eigenvalues --  -10.59779 -10.59738 -10.59497 -10.59309  -8.48487
 Alpha  occ. eigenvalues --   -6.40707  -6.40640  -6.40567  -1.26036  -1.24979
 Alpha  occ. eigenvalues --   -1.15863  -1.13159  -1.04333  -1.00860  -0.91499
 Alpha  occ. eigenvalues --   -0.88685  -0.84977  -0.78417  -0.73248  -0.71918
 Alpha  occ. eigenvalues --   -0.67534  -0.65703  -0.63231  -0.62930  -0.58947
 Alpha  occ. eigenvalues --   -0.58676  -0.58273  -0.55775  -0.55004  -0.53162
 Alpha  occ. eigenvalues --   -0.52576  -0.52252  -0.50222  -0.48181  -0.47258
 Alpha  occ. eigenvalues --   -0.45431  -0.44056  -0.42306  -0.40983  -0.40382
 Alpha  occ. eigenvalues --   -0.39567  -0.38482  -0.38315  -0.37493  -0.34582
 Alpha  occ. eigenvalues --   -0.34349
 Alpha virt. eigenvalues --   -0.05428  -0.01521  -0.00568   0.01049   0.02469
 Alpha virt. eigenvalues --    0.02697   0.03595   0.04145   0.04373   0.04967
 Alpha virt. eigenvalues --    0.05430   0.06112   0.06444   0.07457   0.07701
 Alpha virt. eigenvalues --    0.08184   0.08910   0.09576   0.09824   0.10562
 Alpha virt. eigenvalues --    0.11395   0.11845   0.12311   0.12941   0.13199
 Alpha virt. eigenvalues --    0.14050   0.14293   0.14919   0.15598   0.15827
 Alpha virt. eigenvalues --    0.16530   0.16965   0.17159   0.18617   0.19104
 Alpha virt. eigenvalues --    0.19178   0.19995   0.20114   0.20723   0.21021
 Alpha virt. eigenvalues --    0.21560   0.21916   0.23131   0.23690   0.24546
 Alpha virt. eigenvalues --    0.24796   0.25212   0.25293   0.25557   0.26265
 Alpha virt. eigenvalues --    0.27515   0.27708   0.28130   0.28424   0.29152
 Alpha virt. eigenvalues --    0.30146   0.30616   0.31035   0.31346   0.31868
 Alpha virt. eigenvalues --    0.32732   0.32751   0.33249   0.33711   0.34498
 Alpha virt. eigenvalues --    0.35430   0.35980   0.36757   0.37329   0.38830
 Alpha virt. eigenvalues --    0.39955   0.40161   0.40863   0.42694   0.43165
 Alpha virt. eigenvalues --    0.46669   0.46914   0.47890   0.49856   0.53405
 Alpha virt. eigenvalues --    0.56444   0.56855   0.58772   0.65155   0.66077
 Alpha virt. eigenvalues --    0.68314   0.69631   0.69869   0.70083   0.71595
 Alpha virt. eigenvalues --    0.73195   0.73838   0.75802   0.77357   0.78365
 Alpha virt. eigenvalues --    0.78624   0.79952   0.81345   0.81662   0.82279
 Alpha virt. eigenvalues --    0.85410   0.88651   0.89155   0.90910   0.93751
 Alpha virt. eigenvalues --    0.94680   0.95401   0.96200   0.99002   0.99137
 Alpha virt. eigenvalues --    1.01251   1.02055   1.02772   1.04449   1.06228
 Alpha virt. eigenvalues --    1.08835   1.09591   1.11272   1.11622   1.12419
 Alpha virt. eigenvalues --    1.13120   1.15504   1.16698   1.17196   1.18824
 Alpha virt. eigenvalues --    1.18910   1.22971   1.23623   1.26896   1.28353
 Alpha virt. eigenvalues --    1.29424   1.30318   1.31275   1.33019   1.35409
 Alpha virt. eigenvalues --    1.37113   1.37356   1.37947   1.38516   1.39312
 Alpha virt. eigenvalues --    1.39845   1.41121   1.41433   1.42331   1.42765
 Alpha virt. eigenvalues --    1.44238   1.47754   1.49052   1.50279   1.51744
 Alpha virt. eigenvalues --    1.52312   1.54660   1.57175   1.59192   1.60441
 Alpha virt. eigenvalues --    1.67278   1.73143   1.73683   1.75476   1.77838
 Alpha virt. eigenvalues --    1.78524   1.79469   1.80696   1.84132   1.85459
 Alpha virt. eigenvalues --    1.87293   1.88938   1.90275   1.91458   1.92493
 Alpha virt. eigenvalues --    1.93529   1.95509   2.01264   2.02221   2.03379
 Alpha virt. eigenvalues --    2.05504   2.06777   2.11682   2.12463   2.12857
 Alpha virt. eigenvalues --    2.13705   2.14990   2.16134   2.17287   2.18681
 Alpha virt. eigenvalues --    2.18785   2.19416   2.22469   2.24050   2.27704
 Alpha virt. eigenvalues --    2.29289   2.30977   2.34842   2.36061   2.36651
 Alpha virt. eigenvalues --    2.43223   2.45854   2.47656   2.51726   2.53277
 Alpha virt. eigenvalues --    2.61551   2.62802   2.65815   2.70596   2.73514
 Alpha virt. eigenvalues --    2.77687   2.79495   2.82221   2.85103   2.91769
 Alpha virt. eigenvalues --    2.93925   2.97172   2.98490   3.13530   3.15782
 Alpha virt. eigenvalues --    3.28004   3.40063   3.87508   4.07702   4.19405
 Alpha virt. eigenvalues --    4.23266   4.24371   4.25575   4.28475   4.33207
 Alpha virt. eigenvalues --    4.39339   4.39672   4.46674   4.55174   4.66732
 Alpha virt. eigenvalues --    4.75101
          Condensed to atoms (all electrons):
               1          2          3          4          5          6
     1  C   17.182490  -1.004229  -0.023993  -3.374685   0.031580  -1.053527
     2  C   -1.004229  22.975979   0.240429  -7.740329   0.001630   0.778389
     3  H   -0.023993   0.240429   0.431259   0.060155  -0.003231   0.026046
     4  C   -3.374685  -7.740329   0.060155  20.142596   0.324353  -0.237478
     5  H    0.031580   0.001630  -0.003231   0.324353   0.447111  -0.015276
     6  C   -1.053527   0.778389   0.026046  -0.237478  -0.015276  16.197717
     7  C   -2.298647  -1.539265   0.009956   1.637077  -0.025347  -7.164803
     8  C   -2.209950  -6.260087   0.000303  -0.530844  -0.008216   0.317289
     9  H    0.039776  -0.027006   0.000012   0.017736  -0.000103  -0.028319
    10  C    0.345391  -1.307137   0.001729  -3.747415  -0.015602  -1.374615
    11  H    0.005000   0.054040  -0.000109  -0.015762   0.000012   0.056476
    12  S   -0.125117   0.207938  -0.010031  -0.500274   0.001359  -0.642776
    13  O   -0.065756  -0.443688   0.000085  -0.032679   0.000167  -0.041266
    14  O   -0.053046   0.189448   0.000817   0.168265   0.000021  -0.063399
    15  N   -0.721781   0.072801   0.001600   0.247552  -0.000004   0.190247
    16  H    0.035675  -0.091232  -0.000032  -0.025320   0.000001  -0.009438
    17  H    0.038072   0.043320  -0.000000  -0.000241   0.000000  -0.004854
    18  O   -0.021520   0.164492   0.000202   0.040341   0.009154  -0.683236
    19  O    0.002932   0.051923   0.000021  -0.015410  -0.001043  -0.019233
    20  C   -0.005254  -0.109578   0.000185  -0.034069   0.000493  -0.298784
    21  H   -0.000322  -0.001311  -0.000000  -0.009822   0.000044   0.015753
    22  H    0.000193  -0.000134   0.000000   0.005404  -0.000004  -0.006429
    23  H    0.000362  -0.000032   0.000000   0.003768  -0.000002   0.004062
               7          8          9         10         11         12
     1  C   -2.298647  -2.209950   0.039776   0.345391   0.005000  -0.125117
     2  C   -1.539265  -6.260087  -0.027006  -1.307137   0.054040   0.207938
     3  H    0.009956   0.000303   0.000012   0.001729  -0.000109  -0.010031
     4  C    1.637077  -0.530844   0.017736  -3.747415  -0.015762  -0.500274
     5  H   -0.025347  -0.008216  -0.000103  -0.015602   0.000012   0.001359
     6  C   -7.164803   0.317289  -0.028319  -1.374615   0.056476  -0.642776
     7  C   14.538178  -0.443035   0.005882  -0.001486  -0.008315  -0.534296
     8  C   -0.443035  18.380691   0.355888  -3.047218  -0.099856  -0.372318
     9  H    0.005882   0.355888   0.436772  -0.064922  -0.002990   0.000006
    10  C   -0.001486  -3.047218  -0.064922  15.010400   0.309858  -0.231885
    11  H   -0.008315  -0.099856  -0.002990   0.309858   0.437292   0.005633
    12  S   -0.534296  -0.372318   0.000006  -0.231885   0.005633  16.843073
    13  O   -0.011754   0.151471   0.000020   0.251622   0.001011   0.322152
    14  O   -0.014720  -0.102410   0.000068  -0.371721  -0.000625   0.406607
    15  N    0.047694   0.312099  -0.000024   0.369556   0.000380  -1.104713
    16  H   -0.001226   0.003129  -0.000000   0.028549   0.000034   0.103629
    17  H   -0.001580  -0.033318   0.000001  -0.086925  -0.000077   0.092617
    18  O    0.505456  -0.072752   0.000327   0.029691   0.000050  -0.001274
    19  O    0.344235  -0.046312   0.005288   0.055454   0.000039   0.001166
    20  C    0.169237   0.057832   0.001115  -0.003505  -0.000066  -0.001658
    21  H    0.010751   0.004859   0.000000   0.000879   0.000000   0.000002
    22  H   -0.016496  -0.004615  -0.000000  -0.001355   0.000000   0.000001
    23  H   -0.024361  -0.003983  -0.000000  -0.001339   0.000000   0.000001
              13         14         15         16         17         18
     1  C   -0.065756  -0.053046  -0.721781   0.035675   0.038072  -0.021520
     2  C   -0.443688   0.189448   0.072801  -0.091232   0.043320   0.164492
     3  H    0.000085   0.000817   0.001600  -0.000032  -0.000000   0.000202
     4  C   -0.032679   0.168265   0.247552  -0.025320  -0.000241   0.040341
     5  H    0.000167   0.000021  -0.000004   0.000001   0.000000   0.009154
     6  C   -0.041266  -0.063399   0.190247  -0.009438  -0.004854  -0.683236
     7  C   -0.011754  -0.014720   0.047694  -0.001226  -0.001580   0.505456
     8  C    0.151471  -0.102410   0.312099   0.003129  -0.033318  -0.072752
     9  H    0.000020   0.000068  -0.000024  -0.000000   0.000001   0.000327
    10  C    0.251622  -0.371721   0.369556   0.028549  -0.086925   0.029691
    11  H    0.001011  -0.000625   0.000380   0.000034  -0.000077   0.000050
    12  S    0.322152   0.406607  -1.104713   0.103629   0.092617  -0.001274
    13  O    8.719460  -0.172462  -0.136868  -0.005718   0.010225  -0.000013
    14  O   -0.172462   8.686575  -0.151546   0.009691  -0.004818  -0.000014
    15  N   -0.136868  -0.151546   8.374061   0.211794   0.204580   0.000010
    16  H   -0.005718   0.009691   0.211794   0.318701  -0.021849  -0.000001
    17  H    0.010225  -0.004818   0.204580  -0.021849   0.321319   0.000000
    18  O   -0.000013  -0.000014   0.000010  -0.000001   0.000000   8.606807
    19  O    0.000001   0.000007  -0.000016   0.000000  -0.000000  -0.188692
    20  C   -0.000014   0.000009   0.000063   0.000001  -0.000001   0.072648
    21  H   -0.000000  -0.000000   0.000000  -0.000000  -0.000000  -0.062021
    22  H   -0.000000   0.000000  -0.000000   0.000000   0.000000  -0.027002
    23  H    0.000000   0.000000   0.000000   0.000000   0.000000  -0.027627
              19         20         21         22         23
     1  C    0.002932  -0.005254  -0.000322   0.000193   0.000362
     2  C    0.051923  -0.109578  -0.001311  -0.000134  -0.000032
     3  H    0.000021   0.000185  -0.000000   0.000000   0.000000
     4  C   -0.015410  -0.034069  -0.009822   0.005404   0.003768
     5  H   -0.001043   0.000493   0.000044  -0.000004  -0.000002
     6  C   -0.019233  -0.298784   0.015753  -0.006429   0.004062
     7  C    0.344235   0.169237   0.010751  -0.016496  -0.024361
     8  C   -0.046312   0.057832   0.004859  -0.004615  -0.003983
     9  H    0.005288   0.001115   0.000000  -0.000000  -0.000000
    10  C    0.055454  -0.003505   0.000879  -0.001355  -0.001339
    11  H    0.000039  -0.000066   0.000000   0.000000   0.000000
    12  S    0.001166  -0.001658   0.000002   0.000001   0.000001
    13  O    0.000001  -0.000014  -0.000000  -0.000000   0.000000
    14  O    0.000007   0.000009  -0.000000   0.000000   0.000000
    15  N   -0.000016   0.000063   0.000000  -0.000000   0.000000
    16  H    0.000000   0.000001  -0.000000   0.000000   0.000000
    17  H   -0.000000  -0.000001  -0.000000   0.000000   0.000000
    18  O   -0.188692   0.072648  -0.062021  -0.027002  -0.027627
    19  O    8.329430  -0.037363   0.001760   0.000305   0.000448
    20  C   -0.037363   5.333145   0.388253   0.406008   0.404027
    21  H    0.001760   0.388253   0.482053  -0.025848  -0.026164
    22  H    0.000305   0.406008  -0.025848   0.467920  -0.030594
    23  H    0.000448   0.404027  -0.026164  -0.030594   0.470291
 Mulliken charges:
               1
     1  C   -0.723644
     2  C   -0.256361
     3  H    0.264599
     4  C   -0.382919
     5  H    0.252903
     6  C    0.057456
     7  C    0.816864
     8  C   -0.348645
     9  H    0.260475
    10  C   -0.148004
    11  H    0.257977
    12  S    1.540157
    13  O   -0.545996
    14  O   -0.526746
    15  N   -0.917485
    16  H    0.443612
    17  H    0.443530
    18  O   -0.345029
    19  O   -0.484941
    20  C   -0.342723
    21  H    0.221132
    22  H    0.232645
    23  H    0.231142
 Sum of Mulliken charges =  -0.00000
 Mulliken charges with hydrogens summed into heavy atoms:
               1
     1  C   -0.723644
     2  C    0.008238
     4  C   -0.130016
     6  C    0.057456
     7  C    0.816864
     8  C   -0.088170
    10  C    0.109974
    12  S    1.540157
    13  O   -0.545996
    14  O   -0.526746
    15  N   -0.030343
    18  O   -0.345029
    19  O   -0.484941
    20  C    0.342196
 Electronic spatial extent (au):  <R**2>=           4252.3312
 Charge=              0.0000 electrons
 Dipole moment (field-independent basis, Debye):
    X=             -4.7347    Y=             -1.1515    Z=              3.9890  Tot=              6.2973
 Quadrupole moment (field-independent basis, Debye-Ang):
   XX=           -100.0688   YY=            -88.7762   ZZ=            -85.8515
   XY=             12.0786   XZ=             13.0553   YZ=              0.2567
 Traceless Quadrupole moment (field-independent basis, Debye-Ang):
   XX=             -8.5033   YY=              2.7893   ZZ=              5.7140
   XY=             12.0786   XZ=             13.0553   YZ=              0.2567
 Octapole moment (field-independent basis, Debye-Ang**2):
  XXX=           -173.0398  YYY=             -1.2379  ZZZ=             14.0852  XYY=              0.0117
  XXY=            -37.8860  XXZ=             36.5512  XZZ=              8.5459  YZZ=             -0.6880
  YYZ=              7.6722  XYZ=              3.3261
 Hexadecapole moment (field-independent basis, Debye-Ang**3):
 XXXX=          -4492.7060 YYYY=           -562.4952 ZZZZ=           -204.2730 XXXY=            232.8965
 XXXZ=             90.1884 YYYX=             45.6224 YYYZ=             -0.4960 ZZZX=             37.9679
 ZZZY=              0.1271 XXYY=           -945.8766 XXZZ=           -767.9385 YYZZ=           -138.1379
 XXYZ=              6.6520 YYXZ=             28.3615 ZZXY=             -5.6972
 N-N= 1.005535525976D+03 E-N=-4.508740503704D+03  KE= 1.056776386075D+03
 Calling FoFJK, ICntrl=      2127 FMM=F ISym2X=0 I1Cent= 0 IOpClX= 0 NMat=1 NMatS=1 NMatT=0.
 ***** Axes restored to original set *****
 -------------------------------------------------------------------
 Center     Atomic                   Forces (Hartrees/Bohr)
 Number     Number              X              Y              Z
 -------------------------------------------------------------------
      1        6          -0.001506648    0.002854735    0.001486970
      2        6           0.000529996    0.000988664   -0.001637039
      3        1           0.001002667   -0.000588499    0.001976160
      4        6           0.000408668    0.000159566    0.001025705
      5        1           0.000724671    0.000367111   -0.001286605
      6        6          -0.001188331   -0.000911508   -0.000737730
      7        6           0.015720461    0.009655455   -0.006141861
      8        6           0.000473372    0.000291511    0.000826739
      9        1          -0.000628738   -0.000299051   -0.002169562
     10        6          -0.001462885   -0.000029410   -0.002500778
     11        1          -0.000075965   -0.001632524    0.001302433
     12       16           0.012116845   -0.030888994    0.017650325
     13        8           0.002031508    0.011817089   -0.007417115
     14        8          -0.009256981    0.007331322   -0.008408919
     15        7          -0.005276366    0.013382612   -0.004983733
     16        1           0.001985147   -0.001113116    0.002844667
     17        1          -0.001198812   -0.002602234    0.002429943
     18        8          -0.006125921   -0.003284331   -0.004927766
     19        8          -0.009528308   -0.005987505    0.005892895
     20        6          -0.000127018   -0.000371726    0.004619608
     21        1          -0.000356376   -0.000243751    0.000356697
     22        1           0.000445193    0.001227948   -0.000053184
     23        1           0.001293823   -0.000123365   -0.000147851
 -------------------------------------------------------------------
 Cartesian Forces:  Max     0.030888994 RMS     0.006330242

 GradGradGradGradGradGradGradGradGradGradGradGradGradGradGradGradGradGrad
 Berny optimization.
 FormGI is forming the generalized inverse of G from B-inverse, IUseBI=4.
 Internal  Forces:  Max     0.012697328 RMS     0.002922523
 Search for a local minimum.
 Step number   1 out of a maximum of  115
 All quantities printed in internal units (Hartrees-Bohrs-Radians)
 Mixed Optimization -- RFO/linear search
 Second derivative matrix not updated -- first step.
 ITU=  0
     Eigenvalues ---    0.00601   0.00846   0.01194   0.01433   0.01570
     Eigenvalues ---    0.01753   0.01965   0.02134   0.02159   0.02172
     Eigenvalues ---    0.02186   0.02189   0.02196   0.02203   0.02616
     Eigenvalues ---    0.04561   0.09518   0.10259   0.10401   0.10713
     Eigenvalues ---    0.14210   0.15999   0.16000   0.16000   0.16000
     Eigenvalues ---    0.16000   0.16000   0.16000   0.16000   0.16000
     Eigenvalues ---    0.19764   0.22000   0.22993   0.23996   0.24987
     Eigenvalues ---    0.25000   0.25000   0.25000   0.25000   0.25000
     Eigenvalues ---    0.27539   0.33020   0.34633   0.34635   0.35037
     Eigenvalues ---    0.35316   0.35391   0.35408   0.35493   0.39910
     Eigenvalues ---    0.42328   0.42586   0.42737   0.43976   0.43996
     Eigenvalues ---    0.46255   0.46448   0.46902   0.47229   0.59470
     Eigenvalues ---    0.90654   0.90840   0.96249
 RFO step:  Lambda=-3.34904365D-03 EMin= 6.00818494D-03
 Linear search not attempted -- first point.
 Iteration  1 RMS(Cart)=  0.02305171 RMS(Int)=  0.00044105
 Iteration  2 RMS(Cart)=  0.00071324 RMS(Int)=  0.00015871
 Iteration  3 RMS(Cart)=  0.00000029 RMS(Int)=  0.00015871
 Variable       Old X    -DE/DX   Delta X   Delta X   Delta X     New X
                                 (Linear)    (Quad)   (Total)
    R1        2.63027  -0.00069   0.00000  -0.00146  -0.00145   2.62882
    R2        2.63381  -0.00007   0.00000  -0.00017  -0.00016   2.63365
    R3        3.36858   0.00222   0.00000   0.00796   0.00796   3.37654
    R4        2.05045   0.00031   0.00000   0.00088   0.00088   2.05132
    R5        2.63041   0.00153   0.00000   0.00324   0.00323   2.63364
    R6        2.04881   0.00010   0.00000   0.00027   0.00027   2.04908
    R7        2.64023  -0.00053   0.00000  -0.00113  -0.00114   2.63910
    R8        2.82316   0.00061   0.00000   0.00183   0.00183   2.82499
    R9        2.64108  -0.00107   0.00000  -0.00230  -0.00231   2.63877
   R10        2.51362   0.00491   0.00000   0.00821   0.00821   2.52183
   R11        2.30180  -0.01270   0.00000  -0.01315  -0.01315   2.28865
   R12        2.05018   0.00027   0.00000   0.00075   0.00075   2.05093
   R13        2.62596   0.00131   0.00000   0.00274   0.00274   2.62870
   R14        2.05165   0.00011   0.00000   0.00031   0.00031   2.05196
   R15        2.76248  -0.01148   0.00000  -0.01259  -0.01259   2.74989
   R16        2.76333  -0.01204   0.00000  -0.01323  -0.01323   2.75010
   R17        3.11696   0.01010   0.00000   0.02344   0.02344   3.14040
   R18        1.93159  -0.00302   0.00000  -0.00680  -0.00680   1.92479
   R19        1.93183  -0.00320   0.00000  -0.00723  -0.00723   1.92460
   R20        2.71676  -0.00466   0.00000  -0.01157  -0.01157   2.70519
   R21        2.05615   0.00028   0.00000   0.00080   0.00080   2.05696
   R22        2.06275  -0.00015   0.00000  -0.00044  -0.00044   2.06231
   R23        2.06271  -0.00010   0.00000  -0.00028  -0.00028   2.06243
    A1        2.13662  -0.00170   0.00000  -0.00672  -0.00675   2.12987
    A2        2.07784  -0.00004   0.00000   0.00014   0.00005   2.07790
    A3        2.06826   0.00175   0.00000   0.00719   0.00710   2.07536
    A4        2.10889  -0.00253   0.00000  -0.01477  -0.01481   2.09407
    A5        2.06979   0.00078   0.00000   0.00327   0.00326   2.07305
    A6        2.10446   0.00174   0.00000   0.01137   0.01133   2.11579
    A7        2.08983   0.00140   0.00000   0.00891   0.00891   2.09874
    A8        2.09112   0.00030   0.00000   0.00117   0.00116   2.09227
    A9        2.10223  -0.00170   0.00000  -0.01009  -0.01009   2.09214
   A10        2.11793   0.00174   0.00000   0.00695   0.00695   2.12487
   A11        2.10688  -0.00053   0.00000  -0.00227  -0.00228   2.10460
   A12        2.05838  -0.00121   0.00000  -0.00470  -0.00470   2.05368
   A13        1.97375  -0.00116   0.00000  -0.00458  -0.00459   1.96916
   A14        2.15728   0.00012   0.00000   0.00048   0.00048   2.15776
   A15        2.15216   0.00104   0.00000   0.00410   0.00410   2.15626
   A16        2.09263  -0.00230   0.00000  -0.01401  -0.01403   2.07860
   A17        2.09403  -0.00004   0.00000  -0.00044  -0.00043   2.09360
   A18        2.09651   0.00234   0.00000   0.01441   0.01440   2.11091
   A19        2.06791   0.00120   0.00000   0.00505   0.00502   2.07293
   A20        2.11064  -0.00226   0.00000  -0.01278  -0.01286   2.09778
   A21        2.10461   0.00106   0.00000   0.00760   0.00752   2.11213
   A22        1.88451  -0.00205   0.00000  -0.01486  -0.01540   1.86911
   A23        1.88236  -0.00158   0.00000  -0.01112  -0.01156   1.87079
   A24        1.89203  -0.00363   0.00000  -0.03386  -0.03450   1.85753
   A25        2.08901   0.00752   0.00000   0.06872   0.06885   2.15786
   A26        1.85616  -0.00061   0.00000  -0.00972  -0.01037   1.84579
   A27        1.85246  -0.00058   0.00000  -0.00807  -0.00859   1.84387
   A28        1.95250   0.00104   0.00000   0.01435   0.01404   1.96654
   A29        1.95272   0.00092   0.00000   0.01357   0.01326   1.96597
   A30        1.93248   0.00046   0.00000   0.01651   0.01601   1.94848
   A31        2.02729  -0.00471   0.00000  -0.01859  -0.01859   2.00870
   A32        1.83918  -0.00029   0.00000  -0.00011  -0.00012   1.83906
   A33        1.91747   0.00010   0.00000  -0.00027  -0.00028   1.91720
   A34        1.91779   0.00013   0.00000  -0.00005  -0.00006   1.91774
   A35        1.93106   0.00073   0.00000   0.00618   0.00618   1.93724
   A36        1.93136   0.00074   0.00000   0.00629   0.00629   1.93764
   A37        1.92528  -0.00135   0.00000  -0.01146  -0.01147   1.91381
    D1        3.13897  -0.00065   0.00000  -0.02764  -0.02750   3.11146
    D2        0.00758  -0.00028   0.00000  -0.01300  -0.01300  -0.00542
    D3       -0.03586  -0.00019   0.00000  -0.00572  -0.00571  -0.04157
    D4        3.11594   0.00017   0.00000   0.00892   0.00880   3.12473
    D5       -0.00408   0.00029   0.00000   0.01353   0.01355   0.00947
    D6       -3.13849   0.00082   0.00000   0.03461   0.03450  -3.10400
    D7       -3.11261  -0.00013   0.00000  -0.00814  -0.00809  -3.12070
    D8        0.03616   0.00040   0.00000   0.01294   0.01286   0.04902
    D9        0.34077  -0.00353   0.00000  -0.02510  -0.02487   0.31590
   D10        2.62122   0.00344   0.00000   0.04354   0.04329   2.66451
   D11       -1.66332   0.00011   0.00000   0.01128   0.01121  -1.65211
   D12       -2.83274  -0.00316   0.00000  -0.00431  -0.00403  -2.83677
   D13       -0.55230   0.00380   0.00000   0.06432   0.06414  -0.48816
   D14        1.44635   0.00048   0.00000   0.03207   0.03206   1.47841
   D15        3.13315  -0.00008   0.00000  -0.00266  -0.00270   3.13045
   D16       -0.00614   0.00006   0.00000   0.00319   0.00320  -0.00294
   D17        0.00174   0.00031   0.00000   0.01210   0.01215   0.01389
   D18       -3.13755   0.00046   0.00000   0.01795   0.01805  -3.11950
   D19        3.14024   0.00001   0.00000  -0.00016  -0.00015   3.14008
   D20        0.00147   0.00012   0.00000   0.00560   0.00565   0.00712
   D21        0.00097   0.00015   0.00000   0.00570   0.00569   0.00666
   D22       -3.13780   0.00026   0.00000   0.01147   0.01150  -3.12630
   D23       -0.02190   0.00013   0.00000   0.00789   0.00791  -0.01399
   D24        3.12017   0.00005   0.00000   0.00343   0.00345   3.12362
   D25        3.11694   0.00002   0.00000   0.00229   0.00227   3.11921
   D26       -0.02418  -0.00006   0.00000  -0.00218  -0.00219  -0.02637
   D27        3.13798  -0.00027   0.00000  -0.01233  -0.01234   3.12565
   D28        0.00209  -0.00011   0.00000  -0.00506  -0.00510  -0.00301
   D29       -0.00088  -0.00017   0.00000  -0.00678  -0.00678  -0.00766
   D30       -3.13677  -0.00000   0.00000   0.00049   0.00046  -3.13631
   D31       -3.13998   0.00001   0.00000  -0.00044  -0.00044  -3.14042
   D32        0.00114   0.00009   0.00000   0.00401   0.00401   0.00515
   D33       -0.00083  -0.00009   0.00000  -0.00428  -0.00430  -0.00514
   D34        3.13361  -0.00063   0.00000  -0.02537  -0.02551   3.10809
   D35       -3.13671   0.00009   0.00000   0.00311   0.00316  -3.13355
   D36       -0.00227  -0.00045   0.00000  -0.01799  -0.01805  -0.02032
   D37        1.07851   0.00088   0.00000   0.02075   0.02090   1.09941
   D38       -1.10136  -0.00124   0.00000  -0.02259  -0.02269  -1.12405
   D39       -0.94406   0.00535   0.00000   0.05950   0.05943  -0.88463
   D40       -3.12393   0.00323   0.00000   0.01616   0.01585  -3.10809
   D41        3.09669  -0.00299   0.00000  -0.01249  -0.01221   3.08448
   D42        0.91682  -0.00511   0.00000  -0.05584  -0.05580   0.86103
   D43        3.14146  -0.00002   0.00000  -0.00054  -0.00054   3.14091
   D44        1.06076  -0.00077   0.00000  -0.00765  -0.00764   1.05312
   D45       -1.06052   0.00076   0.00000   0.00681   0.00681  -1.05371
         Item               Value     Threshold  Converged?
 Maximum Force            0.012697     0.000450     NO 
 RMS     Force            0.002923     0.000300     NO 
 Maximum Displacement     0.109208     0.001800     NO 
 RMS     Displacement     0.023190     0.001200     NO 
 Predicted change in Energy=-1.715441D-03
 GradGradGradGradGradGradGradGradGradGradGradGradGradGradGradGradGradGrad

                          Input orientation:                          
 ---------------------------------------------------------------------
 Center     Atomic      Atomic             Coordinates (Angstroms)
 Number     Number       Type             X           Y           Z
 ---------------------------------------------------------------------
      1          6           0       -1.440566    0.567120   -0.850234
      2          6           0       -2.454220    0.033938   -1.639804
      3          1           0       -3.283956   -0.490435   -1.176218
      4          6           0       -2.363562    0.161841   -3.024621
      5          1           0       -3.134993   -0.253869   -3.663246
      6          6           0       -1.270121    0.819330   -3.592464
      7          6           0       -1.129795    0.978676   -5.072230
      8          6           0       -0.259035    1.344317   -2.785025
      9          1           0        0.587162    1.837467   -3.252611
     10          6           0       -0.338260    1.217296   -1.402055
     11          1           0        0.453022    1.591652   -0.759562
     12         16           0       -1.562189    0.430294    0.927151
     13          8           0       -2.533382   -0.615775    1.210125
     14          8           0       -0.205086    0.433848    1.452627
     15          7           0       -2.253273    1.844111    1.461185
     16          1           0       -3.198867    1.977273    1.106828
     17          1           0       -1.667608    2.658234    1.283832
     18          8           0       -2.133580    0.419160   -5.750633
     19          8           0       -0.206110    1.557564   -5.599925
     20          6           0       -2.046958    0.542042   -7.174239
     21          1           0       -2.930592    0.038111   -7.561621
     22          1           0       -1.134587    0.062379   -7.532708
     23          1           0       -2.042465    1.596393   -7.456117
 ---------------------------------------------------------------------
                    Distance matrix (angstroms):
                    1          2          3          4          5
     1  C    0.000000
     2  C    1.391114   0.000000
     3  H    2.150064   1.085514   0.000000
     4  C    2.396691   1.393663   2.165452   0.000000
     5  H    3.384988   2.154206   2.502691   1.084326   0.000000
     6  C    2.759073   2.414914   3.407236   1.396549   2.152792
     7  C    4.253376   3.798445   4.688028   2.526283   2.743214
     8  C    2.396553   2.801333   3.886479   2.425839   3.405380
     9  H    3.390705   3.886370   4.971528   3.400952   4.289143
    10  C    1.393669   2.436011   3.412400   2.801527   3.885747
    11  H    2.154893   3.413701   4.298103   3.886901   4.971034
    12  S    1.786788   2.746284   2.869910   4.041134   4.900361
    13  O    2.615066   2.924122   2.504736   4.308897   4.923683
    14  O    2.616742   3.844692   4.152657   4.977826   5.935441
    15  N    2.762944   3.596281   3.669919   4.792145   5.607027
    16  H    2.985003   3.446017   3.362903   4.589379   5.266468
    17  H    2.996422   4.006661   4.310283   5.027832   5.925128
    18  O    4.951371   4.141271   4.803749   2.747772   2.411013
    19  O    5.006438   4.801874   5.765121   3.637971   3.950996
    20  C    6.353060   5.572612   6.210671   4.179010   3.760900
    21  H    6.895125   5.940949   6.416978   4.573971   3.914635
    22  H    6.708490   6.038920   6.732782   4.673662   4.367422
    23  H    6.712627   6.036580   6.732999   4.668961   4.359238
                    6          7          8          9         10
     6  C    0.000000
     7  C    1.494922   0.000000
     8  C    1.396376   2.474516   0.000000
     9  H    2.145135   2.645085   1.085303   0.000000
    10  C    2.413428   3.762134   1.391048   2.159994   0.000000
    11  H    3.404561   4.634669   2.161180   2.508728   1.085848
    12  S    4.545720   6.039889   4.039046   4.906145   2.746375
    13  O    5.169159   6.631765   4.997583   5.972621   3.873267
    14  O    5.170670   6.612540   4.334692   4.973637   2.963230
    15  N    5.249393   6.685559   4.717741   5.503453   3.501188
    16  H    5.210013   6.592345   4.918309   5.775662   3.880094
    17  H    5.226645   6.596187   4.501782   5.131955   3.325275
    18  O    2.358685   1.334494   3.628316   3.956532   4.771827
    19  O    2.388935   1.211102   2.823462   2.493493   4.213710
    20  C    3.675524   2.334583   4.806820   4.898559   6.057535
    21  H    4.372834   3.213192   5.626657   5.846353   6.786083
    22  H    4.014582   2.625561   4.995043   4.943135   6.289108
    23  H    4.015987   2.626300   5.006322   4.964122   6.300769
                   11         12         13         14         15
    11  H    0.000000
    12  S    2.873122   0.000000
    13  O    4.203690   1.455180   0.000000
    14  O    2.582130   1.455289   2.565438   0.000000
    15  N    3.509912   1.661827   2.488480   2.486761   0.000000
    16  H    4.119272   2.259235   2.679074   3.385920   1.018553
    17  H    3.132112   2.258772   3.387349   2.667462   1.018457
    18  O    5.742477   6.702195   7.048623   7.456961   7.352220
    19  O    4.885154   6.761095   7.517737   7.141514   7.357462
    20  C    6.964170   8.116650   8.477895   8.821962   8.735474
    21  H    7.754376   8.607299   8.805048   9.425585   9.226670
    22  H    7.122828   8.478644   8.879957   9.040918   9.236674
    23  H    7.146420   8.477595   8.957590   9.170233   8.923232
                   16         17         18         19         20
    16  H    0.000000
    17  H    1.685169   0.000000
    18  O    7.112477   7.396910   0.000000
    19  O    7.356173   7.122749   2.243617   0.000000
    20  C    8.483092   8.727035   1.431523   2.626494   0.000000
    21  H    8.886751   9.311402   2.014970   3.685077   1.088495
    22  H    9.086784   9.206190   2.073902   2.614058   1.091328
    23  H    8.649067   8.812192   2.074332   2.611351   1.091389
                   21         22         23
    21  H    0.000000
    22  H    1.796402   0.000000
    23  H    1.796703   1.784182   0.000000
 Stoichiometry    C8H9NO4S
 Framework group  C1[X(C8H9NO4S)]
 Deg. of freedom    63
 Full point group                 C1      NOp   1
 Largest Abelian subgroup         C1      NOp   1
 Largest concise Abelian subgroup C1      NOp   1
                         Standard orientation:                         
 ---------------------------------------------------------------------
 Center     Atomic      Atomic             Coordinates (Angstroms)
 Number     Number       Type             X           Y           Z
 ---------------------------------------------------------------------
      1          6           0        1.176331    0.012075   -0.101116
      2          6           0        0.424839   -1.158435   -0.082055
      3          1           0        0.921724   -2.122769   -0.120855
      4          6           0       -0.964993   -1.062858   -0.042959
      5          1           0       -1.574276   -1.959803   -0.037853
      6          6           0       -1.575619    0.192916   -0.020158
      7          6           0       -3.062344    0.344005    0.019968
      8          6           0       -0.805944    1.357761   -0.044731
      9          1           0       -1.306090    2.320946   -0.041285
     10          6           0        0.581792    1.272505   -0.088723
     11          1           0        1.195954    2.166536   -0.139511
     12         16           0        2.959331   -0.101749   -0.124914
     13          8           0        3.296070   -1.451556   -0.551736
     14          8           0        3.458205    1.098630   -0.779192
     15          7           0        3.458521    0.009281    1.456272
     16          1           0        3.118112   -0.760073    2.030437
     17          1           0        3.242563    0.913109    1.873059
     18          8           0       -3.702055   -0.827149    0.013470
     19          8           0       -3.626936    1.414754    0.058702
     20          6           0       -5.130399   -0.738844    0.049409
     21          1           0       -5.483494   -1.768414    0.037961
     22          1           0       -5.489942   -0.192426   -0.824177
     23          1           0       -5.447740   -0.226268    0.959184
 ---------------------------------------------------------------------
 Rotational constants (GHZ):           1.9938052           0.2640815           0.2455272
 Basis read from rwf:  (6D, 7F)
 There are   288 symmetry adapted cartesian basis functions of A   symmetry.
 There are   288 symmetry adapted basis functions of A   symmetry.
   288 basis functions,   508 primitive gaussians,   288 cartesian basis functions
    56 alpha electrons       56 beta electrons
       nuclear repulsion energy      1006.4676052730 Hartrees.
 NAtoms=   23 NActive=   23 NUniq=   23 SFac= 1.00D+00 NAtFMM=   60 NAOKFM=F Big=F
 Integral buffers will be    131072 words long.
 Raffenetti 2 integral format.
 Two-electron integral symmetry is turned on.
 One-electron integrals computed using PRISM.
 NBasis=   288 RedAO= T EigKep=  2.02D-06  NBF=   288
 NBsUse=   287 1.00D-06 EigRej=  9.16D-07 NBFU=   287
 Initial guess from the checkpoint file:  "/jobfs/40918522.gadi-pbs/Gau-3155057.chk"
 B after Tr=     0.000000   -0.000000    0.000000
         Rot=    0.999985   -0.005466    0.000225   -0.000135 Ang=  -0.63 deg.
 ExpMin= 4.05D-02 ExpMax= 2.19D+04 ExpMxC= 3.30D+03 IAcc=3 IRadAn=         5 AccDes= 0.00D+00
 Harris functional with IExCor= 1009 and IRadAn=       5 diagonalized for initial guess.
 HarFok:  IExCor= 1009 AccDes= 0.00D+00 IRadAn=         5 IDoV= 1 UseB2=F ITyADJ=14
 ICtDFT=  3500011 ScaDFX=  1.000000  1.000000  1.000000  1.000000
 FoFCou: FMM=F IPFlag=           0 FMFlag=      100000 FMFlg1=           0
         NFxFlg=           0 DoJE=T BraDBF=F KetDBF=T FulRan=T
         wScrn=  0.000000 ICntrl=       500 IOpCl=  0 I1Cent=   200000004 NGrid=           0
         NMat0=    1 NMatS0=      1 NMatT0=    0 NMatD0=    1 NMtDS0=    0 NMtDT0=    0
 Petite list used in FoFCou.
 Requested convergence on RMS density matrix=1.00D-08 within 128 cycles.
 Requested convergence on MAX density matrix=1.00D-06.
 Requested convergence on             energy=1.00D-06.
 No special actions if energy rises.
 SCF Done:  E(RM062X) =  -1063.76771744     A.U. after   14 cycles
            NFock= 14  Conv=0.78D-08     -V/T= 2.0066
 Calling FoFJK, ICntrl=      2127 FMM=F ISym2X=0 I1Cent= 0 IOpClX= 0 NMat=1 NMatS=1 NMatT=0.
 ***** Axes restored to original set *****
 -------------------------------------------------------------------
 Center     Atomic                   Forces (Hartrees/Bohr)
 Number     Number              X              Y              Z
 -------------------------------------------------------------------
      1        6           0.000849820   -0.000305762   -0.000428093
      2        6          -0.000166403    0.000206377   -0.001952195
      3        1           0.000109848   -0.000114325    0.000237278
      4        6          -0.000472536   -0.000252765    0.001100025
      5        1           0.000044372    0.000058105   -0.000272785
      6        6          -0.000958287   -0.000653911    0.000126822
      7        6           0.005216936    0.003624861    0.000850768
      8        6           0.000643156    0.000251287    0.001553485
      9        1          -0.000148144    0.000022943   -0.000355227
     10        6           0.000199920   -0.000065425   -0.001627199
     11        1          -0.000042475   -0.000198255    0.000356754
     12       16           0.001862419   -0.003958000    0.001428000
     13        8           0.003916238    0.003326851   -0.000050294
     14        8          -0.005326689   -0.000452344   -0.001087399
     15        7          -0.001811714    0.004041545   -0.000566964
     16        1           0.000565473   -0.001175816    0.001048514
     17        1           0.000275056   -0.001220129    0.000928490
     18        8          -0.002300003   -0.001366121   -0.001867304
     19        8          -0.002110117   -0.001554932    0.000872138
     20        6          -0.000930208   -0.000636385    0.001188972
     21        1           0.000148662    0.000103529   -0.000356759
     22        1           0.000174438    0.000241175   -0.000568344
     23        1           0.000260236    0.000077498   -0.000558685
 -------------------------------------------------------------------
 Cartesian Forces:  Max     0.005326689 RMS     0.001612016

 GradGradGradGradGradGradGradGradGradGradGradGradGradGradGradGradGradGrad
 Berny optimization.
 Using GEDIIS/GDIIS optimizer.
 FormGI is forming the generalized inverse of G from B-inverse, IUseBI=4.
 Internal  Forces:  Max     0.005360286 RMS     0.000995284
 Search for a local minimum.
 Step number   2 out of a maximum of  115
 All quantities printed in internal units (Hartrees-Bohrs-Radians)
 Mixed Optimization -- En-DIIS/RFO-DIIS
 Update second derivatives using D2CorX and points    1    2
 DE= -1.74D-03 DEPred=-1.72D-03 R= 1.01D+00
 TightC=F SS=  1.41D+00  RLast= 1.76D-01 DXNew= 5.0454D-01 5.2868D-01
 Trust test= 1.01D+00 RLast= 1.76D-01 DXMaxT set to 5.05D-01
 ITU=  1  0
 Use linear search instead of GDIIS.
     Eigenvalues ---    0.00596   0.00846   0.01194   0.01436   0.01576
     Eigenvalues ---    0.01751   0.01965   0.02131   0.02160   0.02169
     Eigenvalues ---    0.02179   0.02187   0.02197   0.02215   0.02616
     Eigenvalues ---    0.04171   0.10161   0.10252   0.10695   0.11542
     Eigenvalues ---    0.14335   0.15608   0.15993   0.15996   0.15999
     Eigenvalues ---    0.16000   0.16000   0.16000   0.16000   0.16460
     Eigenvalues ---    0.19330   0.22011   0.22942   0.23957   0.24819
     Eigenvalues ---    0.24999   0.24999   0.25000   0.25000   0.25655
     Eigenvalues ---    0.27446   0.33006   0.34634   0.34641   0.35038
     Eigenvalues ---    0.35315   0.35389   0.35407   0.35493   0.39871
     Eigenvalues ---    0.41212   0.42350   0.42568   0.43839   0.43988
     Eigenvalues ---    0.46260   0.46496   0.46985   0.47473   0.58796
     Eigenvalues ---    0.84511   0.90754   0.95646
 RFO step:  Lambda=-2.99733467D-04 EMin= 5.96155037D-03
 Quartic linear search produced a step of  0.03643.
 Iteration  1 RMS(Cart)=  0.01898958 RMS(Int)=  0.00013200
 Iteration  2 RMS(Cart)=  0.00018435 RMS(Int)=  0.00001663
 Iteration  3 RMS(Cart)=  0.00000002 RMS(Int)=  0.00001663
 Variable       Old X    -DE/DX   Delta X   Delta X   Delta X     New X
                                 (Linear)    (Quad)   (Total)
    R1        2.62882   0.00083  -0.00005   0.00177   0.00172   2.63054
    R2        2.63365   0.00017  -0.00001   0.00038   0.00038   2.63403
    R3        3.37654   0.00168   0.00029   0.00672   0.00701   3.38355
    R4        2.05132   0.00007   0.00003   0.00025   0.00029   2.05161
    R5        2.63364  -0.00090   0.00012  -0.00184  -0.00173   2.63192
    R6        2.04908   0.00011   0.00001   0.00032   0.00033   2.04941
    R7        2.63910   0.00003  -0.00004  -0.00000  -0.00004   2.63905
    R8        2.82499   0.00053   0.00007   0.00175   0.00182   2.82681
    R9        2.63877   0.00067  -0.00008   0.00139   0.00131   2.64008
   R10        2.52183   0.00376   0.00030   0.00694   0.00724   2.52907
   R11        2.28865  -0.00273  -0.00048  -0.00358  -0.00406   2.28459
   R12        2.05093   0.00005   0.00003   0.00018   0.00020   2.05113
   R13        2.62870  -0.00083   0.00010  -0.00169  -0.00159   2.62711
   R14        2.05196   0.00011   0.00001   0.00034   0.00035   2.05231
   R15        2.74989  -0.00502  -0.00046  -0.00633  -0.00679   2.74310
   R16        2.75010  -0.00536  -0.00048  -0.00677  -0.00725   2.74284
   R17        3.14040   0.00226   0.00085   0.00660   0.00746   3.14785
   R18        1.92479  -0.00104  -0.00025  -0.00279  -0.00304   1.92175
   R19        1.92460  -0.00098  -0.00026  -0.00266  -0.00292   1.92169
   R20        2.70519   0.00025  -0.00042   0.00010  -0.00032   2.70486
   R21        2.05696  -0.00004   0.00003  -0.00008  -0.00005   2.05690
   R22        2.06231   0.00023  -0.00002   0.00065   0.00064   2.06295
   R23        2.06243   0.00022  -0.00001   0.00064   0.00063   2.06306
    A1        2.12987  -0.00031  -0.00025  -0.00165  -0.00190   2.12797
    A2        2.07790   0.00014   0.00000   0.00058   0.00058   2.07848
    A3        2.07536   0.00017   0.00026   0.00101   0.00126   2.07663
    A4        2.09407  -0.00041  -0.00054  -0.00304  -0.00358   2.09050
    A5        2.07305   0.00033   0.00012   0.00169   0.00181   2.07486
    A6        2.11579   0.00008   0.00041   0.00139   0.00180   2.11759
    A7        2.09874   0.00039   0.00032   0.00274   0.00307   2.10181
    A8        2.09227  -0.00024   0.00004  -0.00111  -0.00107   2.09120
    A9        2.09214  -0.00015  -0.00037  -0.00162  -0.00199   2.09015
   A10        2.12487   0.00010   0.00025   0.00077   0.00103   2.12590
   A11        2.10460   0.00016  -0.00008   0.00052   0.00043   2.10503
   A12        2.05368  -0.00026  -0.00017  -0.00129  -0.00146   2.05221
   A13        1.96916  -0.00058  -0.00017  -0.00258  -0.00279   1.96637
   A14        2.15776   0.00068   0.00002   0.00286   0.00284   2.16061
   A15        2.15626  -0.00011   0.00015  -0.00022  -0.00011   2.15615
   A16        2.07860  -0.00037  -0.00051  -0.00305  -0.00356   2.07504
   A17        2.09360  -0.00004  -0.00002  -0.00021  -0.00023   2.09337
   A18        2.11091   0.00041   0.00052   0.00329   0.00382   2.11472
   A19        2.07293   0.00010   0.00018   0.00071   0.00089   2.07382
   A20        2.09778  -0.00043  -0.00047  -0.00330  -0.00377   2.09401
   A21        2.11213   0.00033   0.00027   0.00263   0.00290   2.11503
   A22        1.86911   0.00037  -0.00056   0.00305   0.00247   1.87159
   A23        1.87079   0.00030  -0.00042   0.00275   0.00232   1.87311
   A24        1.85753   0.00162  -0.00126   0.00782   0.00654   1.86407
   A25        2.15786  -0.00078   0.00251  -0.00558  -0.00308   2.15477
   A26        1.84579  -0.00057  -0.00038  -0.00303  -0.00345   1.84234
   A27        1.84387  -0.00056  -0.00031  -0.00302  -0.00337   1.84049
   A28        1.96654  -0.00038   0.00051   0.00185   0.00230   1.96884
   A29        1.96597  -0.00034   0.00048   0.00207   0.00250   1.96847
   A30        1.94848   0.00106   0.00058   0.01361   0.01410   1.96258
   A31        2.00870   0.00120  -0.00068   0.00406   0.00338   2.01208
   A32        1.83906   0.00046  -0.00000   0.00329   0.00328   1.84234
   A33        1.91720   0.00058  -0.00001   0.00359   0.00357   1.92077
   A34        1.91774   0.00054  -0.00000   0.00335   0.00334   1.92108
   A35        1.93724  -0.00037   0.00023  -0.00175  -0.00154   1.93570
   A36        1.93764  -0.00036   0.00023  -0.00177  -0.00155   1.93609
   A37        1.91381  -0.00078  -0.00042  -0.00615  -0.00657   1.90724
    D1        3.11146  -0.00007  -0.00100  -0.00398  -0.00498   3.10649
    D2       -0.00542  -0.00013  -0.00047  -0.00588  -0.00635  -0.01177
    D3       -0.04157  -0.00017  -0.00021  -0.00929  -0.00950  -0.05107
    D4        3.12473  -0.00023   0.00032  -0.01119  -0.01087   3.11386
    D5        0.00947   0.00012   0.00049   0.00537   0.00586   0.01533
    D6       -3.10400   0.00006   0.00126   0.00383   0.00508  -3.09892
    D7       -3.12070   0.00022  -0.00029   0.01068   0.01038  -3.11031
    D8        0.04902   0.00016   0.00047   0.00914   0.00960   0.05862
    D9        0.31590   0.00047  -0.00091   0.03152   0.03063   0.34653
   D10        2.66451  -0.00004   0.00158   0.02865   0.03022   2.69473
   D11       -1.65211   0.00021   0.00041   0.03003   0.03044  -1.62167
   D12       -2.83677   0.00037  -0.00015   0.02635   0.02622  -2.81055
   D13       -0.48816  -0.00013   0.00234   0.02349   0.02581  -0.46235
   D14        1.47841   0.00011   0.00117   0.02486   0.02603   1.50443
   D15        3.13045   0.00006  -0.00010   0.00269   0.00259   3.13305
   D16       -0.00294   0.00005   0.00012   0.00196   0.00208  -0.00086
   D17        0.01389   0.00001   0.00044   0.00083   0.00128   0.01517
   D18       -3.11950  -0.00001   0.00066   0.00010   0.00077  -3.11874
   D19        3.14008   0.00004  -0.00001   0.00180   0.00179  -3.14131
   D20        0.00712   0.00005   0.00021   0.00232   0.00253   0.00965
   D21        0.00666   0.00002   0.00021   0.00106   0.00126   0.00792
   D22       -3.12630   0.00003   0.00042   0.00157   0.00200  -3.12431
   D23       -0.01399  -0.00007   0.00029  -0.00343  -0.00314  -0.01714
   D24        3.12362   0.00015   0.00013   0.01243   0.01256   3.13618
   D25        3.11921  -0.00008   0.00008  -0.00392  -0.00385   3.11536
   D26       -0.02637   0.00014  -0.00008   0.01193   0.01186  -0.01451
   D27        3.12565   0.00000  -0.00045  -0.00015  -0.00061   3.12504
   D28       -0.00301  -0.00006  -0.00019  -0.00284  -0.00303  -0.00604
   D29       -0.00766   0.00001  -0.00025   0.00033   0.00008  -0.00758
   D30       -3.13631  -0.00005   0.00002  -0.00236  -0.00234  -3.13865
   D31       -3.14042   0.00012  -0.00002   0.00811   0.00809  -3.13233
   D32        0.00515  -0.00011   0.00015  -0.00773  -0.00758  -0.00243
   D33       -0.00514  -0.00003  -0.00016  -0.00094  -0.00110  -0.00624
   D34        3.10809   0.00002  -0.00093   0.00051  -0.00043   3.10767
   D35       -3.13355  -0.00008   0.00012  -0.00363  -0.00352  -3.13707
   D36       -0.02032  -0.00004  -0.00066  -0.00218  -0.00285  -0.02317
   D37        1.09941   0.00047   0.00076   0.01265   0.01343   1.11284
   D38       -1.12405  -0.00037  -0.00083  -0.00936  -0.01020  -1.13425
   D39       -0.88463  -0.00040   0.00217   0.00713   0.00933  -0.87530
   D40       -3.10809  -0.00124   0.00058  -0.01487  -0.01431  -3.12240
   D41        3.08448   0.00127  -0.00044   0.01782   0.01739   3.10187
   D42        0.86103   0.00043  -0.00203  -0.00419  -0.00625   0.85478
   D43        3.14091  -0.00000  -0.00002  -0.00060  -0.00062   3.14029
   D44        1.05312  -0.00014  -0.00028  -0.00228  -0.00256   1.05056
   D45       -1.05371   0.00012   0.00025   0.00093   0.00118  -1.05253
         Item               Value     Threshold  Converged?
 Maximum Force            0.005360     0.000450     NO 
 RMS     Force            0.000995     0.000300     NO 
 Maximum Displacement     0.074550     0.001800     NO 
 RMS     Displacement     0.018974     0.001200     NO 
 Predicted change in Energy=-1.534191D-04
 GradGradGradGradGradGradGradGradGradGradGradGradGradGradGradGradGradGrad

                          Input orientation:                          
 ---------------------------------------------------------------------
 Center     Atomic      Atomic             Coordinates (Angstroms)
 Number     Number       Type             X           Y           Z
 ---------------------------------------------------------------------
      1          6           0       -1.430092    0.564456   -0.851199
      2          6           0       -2.448308    0.038408   -1.641286
      3          1           0       -3.279303   -0.481239   -1.174292
      4          6           0       -2.361209    0.168357   -3.025222
      5          1           0       -3.136380   -0.239065   -3.664958
      6          6           0       -1.264330    0.819328   -3.593885
      7          6           0       -1.125894    0.984233   -5.074192
      8          6           0       -0.245364    1.332723   -2.787700
      9          1           0        0.601904    1.819766   -3.259976
     10          6           0       -0.322364    1.203511   -1.405653
     11          1           0        0.472949    1.567224   -0.761710
     12         16           0       -1.557370    0.438492    0.930320
     13          8           0       -2.506885   -0.620612    1.219835
     14          8           0       -0.207735    0.471028    1.463362
     15          7           0       -2.278542    1.842758    1.462060
     16          1           0       -3.229078    1.952597    1.117683
     17          1           0       -1.707058    2.666977    1.294193
     18          8           0       -2.138139    0.429806   -5.751751
     19          8           0       -0.195455    1.545471   -5.604157
     20          6           0       -2.055929    0.544712   -7.176112
     21          1           0       -2.944050    0.046790   -7.560918
     22          1           0       -1.148512    0.058338   -7.539111
     23          1           0       -2.041880    1.596905   -7.466896
 ---------------------------------------------------------------------
                    Distance matrix (angstroms):
                    1          2          3          4          5
     1  C    0.000000
     2  C    1.392023   0.000000
     3  H    2.148825   1.085665   0.000000
     4  C    2.397967   1.392750   2.165829   0.000000
     5  H    3.387375   2.155385   2.506490   1.084503   0.000000
     6  C    2.759486   2.413355   3.406761   1.396526   2.151702
     7  C    4.254693   3.798448   4.689776   2.527832   2.743074
     8  C    2.396633   2.800443   3.885657   2.426719   3.405595
     9  H    3.392199   3.885509   4.970761   3.400338   4.286906
    10  C    1.393869   2.435698   3.411070   2.802041   3.886409
    11  H    2.152932   3.412430   4.294860   3.887514   4.971800
    12  S    1.790496   2.750817   2.870601   4.045422   4.906010
    13  O    2.617834   2.936623   2.519504   4.320209   4.939944
    14  O    2.619176   3.853073   4.159154   4.987630   5.948182
    15  N    2.775805   3.593780   3.654153   4.790215   5.599660
    16  H    3.006623   3.447554   3.343535   4.593514   5.261714
    17  H    3.016622   4.009472   4.298445   5.032729   5.922940
    18  O    4.953268   4.140690   4.804725   2.748104   2.408023
    19  O    5.007726   4.801138   5.765533   3.638384   3.948937
    20  C    6.355831   5.571768   6.210561   4.179082   3.756313
    21  H    6.897853   5.940359   6.417180   4.574606   3.911164
    22  H    6.712943   6.039388   6.733672   4.675246   4.364531
    23  H    6.723665   6.044156   6.741421   4.676664   4.361588
                    6          7          8          9         10
     6  C    0.000000
     7  C    1.495883   0.000000
     8  C    1.397069   2.474838   0.000000
     9  H    2.143641   2.640980   1.085411   0.000000
    10  C    2.413142   3.761904   1.390208   2.161610   0.000000
    11  H    3.405687   4.636127   2.162314   2.514308   1.086036
[...]
 00012539,0.00003356,-0.00015238,-0.00019066,-0.00006419,-0.00006190,0.
 00002736,0.00021169,0.00108166,0.00031885,0.00020351,-0.00000838,0.000
 00018,-0.00013942,-0.00137001,-0.00059498,-0.00068321,0.00110219,0.000
 12842,-0.00022380,-0.02608830,-0.08779746,-0.00907414,-0.02869257,0.00
 988556,-0.00979624,0.01933709,0.06271177,-0.03226860,-0.00189989,-0.00
 476505,0.00444980,0.00427006,-0.00583243,-0.00044033,0.00029769,0.0000
 7472,-0.00147394,-0.00209478,-0.00158294,0.00020321,0.00002768,-0.0007
 4274,-0.00070561,-0.00020017,-0.00154335,-0.00006972,-0.00008312,0.003
 34915,0.00003967,-0.00066357,0.00064381,-0.00000976,0.00007420,-0.0001
 5487,-0.00049654,0.00057200,-0.00202182,-0.00104108,-0.00010143,-0.001
 64868,-0.19205303,-0.00916081,-0.16484589,0.00899367,0.00546833,0.0181
 3627,0.20744503,0.00913706,0.15207945,0.00686681,0.00827280,0.00098338
 ,-0.00199827,-0.00044546,0.00189177,-0.00008349,0.00039766,0.00019830,
 0.00064589,-0.00037459,0.00111256,-0.00000277,-0.00009047,0.00027014,0
 .00079991,0.00023581,0.00083791,-0.00018551,0.00025505,-0.00137670,0.0
 0031895,-0.00035019,-0.00090789,-0.00006431,0.00006346,0.00000534,-0.0
 0022789,-0.00020607,0.00038887,0.00006989,0.00048213,-0.00044942,-0.12
 904987,0.04667956,0.02516118,0.01198052,-0.02768199,-0.00335419,-0.027
 10540,0.03387344,0.00681854,0.71185955,0.00586064,-0.00049812,0.001159
 12,0.00055712,0.00013288,-0.00166927,0.00048798,-0.00049695,0.00056500
 ,-0.00064732,0.00050491,0.00023478,0.00001429,-0.00004756,-0.00016556,
 0.00037864,0.00034381,-0.00092525,0.00028347,-0.00038072,0.00182718,0.
 00015865,0.00106532,-0.00068315,-0.00001897,0.00002045,-0.00029005,-0.
 00084032,-0.00093951,-0.00257321,0.00026619,-0.00060967,0.00017865,0.0
 4997177,-0.18723594,-0.05638731,0.00794650,-0.03280586,-0.01012643,0.0
 0143373,0.00587493,-0.00332905,0.08213485,0.60855084,0.01192767,-0.020
 33043,-0.00359142,0.00304253,0.00029805,-0.00116029,0.00022065,-0.0006
 2049,-0.00036090,-0.00081696,0.00155675,0.00030381,-0.00001595,0.00000
 399,-0.00022376,0.00004965,0.00020921,-0.00227656,0.00035725,-0.000376
 25,0.00404303,-0.00076772,0.00151067,0.00026112,-0.00000331,0.00001810
 ,-0.00023475,-0.00183066,-0.00225176,-0.00186731,0.00047954,-0.0004411
 4,-0.00039817,0.01081808,-0.02843474,-0.06862495,-0.00011711,0.0067825
 9,0.01014809,-0.01185041,0.00965320,0.01050181,0.08178768,-0.02089061,
 0.13304807,0.00142447,-0.00065689,0.00005887,0.00036580,0.00014057,-0.
 00019968,0.00004148,-0.00003961,0.00005470,-0.00014917,0.00000975,0.00
 038039,0.00000256,-0.00001742,-0.00003555,0.00026646,0.00008767,-0.000
 40102,0.00009425,0.00002948,0.00073029,-0.00012088,0.00007776,-0.00014
 562,-0.00001202,0.00001264,-0.00003300,-0.00030307,-0.00043004,-0.0001
 3005,0.00000118,-0.00001879,-0.00003882,-0.01406517,0.00345653,-0.0060
 0275,0.00114184,-0.00244410,0.00113712,0.00073691,0.00166652,0.0007628
 2,-0.39610729,0.01816089,-0.12157456,0.41763322,-0.00118060,-0.0006983
 5,-0.00011031,0.00034368,0.00032551,-0.00035438,-0.00007041,-0.0002472
 1,-0.00019824,-0.00013932,-0.00009650,-0.00014433,0.00000772,0.0000234
 8,-0.00003827,-0.00002218,-0.00020230,0.00009654,-0.00004130,0.0000765
 2,-0.00020530,-0.00000915,-0.00008226,0.00014096,-0.00000070,-0.000000
 39,0.00000958,-0.00015132,0.00019990,0.00005305,0.00001084,-0.00009818
 ,0.00004199,0.02755930,0.00553445,0.01305507,-0.00442140,-0.00006353,-
 0.00091176,0.00658161,-0.00506524,-0.00164394,0.02849594,-0.06910772,0
 .00567030,-0.02647510,0.06174428,-0.00107701,-0.00035889,-0.00044702,0
 .00006717,0.00020314,-0.00029577,-0.00007958,-0.00037246,0.00004137,-0
 .00015285,0.00003841,-0.00045660,0.00000301,0.00000257,-0.00004763,-0.
 00016666,-0.00017610,0.00020066,-0.00003732,0.00001160,-0.00063080,0.0
 0009110,-0.00009226,0.00016403,0.00001357,-0.00000964,-0.00000091,0.00
 018972,0.00024395,-0.00002324,-0.00003399,0.00001962,0.00011827,0.0148
 7912,-0.00769951,-0.00124237,0.00082605,0.00159409,-0.00189399,0.00238
 106,-0.00194433,0.00341949,-0.15936609,0.01157833,-0.05676798,0.132970
 22,-0.00361582,0.05932912,-0.00100545,0.00026563,-0.00000657,-0.000195
 08,-0.00017723,-0.00002380,-0.00006548,0.00006052,-0.00004294,-0.00004
 220,-0.00006161,-0.00005771,-0.00000204,-0.00000700,0.00001219,-0.0000
 8944,0.00021792,0.00011432,0.00006560,-0.00004364,-0.00013390,-0.00017
 040,-0.00018214,-0.00006997,0.00000748,-0.00000446,0.00006217,0.000497
 11,0.00021538,0.00057229,-0.00027993,0.00010491,0.00009244,0.01488034,
 0.01119956,-0.00337199,0.00060394,0.00700609,0.00101175,-0.00259987,-0
 .00159808,-0.00016812,-0.17790061,-0.16605643,0.02846870,-0.01085343,-
 0.03046458,0.00949576,0.17720941,0.00090602,0.00144158,0.00019158,-0.0
 0047062,0.00011063,0.00007283,0.00002384,-0.00003468,0.00005180,0.0000
 0957,-0.00013319,0.00018705,0.00000608,-0.00001302,0.00003330,0.000216
 38,0.00007329,0.00041172,0.00001289,0.00007022,-0.00063001,0.00009000,
 -0.00006028,-0.00036275,-0.00001919,0.00001715,0.00000752,-0.00001741,
 0.00013616,0.00001221,0.00014626,0.00003082,-0.00015274,-0.01792413,-0
 .02150964,0.00771230,0.00192346,-0.00472488,-0.00199286,0.00077733,0.0
 0408459,-0.00080957,-0.17169197,-0.32456805,0.04751287,0.00645088,0.00
 779205,0.00058918,0.17956818,0.33733620,0.00093175,0.00085632,-0.00021
 190,-0.00036892,-0.00002592,-0.00009426,-0.00002767,0.00003281,0.00011
 851,-0.00001658,-0.00015995,0.00018981,0.00000937,-0.00001381,0.000002
 81,0.00025328,0.00005174,0.00030803,-0.00003900,0.00000169,-0.00071161
 ,0.00007970,0.00020258,-0.00048104,0.00000835,0.00000571,-0.00004102,-
 0.00007612,0.00008522,-0.00023080,0.00034066,-0.00013249,0.00008115,-0
 .00105781,-0.01663506,-0.00304179,-0.00010912,-0.00252694,0.00317662,-
 0.00185137,0.00056044,-0.00232186,0.04487645,0.08301821,-0.01980548,-0
 .00697882,-0.01202115,-0.00195910,-0.03602002,-0.05331387,0.02446569,0
 .00020734,0.00019578,-0.00071279,0.00076572,0.00072880,-0.00066804,0.0
 0001329,0.00000035,-0.00026939,-0.00375358,-0.00249580,0.00080576,0.00
 113670,0.00055430,0.00077068,0.00173188,-0.00383543,-0.01188413,-0.200
 87731,-0.07027562,-0.06285267,0.00128028,-0.00000128,0.00090037,0.0006
 9520,0.00019419,0.00140484,0.00071038,0.00051983,-0.00013253,-0.000006
 66,0.00005649,-0.00003884,-0.00051347,-0.00015621,0.00239983,0.0005194
 0,0.00044084,-0.00065712,-0.00006002,0.00002236,-0.00061482,0.00036034
 ,-0.00039254,-0.00083292,-0.00018778,0.00002982,0.00011271,-0.00000738
 ,0.00011602,0.00015647,0.35625367,0.00014065,0.00020199,-0.00030085,0.
 00072563,-0.00014689,-0.00038059,-0.00001248,0.00002251,-0.00012628,-0
 .00230741,-0.00074128,0.00079229,0.00058885,0.00040517,0.00065398,-0.0
 0247712,0.00864578,-0.00409040,-0.06969796,-0.10368017,-0.02870105,-0.
 00020634,0.00100550,0.00082363,0.00030665,0.00023256,0.00075941,0.0006
 0883,0.00004452,0.00003814,0.00006060,-0.00011994,0.00001107,-0.000193
 27,-0.00021981,0.00100421,0.00024482,0.00025842,-0.00026875,-0.0000487
 0,0.00005283,-0.00025666,0.00011532,-0.00007874,-0.00032546,-0.0000708
 7,0.00000299,0.00005942,-0.00000631,0.00003958,0.00007330,0.14782396,0
 .15991757,-0.00089968,-0.00026259,-0.00186932,-0.00028206,-0.00033817,
 0.00024242,0.00004020,0.00000846,-0.00018917,-0.00104241,-0.00028696,-
 0.00522372,-0.00051893,-0.00003847,-0.00385105,-0.03716981,-0.01798569
 ,-0.03520321,-0.07830190,-0.03709669,-0.17901373,0.00553218,0.00325891
 ,-0.00553078,0.00009993,-0.00000145,0.00075097,-0.00153716,-0.00075496
 ,-0.00244066,0.00017699,0.00008543,-0.00076249,-0.00097402,-0.00021064
 ,0.00572825,0.00091054,0.00085513,-0.00159202,-0.00060259,0.00001394,-
 0.00181912,0.00076744,-0.00094286,-0.00191346,-0.00036087,0.00009629,0
 .00032815,0.00002742,0.00030697,0.00039247,0.08486433,0.02386691,0.513
 83359,0.00033043,0.00007284,0.00011034,-0.00018679,0.00073552,0.000850
 51,-0.00006870,0.00010883,0.00024186,0.00262207,0.00007901,0.00114696,
 0.00087280,0.00020567,-0.00072200,-0.00524199,-0.01523016,0.02317707,-
 0.47939142,-0.23413907,0.23570388,-0.00502534,-0.00235990,-0.00464969,
 0.00183667,0.00107364,0.00091207,0.00089320,0.00071949,0.00133869,-0.0
 0002317,-0.00006343,0.00029350,-0.00014985,-0.00005138,-0.00176969,0.0
 0001705,-0.00005465,0.00039316,0.00053180,0.00009724,0.00057973,-0.000
 13529,0.00026352,0.00060105,0.00007477,-0.00004721,-0.00010885,-0.0000
 5639,-0.00011582,-0.00010076,-0.08236209,-0.06133018,-0.01062252,0.567
 24771,0.00008539,0.00002520,0.00012565,0.00064021,-0.00121322,0.000543
 85,0.00010582,-0.00017486,0.00016276,0.00047351,0.00255943,0.00113524,
 0.00016209,0.00065304,-0.00036549,-0.01618344,0.01024047,0.01535459,-0
 .23352669,-0.21585617,0.14001526,-0.00296959,-0.00122042,-0.00248230,0
 .00113441,0.00019350,0.00054200,0.00073654,-0.00023920,0.00068181,-0.0
 0003817,0.00003413,0.00017525,-0.00000465,-0.00013246,-0.00123247,-0.0
 0002787,0.00002964,0.00030372,0.00026689,0.00007954,0.00038085,-0.0001
 7466,0.00030971,0.00046017,0.00006224,-0.00004399,-0.00006434,-0.00003
 778,-0.00009628,-0.00005320,-0.06151680,-0.00367217,-0.00595248,0.3086
 8924,0.21292131,0.00140906,0.00095135,-0.00149090,0.00184661,0.0009903
 3,-0.00268423,-0.00002708,-0.00003815,-0.00079704,-0.00538663,-0.00250
 628,-0.00643693,0.00017658,0.00014902,0.00004054,0.04024559,0.02475650
 ,-0.02568195,0.22864662,0.13625836,-0.25684192,0.00235241,0.00136904,-
 0.00140407,0.00087797,0.00057544,-0.00172054,0.00055070,0.00003550,0.0
 0093120,-0.00002022,-0.00001383,-0.00012466,-0.00018305,0.00014756,0.0
 0494230,0.00055316,0.00055957,-0.00142133,-0.00077566,-0.00008919,-0.0
 0146325,0.00054648,-0.00084811,-0.00162951,-0.00029179,0.00010968,0.00
 028676,0.00005371,0.00026086,0.00029359,-0.00856503,-0.00483152,0.0309
 9033,-0.25837381,-0.15540488,0.26114108,0.00009080,0.00003304,0.000211
 64,0.00025068,0.00007431,-0.00013539,0.00001184,-0.00000869,-0.0000031
 9,-0.00044517,-0.00004840,0.00068757,0.00044858,0.00036847,-0.00002334
 ,-0.00265144,-0.00466653,-0.00136661,0.00004469,0.00099661,-0.03949897
 ,0.00048550,0.00014577,-0.00126363,0.00003463,-0.00007843,0.00002103,-
 0.00048819,-0.00005258,0.00000085,0.00001099,0.00003588,-0.00009845,0.
 00007703,0.00001893,-0.00020485,-0.00004174,-0.00001820,0.00005111,0.0
 0000377,0.00000193,0.00005259,-0.00004260,0.00003786,0.00007051,0.0000
 1677,-0.00000382,-0.00000772,0.00000088,-0.00000992,-0.00001057,-0.084
 69666,-0.01124028,0.03168111,-0.00206714,0.00259012,-0.00316037,0.6388
 7618,0.00006458,-0.00001943,0.00008028,0.00004912,0.00020213,-0.000077
 32,-0.00001111,0.00002597,-0.00000493,-0.00000720,-0.00046711,0.000314
 13,0.00033298,-0.00003506,0.00001105,-0.00474360,0.00338856,-0.0006250
 5,0.00074032,0.00344138,-0.01918135,0.00013060,0.00040031,-0.00070288,
 -0.00006379,0.00012799,0.00003889,-0.00009947,-0.00037366,-0.00004328,
 0.00002881,-0.00003414,-0.00006159,-0.00000844,0.00007101,0.00002723,-
 0.00000388,-0.00003046,-0.00000813,0.00001543,-0.00001300,0.00000311,0
 .00001763,-0.00004559,-0.00001936,-0.00000466,0.00000826,-0.00000457,0
 .00000120,0.00001146,-0.00000365,-0.00995539,-0.07412130,0.02530765,0.
 00152200,-0.00552110,-0.00195989,0.01580633,0.61581549,0.00021689,0.00
 002183,0.00069746,0.00014360,0.00014657,0.00008659,-0.00000556,0.00000
 635,0.00005935,-0.00011629,-0.00010924,0.00076467,0.00069733,0.0003954
 3,-0.00052577,0.00024483,0.00022655,0.00421791,-0.03354653,-0.01596109
 ,-0.04609458,-0.00051157,-0.00025347,-0.00008070,-0.00010694,-0.000032
 33,-0.00025579,-0.00009653,-0.00003819,0.00064304,0.00000020,-0.000000
 01,0.00008223,0.00031580,0.00003011,-0.00251175,-0.00034135,-0.0003341
 3,0.00073025,0.00034813,0.00001825,0.00082445,-0.00031741,0.00042126,0
 .00084796,0.00015572,-0.00004576,-0.00016992,-0.00002011,-0.00013780,-
 0.00018715,0.00642159,0.01159372,-0.22134547,0.01704065,0.00922288,-0.
 00213805,0.01804272,0.01675384,0.47515856,0.00000808,0.00002009,-0.000
 06918,-0.00001397,0.00000838,-0.00001641,0.00000134,-0.00000238,-0.000
 00750,-0.00000115,0.00001033,-0.00005671,-0.00002506,-0.00005458,-0.00
 000451,0.00021792,0.00000156,-0.00001107,-0.00005537,-0.00026773,0.002
 23628,0.00000465,0.00001686,-0.00001561,0.00002178,0.00000528,0.000022
 80,0.00001537,0.00000877,0.00000019,0.00000114,-0.00000066,-0.00000033
 ,-0.00002507,-0.00002135,0.00019449,0.00003173,0.00003443,-0.00005584,
 -0.00002207,0.00000290,-0.00006034,0.00002332,-0.00002685,-0.00006622,
 -0.00001207,0.00000218,0.00001345,0.00000129,0.00000950,0.00001468,0.0
 0482881,0.00259279,0.00214035,0.00053066,-0.00003490,-0.00152661,-0.25
 438444,-0.10578896,-0.08224091,0.26525355,0.00000629,0.00000976,-0.000
 03354,0.00001077,-0.00003729,-0.00001305,-0.00000181,0.00000397,-0.000
 00247,0.00001329,-0.00000270,-0.00003027,-0.00005459,0.00004484,0.0000
 0421,0.00009283,0.00025038,0.00002830,-0.00042677,-0.00012245,0.001553
 26,-0.00000600,-0.00001083,0.00001513,0.00000720,0.00001257,0.00001147
 ,0.00002582,-0.00001232,0.00000344,-0.00000093,0.00000050,0.00000295,-
 0.00002421,0.00002142,0.00009584,0.00001543,0.00000545,-0.00002794,-0.
 00000582,-0.00000484,-0.00002994,0.00001751,-0.00002376,-0.00003093,-0
 .00000825,0.00000302,0.00000440,-0.00000111,0.00000484,0.00000646,0.00
 451422,0.00229507,0.00271533,-0.00007836,0.00074543,-0.00093272,-0.106
 44287,-0.11149139,-0.04441787,0.11513053,0.10980250,-0.00002910,-0.000
 00932,-0.00007168,0.00007774,0.00003541,0.00002383,-0.00000092,0.00000
 022,-0.00002711,-0.00013759,-0.00008135,-0.00002187,-0.00000135,0.0000
 0704,-0.00006015,-0.00161077,-0.00084041,-0.00043537,0.00549297,0.0033
 3042,-0.00598274,0.00028925,0.00017153,-0.00048555,0.00000295,-0.00000
 015,0.00002579,-0.00013288,-0.00006299,-0.00009656,0.00001100,0.000005
 99,-0.00005321,-0.00005639,-0.00001381,0.00024834,0.00004978,0.0000429
 6,-0.00006743,-0.00001477,0.00000252,-0.00007420,0.00003573,-0.0000393
 1,-0.00008186,-0.00001727,0.00000338,0.00001184,0.00000017,0.00001248,
 0.00001547,-0.03499764,-0.01778500,-0.02941744,-0.00068242,-0.00047213
 ,0.00256776,-0.06990315,-0.03759919,-0.07437144,0.08664471,0.04527582,
 0.09795677,-0.00001234,-0.00000686,-0.00001387,0.00001430,-0.00000778,
 0.00005962,-0.00000428,0.00000893,0.00000260,0.00001894,-0.00007839,-0
 .00004105,0.00001807,0.00005352,-0.00004597,-0.00026466,0.00065510,0.0
 0019511,0.00013933,-0.00112286,-0.00221500,-0.00000972,-0.00003832,0.0
 0000858,-0.00000536,-0.00000147,-0.00002258,0.00002863,0.00000786,0.00
 002339,-0.00000064,-0.00000123,0.00000272,0.00000352,0.00001591,-0.000
 07906,-0.00001054,-0.00002089,0.00003011,0.00001632,-0.00000499,0.0000
 3319,-0.00000592,0.00000575,0.00002599,0.00000337,-0.00000081,-0.00000
 924,-0.00000050,-0.00000341,-0.00000887,0.00424974,-0.00330303,0.00458
 125,0.00026727,-0.00010187,-0.00033163,-0.24255950,0.11024317,0.071906
 01,-0.01814771,0.01347229,0.00760362,0.25443962,-0.00003472,-0.0000234
 0,0.00002422,-0.00000918,-0.00001604,0.00005868,-0.00000036,-0.0000007
 6,0.00000966,0.00001982,0.00001767,0.00004999,-0.00001598,0.00001329,-
 0.00000418,-0.00012184,-0.00030294,0.00005575,0.00261281,0.00172372,-0
 .00098095,0.00004395,-0.00001504,0.00003446,-0.00001168,-0.00001043,-0
 .00003181,-0.00000909,0.00002164,-0.00003286,0.00000134,0.00000186,-0.
 00000076,0.00001879,0.00000366,-0.00005648,-0.00001351,-0.00001232,0.0
 0001620,0.00000030,-0.00000175,0.00001495,-0.00001167,0.00001239,0.000
 01968,0.00000509,-0.00000157,-0.00000171,0.00000136,-0.00000304,-0.000
 00277,-0.00650631,0.00407689,0.00075955,-0.00060636,-0.00029099,0.0017
 7725,0.10862878,-0.11554019,-0.04163268,-0.01287732,0.00866652,0.00613
 476,-0.11792910,0.11507249,-0.00009085,-0.00003774,-0.00013502,-0.0000
 5154,-0.00000972,0.00007917,0.00000015,0.00000130,-0.00000954,0.000022
 49,0.00002311,-0.00011508,-0.00011332,-0.00017072,0.00010914,-0.000774
 76,0.00074195,-0.00041407,0.00889806,0.00305655,0.00162565,0.00013567,
 0.00016648,0.00005924,-0.00002333,0.00000122,0.00000347,0.00004124,-0.
 00005807,-0.00015854,0.00000855,-0.00000908,-0.00001995,-0.00003892,-0
 .00003279,0.00032639,0.00004271,0.00004943,-0.00008766,-0.00004925,0.0
 0000446,-0.00010216,0.00004298,-0.00004841,-0.00011199,-0.00002066,0.0
 0000473,0.00001886,0.00000285,0.00001813,0.00002316,0.02677298,-0.0180
 5626,-0.03260355,-0.00272246,-0.00152527,0.00140139,0.06362136,-0.0371
 9322,-0.07352765,-0.00856635,0.00676501,0.00573865,-0.08024796,0.04365
 016,0.09295127,-0.00004517,-0.00001694,0.00000580,-0.00001588,0.000006
 11,0.00008615,0.00000201,-0.00000480,0.00000873,-0.00000807,0.00003763
 ,0.00001789,0.00002168,-0.00002364,-0.00002573,-0.00003629,-0.00032002
 ,0.00010695,0.00218881,0.00187739,-0.00188484,-0.00000711,0.00005602,0
 .00004400,-0.00001810,-0.00000097,-0.00003812,0.00002544,-0.00000690,-
 0.00002526,0.00000066,0.00000117,0.00000048,0.00002285,-0.00000922,-0.
 00007538,-0.00001466,-0.00001034,0.00002481,0.00000236,-0.00000043,0.0
 0002366,-0.00001596,0.00002059,0.00002654,0.00000781,-0.00000318,-0.00
 000365,0.00000215,-0.00000394,-0.00000508,-0.00028780,-0.00231413,0.00
 149020,-0.00051624,-0.00033004,0.00138300,-0.05297548,-0.00826566,0.00
 176973,0.00174727,-0.02625547,0.00737633,0.00182208,0.02681491,-0.0068
 8965,0.04809767,0.00001419,0.00001039,-0.00001261,0.00001047,0.0000209
 4,0.00001502,0.00000424,-0.00000659,-0.00000319,-0.00006381,0.00004410
 ,-0.00004355,0.00005983,0.00000423,-0.00005028,0.00050909,-0.00043984,
 0.00010549,-0.00292508,-0.00047654,-0.00139459,-0.00005955,-0.00001168
 ,-0.00000813,0.00000527,0.00000143,-0.00000425,0.00001889,0.00001795,0
 .00005102,-0.00000166,-0.00000123,0.00000469,0.00001299,-0.00002141,-0
 .00007007,-0.00000478,0.00000109,0.00002323,0.00000755,0.00000458,0.00
 002700,-0.00001408,0.00002296,0.00002559,0.00000572,-0.00000321,-0.000
 00509,-0.00000037,-0.00000551,-0.00000568,-0.00006159,0.00557894,0.006
 59639,0.00050951,0.00066948,-0.00131590,-0.00616831,-0.31580014,0.0641
 2578,0.00123114,-0.01016067,0.00188112,-0.00184153,-0.01339166,0.00265
 875,0.00875186,0.33394238,-0.00009252,-0.00003011,-0.00013826,-0.00002
 566,-0.00005683,0.00007219,0.00000285,-0.00000241,-0.00001074,0.000028
 96,0.00000951,-0.00011854,-0.00019838,-0.00001281,0.00011395,0.0002204
 2,-0.00102871,-0.00051629,0.00713891,0.00562646,0.00175216,0.00021662,
 0.00000228,0.00005590,-0.00001063,-0.00002054,0.00000300,-0.00002141,0
 .00007581,-0.00015043,-0.00000251,0.00001185,-0.00001732,-0.00006697,0
 .00001287,0.00032945,0.00004905,0.00003907,-0.00009113,-0.00003933,-0.
 00000769,-0.00011079,0.00004697,-0.00006396,-0.00010551,-0.00001969,0.
 00000768,0.00001676,0.00000134,0.00001880,0.00001870,-0.00238363,0.035
 44674,-0.02949097,-0.00263730,-0.00155149,0.00123944,0.00123575,0.0549
 4824,-0.06290419,0.00143064,-0.01096289,0.00465818,-0.00145694,-0.0098
 6112,0.00494884,-0.00341655,-0.07260074,0.08044560\\-0.00003411,-0.000
 00844,-0.00000739,0.00000504,0.00001302,0.00004074,-0.00000033,-0.0000
 0084,-0.00000620,0.00000747,0.00000074,-0.00002895,0.00000022,-0.00000
 014,0.00000548,-0.00002418,-0.00000913,-0.00001201,0.00004484,0.000021
 93,0.00004887,0.00000371,0.00000054,0.00000088,0.00000110,-0.00000285,
 0.00000035,0.00001925,0.00001422,0.00000655,-0.00000359,0.00000052,-0.
 00000310,0.00000467,0.00002832,-0.00005279,-0.00000601,-0.00001402,0.0
 0002866,0.00001225,0.00000542,0.00002486,0.00000095,-0.00003950,0.0000
 0076,0.00000042,0.00000943,-0.00001700,0.00001571,0.00000069,0.0000040
 7,-0.00003733,-0.00001746,-0.00005428,-0.00000740,-0.00000321,-0.00001
 598,0.00001252,0.00000577,0.00004197,-0.00000433,-0.00000077,-0.000002
 93,-0.00000328,-0.00000692,-0.00000165,-0.00000760,0.00000268,-0.00000
 089\\\@
 The archive entry for this job was punched.


 Not by the face shall a man be known, but by the mask.
                               -- Karen Blixen
 Job cpu time:       0 days  1 hours 18 minutes 35.9 seconds.
 Elapsed time:       0 days  0 hours  4 minutes 57.7 seconds.
 File lengths (MBytes):  RWF=    218 Int=      0 D2E=      0 Chk=      8 Scr=      1
 Normal termination of Gaussian 16 at Sun May 22 15:43:42 2022.
