 Entering Gaussian System, Link 0=g16
 AtFile(1): /home/561/yj5695/Basis/6-31pGd.gbs
 Initial command:
 /apps/gaussian/g16c01/g16/l1.exe "/jobfs/48735345.gadi-pbs/Gau-573247.inp" -scrdir="/jobfs/48735345.gadi-pbs/"
 Entering Link 1 = /apps/gaussian/g16c01/g16/l1.exe PID=    573248.
  
 Copyright (c) 1988-2019, Gaussian, Inc.  All Rights Reserved.
  
 This is part of the Gaussian(R) 16 program.  It is based on
 the Gaussian(R) 09 system (copyright 2009, Gaussian, Inc.),
 the Gaussian(R) 03 system (copyright 2003, Gaussian, Inc.),
 the Gaussian(R) 98 system (copyright 1998, Gaussian, Inc.),
 the Gaussian(R) 94 system (copyright 1995, Gaussian, Inc.),
 the Gaussian 92(TM) system (copyright 1992, Gaussian, Inc.),
 the Gaussian 90(TM) system (copyright 1990, Gaussian, Inc.),
 the Gaussian 88(TM) system (copyright 1988, Gaussian, Inc.),
 the Gaussian 86(TM) system (copyright 1986, Carnegie Mellon
 University), and the Gaussian 82(TM) system (copyright 1983,
 Carnegie Mellon University). Gaussian is a federally registered
 trademark of Gaussian, Inc.
  
 This software contains proprietary and confidential information,
 including trade secrets, belonging to Gaussian, Inc.
  
 This software is provided under written license and may be
 used, copied, transmitted, or stored only in accord with that
 written license.
  
 The following legend is applicable only to US Government
 contracts under FAR:
  
                    RESTRICTED RIGHTS LEGEND
  
 Use, reproduction and disclosure by the US Government is
 subject to restrictions as set forth in subparagraphs (a)
 and (c) of the Commercial Computer Software - Restricted
 Rights clause in FAR 52.227-19.
  
 Gaussian, Inc.
 340 Quinnipiac St., Bldg. 40, Wallingford CT 06492
  
  
 ---------------------------------------------------------------
 Warning -- This program may not be used in any manner that
 competes with the business of Gaussian, Inc. or will provide
 assistance to any competitor of Gaussian, Inc.  The licensee
 of this program is prohibited from giving any competitor of
 Gaussian, Inc. access to this program.  By using this program,
 the user acknowledges that Gaussian, Inc. is engaged in the
 business of creating and licensing software in the field of
 computational chemistry and represents and warrants to the
 licensee that it is not a competitor of Gaussian, Inc. and that
 it will not use this program in any manner prohibited above.
 ---------------------------------------------------------------
  

 Cite this work as:
 Gaussian 16, Revision C.01,
 M. J. Frisch, G. W. Trucks, H. B. Schlegel, G. E. Scuseria, 
 M. A. Robb, J. R. Cheeseman, G. Scalmani, V. Barone, 
 G. A. Petersson, H. Nakatsuji, X. Li, M. Caricato, A. V. Marenich, 
 J. Bloino, B. G. Janesko, R. Gomperts, B. Mennucci, H. P. Hratchian, 
 J. V. Ortiz, A. F. Izmaylov, J. L. Sonnenberg, D. Williams-Young, 
 F. Ding, F. Lipparini, F. Egidi, J. Goings, B. Peng, A. Petrone, 
 T. Henderson, D. Ranasinghe, V. G. Zakrzewski, J. Gao, N. Rega, 
 G. Zheng, W. Liang, M. Hada, M. Ehara, K. Toyota, R. Fukuda, 
 J. Hasegawa, M. Ishida, T. Nakajima, Y. Honda, O. Kitao, H. Nakai, 
 T. Vreven, K. Throssell, J. A. Montgomery, Jr., J. E. Peralta, 
 F. Ogliaro, M. J. Bearpark, J. J. Heyd, E. N. Brothers, K. N. Kudin, 
 V. N. Staroverov, T. A. Keith, R. Kobayashi, J. Normand, 
 K. Raghavachari, A. P. Rendell, J. C. Burant, S. S. Iyengar, 
 J. Tomasi, M. Cossi, J. M. Millam, M. Klene, C. Adamo, R. Cammi, 
 J. W. Ochterski, R. L. Martin, K. Morokuma, O. Farkas, 
 J. B. Foresman, and D. J. Fox, Gaussian, Inc., Wallingford CT, 2019.
 
 ******************************************
 Gaussian 16:  ES64L-G16RevC.01  3-Jul-2019
                29-Jun-2022 
 ******************************************
 %nproc=16
 Will use up to   16 processors via shared memory.
 %mem=40gb
 --------------------------------------------------
 #M062X/gen 6D INT(grid=ultrafine) OPT Freq=noraman
 --------------------------------------------------
 1/18=20,19=15,26=4,38=1/1,3;
 2/9=110,12=2,17=6,18=5,40=1/2;
 3/5=7,8=2,11=2,25=1,30=1,71=1,74=-55,75=-5/1,2,3;
 4//1;
 5/5=2,38=5/2;
 6/7=2,8=2,9=2,10=2,28=1/1;
 7//1,2,3,16;
 1/18=20,19=15,26=4/3(2);
 2/9=110/2;
 99//99;
 2/9=110/2;
 3/5=7,6=1,8=2,11=2,25=1,30=1,71=1,74=-55,75=-5,82=7/1,2,3;
 4/5=5,16=3,69=1/1;
 5/5=2,38=5/2;
 7//1,2,3,16;
 1/18=20,19=15,26=4/3(-5);
 2/9=110/2;
 6/7=2,8=2,9=2,10=2,19=2,28=1/1;
 99/9=1/99;
 ----------
 HA.12.freq
 ----------
 Symbolic Z-matrix:
 Charge =  0 Multiplicity = 1
 C                    -1.30035   0.74377  -0.99428 
 C                    -2.49337   0.77141  -1.71667 
 H                    -3.45149   0.82107  -1.20808 
 C                    -2.42836   0.73984  -3.10342 
 H                    -3.34105   0.76301  -3.68966 
 C                    -1.18897   0.68158  -3.75269 
 C                    -1.16114   0.649    -5.25453 
 C                    -0.00749   0.65462  -3.0057 
 H                     0.9595    0.61516  -3.49584 
 C                    -0.05661   0.68384  -1.61381 
 H                     0.85649   0.66768  -1.02786 
 S                    -1.38121   0.73428   0.78593 
 O                    -0.06537   1.11059   1.29975 
 O                    -2.56091   1.49967   1.1873 
 N                    -1.64849  -0.8154    1.28493 
 H                    -0.88786  -1.43988   1.00855 
 H                    -2.54707  -1.17237   0.95288 
 O                    -2.21039   0.70649  -5.88244 
 C                     0.16273   0.54371  -5.95405 
 H                     0.69076  -0.3605   -5.63334 
 H                     0.79312   1.40244  -5.69944 
 H                     0.0011    0.51403  -7.0321 
 

 GradGradGradGradGradGradGradGradGradGradGradGradGradGradGradGradGradGrad
 Berny optimization.
 Initialization pass.
                           ----------------------------
                           !    Initial Parameters    !
                           ! (Angstroms and Degrees)  !
 --------------------------                            --------------------------
 ! Name  Definition              Value          Derivative Info.                !
 --------------------------------------------------------------------------------
 ! R1    R(1,2)                  1.395          estimate D2E/DX2                !
 ! R2    R(1,10)                 1.3908         estimate D2E/DX2                !
 ! R3    R(1,12)                 1.7821         estimate D2E/DX2                !
 ! R4    R(2,3)                  1.0859         estimate D2E/DX2                !
 ! R5    R(2,4)                  1.3886         estimate D2E/DX2                !
 ! R6    R(4,5)                  1.085          estimate D2E/DX2                !
 ! R7    R(4,6)                  1.4004         estimate D2E/DX2                !
 ! R8    R(6,7)                  1.5025         estimate D2E/DX2                !
 ! R9    R(6,8)                  1.3981         estimate D2E/DX2                !
 ! R10   R(7,18)                 1.2241         estimate D2E/DX2                !
 ! R11   R(7,19)                 1.501          estimate D2E/DX2                !
 ! R12   R(8,9)                  1.0848         estimate D2E/DX2                !
 ! R13   R(8,10)                 1.3931         estimate D2E/DX2                !
 ! R14   R(10,11)                1.085          estimate D2E/DX2                !
 ! R15   R(12,13)                1.4619         estimate D2E/DX2                !
 ! R16   R(12,14)                1.4624         estimate D2E/DX2                !
 ! R17   R(12,15)                1.6498         estimate D2E/DX2                !
 ! R18   R(15,16)                1.0222         estimate D2E/DX2                !
 ! R19   R(15,17)                1.0223         estimate D2E/DX2                !
 ! R20   R(19,20)                1.0951         estimate D2E/DX2                !
 ! R21   R(19,21)                1.0953         estimate D2E/DX2                !
 ! R22   R(19,22)                1.0905         estimate D2E/DX2                !
 ! A1    A(2,1,10)             122.3429         estimate D2E/DX2                !
 ! A2    A(2,1,12)             118.5953         estimate D2E/DX2                !
 ! A3    A(10,1,12)            119.0341         estimate D2E/DX2                !
 ! A4    A(1,2,3)              120.8621         estimate D2E/DX2                !
 ! A5    A(1,2,4)              118.4679         estimate D2E/DX2                !
 ! A6    A(3,2,4)              120.6694         estimate D2E/DX2                !
 ! A7    A(2,4,5)              119.9811         estimate D2E/DX2                !
 ! A8    A(2,4,6)              120.3578         estimate D2E/DX2                !
 ! A9    A(5,4,6)              119.661          estimate D2E/DX2                !
 ! A10   A(4,6,7)              118.7345         estimate D2E/DX2                !
 ! A11   A(4,6,8)              120.0665         estimate D2E/DX2                !
 ! A12   A(7,6,8)              121.199          estimate D2E/DX2                !
 ! A13   A(6,7,18)             119.7251         estimate D2E/DX2                !
 ! A14   A(6,7,19)             118.927          estimate D2E/DX2                !
 ! A15   A(18,7,19)            121.3479         estimate D2E/DX2                !
 ! A16   A(6,8,9)              120.8356         estimate D2E/DX2                !
 ! A17   A(6,8,10)             120.2419         estimate D2E/DX2                !
 ! A18   A(9,8,10)             118.922          estimate D2E/DX2                !
 ! A19   A(1,10,8)             118.5227         estimate D2E/DX2                !
 ! A20   A(1,10,11)            120.8398         estimate D2E/DX2                !
 ! A21   A(8,10,11)            120.6359         estimate D2E/DX2                !
 ! A22   A(1,12,13)            107.9932         estimate D2E/DX2                !
 ! A23   A(1,12,14)            107.938          estimate D2E/DX2                !
 ! A24   A(1,12,15)            108.3306         estimate D2E/DX2                !
 ! A25   A(13,12,14)           119.664          estimate D2E/DX2                !
 ! A26   A(13,12,15)           106.338          estimate D2E/DX2                !
 ! A27   A(14,12,15)           106.1351         estimate D2E/DX2                !
 ! A28   A(12,15,16)           111.808          estimate D2E/DX2                !
 ! A29   A(12,15,17)           111.8477         estimate D2E/DX2                !
 ! A30   A(16,15,17)           110.6647         estimate D2E/DX2                !
 ! A31   A(7,19,20)            110.2861         estimate D2E/DX2                !
 ! A32   A(7,19,21)            110.139          estimate D2E/DX2                !
 ! A33   A(7,19,22)            109.3832         estimate D2E/DX2                !
 ! A34   A(20,19,21)           107.5637         estimate D2E/DX2                !
 ! A35   A(20,19,22)           109.7863         estimate D2E/DX2                !
 ! A36   A(21,19,22)           109.6604         estimate D2E/DX2                !
 ! D1    D(10,1,2,3)          -179.8292         estimate D2E/DX2                !
 ! D2    D(10,1,2,4)            -0.1059         estimate D2E/DX2                !
 ! D3    D(12,1,2,3)             2.1041         estimate D2E/DX2                !
 ! D4    D(12,1,2,4)          -178.1726         estimate D2E/DX2                !
 ! D5    D(2,1,10,8)             0.1938         estimate D2E/DX2                !
 ! D6    D(2,1,10,11)          179.7395         estimate D2E/DX2                !
 ! D7    D(12,1,10,8)          178.2524         estimate D2E/DX2                !
 ! D8    D(12,1,10,11)          -2.2019         estimate D2E/DX2                !
 ! D9    D(2,1,12,13)         -163.0669         estimate D2E/DX2                !
 ! D10   D(2,1,12,14)          -32.3675         estimate D2E/DX2                !
 ! D11   D(2,1,12,15)           82.1499         estimate D2E/DX2                !
 ! D12   D(10,1,12,13)          18.8011         estimate D2E/DX2                !
 ! D13   D(10,1,12,14)         149.5005         estimate D2E/DX2                !
 ! D14   D(10,1,12,15)         -95.9821         estimate D2E/DX2                !
 ! D15   D(1,2,4,5)           -179.8333         estimate D2E/DX2                !
 ! D16   D(1,2,4,6)              0.0011         estimate D2E/DX2                !
 ! D17   D(3,2,4,5)             -0.1094         estimate D2E/DX2                !
 ! D18   D(3,2,4,6)            179.725          estimate D2E/DX2                !
 ! D19   D(2,4,6,7)           -179.9963         estimate D2E/DX2                !
 ! D20   D(2,4,6,8)              0.0109         estimate D2E/DX2                !
 ! D21   D(5,4,6,7)             -0.1614         estimate D2E/DX2                !
 ! D22   D(5,4,6,8)            179.8458         estimate D2E/DX2                !
 ! D23   D(4,6,7,18)             1.7738         estimate D2E/DX2                !
 ! D24   D(4,6,7,19)          -178.1286         estimate D2E/DX2                !
 ! D25   D(8,6,7,18)          -178.2335         estimate D2E/DX2                !
 ! D26   D(8,6,7,19)             1.8641         estimate D2E/DX2                !
 ! D27   D(4,6,8,9)           -179.6528         estimate D2E/DX2                !
 ! D28   D(4,6,8,10)             0.0791         estimate D2E/DX2                !
 ! D29   D(7,6,8,9)              0.3546         estimate D2E/DX2                !
 ! D30   D(7,6,8,10)          -179.9135         estimate D2E/DX2                !
 ! D31   D(6,7,19,20)           58.118          estimate D2E/DX2                !
 ! D32   D(6,7,19,21)          -60.4516         estimate D2E/DX2                !
 ! D33   D(6,7,19,22)          178.9573         estimate D2E/DX2                !
 ! D34   D(18,7,19,20)        -121.7827         estimate D2E/DX2                !
 ! D35   D(18,7,19,21)         119.6477         estimate D2E/DX2                !
 ! D36   D(18,7,19,22)          -0.9434         estimate D2E/DX2                !
 ! D37   D(6,8,10,1)            -0.1774         estimate D2E/DX2                !
 ! D38   D(6,8,10,11)         -179.724          estimate D2E/DX2                !
 ! D39   D(9,8,10,1)           179.5597         estimate D2E/DX2                !
 ! D40   D(9,8,10,11)            0.0131         estimate D2E/DX2                !
 ! D41   D(1,12,15,16)          61.7287         estimate D2E/DX2                !
 ! D42   D(1,12,15,17)         -63.0175         estimate D2E/DX2                !
 ! D43   D(13,12,15,16)        -54.1349         estimate D2E/DX2                !
 ! D44   D(13,12,15,17)       -178.8811         estimate D2E/DX2                !
 ! D45   D(14,12,15,16)        177.4252         estimate D2E/DX2                !
 ! D46   D(14,12,15,17)         52.679          estimate D2E/DX2                !
 --------------------------------------------------------------------------------
 Trust Radius=3.00D-01 FncErr=1.00D-07 GrdErr=1.00D-06 EigMax=2.50D+02 EigMin=1.00D-04
 Number of steps in this run=    114 maximum allowed number of steps=    132.
 GradGradGradGradGradGradGradGradGradGradGradGradGradGradGradGradGradGrad

                          Input orientation:                          
 ---------------------------------------------------------------------
 Center     Atomic      Atomic             Coordinates (Angstroms)
 Number     Number       Type             X           Y           Z
 ---------------------------------------------------------------------
      1          6           0       -1.300351    0.743773   -0.994277
      2          6           0       -2.493368    0.771413   -1.716668
      3          1           0       -3.451487    0.821074   -1.208078
      4          6           0       -2.428356    0.739835   -3.103421
      5          1           0       -3.341048    0.763009   -3.689661
      6          6           0       -1.188970    0.681581   -3.752694
      7          6           0       -1.161141    0.648998   -5.254534
      8          6           0       -0.007491    0.654620   -3.005701
      9          1           0        0.959498    0.615162   -3.495838
     10          6           0       -0.056606    0.683841   -1.613806
     11          1           0        0.856486    0.667676   -1.027861
     12         16           0       -1.381208    0.734278    0.785928
     13          8           0       -0.065366    1.110587    1.299751
     14          8           0       -2.560911    1.499668    1.187300
     15          7           0       -1.648492   -0.815396    1.284934
     16          1           0       -0.887862   -1.439878    1.008552
     17          1           0       -2.547074   -1.172370    0.952879
     18          8           0       -2.210393    0.706486   -5.882444
     19          6           0        0.162733    0.543707   -5.954046
     20          1           0        0.690764   -0.360501   -5.633336
     21          1           0        0.793124    1.402443   -5.699439
     22          1           0        0.001097    0.514034   -7.032101
 ---------------------------------------------------------------------
                    Distance matrix (angstroms):
                    1          2          3          4          5
     1  C    0.000000
     2  C    1.394956   0.000000
     3  H    2.163116   1.085874   0.000000
     4  C    2.391840   1.388635   2.155394   0.000000
     5  H    3.380815   2.147402   2.484718   1.084998   0.000000
     6  C    2.761365   2.419695   3.407860   1.400367   2.154540
     7  C    4.263584   3.782368   4.652859   2.498274   2.685856
     8  C    2.392752   2.802647   3.888478   2.424335   3.404725
     9  H    3.373613   3.887434   4.973232   3.412783   4.307450
    10  C    1.390795   2.440504   3.421793   2.801301   3.886258
    11  H    2.158440   3.421511   4.314469   3.886302   4.971273
    12  S    1.782066   2.738844   2.875700   4.027851   4.885969
    13  O    2.631027   3.887032   4.223605   5.010898   5.978724
    14  O    2.630526   2.994653   2.644135   4.359496   4.993599
    15  N    2.783346   3.498770   3.484815   4.720656   5.486593
    16  H    2.991622   3.859311   4.074006   4.902305   5.739690
    17  H    3.002888   3.302674   3.075958   4.486000   5.092079
    18  O    4.972298   4.175881   4.837679   2.787757   2.467767
    19  C    5.174935   5.006206   5.971912   3.857236   4.177561
    20  H    5.167671   5.173028   6.175538   4.164147   4.614722
    21  H    5.191824   5.202085   6.207015   4.190023   4.641063
    22  H    6.180766   5.877281   6.777452   4.624690   4.733268
                    6          7          8          9         10
     6  C    0.000000
     7  C    1.502451   0.000000
     8  C    1.398077   2.527487   0.000000
     9  H    2.164787   2.755225   1.084831   0.000000
    10  C    2.420144   3.804749   1.393068   2.139913   0.000000
    11  H    3.407169   4.683581   2.158351   2.470684   1.085048
    12  S    4.542997   6.045071   4.033596   4.881251   2.741503
    13  O    5.193624   6.661264   4.329916   4.928840   2.944657
    14  O    5.191823   6.646820   4.981497   5.925151   3.844907
    15  N    5.275395   6.719122   4.823213   5.630621   3.631048
    16  H    5.221180   6.607899   4.612613   5.284454   3.475332
    17  H    5.236793   6.615903   5.045565   5.939899   4.029370
    18  O    2.362152   1.224135   3.623688   3.968934   4.781274
    19  C    2.586902   1.501015   2.955337   2.585097   4.348038
    20  H    2.855897   2.142926   2.902154   2.364960   4.219696
    21  H    2.870219   2.141208   2.907997   2.345922   4.234481
    22  H    3.492684   2.128088   4.028863   3.665231   5.421262
                   11         12         13         14         15
    11  H    0.000000
    12  S    2.881239   0.000000
    13  O    2.542392   1.461870   0.000000
    14  O    4.156651   1.462402   2.528196   0.000000
    15  N    3.717988   1.649829   2.493174   2.490294   0.000000
    16  H    3.410500   2.240515   2.695583   3.387030   1.022215
    17  H    4.346645   2.241076   3.389851   2.682337   1.022321
    18  O    5.742319   6.719785   7.506555   7.122730   7.348685
    19  C    4.976340   6.917176   7.279489   7.702657   7.584888
    20  H    4.721759   6.833634   7.127659   7.781690   7.317206
    21  H    4.729433   6.872710   7.057680   7.660690   7.724103
    22  H    6.066811   7.942345   8.353445   8.665674   8.582634
                   16         17         18         19         20
    16  H    0.000000
    17  H    1.681560   0.000000
    18  O    7.337697   7.096837   0.000000
    19  C    7.315472   7.615352   2.379780   0.000000
    20  H    6.911714   7.383831   3.101166   1.095109   0.000000
    21  H    7.476740   7.876542   3.088521   1.095283   1.767150
    22  H    8.322267   8.549681   2.499887   1.090509   1.788014
                   21         22
    21  H    0.000000
    22  H    1.786775   0.000000
 Stoichiometry    C8H9NO3S
 Framework group  C1[X(C8H9NO3S)]
 Deg. of freedom    60
 Full point group                 C1      NOp   1
 Largest Abelian subgroup         C1      NOp   1
 Largest concise Abelian subgroup C1      NOp   1
                         Standard orientation:                         
 ---------------------------------------------------------------------
 Center     Atomic      Atomic             Coordinates (Angstroms)
 Number     Number       Type             X           Y           Z
 ---------------------------------------------------------------------
      1          6           0       -0.773771    0.000557   -0.103356
      2          6           0       -0.136753   -1.240084   -0.073010
      3          1           0       -0.710995   -2.161587   -0.087130
      4          6           0        1.250881   -1.270790   -0.030140
      5          1           0        1.771739   -2.222349   -0.008610
      6          6           0        1.985142   -0.078424   -0.017942
      7          6           0        3.484958   -0.154183    0.028678
      8          6           0        1.322778    1.152407   -0.048728
      9          1           0        1.879308    2.083601   -0.045365
     10          6           0       -0.068885    1.199417   -0.089969
     11          1           0       -0.589371    2.151053   -0.118516
     12         16           0       -2.555282    0.044721   -0.108515
     13          8           0       -2.972738    1.375818   -0.545520
     14          8           0       -3.033010   -1.135915   -0.827191
     15          7           0       -3.082900   -0.120108    1.445959
     16          1           0       -2.758267    0.645533    2.040375
     17          1           0       -2.817322   -1.023488    1.844096
     18          8           0        4.038039   -1.246229    0.022145
     19          6           0        4.274929    1.120902    0.084792
     20          1           0        3.985625    1.708472    0.962476
     21          1           0        4.071365    1.729990   -0.802462
     22          1           0        5.338734    0.885791    0.132242
 ---------------------------------------------------------------------
 Rotational constants (GHZ):           2.0716028           0.3391381           0.3111301
 General basis read from cards:  (6D, 7F)
 There are   269 symmetry adapted cartesian basis functions of A   symmetry.
 There are   269 symmetry adapted basis functions of A   symmetry.
   269 basis functions,   476 primitive gaussians,   269 cartesian basis functions
    52 alpha electrons       52 beta electrons
       nuclear repulsion energy       897.2324943703 Hartrees.
 NAtoms=   22 NActive=   22 NUniq=   22 SFac= 1.00D+00 NAtFMM=   60 NAOKFM=F Big=F
 Integral buffers will be    131072 words long.
 Raffenetti 2 integral format.
 Two-electron integral symmetry is turned on.
 One-electron integrals computed using PRISM.
 NBasis=   269 RedAO= T EigKep=  1.22D-06  NBF=   269
 NBsUse=   269 1.00D-06 EigRej= -1.00D+00 NBFU=   269
 ExpMin= 4.05D-02 ExpMax= 2.19D+04 ExpMxC= 3.30D+03 IAcc=3 IRadAn=         5 AccDes= 0.00D+00
 Harris functional with IExCor= 1009 and IRadAn=       5 diagonalized for initial guess.
 HarFok:  IExCor= 1009 AccDes= 0.00D+00 IRadAn=         5 IDoV= 1 UseB2=F ITyADJ=14
 ICtDFT=  3500011 ScaDFX=  1.000000  1.000000  1.000000  1.000000
 FoFCou: FMM=F IPFlag=           0 FMFlag=      100000 FMFlg1=           0
         NFxFlg=           0 DoJE=T BraDBF=F KetDBF=T FulRan=T
         wScrn=  0.000000 ICntrl=       500 IOpCl=  0 I1Cent=   200000004 NGrid=           0
         NMat0=    1 NMatS0=      1 NMatT0=    0 NMatD0=    1 NMtDS0=    0 NMtDT0=    0
 Petite list used in FoFCou.
 Requested convergence on RMS density matrix=1.00D-08 within 128 cycles.
 Requested convergence on MAX density matrix=1.00D-06.
 Requested convergence on             energy=1.00D-06.
 No special actions if energy rises.
 SCF Done:  E(RM062X) =  -988.554521135     A.U. after   16 cycles
            NFock= 16  Conv=0.93D-08     -V/T= 2.0065

 **********************************************************************

            Population analysis using the SCF Density.

 **********************************************************************

 Orbital symmetries:
       Occupied  (A) (A) (A) (A) (A) (A) (A) (A) (A) (A) (A) (A)
                 (A) (A) (A) (A) (A) (A) (A) (A) (A) (A) (A) (A)
                 (A) (A) (A) (A) (A) (A) (A) (A) (A) (A) (A) (A)
                 (A) (A) (A) (A) (A) (A) (A) (A) (A) (A) (A) (A)
                 (A) (A) (A) (A)
       Virtual   (A) (A) (A) (A) (A) (A) (A) (A) (A) (A) (A) (A)
                 (A) (A) (A) (A) (A) (A) (A) (A) (A) (A) (A) (A)
                 (A) (A) (A) (A) (A) (A) (A) (A) (A) (A) (A) (A)
                 (A) (A) (A) (A) (A) (A) (A) (A) (A) (A) (A) (A)
                 (A) (A) (A) (A) (A) (A) (A) (A) (A) (A) (A) (A)
                 (A) (A) (A) (A) (A) (A) (A) (A) (A) (A) (A) (A)
                 (A) (A) (A) (A) (A) (A) (A) (A) (A) (A) (A) (A)
                 (A) (A) (A) (A) (A) (A) (A) (A) (A) (A) (A) (A)
                 (A) (A) (A) (A) (A) (A) (A) (A) (A) (A) (A) (A)
                 (A) (A) (A) (A) (A) (A) (A) (A) (A) (A) (A) (A)
                 (A) (A) (A) (A) (A) (A) (A) (A) (A) (A) (A) (A)
                 (A) (A) (A) (A) (A) (A) (A) (A) (A) (A) (A) (A)
                 (A) (A) (A) (A) (A) (A) (A) (A) (A) (A) (A) (A)
                 (A) (A) (A) (A) (A) (A) (A) (A) (A) (A) (A) (A)
                 (A) (A) (A) (A) (A) (A) (A) (A) (A) (A) (A) (A)
                 (A) (A) (A) (A) (A) (A) (A) (A) (A) (A) (A) (A)
                 (A) (A) (A) (A) (A) (A) (A) (A) (A) (A) (A) (A)
                 (A) (A) (A) (A) (A) (A) (A) (A) (A) (A) (A) (A)
                 (A)
 The electronic state is 1-A.
 Alpha  occ. eigenvalues --  -90.17692 -19.66155 -19.65037 -19.64942 -14.81975
 Alpha  occ. eigenvalues --  -10.66749 -10.61844 -10.60091 -10.60011 -10.59970
 Alpha  occ. eigenvalues --  -10.59933 -10.59321 -10.57120  -8.48671  -6.40890
 Alpha  occ. eigenvalues --   -6.40824  -6.40752  -1.25154  -1.18601  -1.13334
 Alpha  occ. eigenvalues --   -1.04501  -1.00975  -0.91592  -0.88952  -0.86103
 Alpha  occ. eigenvalues --   -0.78742  -0.73403  -0.71982  -0.66602  -0.65221
 Alpha  occ. eigenvalues --   -0.63155  -0.59524  -0.57675  -0.57370  -0.55634
 Alpha  occ. eigenvalues --   -0.54144  -0.53253  -0.52929  -0.51412  -0.50401
 Alpha  occ. eigenvalues --   -0.48606  -0.46935  -0.44915  -0.44444  -0.42473
 Alpha  occ. eigenvalues --   -0.41037  -0.40548  -0.38624  -0.38463  -0.34927
 Alpha  occ. eigenvalues --   -0.34897  -0.34380
 Alpha virt. eigenvalues --   -0.06245  -0.01842  -0.00774   0.00777   0.02551
 Alpha virt. eigenvalues --    0.02906   0.03105   0.03829   0.04309   0.05184
 Alpha virt. eigenvalues --    0.05549   0.06180   0.06783   0.07241   0.08040
 Alpha virt. eigenvalues --    0.08668   0.08911   0.09475   0.09762   0.10112
 Alpha virt. eigenvalues --    0.11361   0.11857   0.12111   0.12847   0.13027
 Alpha virt. eigenvalues --    0.13328   0.14436   0.14990   0.15401   0.16098
 Alpha virt. eigenvalues --    0.16423   0.16998   0.17995   0.18534   0.18737
 Alpha virt. eigenvalues --    0.19718   0.20351   0.20531   0.20674   0.20947
 Alpha virt. eigenvalues --    0.21869   0.22533   0.22955   0.23774   0.23929
 Alpha virt. eigenvalues --    0.24893   0.25623   0.26358   0.26432   0.27426
 Alpha virt. eigenvalues --    0.28032   0.28578   0.29411   0.29674   0.30105
 Alpha virt. eigenvalues --    0.30893   0.31388   0.31659   0.32296   0.32975
 Alpha virt. eigenvalues --    0.33290   0.33767   0.34691   0.35252   0.35298
 Alpha virt. eigenvalues --    0.36427   0.37330   0.39287   0.39831   0.40376
 Alpha virt. eigenvalues --    0.42515   0.43337   0.45325   0.46796   0.47801
 Alpha virt. eigenvalues --    0.51678   0.55891   0.56187   0.56844   0.64398
 Alpha virt. eigenvalues --    0.65403   0.66952   0.67280   0.68449   0.70059
 Alpha virt. eigenvalues --    0.71098   0.72283   0.74307   0.75508   0.75917
 Alpha virt. eigenvalues --    0.76790   0.77125   0.78943   0.79432   0.81306
 Alpha virt. eigenvalues --    0.82300   0.83699   0.85489   0.88989   0.91544
 Alpha virt. eigenvalues --    0.92818   0.95127   0.97315   0.98247   0.98521
 Alpha virt. eigenvalues --    0.99065   1.01935   1.02307   1.03211   1.04245
 Alpha virt. eigenvalues --    1.07578   1.09088   1.10020   1.11190   1.11978
 Alpha virt. eigenvalues --    1.12428   1.15348   1.15656   1.16996   1.17592
 Alpha virt. eigenvalues --    1.19020   1.21262   1.23598   1.26703   1.28071
 Alpha virt. eigenvalues --    1.30198   1.31319   1.32325   1.34682   1.36405
 Alpha virt. eigenvalues --    1.37220   1.38145   1.38476   1.39694   1.40040
 Alpha virt. eigenvalues --    1.41361   1.41999   1.42814   1.44207   1.46178
 Alpha virt. eigenvalues --    1.48434   1.49737   1.51919   1.52940   1.53477
 Alpha virt. eigenvalues --    1.54438   1.60101   1.69616   1.72568   1.74108
 Alpha virt. eigenvalues --    1.75913   1.78070   1.80105   1.81407   1.81540
 Alpha virt. eigenvalues --    1.84289   1.86900   1.87561   1.89218   1.89853
 Alpha virt. eigenvalues --    1.90775   1.92122   1.95082   2.00034   2.01683
 Alpha virt. eigenvalues --    2.02575   2.04711   2.07038   2.08555   2.11401
 Alpha virt. eigenvalues --    2.11717   2.13538   2.15604   2.17052   2.17965
 Alpha virt. eigenvalues --    2.18837   2.21499   2.24105   2.28492   2.29472
 Alpha virt. eigenvalues --    2.30978   2.31612   2.34161   2.34982   2.43470
 Alpha virt. eigenvalues --    2.44936   2.46703   2.47889   2.55402   2.59123
 Alpha virt. eigenvalues --    2.63584   2.65507   2.66692   2.70890   2.78483
 Alpha virt. eigenvalues --    2.79834   2.82195   2.90046   2.91622   2.95623
 Alpha virt. eigenvalues --    2.99697   3.12897   3.21691   3.37795   3.87389
 Alpha virt. eigenvalues --    4.07495   4.20648   4.23495   4.24081   4.27458
 Alpha virt. eigenvalues --    4.29473   4.32297   4.35598   4.39612   4.42762
 Alpha virt. eigenvalues --    4.60454   4.73536
          Condensed to atoms (all electrons):
               1          2          3          4          5          6
     1  C   21.672971  -1.643442   0.138881  -1.907152   0.026633  -3.651503
     2  C   -1.643442  35.904842   0.097763 -15.924493  -0.087236   0.819263
     3  H    0.138881   0.097763   0.439804   0.004556  -0.003119  -0.023201
     4  C   -1.907152 -15.924493   0.004556  27.005670   0.328082  -2.102667
     5  H    0.026633  -0.087236  -0.003119   0.328082   0.435689   0.092857
     6  C   -3.651503   0.819263  -0.023201  -2.102667   0.092857  13.855327
     7  C   -1.376544  -2.228318   0.009860   2.022726  -0.079142  -3.681015
     8  C    0.388588   6.488459  -0.070706  -8.819949   0.066796   0.644285
     9  H    0.002131  -0.054781   0.000014   0.111139  -0.000108   0.100090
    10  C   -5.897676 -18.282674   0.151336   4.868360  -0.061006   0.365542
    11  H    0.094003   0.070186  -0.000114  -0.024655   0.000012  -0.013113
    12  S   -0.063723   1.017575  -0.000523  -1.000641   0.001017  -0.573278
    13  O   -0.012411   0.031237   0.001226   0.192403   0.000019  -0.024927
    14  O    0.054848  -0.221584  -0.002437  -0.157626   0.000116  -0.065143
    15  N   -0.642913   0.054944  -0.000080   0.412160   0.000001   0.160280
    16  H    0.052587   0.083586   0.000037  -0.009524  -0.000000  -0.007736
    17  H    0.048422  -0.101615  -0.000113  -0.028948   0.000001  -0.006626
    18  O    0.015675   0.053106   0.000165   0.277750   0.005327  -0.490906
    19  C    0.032048  -0.139374  -0.000080   0.480625   0.011895   0.158378
    20  H   -0.001919   0.005444  -0.000000  -0.009867  -0.000001  -0.016499
    21  H   -0.003382  -0.002457  -0.000000   0.000117  -0.000003  -0.062941
    22  H    0.001191  -0.002980  -0.000000  -0.019012  -0.000004   0.060882
               7          8          9         10         11         12
     1  C   -1.376544   0.388588   0.002131  -5.897676   0.094003  -0.063723
     2  C   -2.228318   6.488459  -0.054781 -18.282674   0.070186   1.017575
     3  H    0.009860  -0.070706   0.000014   0.151336  -0.000114  -0.000523
     4  C    2.022726  -8.819949   0.111139   4.868360  -0.024655  -1.000641
     5  H   -0.079142   0.066796  -0.000108  -0.061006   0.000012   0.001017
     6  C   -3.681015   0.644285   0.100090   0.365542  -0.013113  -0.573278
     7  C   10.932839  -2.352214  -0.015322   3.063512  -0.004687  -0.312800
     8  C   -2.352214  32.181039   0.026524 -21.794702   0.105851  -0.228876
     9  H   -0.015322   0.026524   0.487277   0.122381  -0.003562   0.001828
    10  C    3.063512 -21.794702   0.122381  45.227301   0.081357  -0.722004
    11  H   -0.004687   0.105851  -0.003562   0.081357   0.432472  -0.006844
    12  S   -0.312800  -0.228876   0.001828  -0.722004  -0.006844  16.549148
    13  O   -0.002123  -0.073398   0.000237  -0.261172  -0.000328   0.278911
    14  O   -0.018561   0.261569   0.000018  -0.090229   0.001161   0.393074
    15  N    0.029542   0.271027   0.000004   0.202105   0.001768  -1.072582
    16  H   -0.000731  -0.032475   0.000001  -0.140334  -0.000031   0.099457
    17  H   -0.001117   0.000948   0.000000   0.046989   0.000001   0.089251
    18  O    0.576771  -0.210390  -0.000121   0.058589   0.000017   0.000481
    19  C   -1.045059  -0.336918   0.004184  -0.411695   0.001976  -0.002532
    20  H   -0.028091   0.005707  -0.001322   0.016704  -0.000000  -0.000062
    21  H    0.012605  -0.008651  -0.001244   0.054801  -0.000003  -0.000049
    22  H   -0.140723   0.012149   0.000160  -0.004431  -0.000000  -0.000001
              13         14         15         16         17         18
     1  C   -0.012411   0.054848  -0.642913   0.052587   0.048422   0.015675
     2  C    0.031237  -0.221584   0.054944   0.083586  -0.101615   0.053106
     3  H    0.001226  -0.002437  -0.000080   0.000037  -0.000113   0.000165
     4  C    0.192403  -0.157626   0.412160  -0.009524  -0.028948   0.277750
     5  H    0.000019   0.000116   0.000001  -0.000000   0.000001   0.005327
     6  C   -0.024927  -0.065143   0.160280  -0.007736  -0.006626  -0.490906
     7  C   -0.002123  -0.018561   0.029542  -0.000731  -0.001117   0.576771
     8  C   -0.073398   0.261569   0.271027  -0.032475   0.000948  -0.210390
     9  H    0.000237   0.000018   0.000004   0.000001   0.000000  -0.000121
    10  C   -0.261172  -0.090229   0.202105  -0.140334   0.046989   0.058589
    11  H   -0.000328   0.001161   0.001768  -0.000031   0.000001   0.000017
    12  S    0.278911   0.393074  -1.072582   0.099457   0.089251   0.000481
    13  O    8.726592  -0.178570  -0.133166  -0.007131   0.010236   0.000012
    14  O   -0.178570   8.682136  -0.154318   0.009653  -0.004860  -0.000025
    15  N   -0.133166  -0.154318   8.370283   0.212108   0.203056   0.000012
    16  H   -0.007131   0.009653   0.212108   0.317034  -0.021602   0.000000
    17  H    0.010236  -0.004860   0.203056  -0.021602   0.321154  -0.000000
    18  O    0.000012  -0.000025   0.000012   0.000000  -0.000000   8.205180
    19  C    0.000244   0.000286   0.001522  -0.000045  -0.000004  -0.083482
    20  H   -0.000001   0.000000   0.000003  -0.000000  -0.000000   0.002402
    21  H    0.000000  -0.000000  -0.000001   0.000000  -0.000000   0.002068
    22  H    0.000000   0.000000   0.000000  -0.000000   0.000000  -0.000060
              19         20         21         22
     1  C    0.032048  -0.001919  -0.003382   0.001191
     2  C   -0.139374   0.005444  -0.002457  -0.002980
     3  H   -0.000080  -0.000000  -0.000000  -0.000000
     4  C    0.480625  -0.009867   0.000117  -0.019012
     5  H    0.011895  -0.000001  -0.000003  -0.000004
     6  C    0.158378  -0.016499  -0.062941   0.060882
     7  C   -1.045059  -0.028091   0.012605  -0.140723
     8  C   -0.336918   0.005707  -0.008651   0.012149
     9  H    0.004184  -0.001322  -0.001244   0.000160
    10  C   -0.411695   0.016704   0.054801  -0.004431
    11  H    0.001976  -0.000000  -0.000003  -0.000000
    12  S   -0.002532  -0.000062  -0.000049  -0.000001
    13  O    0.000244  -0.000001   0.000000   0.000000
    14  O    0.000286   0.000000  -0.000000   0.000000
    15  N    0.001522   0.000003  -0.000001   0.000000
    16  H   -0.000045  -0.000000   0.000000  -0.000000
    17  H   -0.000004  -0.000000  -0.000000   0.000000
    18  O   -0.083482   0.002402   0.002068  -0.000060
    19  C    6.996023   0.364637   0.346162   0.443723
    20  H    0.364637   0.471335  -0.029149  -0.018214
    21  H    0.346162  -0.029149   0.467396  -0.017809
    22  H    0.443723  -0.018214  -0.017809   0.425082
 Mulliken charges:
               1
     1  C   -1.327311
     2  C    0.062549
     3  H    0.256730
     4  C    0.300948
     5  H    0.262174
     6  C    0.462649
     7  C    0.638591
     8  C   -0.524664
     9  H    0.220471
    10  C   -0.593053
    11  H    0.264532
    12  S    1.553171
    13  O   -0.547890
    14  O   -0.509510
    15  N   -0.915757
    16  H    0.445150
    17  H    0.444827
    18  O   -0.412569
    19  C   -0.822515
    20  H    0.238892
    21  H    0.242539
    22  H    0.260047
 Sum of Mulliken charges =  -0.00000
 Mulliken charges with hydrogens summed into heavy atoms:
               1
     1  C   -1.327311
     2  C    0.319279
     4  C    0.563121
     6  C    0.462649
     7  C    0.638591
     8  C   -0.304193
    10  C   -0.328520
    12  S    1.553171
    13  O   -0.547890
    14  O   -0.509510
    15  N   -0.025781
    18  O   -0.412569
    19  C   -0.081038
 Electronic spatial extent (au):  <R**2>=           3412.0076
 Charge=             -0.0000 electrons
 Dipole moment (field-independent basis, Debye):
    X=              3.4161    Y=              1.9554    Z=              4.0387  Tot=              5.6395
 Quadrupole moment (field-independent basis, Debye-Ang):
   XX=           -105.7728   YY=            -81.6658   ZZ=            -80.7481
   XY=             13.1547   XZ=            -11.2115   YZ=             -0.8187
 Traceless Quadrupole moment (field-independent basis, Debye-Ang):
   XX=            -16.3772   YY=              7.7298   ZZ=              8.6474
   XY=             13.1547   XZ=            -11.2115   YZ=             -0.8187
 Octapole moment (field-independent basis, Debye-Ang**2):
  XXX=             35.9454  YYY=             -3.5069  ZZZ=             13.8757  XYY=              0.9299
  XXY=             43.8397  XXZ=             26.9860  XZZ=            -13.5447  YZZ=              0.4046
  YYZ=              7.9319  XYZ=              2.6905
 Hexadecapole moment (field-independent basis, Debye-Ang**3):
 XXXX=          -4000.4845 YYYY=           -552.7940 ZZZZ=           -201.1484 XXXY=            204.0484
 XXXZ=            -50.3890 YYYX=             13.5292 YYYZ=             -2.8047 ZZZX=            -33.3502
 ZZZY=             -0.5498 XXYY=           -770.3367 XXZZ=           -621.8630 YYZZ=           -132.7114
 XXYZ=             -6.5771 YYXZ=            -25.2858 ZZXY=             -3.3990
 N-N= 8.972324943703D+02 E-N=-4.114634319914D+03  KE= 9.821429215857D+02
 Calling FoFJK, ICntrl=      2127 FMM=F ISym2X=0 I1Cent= 0 IOpClX= 0 NMat=1 NMatS=1 NMatT=0.
 ***** Axes restored to original set *****
 -------------------------------------------------------------------
 Center     Atomic                   Forces (Hartrees/Bohr)
 Number     Number              X              Y              Z
 -------------------------------------------------------------------
      1        6          -0.000383069   -0.003308464    0.001143433
      2        6           0.002075002   -0.000696148   -0.002553309
      3        1           0.000692797    0.001356010    0.001376334
      4        6          -0.000840518   -0.000040132    0.000734806
      5        1           0.001112005    0.000060949   -0.002185339
      6        6           0.001722104    0.000064915   -0.000250741
      7        6          -0.020137588    0.001216035   -0.007732039
      8        6          -0.001954834    0.000128496    0.001452324
      9        1           0.000039318   -0.000010645   -0.000387203
     10        6          -0.000200122   -0.000486407   -0.001749546
     11        1          -0.000828173    0.000968927    0.001997303
     12       16           0.003265838    0.032043468    0.019966036
     13        8          -0.006803130   -0.008634280   -0.008909663
     14        8           0.005383301   -0.011070673   -0.008415680
     15        7          -0.001802410   -0.013815556   -0.005998386
     16        1          -0.001498254    0.001895909    0.002810201
     17        1           0.001925425    0.001468047    0.002920388
     18        8           0.013341603   -0.000956975    0.007784339
     19        6           0.003977597   -0.000109235   -0.001031227
     20        1           0.000615534   -0.000133179   -0.000783425
     21        1           0.000631761   -0.000011447   -0.000839292
     22        1          -0.000334190    0.000070386    0.000650686
 -------------------------------------------------------------------
 Cartesian Forces:  Max     0.032043468 RMS     0.006624122

 GradGradGradGradGradGradGradGradGradGradGradGradGradGradGradGradGradGrad
 Berny optimization.
 FormGI is forming the generalized inverse of G from B-inverse, IUseBI=4.
 Internal  Forces:  Max     0.015470002 RMS     0.003065055
 Search for a local minimum.
 Step number   1 out of a maximum of  114
 All quantities printed in internal units (Hartrees-Bohrs-Radians)
 Mixed Optimization -- RFO/linear search
 Second derivative matrix not updated -- first step.
 ITU=  0
     Eigenvalues ---    0.00608   0.00734   0.00745   0.00753   0.01566
     Eigenvalues ---    0.01704   0.01960   0.02111   0.02145   0.02160
     Eigenvalues ---    0.02179   0.02185   0.02197   0.02206   0.04571
     Eigenvalues ---    0.07426   0.07450   0.09531   0.10398   0.14197
     Eigenvalues ---    0.15999   0.16000   0.16000   0.16000   0.16000
     Eigenvalues ---    0.16000   0.16000   0.16000   0.16000   0.19752
     Eigenvalues ---    0.22000   0.22989   0.23996   0.24987   0.25000
     Eigenvalues ---    0.25000   0.25000   0.25000   0.27582   0.32122
     Eigenvalues ---    0.32271   0.34209   0.34229   0.34754   0.35294
     Eigenvalues ---    0.35391   0.35397   0.35417   0.42189   0.42469
     Eigenvalues ---    0.42675   0.43970   0.43987   0.46014   0.46250
     Eigenvalues ---    0.46904   0.47309   0.90608   0.90829   0.93575
 RFO step:  Lambda=-3.52793046D-03 EMin= 6.07539040D-03
 Linear search not attempted -- first point.
 Iteration  1 RMS(Cart)=  0.02393950 RMS(Int)=  0.00041259
 Iteration  2 RMS(Cart)=  0.00068147 RMS(Int)=  0.00016510
 Iteration  3 RMS(Cart)=  0.00000021 RMS(Int)=  0.00016510
 Variable       Old X    -DE/DX   Delta X   Delta X   Delta X     New X
                                 (Linear)    (Quad)   (Total)
    R1        2.63608  -0.00020   0.00000  -0.00051  -0.00049   2.63559
    R2        2.62822  -0.00113   0.00000  -0.00241  -0.00240   2.62582
    R3        3.36762   0.00234   0.00000   0.00838   0.00838   3.37600
    R4        2.05200   0.00010   0.00000   0.00027   0.00027   2.05227
    R5        2.62414   0.00114   0.00000   0.00234   0.00235   2.62649
    R6        2.05035   0.00025   0.00000   0.00069   0.00069   2.05104
    R7        2.64631  -0.00132   0.00000  -0.00283  -0.00284   2.64347
    R8        2.83922   0.00192   0.00000   0.00591   0.00591   2.84513
    R9        2.64198   0.00035   0.00000   0.00084   0.00082   2.64281
   R10        2.31328  -0.01547   0.00000  -0.01647  -0.01647   2.29681
   R11        2.83651   0.00525   0.00000   0.01608   0.01608   2.85258
   R12        2.05003   0.00021   0.00000   0.00059   0.00059   2.05062
   R13        2.63252   0.00137   0.00000   0.00294   0.00293   2.63545
   R14        2.05044   0.00037   0.00000   0.00103   0.00103   2.05147
   R15        2.76253  -0.01147   0.00000  -0.01258  -0.01258   2.74995
   R16        2.76354  -0.01245   0.00000  -0.01369  -0.01369   2.74985
   R17        3.11773   0.00996   0.00000   0.02315   0.02315   3.14087
   R18        1.93171  -0.00303   0.00000  -0.00683  -0.00683   1.92488
   R19        1.93191  -0.00316   0.00000  -0.00713  -0.00713   1.92478
   R20        2.06946   0.00017   0.00000   0.00050   0.00050   2.06996
   R21        2.06979   0.00016   0.00000   0.00045   0.00045   2.07024
   R22        2.06076  -0.00059   0.00000  -0.00169  -0.00169   2.05907
    A1        2.13529  -0.00180   0.00000  -0.00735  -0.00738   2.12790
    A2        2.06988   0.00190   0.00000   0.00797   0.00785   2.07773
    A3        2.07754  -0.00009   0.00000   0.00012  -0.00001   2.07753
    A4        2.10944  -0.00236   0.00000  -0.01290  -0.01300   2.09644
    A5        2.06766   0.00154   0.00000   0.00629   0.00626   2.07392
    A6        2.10608   0.00082   0.00000   0.00651   0.00640   2.11248
    A7        2.09406   0.00242   0.00000   0.01509   0.01505   2.10912
    A8        2.10064   0.00014   0.00000   0.00030   0.00030   2.10094
    A9        2.08848  -0.00256   0.00000  -0.01541  -0.01545   2.07303
   A10        2.07231  -0.00292   0.00000  -0.01151  -0.01152   2.06079
   A11        2.09556  -0.00130   0.00000  -0.00518  -0.00519   2.09037
   A12        2.11532   0.00423   0.00000   0.01669   0.01668   2.13200
   A13        2.08960  -0.00038   0.00000  -0.00149  -0.00149   2.08811
   A14        2.07567   0.00117   0.00000   0.00460   0.00460   2.08027
   A15        2.11792  -0.00079   0.00000  -0.00312  -0.00312   2.11480
   A16        2.10898  -0.00075   0.00000  -0.00389  -0.00389   2.10509
   A17        2.09862   0.00082   0.00000   0.00360   0.00360   2.10221
   A18        2.07558  -0.00007   0.00000   0.00027   0.00027   2.07585
   A19        2.06861   0.00060   0.00000   0.00237   0.00236   2.07097
   A20        2.10905  -0.00252   0.00000  -0.01478  -0.01483   2.09422
   A21        2.10549   0.00191   0.00000   0.01230   0.01224   2.11774
   A22        1.88484  -0.00230   0.00000  -0.01622  -0.01671   1.86813
   A23        1.88387  -0.00189   0.00000  -0.01299  -0.01340   1.87047
   A24        1.89072  -0.00331   0.00000  -0.03250  -0.03314   1.85759
   A25        2.08853   0.00766   0.00000   0.06911   0.06924   2.15777
   A26        1.85595  -0.00054   0.00000  -0.00880  -0.00945   1.84650
   A27        1.85241  -0.00050   0.00000  -0.00729  -0.00784   1.84457
   A28        1.95142   0.00116   0.00000   0.01553   0.01518   1.96659
   A29        1.95211   0.00102   0.00000   0.01465   0.01430   1.96641
   A30        1.93146   0.00044   0.00000   0.01721   0.01664   1.94811
   A31        1.92486   0.00137   0.00000   0.00945   0.00941   1.93426
   A32        1.92229   0.00143   0.00000   0.00976   0.00972   1.93201
   A33        1.90910  -0.00133   0.00000  -0.01021  -0.01019   1.89891
   A34        1.87734  -0.00063   0.00000   0.00030   0.00020   1.87754
   A35        1.91613  -0.00039   0.00000  -0.00438  -0.00436   1.91177
   A36        1.91394  -0.00044   0.00000  -0.00477  -0.00475   1.90918
    D1       -3.13861   0.00086   0.00000   0.03664   0.03653  -3.10209
    D2       -0.00185   0.00027   0.00000   0.01316   0.01319   0.01134
    D3        0.03672   0.00036   0.00000   0.01072   0.01064   0.04736
    D4       -3.10970  -0.00024   0.00000  -0.01277  -0.01270  -3.12240
    D5        0.00338  -0.00023   0.00000  -0.01157  -0.01156  -0.00818
    D6        3.13705  -0.00064   0.00000  -0.02782  -0.02766   3.10939
    D7        3.11109   0.00031   0.00000   0.01461   0.01447   3.12556
    D8       -0.03843  -0.00010   0.00000  -0.00164  -0.00163  -0.04006
    D9       -2.84606  -0.00301   0.00000  -0.00309  -0.00278  -2.84883
   D10       -0.56492   0.00372   0.00000   0.06381   0.06362  -0.50130
   D11        1.43379   0.00049   0.00000   0.03216   0.03216   1.46595
   D12        0.32814  -0.00346   0.00000  -0.02799  -0.02776   0.30038
   D13        2.60928   0.00328   0.00000   0.03891   0.03864   2.64791
   D14       -1.67520   0.00004   0.00000   0.00726   0.00718  -1.66802
   D15       -3.13868   0.00018   0.00000   0.00658   0.00666  -3.13202
   D16        0.00002  -0.00012   0.00000  -0.00551  -0.00555  -0.00553
   D17       -0.00191  -0.00043   0.00000  -0.01692  -0.01695  -0.01886
   D18        3.13679  -0.00073   0.00000  -0.02901  -0.02916   3.10763
   D19       -3.14153   0.00012   0.00000   0.00552   0.00542  -3.13611
   D20        0.00019  -0.00005   0.00000  -0.00326  -0.00329  -0.00310
   D21       -0.00282  -0.00017   0.00000  -0.00648  -0.00649  -0.00931
   D22        3.13890  -0.00034   0.00000  -0.01526  -0.01520   3.12370
   D23        0.03096  -0.00030   0.00000  -0.02423  -0.02426   0.00670
   D24       -3.10893  -0.00029   0.00000  -0.02322  -0.02325  -3.13218
   D25       -3.11076  -0.00013   0.00000  -0.01536  -0.01533  -3.12609
   D26        0.03254  -0.00012   0.00000  -0.01435  -0.01432   0.01821
   D27       -3.13553   0.00022   0.00000   0.00995   0.01001  -3.12552
   D28        0.00138   0.00009   0.00000   0.00488   0.00494   0.00632
   D29        0.00619   0.00004   0.00000   0.00096   0.00094   0.00713
   D30       -3.14008  -0.00008   0.00000  -0.00411  -0.00414   3.13897
   D31        1.01435   0.00047   0.00000   0.00544   0.00549   1.01984
   D32       -1.05508  -0.00049   0.00000  -0.00683  -0.00688  -1.06196
   D33        3.12339   0.00000   0.00000  -0.00057  -0.00057   3.12283
   D34       -2.12551   0.00048   0.00000   0.00647   0.00651  -2.11900
   D35        2.08825  -0.00048   0.00000  -0.00581  -0.00585   2.08239
   D36       -0.01647   0.00001   0.00000   0.00046   0.00046  -0.01601
   D37       -0.00310   0.00004   0.00000   0.00233   0.00232  -0.00078
   D38       -3.13678   0.00048   0.00000   0.01867   0.01877  -3.11801
   D39        3.13391  -0.00008   0.00000  -0.00265  -0.00268   3.13122
   D40        0.00023   0.00035   0.00000   0.01369   0.01376   0.01399
   D41        1.07737   0.00096   0.00000   0.02145   0.02160   1.09897
   D42       -1.09986  -0.00130   0.00000  -0.02440  -0.02452  -1.12438
   D43       -0.94483   0.00551   0.00000   0.06056   0.06054  -0.88429
   D44       -3.12206   0.00325   0.00000   0.01472   0.01442  -3.10764
   D45        3.09665  -0.00308   0.00000  -0.01291  -0.01263   3.08402
   D46        0.91942  -0.00533   0.00000  -0.05875  -0.05875   0.86067
         Item               Value     Threshold  Converged?
 Maximum Force            0.015470     0.000450     NO 
 RMS     Force            0.003065     0.000300     NO 
 Maximum Displacement     0.086728     0.001800     NO 
 RMS     Displacement     0.023850     0.001200     NO 
 Predicted change in Energy=-1.813466D-03
 GradGradGradGradGradGradGradGradGradGradGradGradGradGradGradGradGradGrad

                          Input orientation:                          
 ---------------------------------------------------------------------
 Center     Atomic      Atomic             Coordinates (Angstroms)
 Number     Number       Type             X           Y           Z
 ---------------------------------------------------------------------
      1          6           0       -1.304573    0.736818   -0.981265
      2          6           0       -2.489380    0.779408   -1.715838
      3          1           0       -3.444052    0.866968   -1.205580
      4          6           0       -2.419275    0.742160   -3.103447
      5          1           0       -3.320174    0.782374   -3.707413
      6          6           0       -1.179531    0.670003   -3.747378
      7          6           0       -1.163613    0.639629   -5.252565
      8          6           0       -0.004372    0.638948   -2.989834
      9          1           0        0.965192    0.598038   -3.475433
     10          6           0       -0.060486    0.671842   -1.596733
     11          1           0        0.843139    0.670273   -0.995093
     12         16           0       -1.389273    0.754412    0.803139
     13          8           0       -0.063546    1.105982    1.289435
     14          8           0       -2.599216    1.475460    1.168676
     15          7           0       -1.642800   -0.818283    1.277328
     16          1           0       -0.873445   -1.434647    1.020940
     17          1           0       -2.538711   -1.184394    0.959915
     18          8           0       -2.212003    0.684958   -5.865807
     19          6           0        0.159747    0.549531   -5.973163
     20          1           0        0.707152   -0.349912   -5.671177
     21          1           0        0.788942    1.414662   -5.736876
     22          1           0       -0.026145    0.519810   -7.046392
 ---------------------------------------------------------------------
                    Distance matrix (angstroms):
                    1          2          3          4          5
     1  C    0.000000
     2  C    1.394697   0.000000
     3  H    2.155140   1.086016   0.000000
     4  C    2.397132   1.389877   2.160473   0.000000
     5  H    3.390665   2.157915   2.506326   1.085363   0.000000
     6  C    2.769743   2.419674   3.409924   1.398863   2.143963
     7  C    4.274730   3.779634   4.650826   2.491167   2.656808
     8  C    2.394671   2.796079   3.881618   2.419776   3.395591
     9  H    3.375198   3.881125   4.966486   3.407897   4.295598
    10  C    1.389523   2.434190   3.411685   2.799824   3.884940
    11  H    2.148786   3.411314   4.296859   3.885056   4.970153
    12  S    1.786500   2.748837   2.875715   4.040107   4.906551
    13  O    2.613908   3.875950   4.208331   4.997923   5.973177
    14  O    2.616093   2.969339   2.592509   4.338334   4.977589
    15  N    2.762966   3.496908   3.499916   4.714773   5.497576
    16  H    2.984955   3.873402   4.106439   4.913109   5.767061
    17  H    2.997054   3.319429   3.117226   4.498531   5.124726
    18  O    4.968387   4.160300   4.823773   2.770716   2.428209
    19  C    5.205608   5.019515   5.984813   3.863124   4.159049
    20  H    5.217594   5.209404   6.217303   4.190514   4.621450
    21  H    5.240049   5.226823   6.225018   4.204743   4.626375
    22  H    6.202196   5.877901   6.776260   4.617719   4.697697
                    6          7          8          9         10
     6  C    0.000000
     7  C    1.505578   0.000000
     8  C    1.398513   2.542399   0.000000
     9  H    2.163093   2.773398   1.085142   0.000000
    10  C    2.424363   3.818774   1.394618   2.141722   0.000000
    11  H    3.415591   4.706810   2.167544   2.484391   1.085592
    12  S    4.556130   6.060994   4.039545   4.886117   2.744427
    13  O    5.177353   6.650218   4.305086   4.901049   2.918640
    14  O    5.179947   6.632640   4.972542   5.919681   3.839068
    15  N    5.260920   6.707804   4.797566   5.603242   3.603390
    16  H    5.221119   6.613901   4.597976   5.265905   3.456936
    17  H    5.238775   6.619129   5.034676   5.926779   4.015428
    18  O    2.356685   1.215419   3.625876   3.976935   4.780605
    19  C    2.600442   1.509523   2.989178   2.624834   4.383674
    20  H    2.881112   2.157357   2.945117   2.405512   4.270169
    21  H    2.896120   2.155853   2.962654   2.410822   4.291164
    22  H    3.498051   2.127441   4.058366   3.706834   5.451887
                   11         12         13         14         15
    11  H    0.000000
    12  S    2.867818   0.000000
    13  O    2.496195   1.455211   0.000000
    14  O    4.144880   1.455159   2.565291   0.000000
    15  N    3.682334   1.662078   2.489375   2.487527   0.000000
    16  H    3.382563   2.259535   2.680079   3.386566   1.018600
    17  H    4.324205   2.259371   3.388341   2.668720   1.018551
    18  O    5.749605   6.719862   7.482688   7.089343   7.321756
    19  C    5.026210   6.954115   7.287306   7.712009   7.595375
    20  H    4.788009   6.894295   7.152883   7.813299   7.350060
    21  H    4.800162   6.924763   7.084566   7.692201   7.752321
    22  H    6.115269   7.970464   8.356496   8.661484   8.584194
                   16         17         18         19         20
    16  H    0.000000
    17  H    1.685070   0.000000
    18  O    7.328829   7.084610   0.000000
    19  C    7.343155   7.639093   2.378038   0.000000
    20  H    6.961276   7.429897   3.103274   1.095375   0.000000
    21  H    7.519984   7.916778   3.091079   1.095523   1.767690
    22  H    8.343840   8.562608   2.489786   1.089615   1.784757
                   21         22
    21  H    0.000000
    22  H    1.783244   0.000000
 Stoichiometry    C8H9NO3S
 Framework group  C1[X(C8H9NO3S)]
 Deg. of freedom    60
 Full point group                 C1      NOp   1
 Largest Abelian subgroup         C1      NOp   1
 Largest concise Abelian subgroup C1      NOp   1
                         Standard orientation:                         
 ---------------------------------------------------------------------
 Center     Atomic      Atomic             Coordinates (Angstroms)
 Number     Number       Type             X           Y           Z
 ---------------------------------------------------------------------
      1          6           0       -0.784106    0.000954   -0.098096
      2          6           0       -0.136237   -1.233987   -0.078967
      3          1           0       -0.713180   -2.152825   -0.126960
      4          6           0        1.252579   -1.261508   -0.032135
      5          1           0        1.790546   -2.204139   -0.024989
      6          6           0        1.983401   -0.068910   -0.011487
      7          6           0        3.485642   -0.159139    0.032078
      8          6           0        1.311997    1.157519   -0.041906
      9          1           0        1.865691    2.090770   -0.041429
     10          6           0       -0.081317    1.199576   -0.085087
     11          1           0       -0.616539    2.142945   -0.130940
     12         16           0       -2.569851    0.043196   -0.128302
     13          8           0       -2.957633    1.382343   -0.545374
     14          8           0       -3.017013   -1.169994   -0.795914
     15          7           0       -3.070341   -0.101857    1.449979
     16          1           0       -2.763050    0.675247    2.032411
     17          1           0       -2.820237   -1.000015    1.860108
     18          8           0        4.022303   -1.249625    0.041031
     19          6           0        4.298828    1.112133    0.067487
     20          1           0        4.031583    1.721244    0.937779
     21          1           0        4.113455    1.715377   -0.828004
     22          1           0        5.355749    0.851654    0.115737
 ---------------------------------------------------------------------
 Rotational constants (GHZ):           2.0684283           0.3393344           0.3110314
 Basis read from rwf:  (6D, 7F)
 There are   269 symmetry adapted cartesian basis functions of A   symmetry.
 There are   269 symmetry adapted basis functions of A   symmetry.
   269 basis functions,   476 primitive gaussians,   269 cartesian basis functions
    52 alpha electrons       52 beta electrons
       nuclear repulsion energy       897.3818525780 Hartrees.
 NAtoms=   22 NActive=   22 NUniq=   22 SFac= 1.00D+00 NAtFMM=   60 NAOKFM=F Big=F
 Integral buffers will be    131072 words long.
 Raffenetti 2 integral format.
 Two-electron integral symmetry is turned on.
 One-electron integrals computed using PRISM.
 NBasis=   269 RedAO= T EigKep=  1.24D-06  NBF=   269
 NBsUse=   269 1.00D-06 EigRej= -1.00D+00 NBFU=   269
 Initial guess from the checkpoint file:  "/jobfs/48735345.gadi-pbs/Gau-573248.chk"
 B after Tr=     0.000000    0.000000   -0.000000
         Rot=    0.999994    0.003505   -0.000010    0.000205 Ang=   0.40 deg.
 ExpMin= 4.05D-02 ExpMax= 2.19D+04 ExpMxC= 3.30D+03 IAcc=3 IRadAn=         5 AccDes= 0.00D+00
 Harris functional with IExCor= 1009 and IRadAn=       5 diagonalized for initial guess.
 HarFok:  IExCor= 1009 AccDes= 0.00D+00 IRadAn=         5 IDoV= 1 UseB2=F ITyADJ=14
 ICtDFT=  3500011 ScaDFX=  1.000000  1.000000  1.000000  1.000000
 FoFCou: FMM=F IPFlag=           0 FMFlag=      100000 FMFlg1=           0
         NFxFlg=           0 DoJE=T BraDBF=F KetDBF=T FulRan=T
         wScrn=  0.000000 ICntrl=       500 IOpCl=  0 I1Cent=   200000004 NGrid=           0
         NMat0=    1 NMatS0=      1 NMatT0=    0 NMatD0=    1 NMtDS0=    0 NMtDT0=    0
 Petite list used in FoFCou.
 Requested convergence on RMS density matrix=1.00D-08 within 128 cycles.
 Requested convergence on MAX density matrix=1.00D-06.
 Requested convergence on             energy=1.00D-06.
 No special actions if energy rises.
 SCF Done:  E(RM062X) =  -988.556331784     A.U. after   15 cycles
            NFock= 15  Conv=0.90D-08     -V/T= 2.0065
 Calling FoFJK, ICntrl=      2127 FMM=F ISym2X=0 I1Cent= 0 IOpClX= 0 NMat=1 NMatS=1 NMatT=0.
 ***** Axes restored to original set *****
 -------------------------------------------------------------------
 Center     Atomic                   Forces (Hartrees/Bohr)
 Number     Number              X              Y              Z
 -------------------------------------------------------------------
      1        6          -0.000689875    0.000575174   -0.000404454
      2        6           0.000238180    0.000224181   -0.001573008
      3        1           0.000048223    0.000140717    0.000364915
      4        6          -0.001099931    0.000253413    0.001516472
      5        1           0.000209068   -0.000138814   -0.000341319
      6        6           0.002090689   -0.000018741    0.000751070
      7        6          -0.004508556   -0.000007918   -0.001498302
      8        6          -0.000411939   -0.000147032    0.000492592
      9        1           0.000279779   -0.000043593   -0.000463040
     10        6           0.000485522   -0.000178113   -0.002002287
     11        1          -0.000058867    0.000119945    0.000153116
     12       16           0.000178614    0.004340695    0.001542382
     13        8          -0.005015497   -0.000796033   -0.000714165
     14        8           0.004853104   -0.002569340   -0.000398787
     15        7          -0.000485097   -0.004226229   -0.000860001
     16        1          -0.000020017    0.001311247    0.001135654
     17        1           0.000273021    0.001230638    0.001075000
     18        8           0.002451041   -0.000180805    0.000797217
     19        6           0.001613343    0.000124174    0.000608153
     20        1          -0.000098542    0.000009962   -0.000025363
     21        1          -0.000070492   -0.000009323    0.000058242
     22        1          -0.000261773   -0.000014205   -0.000214086
 -------------------------------------------------------------------
 Cartesian Forces:  Max     0.005015497 RMS     0.001518902

 GradGradGradGradGradGradGradGradGradGradGradGradGradGradGradGradGradGrad
 Berny optimization.
 Using GEDIIS/GDIIS optimizer.
 FormGI is forming the generalized inverse of G from B-inverse, IUseBI=4.
 Internal  Forces:  Max     0.005412627 RMS     0.000956658
 Search for a local minimum.
 Step number   2 out of a maximum of  114
 All quantities printed in internal units (Hartrees-Bohrs-Radians)
 Mixed Optimization -- En-DIIS/RFO-DIIS
 Update second derivatives using D2CorX and points    1    2
 DE= -1.81D-03 DEPred=-1.81D-03 R= 9.98D-01
 TightC=F SS=  1.41D+00  RLast= 1.84D-01 DXNew= 5.0454D-01 5.5066D-01
 Trust test= 9.98D-01 RLast= 1.84D-01 DXMaxT set to 5.05D-01
 ITU=  1  0
 Use linear search instead of GDIIS.
     Eigenvalues ---    0.00604   0.00731   0.00745   0.00753   0.01571
     Eigenvalues ---    0.01701   0.01960   0.02111   0.02145   0.02161
     Eigenvalues ---    0.02178   0.02182   0.02197   0.02217   0.04157
     Eigenvalues ---    0.07329   0.07472   0.10161   0.11402   0.14445
     Eigenvalues ---    0.15662   0.15993   0.15996   0.15999   0.16000
     Eigenvalues ---    0.16000   0.16000   0.16000   0.16328   0.19331
     Eigenvalues ---    0.22012   0.22955   0.23930   0.24764   0.24999
     Eigenvalues ---    0.25000   0.25000   0.26043   0.27467   0.31973
     Eigenvalues ---    0.32151   0.34210   0.34230   0.34767   0.35294
     Eigenvalues ---    0.35389   0.35397   0.35420   0.41352   0.42254
     Eigenvalues ---    0.42473   0.43825   0.43979   0.46098   0.46259
     Eigenvalues ---    0.47090   0.47484   0.83682   0.90728   0.93456
 RFO step:  Lambda=-2.90249703D-04 EMin= 6.04301041D-03
 Quartic linear search produced a step of  0.02775.
 Iteration  1 RMS(Cart)=  0.01669670 RMS(Int)=  0.00008583
 Iteration  2 RMS(Cart)=  0.00015045 RMS(Int)=  0.00001642
 Iteration  3 RMS(Cart)=  0.00000001 RMS(Int)=  0.00001642
 Variable       Old X    -DE/DX   Delta X   Delta X   Delta X     New X
                                 (Linear)    (Quad)   (Total)
    R1        2.63559   0.00014  -0.00001   0.00034   0.00032   2.63592
    R2        2.62582   0.00114  -0.00007   0.00239   0.00232   2.62814
    R3        3.37600   0.00178   0.00023   0.00705   0.00729   3.38328
    R4        2.05227   0.00014   0.00001   0.00042   0.00043   2.05270
    R5        2.62649  -0.00081   0.00007  -0.00161  -0.00155   2.62494
    R6        2.05104   0.00001   0.00002   0.00007   0.00009   2.05112
    R7        2.64347   0.00080  -0.00008   0.00164   0.00156   2.64503
    R8        2.84513   0.00027   0.00016   0.00116   0.00133   2.84646
    R9        2.64281  -0.00086   0.00002  -0.00194  -0.00192   2.64089
   R10        2.29681  -0.00252  -0.00046  -0.00358  -0.00404   2.29277
   R11        2.85258   0.00081   0.00045   0.00337   0.00382   2.85640
   R12        2.05062   0.00046   0.00002   0.00136   0.00138   2.05200
   R13        2.63545  -0.00085   0.00008  -0.00176  -0.00167   2.63377
   R14        2.05147   0.00004   0.00003   0.00015   0.00018   2.05166
   R15        2.74995  -0.00500  -0.00035  -0.00628  -0.00663   2.74332
   R16        2.74985  -0.00541  -0.00038  -0.00682  -0.00720   2.74265
   R17        3.14087   0.00201   0.00064   0.00599   0.00664   3.14751
   R18        1.92488  -0.00109  -0.00019  -0.00288  -0.00307   1.92180
   R19        1.92478  -0.00102  -0.00020  -0.00274  -0.00294   1.92184
   R20        2.06996  -0.00007   0.00001  -0.00018  -0.00017   2.06979
   R21        2.07024  -0.00004   0.00001  -0.00009  -0.00008   2.07016
   R22        2.05907   0.00026  -0.00005   0.00068   0.00063   2.05971
    A1        2.12790  -0.00043  -0.00020  -0.00196  -0.00217   2.12574
    A2        2.07773   0.00011   0.00022   0.00075   0.00097   2.07870
    A3        2.07753   0.00031  -0.00000   0.00118   0.00118   2.07871
    A4        2.09644  -0.00039  -0.00036  -0.00316  -0.00352   2.09292
    A5        2.07392   0.00007   0.00017   0.00081   0.00098   2.07490
    A6        2.11248   0.00033   0.00018   0.00239   0.00257   2.11505
    A7        2.10912   0.00049   0.00042   0.00377   0.00419   2.11331
    A8        2.10094  -0.00015   0.00001  -0.00072  -0.00072   2.10022
    A9        2.07303  -0.00034  -0.00043  -0.00302  -0.00345   2.06958
   A10        2.06079   0.00027  -0.00032   0.00063   0.00031   2.06109
   A11        2.09037   0.00043  -0.00014   0.00131   0.00116   2.09153
   A12        2.13200  -0.00070   0.00046  -0.00194  -0.00148   2.13052
   A13        2.08811   0.00160  -0.00004   0.00651   0.00645   2.09456
   A14        2.08027  -0.00194   0.00013  -0.00773  -0.00762   2.07265
   A15        2.11480   0.00034  -0.00009   0.00125   0.00115   2.11595
   A16        2.10509  -0.00017  -0.00011  -0.00142  -0.00153   2.10356
   A17        2.10221  -0.00025   0.00010  -0.00119  -0.00110   2.10112
   A18        2.07585   0.00043   0.00001   0.00263   0.00263   2.07848
   A19        2.07097   0.00033   0.00007   0.00169   0.00176   2.07273
   A20        2.09422  -0.00033  -0.00041  -0.00257  -0.00298   2.09124
   A21        2.11774   0.00000   0.00034   0.00090   0.00124   2.11898
   A22        1.86813   0.00042  -0.00046   0.00347   0.00300   1.87112
   A23        1.87047   0.00034  -0.00037   0.00309   0.00272   1.87319
   A24        1.85759   0.00175  -0.00092   0.00826   0.00732   1.86491
   A25        2.15777  -0.00073   0.00192  -0.00512  -0.00322   2.15455
   A26        1.84650  -0.00071  -0.00026  -0.00395  -0.00425   1.84225
   A27        1.84457  -0.00067  -0.00022  -0.00376  -0.00401   1.84056
   A28        1.96659  -0.00035   0.00042   0.00238   0.00274   1.96934
   A29        1.96641  -0.00037   0.00040   0.00220   0.00254   1.96895
   A30        1.94811   0.00110   0.00046   0.01427   0.01463   1.96273
   A31        1.93426  -0.00001   0.00026   0.00044   0.00069   1.93496
   A32        1.93201  -0.00004   0.00027   0.00036   0.00063   1.93264
   A33        1.89891  -0.00032  -0.00028  -0.00275  -0.00303   1.89588
   A34        1.87754   0.00009   0.00001   0.00099   0.00100   1.87854
   A35        1.91177   0.00012  -0.00012   0.00024   0.00012   1.91189
   A36        1.90918   0.00017  -0.00013   0.00078   0.00065   1.90983
    D1       -3.10209   0.00006   0.00101   0.00431   0.00531  -3.09677
    D2        0.01134   0.00013   0.00037   0.00603   0.00639   0.01773
    D3        0.04736   0.00012   0.00030   0.00696   0.00725   0.05461
    D4       -3.12240   0.00019  -0.00035   0.00868   0.00832  -3.11407
    D5       -0.00818  -0.00012  -0.00032  -0.00555  -0.00587  -0.01405
    D6        3.10939  -0.00007  -0.00077  -0.00413  -0.00489   3.10450
    D7        3.12556  -0.00018   0.00040  -0.00820  -0.00780   3.11776
    D8       -0.04006  -0.00013  -0.00005  -0.00678  -0.00683  -0.04688
    D9       -2.84883   0.00030  -0.00008   0.02284   0.02278  -2.82606
   D10       -0.50130  -0.00008   0.00177   0.02112   0.02287  -0.47843
   D11        1.46595   0.00011   0.00089   0.02202   0.02291   1.48886
   D12        0.30038   0.00036  -0.00077   0.02543   0.02468   0.32506
   D13        2.64791  -0.00002   0.00107   0.02371   0.02477   2.67268
   D14       -1.66802   0.00017   0.00020   0.02461   0.02480  -1.64322
   D15       -3.13202  -0.00011   0.00018  -0.00466  -0.00448  -3.13650
   D16       -0.00553  -0.00005  -0.00015  -0.00224  -0.00240  -0.00794
   D17       -0.01886  -0.00005  -0.00047  -0.00302  -0.00349  -0.02236
   D18        3.10763   0.00001  -0.00081  -0.00060  -0.00142   3.10621
   D19       -3.13611  -0.00003   0.00015  -0.00126  -0.00111  -3.13722
   D20       -0.00310  -0.00004  -0.00009  -0.00185  -0.00195  -0.00504
   D21       -0.00931   0.00003  -0.00018   0.00116   0.00098  -0.00833
   D22        3.12370   0.00002  -0.00042   0.00057   0.00014   3.12385
   D23        0.00670  -0.00009  -0.00067  -0.01311  -0.01377  -0.00708
   D24       -3.13218  -0.00016  -0.00065  -0.02263  -0.02329   3.12772
   D25       -3.12609  -0.00009  -0.00043  -0.01252  -0.01294  -3.13903
   D26        0.01821  -0.00016  -0.00040  -0.02205  -0.02245  -0.00424
   D27       -3.12552   0.00002   0.00028   0.00109   0.00137  -3.12415
   D28        0.00632   0.00005   0.00014   0.00234   0.00247   0.00879
   D29        0.00713   0.00001   0.00003   0.00049   0.00051   0.00764
   D30        3.13897   0.00004  -0.00011   0.00173   0.00162   3.14058
   D31        1.01984   0.00011   0.00015   0.00834   0.00849   1.02833
   D32       -1.06196   0.00002  -0.00019   0.00658   0.00639  -1.05557
   D33        3.12283   0.00004  -0.00002   0.00715   0.00712   3.12995
   D34       -2.11900   0.00003   0.00018  -0.00134  -0.00115  -2.12015
   D35        2.08239  -0.00005  -0.00016  -0.00310  -0.00326   2.07913
   D36       -0.01601  -0.00003   0.00001  -0.00254  -0.00252  -0.01853
   D37       -0.00078   0.00003   0.00006   0.00130   0.00136   0.00059
   D38       -3.11801  -0.00001   0.00052  -0.00009   0.00043  -3.11757
   D39        3.13122   0.00006  -0.00007   0.00250   0.00243   3.13365
   D40        0.01399   0.00001   0.00038   0.00111   0.00150   0.01549
   D41        1.09897   0.00049   0.00060   0.01267   0.01329   1.11227
   D42       -1.12438  -0.00041  -0.00068  -0.01081  -0.01152  -1.13589
   D43       -0.88429  -0.00044   0.00168   0.00690   0.00861  -0.87568
   D44       -3.10764  -0.00134   0.00040  -0.01659  -0.01620  -3.12384
   D45        3.08402   0.00134  -0.00035   0.01810   0.01776   3.10178
   D46        0.86067   0.00044  -0.00163  -0.00538  -0.00705   0.85362
         Item               Value     Threshold  Converged?
 Maximum Force            0.005413     0.000450     NO 
 RMS     Force            0.000957     0.000300     NO 
 Maximum Displacement     0.062887     0.001800     NO 
 RMS     Displacement     0.016671     0.001200     NO 
 Predicted change in Energy=-1.475868D-04
 GradGradGradGradGradGradGradGradGradGradGradGradGradGradGradGradGradGrad

                          Input orientation:                          
 ---------------------------------------------------------------------
 Center     Atomic      Atomic             Coordinates (Angstroms)
 Number     Number       Type             X           Y           Z
 ---------------------------------------------------------------------
      1          6           0       -1.309407    0.741190   -0.986174
      2          6           0       -2.493113    0.798526   -1.721843
      3          1           0       -3.445268    0.900247   -1.209030
      4          6           0       -2.423966    0.756301   -3.108537
      5          1           0       -3.322179    0.803210   -3.716092
      6          6           0       -1.184193    0.667408   -3.752112
      7          6           0       -1.167684    0.630741   -5.257855
      8          6           0       -0.009615    0.627000   -2.995982
      9          1           0        0.958962    0.574373   -3.484044
     10          6           0       -0.065742    0.664148   -1.603877
     11          1           0        0.837009    0.655921   -1.000807
     12         16           0       -1.394246    0.752207    0.802136
     13          8           0       -0.077693    1.118100    1.292294
     14          8           0       -2.609354    1.453979    1.172877
     15          7           0       -1.627837   -0.824904    1.284155
     16          1           0       -0.848140   -1.431228    1.041914
     17          1           0       -2.522114   -1.201822    0.980048
     18          8           0       -2.210169    0.670532   -5.877286
     19          6           0        0.163995    0.553220   -5.968759
     20          1           0        0.716681   -0.342363   -5.665243
     21          1           0        0.783873    1.423508   -5.727041
     22          1           0       -0.016222    0.523746   -7.043303
 ---------------------------------------------------------------------
                    Distance matrix (angstroms):
                    1          2          3          4          5
     1  C    0.000000
     2  C    1.394867   0.000000
     3  H    2.153338   1.086243   0.000000
     4  C    2.397267   1.389058   2.161459   0.000000
     5  H    3.392277   2.159722   2.511956   1.085408   0.000000
     6  C    2.769753   2.419184   3.410856   1.399689   2.142598
     7  C    4.275458   3.779986   4.653279   2.492705   2.654925
     8  C    2.396211   2.796536   3.882213   2.420429   3.394509
     9  H    3.378266   3.882321   4.967809   3.408563   4.293527
    10  C    1.390753   2.433948   3.410695   2.798877   3.883963
    11  H    2.148159   3.410270   4.294292   3.884142   4.969236
    12  S    1.790356   2.753203   2.876351   4.043971   4.912628
    13  O    2.617365   3.875746   4.200553   5.000321   5.975766
    14  O    2.619051   2.970275   2.584348   4.341846   4.983336
    15  N    2.776409   3.524238   3.534851   4.736008   5.524855
    16  H    3.007542   3.913578   4.153023   4.949217   5.809665
    17  H    3.018606   3.361912   3.172218   4.534358   5.168558
    18  O    4.973865   4.167031   4.834341   2.778316   2.434118
    19  C    5.199269   5.015645   5.983496   3.862597   4.158174
    20  H    5.212754   5.211027   6.222839   4.196126   4.628598
    21  H    5.227160   5.212567   6.210625   4.194278   4.613930
    22  H    6.197453   5.876090   6.777821   4.618842   4.698701
                    6          7          8          9         10
     6  C    0.000000
     7  C    1.506281   0.000000
     8  C    1.397497   2.541104   0.000000
     9  H    2.161857   2.769875   1.085870   0.000000
    10  C    2.421953   3.816668   1.393732   2.143154   0.000000
    11  H    3.413952   4.705517   2.167564   2.487567   1.085689
    12  S    4.559878   6.065442   4.044575   4.892909   2.749832
    13  O    5.183965   6.658082   4.316842   4.917693   2.931556
    14  O    5.187031   6.641570   4.982160   5.932410   3.847616
    15  N    5.271413   6.717778   4.800650   5.602252   3.605294
    16  H    5.244033   6.636333   4.609124   5.269947   3.464528
    17  H    5.260931   6.641100   5.046391   5.933033   4.023963
    18  O    2.359874   1.213281   3.625775   3.972435   4.781280
    19  C    2.596955   1.511543   2.978756   2.608875   4.372332
    20  H    2.879762   2.159567   2.931232   2.378388   4.256753
    21  H    2.888827   2.158053   2.953428   2.404729   4.277729
    22  H    3.495245   2.127237   4.048644   3.690782   5.441464
                   11         12         13         14         15
    11  H    0.000000
    12  S    2.870257   0.000000
    13  O    2.511693   1.451705   0.000000
    14  O    4.152013   1.451350   2.556635   0.000000
    15  N    3.672786   1.665589   2.485614   2.483760   0.000000
    16  H    3.371739   2.263429   2.674948   3.382815   1.016974
    17  H    4.319572   2.263176   3.384484   2.664220   1.016995
    18  O    5.750266   6.729568   7.493374   7.104783   7.339052
    19  C    5.014384   6.950737   7.287002   7.714000   7.597016
    20  H    4.771584   6.890652   7.153412   7.813401   7.350084
    21  H    4.788456   6.915563   7.078605   7.689200   7.747811
    22  H    6.103871   7.968819   8.356987   8.665754   8.588523
                   16         17         18         19         20
    16  H    0.000000
    17  H    1.690753   0.000000
    18  O    7.358522   7.115199   0.000000
    19  C    7.356085   7.653841   2.378819   0.000000
    20  H    6.972822   7.442335   3.104411   1.095287   0.000000
    21  H    7.525406   7.925084   3.090928   1.095481   1.768230
    22  H    8.359710   8.580866   2.488884   1.089950   1.785033
                   21         22
    21  H    0.000000
    22  H    1.783892   0.000000
 Stoichiometry    C8H9NO3S
 Framework group  C1[X(C8H9NO3S)]
 Deg. of freedom    60
 Full point group                 C1      NOp   1
 Largest Abelian subgroup         C1      NOp   1
 Largest concise Abelian subgroup C1      NOp   1
                         Standard orientation:                         
 ---------------------------------------------------------------------
 Center     Atomic      Atomic             Coordinates (Angstroms)
 Number     Number       Type             X           Y           Z
 ---------------------------------------------------------------------
[...]
 1004,0.00010844,0.00077388,-0.00160780,0.00049358,0.00639499,0.0001631
 6,-0.00013681,-0.01075109,-0.00025347,-0.00049424,0.00292469,-0.000551
 11,0.00017816,0.00117054,0.01416760,-0.00089980,-0.01499743,-0.0021279
 2,0.00053012,0.00097140,0.03747728,0.07327014,0.53282109,-0.00715759,-
 0.00447341,0.00358457,0.00195753,-0.00058489,-0.00448685,0.00078750,-0
 .00022375,0.00083653,-0.00077067,0.00036350,0.00023157,0.00014249,0.00
 002962,-0.00035099,0.00043014,-0.00006088,-0.00059004,-0.00003938,-0.0
 0012026,0.00140575,0.00254562,0.00034751,-0.00029627,0.00004806,-0.000
 04320,-0.00049608,-0.00419120,0.00088815,-0.00006113,0.00215851,-0.000
 92047,-0.00129199,-0.51087762,-0.12302337,-0.15755170,0.53890567,-0.00
 563416,0.00823972,0.00120495,0.00096407,0.00113277,-0.00253130,0.00005
 741,0.00000358,-0.00019135,-0.00104190,-0.00061927,0.00038056,0.000044
 11,-0.00015374,-0.00013232,0.00034169,-0.00004269,-0.00010865,0.000006
 88,0.00004552,0.00024227,-0.00010861,-0.00005459,-0.00025252,0.0000119
 1,-0.00002117,-0.00003862,-0.00009643,0.00057109,0.00056661,-0.0002071
 9,-0.00080666,-0.00011413,-0.12827170,-0.12254970,-0.04906351,0.154857
 93,0.11219466,-0.03099894,-0.00933351,-0.00418110,0.00565088,-0.001939
 21,-0.00596184,-0.00031336,-0.00038160,0.00004828,-0.00233407,0.001297
 33,-0.00155465,0.00023907,0.00005438,-0.00068782,-0.00051054,-0.000073
 38,-0.00164453,-0.00019483,-0.00004851,0.00287619,-0.00044219,0.000534
 18,0.00067834,0.00012667,-0.00006533,-0.00021034,-0.00002913,-0.000771
 50,-0.00227654,-0.00134330,-0.00020428,-0.00160260,-0.16892080,-0.0534
 9114,-0.15151911,0.18234540,0.05770332,0.13825604,-0.00650494,0.008464
 90,-0.00353769,-0.00417790,-0.00021358,0.00031676,0.00194382,0.0006337
 0,0.00144525,0.00236728,-0.00086005,0.00038250,-0.00007499,0.00006331,
 0.00045065,-0.00019999,0.00014799,0.00073217,0.00005202,0.00009744,-0.
 00174631,-0.00062413,-0.00061098,-0.00005740,-0.00000072,-0.00006963,0
 .00046846,0.00178249,0.00064655,0.00453092,0.00083327,0.00024462,-0.00
 081888,-0.46523784,0.20274954,0.11157881,-0.01379635,0.01935718,0.0122
 9551,0.48207742,0.00834759,0.00548880,0.00277270,0.00082161,0.00063616
 ,0.00057663,-0.00023106,-0.00089884,-0.00033805,-0.00026766,0.00001215
 ,-0.00037134,0.00001735,-0.00002676,-0.00011132,-0.00032178,0.00006290
 ,-0.00028853,0.00001210,0.00001651,0.00057779,0.00108460,-0.00062869,0
 .00052275,-0.00001771,-0.00010815,-0.00027430,-0.00088462,0.00091324,-
 0.00376162,-0.00019639,-0.00000576,-0.00005789,0.20715736,-0.19561602,
 -0.06247810,-0.01297003,0.01578339,-0.00130377,-0.24047533,0.19958270,
 0.02777879,-0.01476799,-0.00147865,-0.00015220,-0.00088517,-0.00197996
 ,0.00144902,-0.00036366,-0.00123086,0.00053046,0.00051408,0.00071607,-
 0.00000672,-0.00006182,-0.00008588,0.00110903,-0.00029586,-0.00153514,
 0.00018643,-0.00005371,0.00275086,0.00234546,0.00108543,-0.00123295,0.
 00003054,0.00009306,-0.00080701,-0.00483548,-0.00123956,-0.00590483,0.
 00032151,-0.00049200,-0.00003860,0.12181326,-0.06991779,-0.12459890,-0
 .01531389,0.00324750,0.01832307,-0.13054906,0.07295126,0.10733020,0.01
 077470,-0.00300454,0.00061832,-0.00147970,-0.00019820,0.00113430,0.000
 19054,-0.00015926,0.00035152,0.00029700,0.00014319,0.00113456,-0.00004
 784,0.00008309,0.00018234,0.00085949,-0.00004010,0.00030337,0.00004463
 ,-0.00006409,-0.00040388,0.00034169,0.00022037,-0.00103358,-0.00003794
 ,-0.00007997,-0.00010693,-0.00083791,0.00024510,-0.00057181,0.00023460
 ,-0.00018441,-0.00040041,-0.10399183,-0.01369895,0.00477291,-0.0110795
 7,-0.04106754,0.00500393,-0.00065725,0.04010248,-0.00513797,0.75975677
 ,-0.00191260,-0.00481594,-0.00075403,-0.00121674,-0.00031455,0.0021846
 9,-0.00017048,-0.00075402,-0.00042392,0.00055010,0.00099841,0.00017771
 ,-0.00003712,-0.00003268,0.00023444,-0.00036935,0.00004110,0.00137141,
 -0.00005627,-0.00041854,-0.00204205,-0.00042995,0.00108866,0.00037036,
 -0.00008365,0.00000633,0.00034360,0.00114784,-0.00069816,0.00269317,0.
 00011412,-0.00076958,-0.00036316,-0.01488142,-0.21477232,0.05789340,-0
 .00747844,-0.00999461,0.00542489,0.00479498,-0.02050625,0.00710664,-0.
 02516333,0.56444185,0.00363789,0.02336322,-0.00296957,0.00272042,0.000
 79311,-0.00133066,-0.00009434,0.00055995,-0.00034481,-0.00021249,-0.00
 151464,0.00049936,0.00002968,0.00001576,-0.00019774,0.00076104,-0.0002
 1481,-0.00242347,0.00001734,0.00037912,0.00354647,-0.00020826,-0.00174
 411,-0.00007700,0.00010907,-0.00004489,-0.00030592,-0.00273709,0.00144
 690,-0.00157581,0.00022378,0.00065977,-0.00039553,0.00126127,0.0267138
 1,-0.06597545,-0.00679837,-0.01193578,0.01027359,0.00293565,-0.0091072
 1,0.01033678,0.03484507,0.06227945,0.12891119,-0.00023956,-0.00089130,
 0.00004011,-0.00038714,-0.00008812,0.00002546,-0.00003128,-0.00005838,
 -0.00000991,-0.00004525,0.00011084,0.00000128,-0.00000758,0.00001149,0
 .00002092,0.00002653,-0.00020752,0.00028139,0.00003803,0.00003477,-0.0
 0034661,-0.00015740,0.00015236,-0.00016782,-0.00001302,-0.00000521,0.0
 0006360,0.00050368,-0.00007650,0.00045454,-0.00012983,-0.00017771,0.00
 003034,0.00756541,0.00082357,-0.00091574,-0.00209664,-0.00074634,-0.00
 048216,0.00287967,-0.00393838,0.00015017,-0.30248382,0.16701973,0.0629
 9957,0.31099426,-0.00158056,0.00068334,-0.00010677,0.00027567,0.000332
 98,-0.00007428,-0.00001971,-0.00006538,-0.00005039,0.00001259,-0.00012
 328,-0.00018728,0.00000541,-0.00000692,-0.00002289,-0.00015671,0.00000
 066,-0.00037655,-0.00002523,0.00003030,0.00050566,-0.00012880,-0.00016
 273,0.00030529,0.00002744,0.00001956,0.00000622,0.00014871,0.00023617,
 0.00020063,-0.00019571,-0.00010905,0.00016343,0.02885519,-0.01467888,-
 0.01014650,-0.00304307,0.00345819,0.00097775,0.00112851,-0.00711258,0.
 00188422,0.17333468,-0.19019682,-0.04789869,-0.18335357,0.19460098,0.0
 0112186,-0.00051971,-0.00029913,-0.00034416,-0.00000405,-0.00008232,-0
 .00000504,-0.00004487,0.00011770,-0.00007636,0.00004469,0.00015783,-0.
 00000844,0.00001622,0.00000035,0.00016864,0.00006147,0.00031860,0.0000
 1399,-0.00000356,-0.00060039,0.00014838,-0.00009299,-0.00045375,-0.000
 01007,0.00000230,-0.00003006,-0.00002013,-0.00011837,-0.00023007,0.000
 22068,0.00022620,0.00009207,-0.00661074,0.01477698,-0.00254144,-0.0016
 2580,-0.00092731,-0.00218386,-0.00097799,0.00230634,0.00337268,0.09104
 273,-0.07480260,-0.02933738,-0.07274807,0.05108304,0.03293576,0.000461
 07,0.00099220,0.00005196,0.00056227,0.00000482,-0.00040396,-0.00004892
 ,0.00012557,-0.00001418,-0.00021999,-0.00005774,0.00030689,0.00001024,
 0.00000764,-0.00004926,0.00029406,0.00017886,-0.00035002,0.00003901,-0
 .00004127,0.00050655,-0.00009795,-0.00016040,-0.00011387,0.00000745,-0
 .00001560,-0.00003889,-0.00044171,0.00022437,-0.00007655,-0.00001927,0
 .00005822,-0.00000972,-0.00060810,-0.00538598,-0.00111219,0.00285595,0
 .00152560,0.00021795,-0.00123544,0.00194158,0.00075580,-0.35201798,-0.
 12214900,-0.09894806,-0.01642026,-0.01521246,-0.01039191,0.36701425,0.
 00170372,0.00009507,0.00005622,-0.00031906,0.00021639,0.00028515,0.000
 19805,-0.00017565,0.00020816,0.00013517,-0.00010050,0.00028122,-0.0000
 1062,0.00002500,0.00002837,0.00022603,-0.00016797,-0.00028099,0.000053
 44,0.00007313,0.00040194,0.00002014,-0.00005684,-0.00019189,0.00001243
 ,-0.00001107,-0.00002843,-0.00013552,0.00031982,-0.00007629,0.00002593
 ,-0.00008748,-0.00007087,-0.03111250,-0.00733831,-0.01286288,-0.003553
 14,-0.00719557,0.00164431,0.00394645,0.00240426,0.00118467,-0.13048532
 ,-0.12343345,-0.04366450,0.02138131,0.01309862,0.00799342,0.13797987,0
 .12234609,-0.00115662,-0.00011018,-0.00037649,0.00016174,-0.00012608,-
 0.00026596,-0.00024884,0.00033258,0.00005072,-0.00013400,-0.00010904,-
 0.00047456,-0.00000540,0.00000119,-0.00005286,-0.00027131,0.00015701,0
 .00024843,-0.00001433,-0.00002497,-0.00054435,0.00004380,0.00002383,0.
 00020823,-0.00001052,0.00001804,0.00001010,0.00028161,-0.00005063,-0.0
 0008223,-0.00001144,-0.00003123,0.00011490,0.01013991,0.01263801,-0.00
 182530,0.00138925,0.00216213,0.00345874,0.00143347,-0.00118859,-0.0020
 2568,-0.13202636,-0.06313385,-0.04640427,0.01039056,0.00408092,-0.0016
 2905,0.10997417,0.04536627,0.04922801,0.00051015,-0.00012365,0.0000743
 0,0.00173375,-0.00021819,-0.00165608,0.00000923,-0.00000168,-0.0004774
 4,-0.00830023,0.00094908,0.00546209,0.00284160,-0.00024282,0.00016299,
 -0.00400581,-0.00004895,-0.03942312,-0.60979711,0.01495386,-0.28514142
 ,0.00379866,-0.00003834,0.00023448,0.00049735,-0.00002204,0.00068231,0
 .00020560,-0.00009744,-0.00088013,0.00002819,0.00000433,-0.00030120,-0
 .00040122,-0.00005334,0.00213566,0.00002127,-0.00001977,-0.00049223,0.
 00060891,-0.00019814,-0.00061375,0.00014399,0.00045892,-0.00076396,0.0
 0003574,-0.00010886,0.00013139,-0.00015513,-0.00009385,0.00009602,0.68
 024226,-0.00008155,-0.00002722,-0.00003701,-0.00021666,-0.00050445,0.0
 0010661,0.00002529,0.00014384,0.00001771,0.00032058,-0.00017984,-0.000
 31090,-0.00021449,-0.00024832,-0.00004312,-0.00037637,0.01931961,-0.00
 011144,0.01502387,-0.06701600,0.00635511,0.00023565,0.00227678,-0.0002
 9084,-0.00000531,0.00070690,-0.00003885,-0.00019949,-0.00166892,-0.000
 03202,-0.00000047,-0.00023625,-0.00000503,0.00000500,-0.00002161,0.000
 00846,0.00002147,0.00005047,-0.00001495,-0.00005086,0.00002713,0.00001
 995,0.00001739,0.00012012,-0.00005533,0.00000547,-0.00001401,-0.000002
 97,-0.00001559,-0.00000817,-0.00001981,-0.01838260,0.02472154,-0.00173
 602,-0.00004247,-0.00205066,-0.00124417,0.00033919,0.00111907,0.000056
 01,-0.00001175,-0.00006612,-0.00300024,0.00006111,-0.00113258,-0.00092
 951,-0.00004856,-0.00242446,-0.05189647,0.00049805,-0.04587123,-0.2945
 6118,0.00650632,-0.27284279,0.00806842,-0.00066642,-0.00604654,-0.0005
 6867,-0.00003459,0.00011356,-0.00167667,0.00019338,-0.00342559,0.00015
 976,0.00003600,-0.00088441,-0.00072634,-0.00029983,0.00534397,-0.00060
 458,-0.00014521,-0.00163885,0.00099161,-0.00035822,-0.00143984,0.00027
 323,0.00110786,-0.00174402,0.00015659,-0.00027497,0.00032441,-0.000250
 44,-0.00020153,0.00027276,0.33987002,-0.00632161,0.30953372,-0.0004382
 5,0.00007834,0.00021710,0.00110437,-0.00013118,0.00043659,0.00002784,-
 0.00000895,-0.00018833,0.00082122,-0.00006851,-0.00296562,0.00030130,-
 0.00004052,-0.00041553,0.00415428,0.00053060,0.00279543,-0.15698974,0.
 00426909,0.05580432,-0.00047780,-0.00001540,0.00132364,0.00025893,0.00
 004893,0.00003710,0.00004339,-0.00008485,-0.00023100,0.00000693,-0.000
 00182,-0.00000968,-0.00006684,0.00000923,-0.00068408,0.00015029,0.0000
 2769,0.00018666,-0.00007063,0.00002886,0.00016720,0.00000657,-0.000124
 81,0.00022843,-0.00003373,0.00003118,-0.00004263,0.00002827,0.00002482
 ,-0.00004275,-0.05938910,0.00363291,0.00356765,0.51106891,0.00009366,0
 .00032228,-0.00003339,-0.00010681,-0.00073418,-0.00006275,-0.00002366,
 -0.00016496,0.00001262,0.00003070,0.00116493,0.00013176,0.00000540,0.0
 0018090,-0.00002433,0.00105923,0.01665698,-0.00076347,0.00421388,-0.08
 880251,-0.00329411,-0.00005353,-0.00115504,-0.00021334,0.00009195,0.00
 139837,-0.00006898,-0.00010360,-0.00164688,0.00003734,0.00000524,0.000
 05222,-0.00000080,0.00000560,0.00023409,0.00001604,-0.00000526,-0.0000
 5203,0.00000129,-0.00000428,-0.00004200,0.00001976,-0.00000375,0.00001
 230,-0.00005510,0.00000203,0.00000929,0.00000876,-0.00000377,-0.000006
 13,0.00001791,0.00298868,0.02573171,-0.00027929,0.00313801,0.54234807,
 0.00020459,-0.00003051,-0.00040491,0.00187168,-0.00018941,-0.00055368,
 -0.00004916,0.00000962,-0.00043225,-0.00224209,0.00011094,-0.00519437,
 0.00014827,-0.00000870,-0.00005446,0.02678297,-0.00185478,-0.01165441,
 0.06176783,-0.00366853,-0.13330477,0.00045204,-0.00007415,-0.00253744,
 0.00087377,-0.00012691,-0.00188491,0.00044323,0.00007033,0.00018377,-0
 .00000463,0.00000842,-0.00004613,0.00008589,-0.00014455,0.00136070,-0.
 00024545,-0.00005551,-0.00042788,0.00015269,-0.00008019,-0.00044925,0.
 00002886,0.00030324,-0.00041900,0.00004287,-0.00006360,0.00007278,-0.0
 0004970,-0.00006345,0.00008048,-0.02162350,0.00079594,0.01887288,0.053
 37064,-0.00074305,0.59645504,0.00025572,-0.00007938,-0.00000301,-0.000
 01236,0.00019365,-0.00022435,-0.00000531,0.00003416,0.00000357,-0.0002
 7349,-0.00032645,0.00022564,0.00005692,-0.00003591,-0.00012623,0.00019
 672,-0.00217678,0.00025798,-0.01206837,0.02570226,-0.01263464,0.000302
 72,-0.00034881,-0.00016301,0.00026785,-0.00003117,0.00000520,-0.000054
 01,0.00015511,0.00035369,0.00000693,-0.00001174,0.00000640,0.00003483,
 0.00004788,0.00005863,-0.00002019,-0.00001234,-0.00000936,0.00000734,-
 0.00001630,-0.00001429,-0.00001155,-0.00001521,-0.00002155,0.00000508,
 0.00000244,0.00001055,-0.00000544,0.00000029,0.00001070,-0.00600719,-0
 .00353168,0.00312366,-0.11117062,0.11774551,-0.03473289,0.12016359,-0.
 00009209,-0.00004532,0.00008962,0.00000088,-0.00000446,0.00012396,-0.0
 0000181,-0.00000172,-0.00001752,-0.00002074,0.00004507,-0.00027506,-0.
 00005003,0.00002510,0.00006361,0.00049608,-0.00023872,-0.00003798,-0.0
 0111166,0.00083373,0.00023026,0.00093702,0.00034745,0.00043795,-0.0004
 7066,-0.00029504,-0.00026724,-0.00037847,0.00020768,0.00001783,0.00000
 867,0.00000354,-0.00003185,0.00002033,-0.00002131,-0.00016225,-0.00000
 733,0.00001366,0.00005041,-0.00005795,0.00003346,0.00006239,-0.0000079
 3,-0.00004867,0.00005824,-0.00000023,0.00001020,-0.00001029,0.00001029
 ,0.00000890,-0.00000997,-0.00074480,-0.00084818,-0.00060416,0.11343728
 ,-0.23221016,0.05999136,-0.12375884,0.25133394,0.00021692,0.00004486,-
 0.00000791,-0.00028022,-0.00017671,-0.00021856,-0.00000149,-0.00002131
 ,0.00000679,-0.00025305,0.00026228,0.00044858,-0.00005785,0.00003779,0
 .00007895,-0.00004265,0.00178010,-0.00091107,0.00296236,-0.01608843,0.
 00612738,0.00027610,-0.00019064,-0.00111366,-0.00003990,-0.00058802,-0
 .00145649,-0.00015843,-0.00033672,0.00013185,-0.00000924,-0.00000414,-
 0.00001225,0.00003777,0.00006473,-0.00007210,-0.00000898,0.00000316,0.
 00003869,-0.00004207,0.00001530,0.00004762,-0.00000588,-0.00001489,0.0
 0000992,0.00000024,0.00000487,-0.00001589,0.00000514,0.00000310,-0.000
 00747,0.00241186,0.00176440,0.00010075,-0.03303735,0.05929947,-0.06765
 562,0.03901527,-0.06642311,0.06856734,0.00029075,0.00001054,-0.0000085
 9,-0.00006482,-0.00019108,-0.00025040,-0.00001345,-0.00003507,0.000009
 07,-0.00022451,0.00038437,0.00029281,0.00006341,0.00001332,-0.00014465
 ,0.00034713,0.00211879,0.00015526,-0.01418087,-0.02468181,-0.01170581,
 0.00028898,0.00030893,-0.00023968,0.00028379,-0.00001879,0.00004614,-0
 .00005416,-0.00008213,0.00037260,0.00000634,0.00001271,0.00000606,0.00
 002700,-0.00004699,0.00008176,-0.00001349,0.00000685,-0.00002175,0.000
 00643,0.00001035,-0.00003534,-0.00000344,0.00002366,-0.00002005,0.0000
 0266,-0.00000202,0.00000494,-0.00000506,-0.00000424,0.00000545,-0.0057
 1196,0.00397335,0.00302100,-0.13373193,-0.12838830,-0.03578758,0.01109
 126,0.01395031,0.00413784,0.14441895,0.00006728,-0.00004689,-0.0000860
 4,-0.00000997,0.00000948,-0.00011750,0.00000282,0.00000075,0.00001590,
 0.00002123,0.00003297,0.00026514,0.00004542,0.00001091,-0.00004652,-0.
 00051416,-0.00044625,-0.00003536,0.00261322,0.00356198,0.00101565,-0.0
 0087751,0.00042941,-0.00044454,0.00039233,-0.00035237,0.00023373,0.000
 39181,0.00020692,-0.00003962,-0.00000880,0.00001129,0.00002829,-0.0000
 2375,-0.00006778,0.00016538,0.00000328,-0.00000434,-0.00005551,0.00006
 307,-0.00001827,-0.00007894,0.00000999,0.00004755,-0.00003830,0.000000
 16,-0.00001065,0.00000809,-0.00000824,-0.00000796,0.00000670,0.0012943
 7,-0.00131083,0.00036301,-0.12417143,-0.21401686,-0.05166309,-0.016689
 35,-0.02095706,-0.00688330,0.13535377,0.23185650,0.00019299,-0.0000797
 5,-0.00000393,-0.00024093,0.00019200,-0.00022162,0.00000443,0.00002455
 ,0.00000248,-0.00030011,-0.00022822,0.00042592,-0.00006186,-0.00001511
 ,0.00009155,-0.00012007,-0.00175100,-0.00089199,0.00435293,0.01593449,
 0.00559201,0.00034437,0.00011899,-0.00104138,-0.00000698,0.00056204,-0
 .00137523,-0.00013999,0.00033714,0.00012068,-0.00000683,0.00000342,-0.
 00001049,0.00005072,-0.00002481,-0.00008938,-0.00001890,-0.00000160,0.
 00004585,-0.00003307,0.00001815,0.00004136,-0.00001637,-0.00003442,0.0
 0003668,0.00000188,0.00000772,-0.00001135,0.00000598,0.00000375,-0.000
 00557,0.00230926,-0.00195677,0.00017242,-0.03439323,-0.05130579,-0.064
 23711,0.00530894,0.00723391,0.00096982,0.04038210,0.05704736,0.0644995
 1,-0.00007323,0.00000376,-0.00005082,-0.00044584,0.00004847,0.00016352
 ,0.00000655,-0.00000446,0.00013387,0.00050404,0.00000423,0.00151922,0.
 00001157,-0.00000334,-0.00000118,-0.00553057,0.00036342,0.00097976,0.0
 0432512,0.00030434,0.03437291,-0.00113033,0.00005522,-0.00052543,0.000
 55611,-0.00005698,-0.00018798,0.00041901,-0.00000777,-0.00007208,-0.00
 000432,0.00000276,0.00004723,-0.00002203,0.00000778,-0.00010569,0.0000
 3966,0.00000466,0.00002658,0.00002151,-0.00000648,0.00002103,-0.000001
 15,-0.00002098,0.00003496,-0.00000555,0.00000488,-0.00000182,0.0000026
 7,0.00000659,-0.00000511,0.00309104,-0.00018594,-0.00209367,-0.0556036
 6,-0.00068694,-0.05149034,-0.00276043,-0.00215830,-0.01512638,-0.00282
 300,0.00204444,-0.01761526,0.05942283,0.00001006,-0.00005674,0.0000000
 9,0.00000159,-0.00016900,-0.00001136,-0.00000465,-0.00003082,-0.000005
 87,-0.00001773,0.00026155,-0.00007158,0.00000709,0.00007735,-0.0000032
 3,0.00039897,0.00157255,-0.00010120,-0.00025194,-0.00137569,-0.0019006
 8,0.00007286,0.00010541,0.00002605,-0.00005623,-0.00041045,0.00001734,
 -0.00001461,0.00022624,0.00001082,-0.00000004,0.00001278,-0.00000305,-
 0.00000208,-0.00002287,0.00001112,-0.00000395,0.00000130,-0.00000518,0
 .00000443,0.00000262,-0.00001243,0.00000108,-0.00000071,0.00000402,0.0
 0000155,0.,-0.00000081,0.00000103,0.00000181,-0.00000025,-0.00025476,-
 0.00101427,0.00018368,-0.00060947,-0.04928039,-0.00252342,0.00315266,0
 .00180791,0.02744719,-0.00271653,0.00107152,-0.02608607,0.00028066,0.0
 4721991,0.00007039,-0.00001174,-0.00006882,0.00031391,-0.00002191,-0.0
 0010418,-0.00001101,0.00000237,-0.00007615,-0.00045133,0.00002484,-0.0
 0068489,0.00005680,-0.00000416,0.00000576,0.00279487,-0.00015968,-0.00
 004458,-0.00394463,-0.00013112,-0.01825957,0.00028168,-0.00001401,0.00
 053409,0.00005173,0.00000388,0.00013787,-0.00007033,0.00001621,0.00006
 601,0.00000585,0.00000101,-0.00002238,-0.00000354,-0.00003167,0.000353
 11,-0.00005205,-0.00001272,-0.00010968,0.00004802,-0.00002181,-0.00011
 107,0.00001205,0.00007806,-0.00011335,0.00001082,-0.00001784,0.0000225
 0,-0.00001574,-0.00001577,0.00002143,-0.00219754,0.00017246,0.00371355
 ,-0.04612455,-0.00270055,-0.32776945,-0.00045091,-0.00052012,-0.005056
 69,-0.00030117,0.00033947,-0.00411024,0.04997668,0.00302480,0.35167672
 \\-0.00000786,0.00000216,0.00000067,0.00000737,-0.00000109,0.00000578,
 0.00000037,-0.00000061,0.00000257,0.00000132,-0.00000066,-0.00000248,-
 0.00000233,-0.00000042,0.00000382,-0.00000762,0.00000080,-0.00000245,-
 0.00000897,-0.00000160,0.00000109,0.00000105,0.00000058,0.00000886,-0.
 00000124,-0.00000013,-0.00000392,0.00000762,0.00000019,-0.00001296,0.0
 0000094,0.00000061,-0.00000107,0.00000343,-0.00000143,0.00000543,0.000
 00483,-0.00000110,-0.00000237,0.00000539,-0.00000290,0.00000037,0.0000
 0504,0.00000188,-0.00000269,0.00000446,0.00000069,0.00000141,0.0000049
 2,0.00000007,0.00000412,-0.00000075,-0.00000006,0.00000143,-0.00000545
 ,0.00000483,-0.00000084,-0.00000354,-0.00000079,-0.00000113,-0.0000024
 6,-0.00000151,-0.00000398,-0.00000654,0.00000051,-0.00000165\\\@
 The archive entry for this job was punched.


 IT WAS AN ACT OF DESPARATION. FOR SIX YEARS I HAD STRUGGLED WITH THE
 BLACKBODY THEORY. I KNEW THE PROBLEM WAS FUNDAMENTAL, AND I KNEW
 THE ANSWER. I HAD TO FIND A THEORETICAL EXPLANATION AT ANY COST,
 EXCEPT FOR THE INVIOLABLITY OF THE TWO LAWS OF THERMODYNAMICS.
   -- MAX PLANCK, 1931
 Job cpu time:       0 days  1 hours  7 minutes 11.0 seconds.
 Elapsed time:       0 days  0 hours  4 minutes 14.9 seconds.
 File lengths (MBytes):  RWF=    183 Int=      0 D2E=      0 Chk=      7 Scr=      1
 Normal termination of Gaussian 16 at Wed Jun 29 13:48:00 2022.
