 Entering Gaussian System, Link 0=g16
 AtFile(1): /home/561/yj5695/Basis/6-31pGd.gbs
 Initial command:
 /apps/gaussian/g16c01/g16/l1.exe "/jobfs/40766125.gadi-pbs/Gau-2691969.inp" -scrdir="/jobfs/40766125.gadi-pbs/"
 Entering Link 1 = /apps/gaussian/g16c01/g16/l1.exe PID=   2691970.
  
 Copyright (c) 1988-2019, Gaussian, Inc.  All Rights Reserved.
  
 This is part of the Gaussian(R) 16 program.  It is based on
 the Gaussian(R) 09 system (copyright 2009, Gaussian, Inc.),
 the Gaussian(R) 03 system (copyright 2003, Gaussian, Inc.),
 the Gaussian(R) 98 system (copyright 1998, Gaussian, Inc.),
 the Gaussian(R) 94 system (copyright 1995, Gaussian, Inc.),
 the Gaussian 92(TM) system (copyright 1992, Gaussian, Inc.),
 the Gaussian 90(TM) system (copyright 1990, Gaussian, Inc.),
 the Gaussian 88(TM) system (copyright 1988, Gaussian, Inc.),
 the Gaussian 86(TM) system (copyright 1986, Carnegie Mellon
 University), and the Gaussian 82(TM) system (copyright 1983,
 Carnegie Mellon University). Gaussian is a federally registered
 trademark of Gaussian, Inc.
  
 This software contains proprietary and confidential information,
 including trade secrets, belonging to Gaussian, Inc.
  
 This software is provided under written license and may be
 used, copied, transmitted, or stored only in accord with that
 written license.
  
 The following legend is applicable only to US Government
 contracts under FAR:
  
                    RESTRICTED RIGHTS LEGEND
  
 Use, reproduction and disclosure by the US Government is
 subject to restrictions as set forth in subparagraphs (a)
 and (c) of the Commercial Computer Software - Restricted
 Rights clause in FAR 52.227-19.
  
 Gaussian, Inc.
 340 Quinnipiac St., Bldg. 40, Wallingford CT 06492
  
  
 ---------------------------------------------------------------
 Warning -- This program may not be used in any manner that
 competes with the business of Gaussian, Inc. or will provide
 assistance to any competitor of Gaussian, Inc.  The licensee
 of this program is prohibited from giving any competitor of
 Gaussian, Inc. access to this program.  By using this program,
 the user acknowledges that Gaussian, Inc. is engaged in the
 business of creating and licensing software in the field of
 computational chemistry and represents and warrants to the
 licensee that it is not a competitor of Gaussian, Inc. and that
 it will not use this program in any manner prohibited above.
 ---------------------------------------------------------------
  

 Cite this work as:
 Gaussian 16, Revision C.01,
 M. J. Frisch, G. W. Trucks, H. B. Schlegel, G. E. Scuseria, 
 M. A. Robb, J. R. Cheeseman, G. Scalmani, V. Barone, 
 G. A. Petersson, H. Nakatsuji, X. Li, M. Caricato, A. V. Marenich, 
 J. Bloino, B. G. Janesko, R. Gomperts, B. Mennucci, H. P. Hratchian, 
 J. V. Ortiz, A. F. Izmaylov, J. L. Sonnenberg, D. Williams-Young, 
 F. Ding, F. Lipparini, F. Egidi, J. Goings, B. Peng, A. Petrone, 
 T. Henderson, D. Ranasinghe, V. G. Zakrzewski, J. Gao, N. Rega, 
 G. Zheng, W. Liang, M. Hada, M. Ehara, K. Toyota, R. Fukuda, 
 J. Hasegawa, M. Ishida, T. Nakajima, Y. Honda, O. Kitao, H. Nakai, 
 T. Vreven, K. Throssell, J. A. Montgomery, Jr., J. E. Peralta, 
 F. Ogliaro, M. J. Bearpark, J. J. Heyd, E. N. Brothers, K. N. Kudin, 
 V. N. Staroverov, T. A. Keith, R. Kobayashi, J. Normand, 
 K. Raghavachari, A. P. Rendell, J. C. Burant, S. S. Iyengar, 
 J. Tomasi, M. Cossi, J. M. Millam, M. Klene, C. Adamo, R. Cammi, 
 J. W. Ochterski, R. L. Martin, K. Morokuma, O. Farkas, 
 J. B. Foresman, and D. J. Fox, Gaussian, Inc., Wallingford CT, 2019.
 
 ******************************************
 Gaussian 16:  ES64L-G16RevC.01  3-Jul-2019
                20-May-2022 
 ******************************************
 %nproc=16
 Will use up to   16 processors via shared memory.
 %mem=20gb
 --------------------------------------------------
 #M062X/gen 6D INT(grid=ultrafine) OPT Freq=noraman
 --------------------------------------------------
 1/18=20,19=15,26=4,38=1/1,3;
 2/9=110,12=2,17=6,18=5,40=1/2;
 3/5=7,8=2,11=2,25=1,30=1,71=1,74=-55,75=-5/1,2,3;
 4//1;
 5/5=2,38=5/2;
 6/7=2,8=2,9=2,10=2,28=1/1;
 7//1,2,3,16;
 1/18=20,19=15,26=4/3(2);
 2/9=110/2;
 99//99;
 2/9=110/2;
 3/5=7,6=1,8=2,11=2,25=1,30=1,71=1,74=-55,75=-5,82=7/1,2,3;
 4/5=5,16=3,69=1/1;
 5/5=2,38=5/2;
 7//1,2,3,16;
 1/18=20,19=15,26=4/3(-5);
 2/9=110/2;
 6/7=2,8=2,9=2,10=2,19=2,28=1/1;
 99/9=1/99;
 -------------
 HA.16.a3.freq
 -------------
 Symbolic Z-matrix:
 Charge =  0 Multiplicity = 1
 C                    -1.207     0.60543  -0.64796 
 S                    -1.70125   0.46579   1.13431 
 O                    -2.87784   1.30606   1.2631 
 O                    -1.74478  -0.96058   1.39993 
 N                    -0.49427   1.12072   1.98939 
 H                    -0.38287   2.1301    1.87406 
 H                     0.38337   0.59746   1.96654 
 F                    -2.15838   0.08476  -1.41159 
 F                    -0.0707   -0.05173  -0.84667 
 F                    -1.03649   1.88362  -0.96317 
 

 GradGradGradGradGradGradGradGradGradGradGradGradGradGradGradGradGradGrad
 Berny optimization.
 Initialization pass.
                           ----------------------------
                           !    Initial Parameters    !
                           ! (Angstroms and Degrees)  !
 --------------------------                            --------------------------
 ! Name  Definition              Value          Derivative Info.                !
 --------------------------------------------------------------------------------
 ! R1    R(1,2)                  1.8548         estimate D2E/DX2                !
 ! R2    R(1,8)                  1.3264         estimate D2E/DX2                !
 ! R3    R(1,9)                  1.3276         estimate D2E/DX2                !
 ! R4    R(1,10)                 1.3275         estimate D2E/DX2                !
 ! R5    R(2,3)                  1.4516         estimate D2E/DX2                !
 ! R6    R(2,4)                  1.4515         estimate D2E/DX2                !
 ! R7    R(2,5)                  1.6177         estimate D2E/DX2                !
 ! R8    R(5,6)                  1.022          estimate D2E/DX2                !
 ! R9    R(5,7)                  1.022          estimate D2E/DX2                !
 ! A1    A(2,1,8)              109.4218         estimate D2E/DX2                !
 ! A2    A(2,1,9)              109.55           estimate D2E/DX2                !
 ! A3    A(2,1,10)             109.5655         estimate D2E/DX2                !
 ! A4    A(8,1,9)              109.4773         estimate D2E/DX2                !
 ! A5    A(8,1,10)             109.4748         estimate D2E/DX2                !
 ! A6    A(9,1,10)             109.3379         estimate D2E/DX2                !
 ! A7    A(1,2,3)              104.9317         estimate D2E/DX2                !
 ! A8    A(1,2,4)              104.9402         estimate D2E/DX2                !
 ! A9    A(1,2,5)              106.1777         estimate D2E/DX2                !
 ! A10   A(3,2,4)              121.8897         estimate D2E/DX2                !
 ! A11   A(3,2,5)              108.8761         estimate D2E/DX2                !
 ! A12   A(4,2,5)              108.8741         estimate D2E/DX2                !
 ! A13   A(2,5,6)              114.931          estimate D2E/DX2                !
 ! A14   A(2,5,7)              114.9362         estimate D2E/DX2                !
 ! A15   A(6,5,7)              114.174          estimate D2E/DX2                !
 ! D1    D(8,1,2,3)            -64.7465         estimate D2E/DX2                !
 ! D2    D(8,1,2,4)             64.8245         estimate D2E/DX2                !
 ! D3    D(8,1,2,5)           -179.9603         estimate D2E/DX2                !
 ! D4    D(9,1,2,3)            175.2281         estimate D2E/DX2                !
 ! D5    D(9,1,2,4)            -55.2009         estimate D2E/DX2                !
 ! D6    D(9,1,2,5)             60.0143         estimate D2E/DX2                !
 ! D7    D(10,1,2,3)            55.2854         estimate D2E/DX2                !
 ! D8    D(10,1,2,4)          -175.1437         estimate D2E/DX2                !
 ! D9    D(10,1,2,5)           -59.9284         estimate D2E/DX2                !
 ! D10   D(1,2,5,6)             67.7854         estimate D2E/DX2                !
 ! D11   D(1,2,5,7)            -67.7878         estimate D2E/DX2                !
 ! D12   D(3,2,5,6)            -44.7175         estimate D2E/DX2                !
 ! D13   D(3,2,5,7)            179.7093         estimate D2E/DX2                !
 ! D14   D(4,2,5,6)           -179.7029         estimate D2E/DX2                !
 ! D15   D(4,2,5,7)             44.7239         estimate D2E/DX2                !
 --------------------------------------------------------------------------------
 Trust Radius=3.00D-01 FncErr=1.00D-07 GrdErr=1.00D-06 EigMax=2.50D+02 EigMin=1.00D-04
 Number of steps in this run=     49 maximum allowed number of steps=    100.
 GradGradGradGradGradGradGradGradGradGradGradGradGradGradGradGradGradGrad

                          Input orientation:                          
 ---------------------------------------------------------------------
 Center     Atomic      Atomic             Coordinates (Angstroms)
 Number     Number       Type             X           Y           Z
 ---------------------------------------------------------------------
      1          6           0       -1.206999    0.605428   -0.647961
      2         16           0       -1.701247    0.465788    1.134310
      3          8           0       -2.877845    1.306058    1.263097
      4          8           0       -1.744785   -0.960576    1.399931
      5          7           0       -0.494275    1.120718    1.989386
      6          1           0       -0.382873    2.130103    1.874060
      7          1           0        0.383369    0.597461    1.966542
      8          9           0       -2.158375    0.084759   -1.411588
      9          9           0       -0.070696   -0.051727   -0.846669
     10          9           0       -1.036490    1.883622   -0.963175
 ---------------------------------------------------------------------
                    Distance matrix (angstroms):
                    1          2          3          4          5
     1  C    0.000000
     2  S    1.854797   0.000000
     3  O    2.633392   1.451558   0.000000
     4  O    2.633524   1.451539   2.537751   0.000000
     5  N    2.780126   1.617674   2.498650   2.498603   0.000000
     6  H    3.060132   2.248396   2.697631   3.410557   1.022042
     7  H    3.060223   2.248460   3.410639   2.697697   1.022046
     8  F    1.326400   2.614526   3.027069   3.027940   3.925438
     9  F    1.327600   2.617403   3.764941   2.945470   3.097944
    10  F    1.327483   2.617555   2.946261   3.765025   3.097359
                    6          7          8          9         10
     6  H    0.000000
     7  H    1.716004   0.000000
     8  F    4.258088   4.258532   0.000000
     9  F    3.501457   2.922632   2.167064   0.000000
    10  F    2.921963   3.500493   2.166935   2.166081   0.000000
 Stoichiometry    CH2F3NO2S
 Framework group  C1[X(CH2F3NO2S)]
 Deg. of freedom    24
 Full point group                 C1      NOp   1
 Largest Abelian subgroup         C1      NOp   1
 Largest concise Abelian subgroup C1      NOp   1
                         Standard orientation:                         
 ---------------------------------------------------------------------
 Center     Atomic      Atomic             Coordinates (Angstroms)
 Number     Number       Type             X           Y           Z
 ---------------------------------------------------------------------
      1          6           0        0.997761    0.038404   -0.000034
      2         16           0       -0.845337   -0.169589    0.000068
      3          8           0       -1.149980   -0.806013   -1.268466
      4          8           0       -1.150215   -0.804495    1.269284
      5          7           0       -1.467425    1.323687   -0.000848
      6          1           0       -1.309630    1.855604   -0.859180
      7          1           0       -1.309733    1.856707    0.856824
      8          9           0        1.576310   -1.155171   -0.000169
      9          9           0        1.369084    0.710196    1.083173
     10          9           0        1.369241    0.710413   -1.082908
 ---------------------------------------------------------------------
 Rotational constants (GHZ):           2.5921290           1.5481745           1.5474635
 General basis read from cards:  (6D, 7F)
 There are   160 symmetry adapted cartesian basis functions of A   symmetry.
 There are   160 symmetry adapted basis functions of A   symmetry.
   160 basis functions,   288 primitive gaussians,   160 cartesian basis functions
    37 alpha electrons       37 beta electrons
       nuclear repulsion energy       565.3137496041 Hartrees.
 NAtoms=   10 NActive=   10 NUniq=   10 SFac= 1.00D+00 NAtFMM=   60 NAOKFM=F Big=F
 Integral buffers will be    131072 words long.
 Raffenetti 2 integral format.
 Two-electron integral symmetry is turned on.
 One-electron integrals computed using PRISM.
 NBasis=   160 RedAO= T EigKep=  2.87D-04  NBF=   160
 NBsUse=   160 1.00D-06 EigRej= -1.00D+00 NBFU=   160
 ExpMin= 4.05D-02 ExpMax= 2.19D+04 ExpMxC= 3.30D+03 IAcc=3 IRadAn=         5 AccDes= 0.00D+00
 Harris functional with IExCor= 1009 and IRadAn=       5 diagonalized for initial guess.
 HarFok:  IExCor= 1009 AccDes= 0.00D+00 IRadAn=         5 IDoV= 1 UseB2=F ITyADJ=14
 ICtDFT=  3500011 ScaDFX=  1.000000  1.000000  1.000000  1.000000
 FoFCou: FMM=F IPFlag=           0 FMFlag=      100000 FMFlg1=           0
         NFxFlg=           0 DoJE=T BraDBF=F KetDBF=T FulRan=T
         wScrn=  0.000000 ICntrl=       500 IOpCl=  0 I1Cent=   200000004 NGrid=           0
         NMat0=    1 NMatS0=      1 NMatT0=    0 NMatD0=    1 NMtDS0=    0 NMtDT0=    0
 Petite list used in FoFCou.
 Keep R1 ints in memory in canonical form, NReq=98785159.
 Requested convergence on RMS density matrix=1.00D-08 within 128 cycles.
 Requested convergence on MAX density matrix=1.00D-06.
 Requested convergence on             energy=1.00D-06.
 No special actions if energy rises.
 SCF Done:  E(RM062X) =  -941.937687635     A.U. after   13 cycles
            NFock= 13  Conv=0.73D-08     -V/T= 2.0058

 **********************************************************************

            Population analysis using the SCF Density.

 **********************************************************************

 Orbital symmetries:
       Occupied  (A) (A) (A) (A) (A) (A) (A) (A) (A) (A) (A) (A)
                 (A) (A) (A) (A) (A) (A) (A) (A) (A) (A) (A) (A)
                 (A) (A) (A) (A) (A) (A) (A) (A) (A) (A) (A) (A)
                 (A)
       Virtual   (A) (A) (A) (A) (A) (A) (A) (A) (A) (A) (A) (A)
                 (A) (A) (A) (A) (A) (A) (A) (A) (A) (A) (A) (A)
                 (A) (A) (A) (A) (A) (A) (A) (A) (A) (A) (A) (A)
                 (A) (A) (A) (A) (A) (A) (A) (A) (A) (A) (A) (A)
                 (A) (A) (A) (A) (A) (A) (A) (A) (A) (A) (A) (A)
                 (A) (A) (A) (A) (A) (A) (A) (A) (A) (A) (A) (A)
                 (A) (A) (A) (A) (A) (A) (A) (A) (A) (A) (A) (A)
                 (A) (A) (A) (A) (A) (A) (A) (A) (A) (A) (A) (A)
                 (A) (A) (A) (A) (A) (A) (A) (A) (A) (A) (A) (A)
                 (A) (A) (A) (A) (A) (A) (A) (A) (A) (A) (A) (A)
                 (A) (A) (A)
 The electronic state is 1-A.
 Alpha  occ. eigenvalues --  -90.20435 -25.34869 -25.34864 -25.34224 -19.67928
 Alpha  occ. eigenvalues --  -19.67927 -14.84835 -10.85678  -8.51460  -6.43675
 Alpha  occ. eigenvalues --   -6.43596  -6.43556  -1.51698  -1.42565  -1.42115
 Alpha  occ. eigenvalues --   -1.28309  -1.16600  -1.07713  -0.88409  -0.79383
 Alpha  occ. eigenvalues --   -0.73867  -0.73855  -0.72673  -0.66617  -0.62809
 Alpha  occ. eigenvalues --   -0.61249  -0.60876  -0.57982  -0.57843  -0.57396
 Alpha  occ. eigenvalues --   -0.55404  -0.55317  -0.45501  -0.43568  -0.43052
 Alpha  occ. eigenvalues --   -0.41494  -0.40638
 Alpha virt. eigenvalues --   -0.01098   0.02656   0.03605   0.04028   0.06627
 Alpha virt. eigenvalues --    0.06937   0.06949   0.07903   0.08037   0.08867
 Alpha virt. eigenvalues --    0.10609   0.12610   0.13065   0.13911   0.14521
 Alpha virt. eigenvalues --    0.18270   0.20232   0.21778   0.22173   0.23222
 Alpha virt. eigenvalues --    0.23966   0.24644   0.25164   0.25600   0.27394
 Alpha virt. eigenvalues --    0.28341   0.30480   0.31054   0.31552   0.32211
 Alpha virt. eigenvalues --    0.33059   0.33476   0.35171   0.35385   0.36810
 Alpha virt. eigenvalues --    0.37470   0.38899   0.41036   0.44737   0.45595
 Alpha virt. eigenvalues --    0.46426   0.54495   0.58667   0.60304   0.62574
 Alpha virt. eigenvalues --    0.67785   0.73113   0.82581   0.86346   0.89011
 Alpha virt. eigenvalues --    0.90772   0.95631   0.99245   0.99391   1.07984
 Alpha virt. eigenvalues --    1.10585   1.12314   1.13939   1.25304   1.27041
 Alpha virt. eigenvalues --    1.28932   1.29036   1.30120   1.34759   1.34970
 Alpha virt. eigenvalues --    1.37107   1.39982   1.43840   1.54653   1.55727
 Alpha virt. eigenvalues --    1.62944   1.63222   1.64214   1.64921   1.65993
 Alpha virt. eigenvalues --    1.68634   1.69894   1.70177   1.73771   1.75928
 Alpha virt. eigenvalues --    1.79310   1.80064   1.82714   1.83749   1.84606
 Alpha virt. eigenvalues --    1.85653   1.88111   1.89294   1.91678   1.92421
 Alpha virt. eigenvalues --    1.94703   2.00486   2.02504   2.06384   2.06495
 Alpha virt. eigenvalues --    2.07853   2.10673   2.16001   2.16329   2.16811
 Alpha virt. eigenvalues --    2.19101   2.31241   2.33664   2.35435   2.39258
 Alpha virt. eigenvalues --    2.45802   2.45940   2.69660   2.80293   2.81910
 Alpha virt. eigenvalues --    2.90114   2.93858   3.19817   3.20538   3.24986
 Alpha virt. eigenvalues --    3.86760   4.03190   4.16455   4.16539   4.50316
 Alpha virt. eigenvalues --    5.59105   5.60690   6.22282
          Condensed to atoms (all electrons):
               1          2          3          4          5          6
     1  C    4.911918   0.256938  -0.145337  -0.145121  -0.051154  -0.011406
     2  S    0.256938  14.266816   0.321722   0.321529  -0.273916   0.041168
     3  O   -0.145337   0.321722   8.670043  -0.184785  -0.140153  -0.003860
     4  O   -0.145121   0.321529  -0.184785   8.670079  -0.140207   0.007279
     5  N   -0.051154  -0.273916  -0.140153  -0.140207   8.056100   0.234280
     6  H   -0.011406   0.041168  -0.003860   0.007279   0.234280   0.294829
     7  H   -0.011357   0.041113   0.007276  -0.003861   0.234281  -0.018262
     8  F    0.226476  -0.075850   0.002012   0.001976   0.019993  -0.000156
     9  F    0.102279  -0.024388   0.015397   0.003144   0.000404  -0.000395
    10  F    0.102306  -0.024396   0.003156   0.015399   0.000360   0.000904
               7          8          9         10
     1  C   -0.011357   0.226476   0.102279   0.102306
     2  S    0.041113  -0.075850  -0.024388  -0.024396
     3  O    0.007276   0.002012   0.015397   0.003156
     4  O   -0.003861   0.001976   0.003144   0.015399
     5  N    0.234281   0.019993   0.000404   0.000360
     6  H   -0.018262  -0.000156  -0.000395   0.000904
     7  H    0.294816  -0.000157   0.000902  -0.000397
     8  F   -0.000157   9.178285  -0.044463  -0.044486
     9  F    0.000902  -0.044463   9.252944  -0.040549
    10  F   -0.000397  -0.044486  -0.040549   9.252897
 Mulliken charges:
               1
     1  C    0.764456
     2  S    1.149264
     3  O   -0.545470
     4  O   -0.545433
     5  N   -0.939986
     6  H    0.455620
     7  H    0.455645
     8  F   -0.263630
     9  F   -0.265275
    10  F   -0.265192
 Sum of Mulliken charges =  -0.00000
 Mulliken charges with hydrogens summed into heavy atoms:
               1
     1  C    0.764456
     2  S    1.149264
     3  O   -0.545470
     4  O   -0.545433
     5  N   -0.028721
     8  F   -0.263630
     9  F   -0.265275
    10  F   -0.265192
 Electronic spatial extent (au):  <R**2>=            874.9016
 Charge=             -0.0000 electrons
 Dipole moment (field-independent basis, Debye):
    X=              0.6096    Y=              4.5916    Z=             -0.0030  Tot=              4.6319
 Quadrupole moment (field-independent basis, Debye-Ang):
   XX=            -54.1732   YY=            -46.6424   ZZ=            -54.7117
   XY=             -5.6860   XZ=              0.0026   YZ=             -0.0055
 Traceless Quadrupole moment (field-independent basis, Debye-Ang):
   XX=             -2.3307   YY=              5.2000   ZZ=             -2.8693
   XY=             -5.6860   XZ=              0.0026   YZ=             -0.0055
 Octapole moment (field-independent basis, Debye-Ang**2):
  XXX=             26.1616  YYY=             15.7159  ZZZ=             -0.0167  XYY=             -0.2324
  XXY=              4.1487  XXZ=             -0.0029  XZZ=              8.7282  YZZ=              9.0990
  YYZ=              0.0037  XYZ=              0.0044
 Hexadecapole moment (field-independent basis, Debye-Ang**3):
 XXXX=           -503.5991 YYYY=           -211.0508 ZZZZ=           -233.8242 XXXY=              3.4977
 XXXZ=             -0.0044 YYYX=            -17.9401 YYYZ=             -0.0047 ZZZX=              0.0171
 ZZZY=             -0.0172 XXYY=           -119.2849 XXZZ=           -124.6884 YYZZ=            -71.5301
 XXYZ=             -0.0034 YYXZ=             -0.0043 ZZXY=            -12.3907
 N-N= 5.653137496041D+02 E-N=-3.359794007054D+03  KE= 9.364691608270D+02
 Calling FoFJK, ICntrl=      2127 FMM=F ISym2X=0 I1Cent= 0 IOpClX= 0 NMat=1 NMatS=1 NMatT=0.
 ***** Axes restored to original set *****
 -------------------------------------------------------------------
 Center     Atomic                   Forces (Hartrees/Bohr)
 Number     Number              X              Y              Z
 -------------------------------------------------------------------
      1        6          -0.005862405   -0.002910412    0.001783891
      2       16          -0.032278580   -0.016362013   -0.004220673
      3        8           0.011648990   -0.000484726   -0.000420107
      4        8           0.006632546    0.009522741   -0.001037216
      5        7           0.016772737    0.008530990    0.002319132
      6        1          -0.001424772   -0.004043935    0.001462727
      7        1          -0.004159206    0.001408882    0.001130580
      8        9           0.002634470    0.001414591    0.001810179
      9        9           0.003893922   -0.000341388   -0.001309820
     10        9           0.002142299    0.003265269   -0.001518694
 -------------------------------------------------------------------
 Cartesian Forces:  Max     0.032278580 RMS     0.008351952

 GradGradGradGradGradGradGradGradGradGradGradGradGradGradGradGradGradGrad
 Berny optimization.
 FormGI is forming the generalized inverse of G from B-inverse, IUseBI=4.
 Internal  Forces:  Max     0.013325382 RMS     0.003910146
 Search for a local minimum.
 Step number   1 out of a maximum of   49
 All quantities printed in internal units (Hartrees-Bohrs-Radians)
 Mixed Optimization -- RFO/linear search
 Second derivative matrix not updated -- first step.
 ITU=  0
     Eigenvalues ---    0.00230   0.02385   0.03958   0.08708   0.08827
     Eigenvalues ---    0.08841   0.09247   0.12644   0.16000   0.16000
     Eigenvalues ---    0.18605   0.22235   0.25000   0.25000   0.25000
     Eigenvalues ---    0.25000   0.44013   0.44014   0.47947   0.60076
     Eigenvalues ---    0.60104   0.60364   0.95247   0.95256
 RFO step:  Lambda=-2.22283324D-03 EMin= 2.30000000D-03
 Linear search not attempted -- first point.
 Iteration  1 RMS(Cart)=  0.01941974 RMS(Int)=  0.00046167
 Iteration  2 RMS(Cart)=  0.00063951 RMS(Int)=  0.00023951
 Iteration  3 RMS(Cart)=  0.00000028 RMS(Int)=  0.00023951
 Variable       Old X    -DE/DX   Delta X   Delta X   Delta X     New X
                                 (Linear)    (Quad)   (Total)
    R1        3.50506   0.00013   0.00000   0.00057   0.00057   3.50562
    R2        2.50653  -0.00349   0.00000  -0.00576  -0.00576   2.50077
    R3        2.50880   0.00370   0.00000   0.00614   0.00614   2.51494
    R4        2.50858   0.00378   0.00000   0.00627   0.00627   2.51485
    R5        2.74305  -0.00976   0.00000  -0.01022  -0.01022   2.73283
    R6        2.74301  -0.00975   0.00000  -0.01021  -0.01021   2.73280
    R7        3.05696   0.01333   0.00000   0.02766   0.02766   3.08462
    R8        1.93138  -0.00432   0.00000  -0.00976  -0.00976   1.92162
    R9        1.93139  -0.00432   0.00000  -0.00977  -0.00977   1.92162
    A1        1.90977   0.00029   0.00000   0.00394   0.00392   1.91369
    A2        1.91201   0.00139   0.00000   0.00413   0.00412   1.91613
    A3        1.91228   0.00134   0.00000   0.00392   0.00391   1.91619
    A4        1.91074  -0.00035   0.00000   0.00142   0.00140   1.91213
    A5        1.91070  -0.00033   0.00000   0.00148   0.00146   1.91216
    A6        1.90831  -0.00235   0.00000  -0.01490  -0.01490   1.89341
    A7        1.83140   0.00158   0.00000   0.00915   0.00834   1.83974
    A8        1.83155   0.00156   0.00000   0.00905   0.00823   1.83979
    A9        1.85315  -0.00515   0.00000  -0.03679  -0.03719   1.81596
   A10        2.12738   0.00433   0.00000   0.05193   0.05158   2.17896
   A11        1.90025  -0.00171   0.00000  -0.02131  -0.02136   1.87889
   A12        1.90021  -0.00170   0.00000  -0.02125  -0.02130   1.87891
   A13        2.00592   0.00019   0.00000   0.00661   0.00645   2.01237
   A14        2.00602   0.00018   0.00000   0.00653   0.00637   2.01239
   A15        1.99271   0.00059   0.00000   0.01119   0.01098   2.00369
    D1       -1.13004  -0.00344   0.00000  -0.03622  -0.03638  -1.16641
    D2        1.13140   0.00344   0.00000   0.03536   0.03551   1.16691
    D3       -3.14090   0.00000   0.00000  -0.00043  -0.00042  -3.14132
    D4        3.05831  -0.00405   0.00000  -0.04291  -0.04307   3.01524
    D5       -0.96344   0.00283   0.00000   0.02867   0.02882  -0.93462
    D6        1.04745  -0.00060   0.00000  -0.00711  -0.00712   1.04033
    D7        0.96491  -0.00284   0.00000  -0.02958  -0.02972   0.93519
    D8       -3.05683   0.00404   0.00000   0.04200   0.04216  -3.01467
    D9       -1.04595   0.00060   0.00000   0.00622   0.00623  -1.03972
   D10        1.18308   0.00069   0.00000   0.01636   0.01641   1.19948
   D11       -1.18312  -0.00068   0.00000  -0.01633  -0.01637  -1.19949
   D12       -0.78047   0.00218   0.00000   0.03358   0.03331  -0.74716
   D13        3.13652   0.00081   0.00000   0.00089   0.00054   3.13706
   D14       -3.13641  -0.00082   0.00000  -0.00095  -0.00059  -3.13700
   D15        0.78058  -0.00218   0.00000  -0.03363  -0.03337   0.74721
         Item               Value     Threshold  Converged?
 Maximum Force            0.013325     0.000450     NO 
 RMS     Force            0.003910     0.000300     NO 
 Maximum Displacement     0.053202     0.001800     NO 
 RMS     Displacement     0.019643     0.001200     NO 
 Predicted change in Energy=-1.135379D-03
 GradGradGradGradGradGradGradGradGradGradGradGradGradGradGradGradGradGrad

                          Input orientation:                          
 ---------------------------------------------------------------------
 Center     Atomic      Atomic             Coordinates (Angstroms)
 Number     Number       Type             X           Y           Z
 ---------------------------------------------------------------------
      1          6           0       -1.210970    0.603912   -0.639714
      2         16           0       -1.729400    0.451849    1.134966
      3          8           0       -2.875005    1.322980    1.276622
      4          8           0       -1.730650   -0.966962    1.414767
      5          7           0       -0.494016    1.119431    1.967195
      6          1           0       -0.388274    2.124688    1.856219
      7          1           0        0.376565    0.594286    1.948526
      8          9           0       -2.146244    0.089694   -1.422084
      9          9           0       -0.064301   -0.043894   -0.831165
     10          9           0       -1.027922    1.885650   -0.947400
 ---------------------------------------------------------------------
                    Distance matrix (angstroms):
                    1          2          3          4          5
     1  C    0.000000
     2  S    1.855096   0.000000
     3  O    2.637881   1.446149   0.000000
     4  O    2.637917   1.446138   2.563682   0.000000
     5  N    2.752410   1.632313   2.487455   2.487464   0.000000
     6  H    3.036326   2.262127   2.676285   3.399288   1.016877
     7  H    3.036338   2.262136   3.399288   2.676331   1.016876
     8  F    1.323352   2.615992   3.055340   3.055644   3.908635
     9  F    1.330848   2.623735   3.769770   2.944993   3.060849
    10  F    1.330801   2.623758   2.945266   3.769756   3.060557
                    6          7          8          9         10
     6  H    0.000000
     7  H    1.713368   0.000000
     8  F    4.240157   4.240305   0.000000
     9  F    3.468392   2.885882   2.168299   0.000000
    10  F    2.885579   3.467938   2.168278   2.159912   0.000000
 Stoichiometry    CH2F3NO2S
 Framework group  C1[X(CH2F3NO2S)]
 Deg. of freedom    24
 Full point group                 C1      NOp   1
 Largest Abelian subgroup         C1      NOp   1
 Largest concise Abelian subgroup C1      NOp   1
                         Standard orientation:                         
 ---------------------------------------------------------------------
 Center     Atomic      Atomic             Coordinates (Angstroms)
 Number     Number       Type             X           Y           Z
 ---------------------------------------------------------------------
      1          6           0        0.993332    0.023435   -0.000021
      2         16           0       -0.849608   -0.188587    0.000012
      3          8           0       -1.168713   -0.777181   -1.281813
      4          8           0       -1.168740   -0.777070    1.281869
      5          7           0       -1.424181    1.339258   -0.000075
      6          1           0       -1.264939    1.863388   -0.856795
      7          1           0       -1.264931    1.863502    0.856573
      8          9           0        1.577790   -1.163859   -0.000290
      9          9           0        1.368481    0.704412    1.080114
     10          9           0        1.368452    0.704902   -1.079798
 ---------------------------------------------------------------------
 Rotational constants (GHZ):           2.5880277           1.5527205           1.5458784
 Basis read from rwf:  (6D, 7F)
 There are   160 symmetry adapted cartesian basis functions of A   symmetry.
 There are   160 symmetry adapted basis functions of A   symmetry.
   160 basis functions,   288 primitive gaussians,   160 cartesian basis functions
    37 alpha electrons       37 beta electrons
       nuclear repulsion energy       565.3346327806 Hartrees.
 NAtoms=   10 NActive=   10 NUniq=   10 SFac= 1.00D+00 NAtFMM=   60 NAOKFM=F Big=F
 Integral buffers will be    131072 words long.
 Raffenetti 2 integral format.
 Two-electron integral symmetry is turned on.
 One-electron integrals computed using PRISM.
 NBasis=   160 RedAO= T EigKep=  2.82D-04  NBF=   160
 NBsUse=   160 1.00D-06 EigRej= -1.00D+00 NBFU=   160
 Initial guess from the checkpoint file:  "/jobfs/40766125.gadi-pbs/Gau-2691970.chk"
 B after Tr=     0.000000   -0.000000    0.000000
         Rot=    0.999988   -0.000179   -0.000023    0.004833 Ang=  -0.55 deg.
 ExpMin= 4.05D-02 ExpMax= 2.19D+04 ExpMxC= 3.30D+03 IAcc=3 IRadAn=         5 AccDes= 0.00D+00
 Harris functional with IExCor= 1009 and IRadAn=       5 diagonalized for initial guess.
 HarFok:  IExCor= 1009 AccDes= 0.00D+00 IRadAn=         5 IDoV= 1 UseB2=F ITyADJ=14
 ICtDFT=  3500011 ScaDFX=  1.000000  1.000000  1.000000  1.000000
 FoFCou: FMM=F IPFlag=           0 FMFlag=      100000 FMFlg1=           0
         NFxFlg=           0 DoJE=T BraDBF=F KetDBF=T FulRan=T
         wScrn=  0.000000 ICntrl=       500 IOpCl=  0 I1Cent=   200000004 NGrid=           0
         NMat0=    1 NMatS0=      1 NMatT0=    0 NMatD0=    1 NMtDS0=    0 NMtDT0=    0
 Petite list used in FoFCou.
 Keep R1 ints in memory in canonical form, NReq=98785159.
 Requested convergence on RMS density matrix=1.00D-08 within 128 cycles.
 Requested convergence on MAX density matrix=1.00D-06.
 Requested convergence on             energy=1.00D-06.
 No special actions if energy rises.
 SCF Done:  E(RM062X) =  -941.938865678     A.U. after   11 cycles
            NFock= 11  Conv=0.44D-08     -V/T= 2.0058
 Calling FoFJK, ICntrl=      2127 FMM=F ISym2X=0 I1Cent= 0 IOpClX= 0 NMat=1 NMatS=1 NMatT=0.
 ***** Axes restored to original set *****
 -------------------------------------------------------------------
 Center     Atomic                   Forces (Hartrees/Bohr)
 Number     Number              X              Y              Z
 -------------------------------------------------------------------
      1        6          -0.002009865   -0.001062524   -0.000335627
      2       16          -0.005162023   -0.002537342    0.000412935
      3        8           0.002932717   -0.003186509   -0.000901817
      4        8          -0.000733026    0.004140034   -0.001344305
      5        7           0.005672287    0.002899726    0.001089855
      6        1          -0.000870481   -0.000525513    0.000423463
      7        1          -0.000962304   -0.000341489    0.000412483
      8        9           0.000457050    0.000207657   -0.000363097
      9        9           0.000856889   -0.000851531    0.000368066
     10        9          -0.000181243    0.001257490    0.000238044
 -------------------------------------------------------------------
 Cartesian Forces:  Max     0.005672287 RMS     0.002044791

 GradGradGradGradGradGradGradGradGradGradGradGradGradGradGradGradGradGrad
 Berny optimization.
 Using GEDIIS/GDIIS optimizer.
 FormGI is forming the generalized inverse of G from B-inverse, IUseBI=4.
 Internal  Forces:  Max     0.004716354 RMS     0.001363925
 Search for a local minimum.
 Step number   2 out of a maximum of   49
 All quantities printed in internal units (Hartrees-Bohrs-Radians)
 Mixed Optimization -- RFO/linear search
 Update second derivatives using D2CorX and points    1    2
 DE= -1.18D-03 DEPred=-1.14D-03 R= 1.04D+00
 TightC=F SS=  1.41D+00  RLast= 1.33D-01 DXNew= 5.0454D-01 3.9827D-01
 Trust test= 1.04D+00 RLast= 1.33D-01 DXMaxT set to 3.98D-01
 ITU=  1  0
 Use linear search instead of GDIIS.
     Eigenvalues ---    0.00230   0.02385   0.03712   0.08731   0.08739
     Eigenvalues ---    0.09225   0.10447   0.12804   0.16000   0.16039
     Eigenvalues ---    0.18178   0.22239   0.24716   0.25000   0.25000
     Eigenvalues ---    0.26015   0.41345   0.44014   0.44992   0.59552
     Eigenvalues ---    0.60090   0.60407   0.90226   0.95251
 RFO step:  Lambda=-1.74326450D-04 EMin= 2.30000148D-03
 Quartic linear search produced a step of  0.06497.
 Iteration  1 RMS(Cart)=  0.00531011 RMS(Int)=  0.00002822
 Iteration  2 RMS(Cart)=  0.00002130 RMS(Int)=  0.00002339
 Iteration  3 RMS(Cart)=  0.00000000 RMS(Int)=  0.00002339
 Variable       Old X    -DE/DX   Delta X   Delta X   Delta X     New X
                                 (Linear)    (Quad)   (Total)
    R1        3.50562  -0.00019   0.00004  -0.00090  -0.00086   3.50476
    R2        2.50077  -0.00019  -0.00037  -0.00044  -0.00081   2.49996
    R3        2.51494   0.00110   0.00040   0.00206   0.00246   2.51739
    R4        2.51485   0.00113   0.00041   0.00211   0.00252   2.51737
    R5        2.73283  -0.00433  -0.00066  -0.00502  -0.00568   2.72714
    R6        2.73280  -0.00432  -0.00066  -0.00501  -0.00567   2.72713
    R7        3.08462   0.00472   0.00180   0.01095   0.01275   3.09737
    R8        1.92162  -0.00066  -0.00063  -0.00176  -0.00239   1.91923
    R9        1.92162  -0.00066  -0.00063  -0.00176  -0.00239   1.91923
    A1        1.91369   0.00141   0.00025   0.00661   0.00687   1.92056
    A2        1.91613  -0.00108   0.00027  -0.00478  -0.00452   1.91161
    A3        1.91619  -0.00108   0.00025  -0.00483  -0.00459   1.91161
    A4        1.91213  -0.00008   0.00009   0.00027   0.00036   1.91250
    A5        1.91216  -0.00008   0.00009   0.00024   0.00034   1.91250
    A6        1.89341   0.00090  -0.00097   0.00243   0.00144   1.89485
    A7        1.83974  -0.00032   0.00054  -0.00348  -0.00299   1.83675
    A8        1.83979  -0.00032   0.00054  -0.00351  -0.00302   1.83677
    A9        1.81596  -0.00032  -0.00242  -0.00064  -0.00308   1.81289
   A10        2.17896  -0.00046   0.00335  -0.00413  -0.00083   2.17812
   A11        1.87889   0.00067  -0.00139   0.00578   0.00438   1.88327
   A12        1.87891   0.00067  -0.00138   0.00576   0.00436   1.88327
   A13        2.01237  -0.00025   0.00042   0.00113   0.00150   2.01387
   A14        2.01239  -0.00025   0.00041   0.00113   0.00149   2.01388
   A15        2.00369   0.00074   0.00071   0.00880   0.00944   2.01313
    D1       -1.16641   0.00048  -0.00236   0.00447   0.00210  -1.16432
    D2        1.16691  -0.00048   0.00231  -0.00507  -0.00276   1.16416
    D3       -3.14132   0.00000  -0.00003  -0.00032  -0.00034   3.14152
    D4        3.01524   0.00037  -0.00280   0.00299   0.00018   3.01542
    D5       -0.93462  -0.00060   0.00187  -0.00656  -0.00467  -0.93929
    D6        1.04033  -0.00011  -0.00046  -0.00180  -0.00226   1.03807
    D7        0.93519   0.00059  -0.00193   0.00590   0.00395   0.93913
    D8       -3.01467  -0.00037   0.00274  -0.00365  -0.00091  -3.01558
    D9       -1.03972   0.00011   0.00040   0.00111   0.00150  -1.03822
   D10        1.19948   0.00030   0.00107   0.00860   0.00968   1.20916
   D11       -1.19949  -0.00030  -0.00106  -0.00859  -0.00966  -1.20915
   D12       -0.74716   0.00054   0.00216   0.01050   0.01267  -0.73449
   D13        3.13706  -0.00007   0.00003  -0.00669  -0.00667   3.13038
   D14       -3.13700   0.00007  -0.00004   0.00666   0.00664  -3.13036
   D15        0.74721  -0.00054  -0.00217  -0.01052  -0.01270   0.73451
         Item               Value     Threshold  Converged?
 Maximum Force            0.004716     0.000450     NO 
 RMS     Force            0.001364     0.000300     NO 
 Maximum Displacement     0.013572     0.001800     NO 
 RMS     Displacement     0.005308     0.001200     NO 
 Predicted change in Energy=-9.156628D-05
 GradGradGradGradGradGradGradGradGradGradGradGradGradGradGradGradGradGrad

                          Input orientation:                          
 ---------------------------------------------------------------------
 Center     Atomic      Atomic             Coordinates (Angstroms)
 Number     Number       Type             X           Y           Z
 ---------------------------------------------------------------------
      1          6           0       -1.214857    0.601968   -0.639710
      2         16           0       -1.730911    0.451187    1.135294
      3          8           0       -2.875544    1.319304    1.272576
      4          8           0       -1.734017   -0.965485    1.410387
      5          7           0       -0.486834    1.122777    1.964601
      6          1           0       -0.385471    2.127805    1.859208
      7          1           0        0.380552    0.594629    1.951671
      8          9           0       -2.145730    0.089260   -1.427574
      9          9           0       -0.065923   -0.046008   -0.825971
     10          9           0       -1.031482    1.886198   -0.942547
 ---------------------------------------------------------------------
                    Distance matrix (angstroms):
                    1          2          3          4          5
     1  C    0.000000
     2  S    1.854639   0.000000
     3  O    2.632354   1.443142   0.000000
     4  O    2.632363   1.443137   2.557799   0.000000
     5  N    2.753850   1.639058   2.494685   2.494686   0.000000
     6  H    3.043131   2.268328   2.682960   3.404183   1.015611
     7  H    3.043129   2.268330   3.404186   2.682973   1.015611
     8  F    1.322923   2.621327   3.055560   3.055489   3.914964
     9  F    1.332148   2.620296   3.763236   2.937562   3.054590
    10  F    1.332135   2.620283   2.937465   3.763237   3.054662
                    6          7          8          9         10
     6  H    0.000000
     7  H    1.716383   0.000000
     8  F    4.249366   4.249328   0.000000
     9  F    3.469548   2.885316   2.169290   0.000000
    10  F    2.885400   3.469652   2.169283   2.163173   0.000000
 Stoichiometry    CH2F3NO2S
 Framework group  C1[X(CH2F3NO2S)]
 Deg. of freedom    24
 Full point group                 C1      NOp   1
 Largest Abelian subgroup         C1      NOp   1
 Largest concise Abelian subgroup C1      NOp   1
                         Standard orientation:                         
 ---------------------------------------------------------------------
 Center     Atomic      Atomic             Coordinates (Angstroms)
 Number     Number       Type             X           Y           Z
 ---------------------------------------------------------------------
      1          6           0        0.992212    0.023875   -0.000003
      2         16           0       -0.849786   -0.192298    0.000008
      3          8           0       -1.162328   -0.783413   -1.278882
      4          8           0       -1.162337   -0.783354    1.278918
      5          7           0       -1.425515    1.342318   -0.000032
      6          1           0       -1.274515    1.863992   -0.858240
      7          1           0       -1.274505    1.864043    0.858143
      8          9           0        1.587318   -1.157638    0.000120
      9          9           0        1.360130    0.709118    1.081522
     10          9           0        1.360134    0.708896   -1.081651
 ---------------------------------------------------------------------
 Rotational constants (GHZ):           2.5836497           1.5538995           1.5495825
 Basis read from rwf:  (6D, 7F)
 There are   160 symmetry adapted cartesian basis functions of A   symmetry.
 There are   160 symmetry adapted basis functions of A   symmetry.
   160 basis functions,   288 primitive gaussians,   160 cartesian basis functions
    37 alpha electrons       37 beta electrons
       nuclear repulsion energy       565.4162825318 Hartrees.
 NAtoms=   10 NActive=   10 NUniq=   10 SFac= 1.00D+00 NAtFMM=   60 NAOKFM=F Big=F
 Integral buffers will be    131072 words long.
 Raffenetti 2 integral format.
 Two-electron integral symmetry is turned on.
 One-electron integrals computed using PRISM.
 NBasis=   160 RedAO= T EigKep=  2.82D-04  NBF=   160
 NBsUse=   160 1.00D-06 EigRej= -1.00D+00 NBFU=   160
 Initial guess from the checkpoint file:  "/jobfs/40766125.gadi-pbs/Gau-2691970.chk"
 B after Tr=    -0.000000    0.000000   -0.000000
         Rot=    0.999998    0.000064    0.000001   -0.002036 Ang=   0.23 deg.
 Keep R1 ints in memory in canonical form, NReq=98785159.
 Requested convergence on RMS density matrix=1.00D-08 within 128 cycles.
 Requested convergence on MAX density matrix=1.00D-06.
 Requested convergence on             energy=1.00D-06.
 No special actions if energy rises.
 SCF Done:  E(RM062X) =  -941.938958374     A.U. after   10 cycles
            NFock= 10  Conv=0.26D-08     -V/T= 2.0058
 Calling FoFJK, ICntrl=      2127 FMM=F ISym2X=0 I1Cent= 0 IOpClX= 0 NMat=1 NMatS=1 NMatT=0.
 ***** Axes restored to original set *****
 -------------------------------------------------------------------
 Center     Atomic                   Forces (Hartrees/Bohr)
 Number     Number              X              Y              Z
 -------------------------------------------------------------------
      1        6          -0.000359573   -0.000166823    0.000313655
      2       16           0.000090916   -0.000006193   -0.000953463
      3        8           0.000344601   -0.000589002    0.000539207
      4        8          -0.000287384    0.000672278    0.000463142
      5        7           0.000252786    0.000115948   -0.000167854
      6        1          -0.000435709    0.000231123    0.000041643
      7        1          -0.000080127   -0.000481005    0.000084579
      8        9           0.000491333    0.000247471    0.000036093
      9        9           0.000078562   -0.000191641   -0.000166822
     10        9          -0.000095405    0.000167843   -0.000190180
 -------------------------------------------------------------------
 Cartesian Forces:  Max     0.000953463 RMS     0.000352228

 GradGradGradGradGradGradGradGradGradGradGradGradGradGradGradGradGradGrad
 Berny optimization.
 Using GEDIIS/GDIIS optimizer.
 FormGI is forming the generalized inverse of G from B-inverse, IUseBI=4.
 Internal  Forces:  Max     0.000575849 RMS     0.000308724
 Search for a local minimum.
 Step number   3 out of a maximum of   49
 All quantities printed in internal units (Hartrees-Bohrs-Radians)
 Mixed Optimization -- En-DIIS/RFO-DIIS
 Update second derivatives using D2CorX and points    1    2    3
 DE= -9.27D-05 DEPred=-9.16D-05 R= 1.01D+00
 TightC=F SS=  1.41D+00  RLast= 3.40D-02 DXNew= 6.6980D-01 1.0210D-01
 Trust test= 1.01D+00 RLast= 3.40D-02 DXMaxT set to 3.98D-01
 ITU=  1  1  0
 Use linear search instead of GDIIS.
     Eigenvalues ---    0.00230   0.02385   0.03359   0.08696   0.08856
     Eigenvalues ---    0.09260   0.10780   0.13953   0.15463   0.16000
     Eigenvalues ---    0.18142   0.22247   0.23309   0.25000   0.25029
     Eigenvalues ---    0.26424   0.43707   0.44014   0.45226   0.59024
     Eigenvalues ---    0.60090   0.60668   0.86369   0.95251
 RFO step:  Lambda=-2.14308140D-05 EMin= 2.30001845D-03
 Quartic linear search produced a step of  0.02079.
 Iteration  1 RMS(Cart)=  0.00260643 RMS(Int)=  0.00000669
 Iteration  2 RMS(Cart)=  0.00000637 RMS(Int)=  0.00000354
 Iteration  3 RMS(Cart)=  0.00000000 RMS(Int)=  0.00000354
 Variable       Old X    -DE/DX   Delta X   Delta X   Delta X     New X
                                 (Linear)    (Quad)   (Total)
    R1        3.50476   0.00005  -0.00002   0.00015   0.00013   3.50489
    R2        2.49996  -0.00047  -0.00002  -0.00090  -0.00092   2.49904
    R3        2.51739   0.00019   0.00005   0.00059   0.00064   2.51803
    R4        2.51737   0.00019   0.00005   0.00061   0.00066   2.51803
    R5        2.72714  -0.00058  -0.00012  -0.00121  -0.00133   2.72581
    R6        2.72713  -0.00057  -0.00012  -0.00121  -0.00132   2.72581
    R7        3.09737  -0.00028   0.00027   0.00077   0.00103   3.09840
    R8        1.91923   0.00018  -0.00005   0.00012   0.00008   1.91930
    R9        1.91923   0.00018  -0.00005   0.00012   0.00007   1.91930
    A1        1.92056   0.00045   0.00014   0.00228   0.00242   1.92298
    A2        1.91161   0.00010  -0.00009   0.00012   0.00003   1.91164
    A3        1.91161   0.00010  -0.00010   0.00013   0.00003   1.91164
    A4        1.91250  -0.00031   0.00001  -0.00145  -0.00144   1.91106
    A5        1.91250  -0.00031   0.00001  -0.00144  -0.00144   1.91106
    A6        1.89485  -0.00003   0.00003   0.00033   0.00036   1.89522
    A7        1.83675   0.00055  -0.00006   0.00379   0.00373   1.84048
    A8        1.83677   0.00055  -0.00006   0.00378   0.00371   1.84048
    A9        1.81289  -0.00021  -0.00006  -0.00045  -0.00051   1.81237
   A10        2.17812  -0.00045  -0.00002  -0.00301  -0.00304   2.17508
   A11        1.88327  -0.00019   0.00009  -0.00167  -0.00158   1.88168
   A12        1.88327  -0.00019   0.00009  -0.00167  -0.00159   1.88168
   A13        2.01387  -0.00025   0.00003  -0.00061  -0.00058   2.01329
   A14        2.01388  -0.00025   0.00003  -0.00061  -0.00058   2.01330
   A15        2.01313   0.00049   0.00020   0.00520   0.00539   2.01852
    D1       -1.16432  -0.00008   0.00004  -0.00053  -0.00049  -1.16481
    D2        1.16416   0.00008  -0.00006   0.00061   0.00055   1.16471
    D3        3.14152  -0.00000  -0.00001   0.00003   0.00003   3.14155
    D4        3.01542  -0.00003   0.00000  -0.00025  -0.00025   3.01518
    D5       -0.93929   0.00012  -0.00010   0.00089   0.00080  -0.93849
    D6        1.03807   0.00004  -0.00005   0.00032   0.00027   1.03834
    D7        0.93913  -0.00012   0.00008  -0.00081  -0.00073   0.93841
    D8       -3.01558   0.00003  -0.00002   0.00033   0.00032  -3.01526
    D9       -1.03822  -0.00004   0.00003  -0.00024  -0.00021  -1.03843
   D10        1.20916   0.00009   0.00020   0.00359   0.00380   1.21296
   D11       -1.20915  -0.00009  -0.00020  -0.00358  -0.00379  -1.21294
   D12       -0.73449  -0.00036   0.00026   0.00019   0.00046  -0.73403
   D13        3.13038  -0.00055  -0.00014  -0.00698  -0.00712   3.12326
   D14       -3.13036   0.00055   0.00014   0.00698   0.00711  -3.12325
   D15        0.73451   0.00036  -0.00026  -0.00020  -0.00047   0.73404
         Item               Value     Threshold  Converged?
 Maximum Force            0.000576     0.000450     NO 
 RMS     Force            0.000309     0.000300     NO 
 Maximum Displacement     0.007984     0.001800     NO 
 RMS     Displacement     0.002605     0.001200     NO 
 Predicted change in Energy=-1.073004D-05
 GradGradGradGradGradGradGradGradGradGradGradGradGradGradGradGradGradGrad

                          Input orientation:                          
 ---------------------------------------------------------------------
 Center     Atomic      Atomic             Coordinates (Angstroms)
 Number     Number       Type             X           Y           Z
 ---------------------------------------------------------------------
      1          6           0       -1.214871    0.601890   -0.640833
      2         16           0       -1.730967    0.451093    1.134231
      3          8           0       -2.874994    1.317986    1.276801
      4          8           0       -1.734908   -0.963862    1.414426
      5          7           0       -0.486092    1.123067    1.963112
      6          1           0       -0.387307    2.128611    1.859829
      7          1           0        0.380059    0.592769    1.952449
      8          9           0       -2.143630    0.090129   -1.430986
      9          9           0       -0.065811   -0.046516   -0.827242
     10          9           0       -1.031695    1.886467   -0.943853
 ---------------------------------------------------------------------
                    Distance matrix (angstroms):
                    1          2          3          4          5
     1  C    0.000000
     2  S    1.854709   0.000000
     3  O    2.635549   1.442437   0.000000
     4  O    2.635546   1.442437   2.554519   0.000000
     5  N    2.753774   1.639605   2.493165   2.493165   0.000000
     6  H    3.044511   2.268475   2.680601   3.402617   1.015650
     7  H    3.044502   2.268476   3.402617   2.680607   1.015650
     8  F    1.322435   2.623152   3.061802   3.061751   3.915903
     9  F    1.332485   2.620636   3.765682   2.941510   3.054608
    10  F    1.332484   2.620632   2.941466   3.765682   3.054653
                    6          7          8          9         10
     6  H    0.000000
     7  H    1.719371   0.000000
     8  F    4.250828   4.250798   0.000000
     9  F    3.472014   2.886895   2.168066   0.000000
    10  F    2.886953   3.472069   2.168071   2.164013   0.000000
 Stoichiometry    CH2F3NO2S
 Framework group  C1[X(CH2F3NO2S)]
 Deg. of freedom    24
 Full point group                 C1      NOp   1
 Largest Abelian subgroup         C1      NOp   1
 Largest concise Abelian subgroup C1      NOp   1
                         Standard orientation:                         
 ---------------------------------------------------------------------
 Center     Atomic      Atomic             Coordinates (Angstroms)
 Number     Number       Type             X           Y           Z
 ---------------------------------------------------------------------
      1          6           0        0.993010    0.022780   -0.000002
      2         16           0       -0.849197   -0.192208   -0.000003
      3          8           0       -1.167262   -0.782156   -1.277274
      4          8           0       -1.167253   -0.782212    1.277245
      5          7           0       -1.423339    1.343587    0.000032
      6          1           0       -1.274514    1.863539   -0.859646
      7          1           0       -1.274496    1.863508    0.859726
      8          9           0        1.589991   -1.157241    0.000030
      9          9           0        1.361537    0.707613    1.081990
     10          9           0        1.361538    0.707566   -1.082022
 ---------------------------------------------------------------------
 Rotational constants (GHZ):           2.5863558           1.5516961           1.5473165
 Basis read from rwf:  (6D, 7F)
 There are   160 symmetry adapted cartesian basis functions of A   symmetry.
 There are   160 symmetry adapted basis functions of A   symmetry.
   160 basis functions,   288 primitive gaussians,   160 cartesian basis functions
    37 alpha electrons       37 beta electrons
       nuclear repulsion energy       565.3367995252 Hartrees.
 NAtoms=   10 NActive=   10 NUniq=   10 SFac= 1.00D+00 NAtFMM=   60 NAOKFM=F Big=F
 Integral buffers will be    131072 words long.
 Raffenetti 2 integral format.
 Two-electron integral symmetry is turned on.
 One-electron integrals computed using PRISM.
 NBasis=   160 RedAO= T EigKep=  2.82D-04  NBF=   160
 NBsUse=   160 1.00D-06 EigRej= -1.00D+00 NBFU=   160
 Initial guess from the checkpoint file:  "/jobfs/40766125.gadi-pbs/Gau-2691970.chk"
 B after Tr=    -0.000000   -0.000000   -0.000000
         Rot=    1.000000   -0.000029   -0.000001    0.000431 Ang=  -0.05 deg.
 Keep R1 ints in memory in canonical form, NReq=98785159.
 Requested convergence on RMS density matrix=1.00D-08 within 128 cycles.
 Requested convergence on MAX density matrix=1.00D-06.
 Requested convergence on             energy=1.00D-06.
 No special actions if energy rises.
 SCF Done:  E(RM062X) =  -941.938966681     A.U. after    9 cycles
            NFock=  9  Conv=0.45D-08     -V/T= 2.0058
 Calling FoFJK, ICntrl=      2127 FMM=F ISym2X=0 I1Cent= 0 IOpClX= 0 NMat=1 NMatS=1 NMatT=0.
 ***** Axes restored to original set *****
 -------------------------------------------------------------------
 Center     Atomic                   Forces (Hartrees/Bohr)
 Number     Number              X              Y              Z
 -------------------------------------------------------------------
      1        6           0.000054021    0.000008996   -0.000291199
      2       16           0.000721401    0.000405667    0.000743518
      3        8          -0.000323794    0.000133252   -0.000182974
      4        8          -0.000079572   -0.000355979   -0.000153325
      5        7          -0.000246063   -0.000158608   -0.000593631
      6        1          -0.000040731    0.000066397    0.000048664
      7        1           0.000026038   -0.000067337    0.000056808
      8        9          -0.000048745   -0.000018097    0.000090432
      9        9          -0.000067962    0.000066414    0.000136845
     10        9           0.000005407   -0.000080704    0.000144862
 -------------------------------------------------------------------
 Cartesian Forces:  Max     0.000743518 RMS     0.000268290

 GradGradGradGradGradGradGradGradGradGradGradGradGradGradGradGradGradGrad
 Berny optimization.
 Using GEDIIS/GDIIS optimizer.
 FormGI is forming the generalized inverse of G from B-inverse, IUseBI=4.
 Internal  Forces:  Max     0.000515660 RMS     0.000162102
 Search for a local minimum.
 Step number   4 out of a maximum of   49
 All quantities printed in internal units (Hartrees-Bohrs-Radians)
 Mixed Optimization -- En-DIIS/RFO-DIIS
 Swapping is turned off.
 Update second derivatives using D2CorX and points    1    2    3    4
 DE= -8.31D-06 DEPred=-1.07D-05 R= 7.74D-01
 TightC=F SS=  1.41D+00  RLast= 1.49D-02 DXNew= 6.6980D-01 4.4582D-02
 Trust test= 7.74D-01 RLast= 1.49D-02 DXMaxT set to 3.98D-01
 ITU=  1  1  1  0
     Eigenvalues ---    0.00230   0.02385   0.02927   0.08674   0.08815
     Eigenvalues ---    0.09249   0.10411   0.14793   0.16000   0.17530
     Eigenvalues ---    0.18146   0.22189   0.22444   0.25000   0.25829
     Eigenvalues ---    0.28606   0.43687   0.44014   0.47422   0.59158
     Eigenvalues ---    0.60090   0.60512   0.89199   0.95251
 En-DIIS/RFO-DIIS/Sim-DIIS IScMMF=       -3 using points:     4    3
 RFO step:  Lambda=-3.10661468D-06.
 DidBck=F Rises=F RFO-DIIS coefs:    1.02268   -0.02268
 Iteration  1 RMS(Cart)=  0.00094132 RMS(Int)=  0.00000063
 Iteration  2 RMS(Cart)=  0.00000044 RMS(Int)=  0.00000049
 Variable       Old X    -DE/DX   Delta X   Delta X   Delta X     New X
                                 (Linear)    (Quad)   (Total)
    R1        3.50489  -0.00009   0.00000  -0.00030  -0.00029   3.50460
    R2        2.49904  -0.00002  -0.00002  -0.00007  -0.00009   2.49895
    R3        2.51803  -0.00011   0.00001  -0.00015  -0.00013   2.51790
    R4        2.51803  -0.00011   0.00001  -0.00015  -0.00013   2.51790
    R5        2.72581   0.00032  -0.00003   0.00029   0.00026   2.72607
    R6        2.72581   0.00032  -0.00003   0.00029   0.00026   2.72607
    R7        3.09840  -0.00052   0.00002  -0.00103  -0.00101   3.09740
    R8        1.91930   0.00005   0.00000   0.00014   0.00014   1.91944
    R9        1.91930   0.00005   0.00000   0.00014   0.00014   1.91944
    A1        1.92298  -0.00009   0.00005  -0.00015  -0.00009   1.92289
    A2        1.91164  -0.00016   0.00000  -0.00047  -0.00047   1.91117
    A3        1.91164  -0.00016   0.00000  -0.00047  -0.00047   1.91117
    A4        1.91106   0.00015  -0.00003   0.00051   0.00048   1.91154
    A5        1.91106   0.00015  -0.00003   0.00051   0.00047   1.91154
    A6        1.89522   0.00011   0.00001   0.00007   0.00008   1.89529
    A7        1.84048  -0.00012   0.00008  -0.00069  -0.00060   1.83988
    A8        1.84048  -0.00012   0.00008  -0.00069  -0.00060   1.83988
    A9        1.81237  -0.00030  -0.00001  -0.00106  -0.00108   1.81130
   A10        2.17508  -0.00002  -0.00007  -0.00014  -0.00021   2.17487
   A11        1.88168   0.00023  -0.00004   0.00111   0.00107   1.88275
   A12        1.88168   0.00023  -0.00004   0.00111   0.00107   1.88276
   A13        2.01329   0.00001  -0.00001   0.00028   0.00027   2.01356
   A14        2.01330   0.00001  -0.00001   0.00028   0.00027   2.01356
   A15        2.01852   0.00003   0.00012   0.00067   0.00079   2.01931
    D1       -1.16481   0.00009  -0.00001   0.00057   0.00056  -1.16424
    D2        1.16471  -0.00009   0.00001  -0.00048  -0.00047   1.16424
    D3        3.14155   0.00000   0.00000   0.00005   0.00005   3.14159
    D4        3.01518   0.00006  -0.00001   0.00033   0.00033   3.01550
    D5       -0.93849  -0.00012   0.00002  -0.00072  -0.00071  -0.93920
    D6        1.03834  -0.00003   0.00001  -0.00020  -0.00019   1.03815
    D7        0.93841   0.00012  -0.00002   0.00081   0.00080   0.93920
    D8       -3.01526  -0.00006   0.00001  -0.00024  -0.00024  -3.01550
    D9       -1.03843   0.00003  -0.00000   0.00028   0.00028  -1.03815
   D10        1.21296   0.00004   0.00009   0.00092   0.00100   1.21396
   D11       -1.21294  -0.00004  -0.00009  -0.00092  -0.00100  -1.21394
   D12       -0.73403   0.00021   0.00001   0.00172   0.00173  -0.73229
   D13        3.12326   0.00013  -0.00016  -0.00011  -0.00027   3.12299
   D14       -3.12325  -0.00013   0.00016   0.00011   0.00027  -3.12298
   D15        0.73404  -0.00021  -0.00001  -0.00172  -0.00174   0.73231
         Item               Value     Threshold  Converged?
 Maximum Force            0.000516     0.000450     NO 
 RMS     Force            0.000162     0.000300     YES
 Maximum Displacement     0.002550     0.001800     NO 
 RMS     Displacement     0.000941     0.001200     YES
 Predicted change in Energy=-1.553760D-06
 GradGradGradGradGradGradGradGradGradGradGradGradGradGradGradGradGradGrad

                          Input orientation:                          
 ---------------------------------------------------------------------
 Center     Atomic      Atomic             Coordinates (Angstroms)
 Number     Number       Type             X           Y           Z
 ---------------------------------------------------------------------
      1          6           0       -1.214818    0.601950   -0.640230
      2         16           0       -1.730990    0.451099    1.134645
      3          8           0       -2.875523    1.317724    1.276168
      4          8           0       -1.735365   -0.964202    1.413799
      5          7           0       -0.485753    1.123171    1.961846
      6          1           0       -0.387347    2.128865    1.858907
      7          1           0        0.380285    0.592537    1.951560
      8          9           0       -2.143572    0.090243   -1.430342
      9          9           0       -0.065668   -0.046359   -0.825915
     10          9           0       -1.031467    1.886606   -0.942503
 ---------------------------------------------------------------------
                    Distance matrix (angstroms):
                    1          2          3          4          5
     1  C    0.000000
     2  S    1.854554   0.000000
     3  O    2.634929   1.442575   0.000000
     4  O    2.634927   1.442575   2.554621   0.000000
     5  N    2.752091   1.639073   2.493794   2.493795   0.000000
     6  H    3.043331   2.268222   2.681148   3.403283   1.015726
     7  H    3.043323   2.268223   3.403283   2.681155   1.015726
     8  F    1.322387   2.622899   3.060663   3.060658   3.914364
     9  F    1.332415   2.620030   3.764938   2.940517   3.052193
    10  F    1.332414   2.620030   2.940522   3.764936   3.052193
                    6          7          8          9         10
     6  H    0.000000
     7  H    1.719926   0.000000
     8  F    4.249644   4.249637   0.000000
     9  F    3.470353   2.884688   2.168336   0.000000
    10  F    2.884698   3.470340   2.168337   2.163958   0.000000
 Stoichiometry    CH2F3NO2S
 Framework group  C1[X(CH2F3NO2S)]
 Deg. of freedom    24
 Full point group                 C1      NOp   1
 Largest Abelian subgroup         C1      NOp   1
 Largest concise Abelian subgroup C1      NOp   1
                         Standard orientation:                         
 ---------------------------------------------------------------------
 Center     Atomic      Atomic             Coordinates (Angstroms)
 Number     Number       Type             X           Y           Z
 ---------------------------------------------------------------------
      1          6           0        0.992699    0.022500   -0.000002
      2         16           0       -0.849430   -0.191815   -0.000002
      3          8           0       -1.166816   -0.782366   -1.277319
      4          8           0       -1.166808   -0.782399    1.277302
      5          7           0       -1.421188    1.344301    0.000019
      6          1           0       -1.272539    1.863985   -0.859941
      7          1           0       -1.272523    1.863969    0.859986
      8          9           0        1.589132   -1.157743   -0.000016
      9          9           0        1.360827    0.707418    1.081987
     10          9           0        1.360825    0.707448   -1.081971
 ---------------------------------------------------------------------
 Rotational constants (GHZ):           2.5856699           1.5526491           1.5484828
 Basis read from rwf:  (6D, 7F)
 There are   160 symmetry adapted cartesian basis functions of A   symmetry.
 There are   160 symmetry adapted basis functions of A   symmetry.
   160 basis functions,   288 primitive gaussians,   160 cartesian basis functions
    37 alpha electrons       37 beta electrons
       nuclear repulsion energy       565.4064265898 Hartrees.
 NAtoms=   10 NActive=   10 NUniq=   10 SFac= 1.00D+00 NAtFMM=   60 NAOKFM=F Big=F
 Integral buffers will be    131072 words long.
 Raffenetti 2 integral format.
 Two-electron integral symmetry is turned on.
 One-electron integrals computed using PRISM.
 NBasis=   160 RedAO= T EigKep=  2.82D-04  NBF=   160
 NBsUse=   160 1.00D-06 EigRej= -1.00D+00 NBFU=   160
 Initial guess from the checkpoint file:  "/jobfs/40766125.gadi-pbs/Gau-2691970.chk"
 B after Tr=     0.000000    0.000000   -0.000000
         Rot=    1.000000   -0.000005   -0.000000    0.000138 Ang=  -0.02 deg.
 Keep R1 ints in memory in canonical form, NReq=98785159.
 Requested convergence on RMS density matrix=1.00D-08 within 128 cycles.
 Requested convergence on MAX density matrix=1.00D-06.
 Requested convergence on             energy=1.00D-06.
 No special actions if energy rises.
 SCF Done:  E(RM062X) =  -941.938968648     A.U. after    8 cycles
            NFock=  8  Conv=0.43D-08     -V/T= 2.0058
 Calling FoFJK, ICntrl=      2127 FMM=F ISym2X=0 I1Cent= 0 IOpClX= 0 NMat=1 NMatS=1 NMatT=0.
 ***** Axes restored to original set *****
 -------------------------------------------------------------------
 Center     Atomic                   Forces (Hartrees/Bohr)
 Number     Number              X              Y              Z
 -------------------------------------------------------------------
      1        6          -0.000031764   -0.000016837   -0.000004787
      2       16           0.000339483    0.000180798    0.000185999
      3        8          -0.000127101    0.000089267    0.000005886
      4        8          -0.000005544   -0.000153941    0.000020688
      5        7          -0.000114530   -0.000076421   -0.000319161
      6        1          -0.000025254   -0.000023908    0.000063101
      7        1          -0.000037232    0.000000099    0.000061774
      8        9           0.000009359    0.000004302   -0.000011267
      9        9          -0.000012266    0.000015485   -0.000002021
     10        9           0.000004849   -0.000018846   -0.000000213
 -------------------------------------------------------------------
 Cartesian Forces:  Max     0.000339483 RMS     0.000110209

 GradGradGradGradGradGradGradGradGradGradGradGradGradGradGradGradGradGrad
 Berny optimization.
 Using GEDIIS/GDIIS optimizer.
 FormGI is forming the generalized inverse of G from B-inverse, IUseBI=4.
 Internal  Forces:  Max     0.000279226 RMS     0.000060889
 Search for a local minimum.
 Step number   5 out of a maximum of   49
 All quantities printed in internal units (Hartrees-Bohrs-Radians)
 Mixed Optimization -- En-DIIS/RFO-DIIS
 Swapping is turned off.
 Update second derivatives using D2CorX and points    1    2    3    4    5
 DE= -1.97D-06 DEPred=-1.55D-06 R= 1.27D+00
 TightC=F SS=  1.41D+00  RLast= 4.16D-03 DXNew= 6.6980D-01 1.2492D-02
 Trust test= 1.27D+00 RLast= 4.16D-03 DXMaxT set to 3.98D-01
 ITU=  1  1  1  1  0
     Eigenvalues ---    0.00230   0.02240   0.02385   0.08677   0.08814
     Eigenvalues ---    0.09260   0.10582   0.15517   0.16000   0.16911
     Eigenvalues ---    0.18134   0.22361   0.22721   0.25000   0.26289
     Eigenvalues ---    0.30972   0.40117   0.44014   0.45193   0.59306
     Eigenvalues ---    0.60089   0.60466   0.87279   0.95251
 En-DIIS/RFO-DIIS/Sim-DIIS IScMMF=       -3 using points:     5    4    3
 RFO step:  Lambda=-8.62307833D-07.
 DidBck=F Rises=F RFO-DIIS coefs:    1.95526   -0.77503   -0.18023
 Iteration  1 RMS(Cart)=  0.00049618 RMS(Int)=  0.00000172
 Iteration  2 RMS(Cart)=  0.00000084 RMS(Int)=  0.00000153
 Variable       Old X    -DE/DX   Delta X   Delta X   Delta X     New X
                                 (Linear)    (Quad)   (Total)
    R1        3.50460   0.00001  -0.00026   0.00030   0.00004   3.50464
    R2        2.49895  -0.00000  -0.00025   0.00018  -0.00008   2.49887
    R3        2.51790  -0.00002  -0.00001  -0.00001  -0.00003   2.51787
    R4        2.51790  -0.00002  -0.00001  -0.00002  -0.00002   2.51787
    R5        2.72607   0.00016   0.00001   0.00021   0.00022   2.72629
    R6        2.72607   0.00016   0.00001   0.00021   0.00022   2.72629
    R7        3.09740  -0.00028  -0.00078  -0.00023  -0.00101   3.09639
    R8        1.91944  -0.00003   0.00015  -0.00025  -0.00010   1.91934
    R9        1.91944  -0.00003   0.00015  -0.00025  -0.00010   1.91934
    A1        1.92289   0.00004   0.00035   0.00011   0.00046   1.92335
    A2        1.91117  -0.00000  -0.00044   0.00029  -0.00015   1.91102
    A3        1.91117  -0.00000  -0.00044   0.00029  -0.00015   1.91102
    A4        1.91154  -0.00001   0.00020  -0.00019   0.00001   1.91154
    A5        1.91154  -0.00001   0.00019  -0.00019  -0.00000   1.91154
    A6        1.89529  -0.00001   0.00014  -0.00030  -0.00016   1.89513
    A7        1.83988  -0.00001   0.00010  -0.00018  -0.00008   1.83980
    A8        1.83988  -0.00001   0.00009  -0.00018  -0.00008   1.83979
    A9        1.81130  -0.00001  -0.00112   0.00084  -0.00028   1.81101
   A10        2.17487  -0.00000  -0.00075   0.00050  -0.00025   2.17462
   A11        1.88275   0.00001   0.00074  -0.00042   0.00032   1.88307
   A12        1.88276   0.00001   0.00074  -0.00042   0.00032   1.88307
   A13        2.01356   0.00003   0.00015   0.00074   0.00088   2.01444
   A14        2.01356   0.00003   0.00015   0.00074   0.00088   2.01444
   A15        2.01931  -0.00000   0.00173  -0.00058   0.00114   2.02045
    D1       -1.16424   0.00001   0.00045  -0.00024   0.00021  -1.16403
    D2        1.16424  -0.00001  -0.00035   0.00015  -0.00020   1.16404
    D3        3.14159   0.00000   0.00005  -0.00005   0.00000  -3.14159
    D4        3.01550  -0.00000   0.00027  -0.00025   0.00001   3.01551
    D5       -0.93920  -0.00002  -0.00053   0.00013  -0.00040  -0.93960
    D6        1.03815  -0.00001  -0.00013  -0.00006  -0.00019   1.03796
    D7        0.93920   0.00002   0.00063  -0.00023   0.00040   0.93960
    D8       -3.01550   0.00000  -0.00017   0.00015  -0.00002  -3.01552
    D9       -1.03815   0.00001   0.00023  -0.00004   0.00019  -1.03796
   D10        1.21396   0.00004   0.00164   0.00044   0.00209   1.21605
   D11       -1.21394  -0.00004  -0.00164  -0.00045  -0.00209  -1.21604
   D12       -0.73229   0.00005   0.00174   0.00044   0.00218  -0.73011
   D13        3.12299  -0.00003  -0.00154  -0.00046  -0.00200   3.12099
   D14       -3.12298   0.00003   0.00154   0.00045   0.00199  -3.12098
   D15        0.73231  -0.00005  -0.00174  -0.00044  -0.00219   0.73012
         Item               Value     Threshold  Converged?
 Maximum Force            0.000279     0.000450     YES
 RMS     Force            0.000061     0.000300     YES
 Maximum Displacement     0.001948     0.001800     NO 
 RMS     Displacement     0.000496     0.001200     YES
 Predicted change in Energy=-4.242534D-07
 GradGradGradGradGradGradGradGradGradGradGradGradGradGradGradGradGradGrad

                          Input orientation:                          
 ---------------------------------------------------------------------
 Center     Atomic      Atomic             Coordinates (Angstroms)
 Number     Number       Type             X           Y           Z
 ---------------------------------------------------------------------
      1          6           0       -1.215018    0.601842   -0.640361
      2         16           0       -1.730747    0.451222    1.134685
      3          8           0       -2.875488    1.317763    1.276215
      4          8           0       -1.735314   -0.964193    1.413851
      5          7           0       -0.485476    1.123248    1.960815
      6          1           0       -0.387530    2.129109    1.859631
      7          1           0        0.380333    0.592313    1.952317
      8          9           0       -2.143619    0.090205   -1.430630
      9          9           0       -0.065812   -0.046353   -0.826004
     10          9           0       -1.031547    1.886479   -0.942586
 ---------------------------------------------------------------------
                    Distance matrix (angstroms):
                    1          2          3          4          5
     1  C    0.000000
     2  S    1.854576   0.000000
     3  O    2.634951   1.442690   0.000000
     4  O    2.634950   1.442690   2.554656   0.000000
     5  N    2.751402   1.638539   2.493726   2.493727   0.000000
     6  H    3.044214   2.268278   2.681155   3.403493   1.015672
     7  H    3.044210   2.268279   3.403493   2.681160   1.015672
     8  F    1.322346   2.623288   3.060971   3.060971   3.913888
     9  F    1.332402   2.619903   3.764892   2.940513   3.051301
    10  F    1.332402   2.619904   2.940516   3.764893   3.051303
                    6          7          8          9         10
     6  H    0.000000
     7  H    1.720450   0.000000
     8  F    4.250506   4.250503   0.000000
     9  F    3.471134   2.885481   2.168296   0.000000
    10  F    2.885489   3.471128   2.168293   2.163810   0.000000
 Stoichiometry    CH2F3NO2S
 Framework group  C1[X(CH2F3NO2S)]
 Deg. of freedom    24
 Full point group                 C1      NOp   1
 Largest Abelian subgroup         C1      NOp   1
 Largest concise Abelian subgroup C1      NOp   1
                         Standard orientation:                         
 ---------------------------------------------------------------------
 Center     Atomic      Atomic             Coordinates (Angstroms)
 Number     Number       Type             X           Y           Z
 ---------------------------------------------------------------------
      1          6           0        0.992657    0.022346    0.000000
      2         16           0       -0.849531   -0.191649    0.000001
      3          8           0       -1.166897   -0.782476   -1.277323
      4          8           0       -1.166896   -0.782461    1.277332
      5          7           0       -1.420398    1.344229   -0.000008
      6          1           0       -1.273607    1.863889   -0.860238
      7          1           0       -1.273599    1.863903    0.860212
      8          9           0        1.589402   -1.157694    0.000006
      9          9           0        1.360681    0.707431    1.081902
     10          9           0        1.360683    0.707419   -1.081909
 ---------------------------------------------------------------------
 Rotational constants (GHZ):           2.5857713           1.5527329           1.5485651
 Basis read from rwf:  (6D, 7F)
 There are   160 symmetry adapted cartesian basis functions of A   symmetry.
 There are   160 symmetry adapted basis functions of A   symmetry.
   160 basis functions,   288 primitive gaussians,   160 cartesian basis functions
    37 alpha electrons       37 beta electrons
       nuclear repulsion energy       565.4169272401 Hartrees.
 NAtoms=   10 NActive=   10 NUniq=   10 SFac= 1.00D+00 NAtFMM=   60 NAOKFM=F Big=F
 Integral buffers will be    131072 words long.
 Raffenetti 2 integral format.
 Two-electron integral symmetry is turned on.
 One-electron integrals computed using PRISM.
 NBasis=   160 RedAO= T EigKep=  2.82D-04  NBF=   160
 NBsUse=   160 1.00D-06 EigRej= -1.00D+00 NBFU=   160
 Initial guess from the checkpoint file:  "/jobfs/40766125.gadi-pbs/Gau-2691970.chk"
 B after Tr=     0.000000   -0.000000    0.000000
         Rot=    1.000000    0.000009    0.000001    0.000001 Ang=   0.00 deg.
 Keep R1 ints in memory in canonical form, NReq=98785159.
 Requested convergence on RMS density matrix=1.00D-08 within 128 cycles.
 Requested convergence on MAX density matrix=1.00D-06.
 Requested convergence on             energy=1.00D-06.
 No special actions if energy rises.
 SCF Done:  E(RM062X) =  -941.938969298     A.U. after    8 cycles
            NFock=  8  Conv=0.61D-08     -V/T= 2.0058
 Calling FoFJK, ICntrl=      2127 FMM=F ISym2X=0 I1Cent= 0 IOpClX= 0 NMat=1 NMatS=1 NMatT=0.
 ***** Axes restored to original set *****
 -------------------------------------------------------------------
 Center     Atomic                   Forces (Hartrees/Bohr)
 Number     Number              X              Y              Z
 -------------------------------------------------------------------
      1        6           0.000010669    0.000007418    0.000024114
      2       16           0.000025328    0.000012802    0.000008834
      3        8           0.000009789    0.000039107    0.000021183
      4        8           0.000036030   -0.000013148    0.000024266
      5        7          -0.000030002   -0.000023394   -0.000140288
      6        1          -0.000006472   -0.000019728    0.000043721
      7        1          -0.000021827    0.000010763    0.000041932
      8        9          -0.000020912   -0.000010757    0.000001262
      9        9           0.000010774   -0.000025878   -0.000011233
     10        9          -0.000013378    0.000022816   -0.000013791
 -------------------------------------------------------------------
 Cartesian Forces:  Max     0.000140288 RMS     0.000033638

 GradGradGradGradGradGradGradGradGradGradGradGradGradGradGradGradGradGrad
 Berny optimization.
 Using GEDIIS/GDIIS optimizer.
 FormGI is forming the generalized inverse of G from B-inverse, IUseBI=4.
 Internal  Forces:  Max     0.000090727 RMS     0.000026832
 Search for a local minimum.
 Step number   6 out of a maximum of   49
 All quantities printed in internal units (Hartrees-Bohrs-Radians)
 Mixed Optimization -- En-DIIS/RFO-DIIS
 Swapping is turned off.
 Update second derivatives using D2CorX and points    1    2    3    4    5
                                                      6
 DE= -6.49D-07 DEPred=-4.24D-07 R= 1.53D+00
 Trust test= 1.53D+00 RLast= 5.60D-03 DXMaxT set to 3.98D-01
 ITU=  0  1  1  1  1  0
     Eigenvalues ---    0.00230   0.01105   0.02385   0.08672   0.09046
     Eigenvalues ---    0.09262   0.10857   0.15691   0.16000   0.17821
     Eigenvalues ---    0.18131   0.22352   0.24461   0.25000   0.26174
     Eigenvalues ---    0.32897   0.38261   0.44014   0.45361   0.59387
     Eigenvalues ---    0.60090   0.61566   0.87936   0.95251
 En-DIIS/RFO-DIIS/Sim-DIIS IScMMF=       -3 using points:     6    5    4    3
 RFO step:  Lambda=-5.01185189D-07.
 DIIS inversion failure, remove point   4.
 RFO-DIIS uses    3 points instead of    4
 DidBck=F Rises=F RFO-DIIS coefs:    2.17564   -1.28206    0.10642    0.00000
 Iteration  1 RMS(Cart)=  0.00074995 RMS(Int)=  0.00000262
 Iteration  2 RMS(Cart)=  0.00000136 RMS(Int)=  0.00000226
 Iteration  3 RMS(Cart)=  0.00000000 RMS(Int)=  0.00000226
 Variable       Old X    -DE/DX   Delta X   Delta X   Delta X     New X
                                 (Linear)    (Quad)   (Total)
    R1        3.50464   0.00000   0.00008  -0.00013  -0.00005   3.50459
    R2        2.49887   0.00002  -0.00008   0.00004  -0.00004   2.49883
    R3        2.51787   0.00003  -0.00002   0.00009   0.00007   2.51795
    R4        2.51787   0.00003  -0.00001   0.00009   0.00007   2.51795
    R5        2.72629   0.00002   0.00023  -0.00014   0.00009   2.72638
    R6        2.72629   0.00002   0.00023  -0.00014   0.00009   2.72638
    R7        3.09639  -0.00009  -0.00108   0.00027  -0.00081   3.09558
    R8        1.91934  -0.00003  -0.00014   0.00001  -0.00013   1.91921
    R9        1.91934  -0.00003  -0.00014   0.00001  -0.00013   1.91921
    A1        1.92335  -0.00002   0.00054  -0.00048   0.00006   1.92341
    A2        1.91102   0.00001  -0.00013   0.00000  -0.00013   1.91089
    A3        1.91102   0.00001  -0.00013   0.00000  -0.00013   1.91089
    A4        1.91154  -0.00000  -0.00004   0.00005   0.00000   1.91154
[...]
      9        9          -0.000019394    0.000020245   -0.000027563
     10        9           0.000005516   -0.000031056   -0.000024273
 -------------------------------------------------------------------
 Cartesian Forces:  Max     0.000076082 RMS     0.000027525
 FormGI is forming the generalized inverse of G from B-inverse, IUseBI=4.

 GradGradGradGradGradGradGradGradGradGradGradGradGradGradGradGradGradGrad
 Berny optimization.
 Internal  Forces:  Max     0.000066366 RMS     0.000023117
 Search for a local minimum.
 Step number   1 out of a maximum of    2
 All quantities printed in internal units (Hartrees-Bohrs-Radians)
 Second derivative matrix not updated -- analytic derivatives used.
 ITU=  0
     Eigenvalues ---    0.00239   0.00525   0.00839   0.08047   0.09393
     Eigenvalues ---    0.09931   0.10465   0.12232   0.12457   0.16438
     Eigenvalues ---    0.16956   0.18523   0.19887   0.21872   0.23868
     Eigenvalues ---    0.34176   0.36534   0.40355   0.41973   0.46554
     Eigenvalues ---    0.47097   0.57476   0.69650   0.70328
 Angle between quadratic step and forces=  67.66 degrees.
 Linear search not attempted -- first point.
 Iteration  1 RMS(Cart)=  0.00060598 RMS(Int)=  0.00000035
 Iteration  2 RMS(Cart)=  0.00000030 RMS(Int)=  0.00000019
 Variable       Old X    -DE/DX   Delta X   Delta X   Delta X     New X
                                 (Linear)    (Quad)   (Total)
    R1        3.50459   0.00001   0.00000  -0.00003  -0.00003   3.50455
    R2        2.49883   0.00003   0.00000   0.00015   0.00015   2.49898
    R3        2.51795  -0.00002   0.00000  -0.00007  -0.00007   2.51787
    R4        2.51795  -0.00002   0.00000  -0.00008  -0.00008   2.51787
    R5        2.72638  -0.00003   0.00000  -0.00004  -0.00004   2.72634
    R6        2.72638  -0.00003   0.00000  -0.00004  -0.00004   2.72634
    R7        3.09558   0.00003   0.00000  -0.00007  -0.00007   3.09552
    R8        1.91921  -0.00002   0.00000  -0.00007  -0.00007   1.91914
    R9        1.91921  -0.00002   0.00000  -0.00007  -0.00007   1.91914
    A1        1.92341  -0.00002   0.00000  -0.00028  -0.00028   1.92313
    A2        1.91089   0.00005   0.00000   0.00024   0.00024   1.91113
    A3        1.91089   0.00005   0.00000   0.00024   0.00024   1.91113
    A4        1.91154  -0.00002   0.00000  -0.00006  -0.00006   1.91148
    A5        1.91154  -0.00002   0.00000  -0.00006  -0.00006   1.91148
    A6        1.89531  -0.00004   0.00000  -0.00007  -0.00007   1.89524
    A7        1.83980  -0.00001   0.00000  -0.00009  -0.00009   1.83971
    A8        1.83980  -0.00001   0.00000  -0.00009  -0.00009   1.83971
    A9        1.81095   0.00007   0.00000   0.00032   0.00032   1.81126
   A10        2.17470   0.00002   0.00000   0.00018   0.00018   2.17487
   A11        1.88305  -0.00003   0.00000  -0.00013  -0.00013   1.88292
   A12        1.88305  -0.00003   0.00000  -0.00013  -0.00013   1.88292
   A13        2.01555   0.00002   0.00000   0.00046   0.00046   2.01601
   A14        2.01555   0.00002   0.00000   0.00046   0.00046   2.01601
   A15        2.02167  -0.00001   0.00000   0.00037   0.00036   2.02204
    D1       -1.16408  -0.00001   0.00000  -0.00006  -0.00006  -1.16413
    D2        1.16410   0.00001   0.00000   0.00004   0.00004   1.16413
    D3       -3.14158   0.00000   0.00000  -0.00001  -0.00001   3.14159
    D4        3.01551  -0.00000   0.00000   0.00004   0.00004   3.01555
    D5       -0.93950   0.00001   0.00000   0.00014   0.00014  -0.93937
    D6        1.03800   0.00000   0.00000   0.00009   0.00009   1.03809
    D7        0.93952  -0.00001   0.00000  -0.00015  -0.00015   0.93936
    D8       -3.01549   0.00000   0.00000  -0.00006  -0.00006  -3.01555
    D9       -1.03799  -0.00000   0.00000  -0.00011  -0.00011  -1.03809
   D10        1.21850   0.00001   0.00000   0.00091   0.00091   1.21941
   D11       -1.21850  -0.00001   0.00000  -0.00091  -0.00091  -1.21941
   D12       -0.72762   0.00000   0.00000   0.00092   0.00092  -0.72670
   D13        3.11856  -0.00001   0.00000  -0.00090  -0.00090   3.11766
   D14       -3.11856   0.00001   0.00000   0.00089   0.00089  -3.11766
   D15        0.72762  -0.00000   0.00000  -0.00093  -0.00093   0.72670
         Item               Value     Threshold  Converged?
 Maximum Force            0.000066     0.000450     YES
 RMS     Force            0.000023     0.000300     YES
 Maximum Displacement     0.001979     0.001800     NO 
 RMS     Displacement     0.000606     0.001200     YES
 Predicted change in Energy=-6.735059D-08
                           ----------------------------
                           ! Non-Optimized Parameters !
                           ! (Angstroms and Degrees)  !
 --------------------------                            --------------------------
 ! Name  Definition              Value          Derivative Info.                !
 --------------------------------------------------------------------------------
 ! R1    R(1,2)                  1.8545         -DE/DX =    0.0                 !
 ! R2    R(1,8)                  1.3224         -DE/DX =    0.0                 !
 ! R3    R(1,9)                  1.3324         -DE/DX =    0.0                 !
 ! R4    R(1,10)                 1.3324         -DE/DX =    0.0                 !
 ! R5    R(2,3)                  1.4427         -DE/DX =    0.0                 !
 ! R6    R(2,4)                  1.4427         -DE/DX =    0.0                 !
 ! R7    R(2,5)                  1.6381         -DE/DX =    0.0                 !
 ! R8    R(5,6)                  1.0156         -DE/DX =    0.0                 !
 ! R9    R(5,7)                  1.0156         -DE/DX =    0.0                 !
 ! A1    A(2,1,8)              110.1873         -DE/DX =    0.0                 !
 ! A2    A(2,1,9)              109.4996         -DE/DX =    0.0                 !
 ! A3    A(2,1,10)             109.4996         -DE/DX =    0.0                 !
 ! A4    A(8,1,9)              109.5199         -DE/DX =    0.0                 !
 ! A5    A(8,1,10)             109.5199         -DE/DX =    0.0                 !
 ! A6    A(9,1,10)             108.5893         -DE/DX =    0.0                 !
 ! A7    A(1,2,3)              105.4074         -DE/DX =    0.0                 !
 ! A8    A(1,2,4)              105.4074         -DE/DX =    0.0                 !
 ! A9    A(1,2,5)              103.7778         -DE/DX =    0.0001              !
 ! A10   A(3,2,4)              124.611          -DE/DX =    0.0                 !
 ! A11   A(3,2,5)              107.8836         -DE/DX =    0.0                 !
 ! A12   A(4,2,5)              107.8836         -DE/DX =    0.0                 !
 ! A13   A(2,5,6)              115.5086         -DE/DX =    0.0                 !
 ! A14   A(2,5,7)              115.5086         -DE/DX =    0.0                 !
 ! A15   A(6,5,7)              115.8543         -DE/DX =    0.0                 !
 ! D1    D(8,1,2,3)            -66.7            -DE/DX =    0.0                 !
 ! D2    D(8,1,2,4)             66.6999         -DE/DX =    0.0                 !
 ! D3    D(8,1,2,5)            180.0            -DE/DX =    0.0                 !
 ! D4    D(9,1,2,3)            172.7784         -DE/DX =    0.0                 !
 ! D5    D(9,1,2,4)            -53.8217         -DE/DX =    0.0                 !
 ! D6    D(9,1,2,5)             59.4784         -DE/DX =    0.0                 !
 ! D7    D(10,1,2,3)            53.8216         -DE/DX =    0.0                 !
 ! D8    D(10,1,2,4)          -172.7785         -DE/DX =    0.0                 !
 ! D9    D(10,1,2,5)           -59.4784         -DE/DX =    0.0                 !
 ! D10   D(1,2,5,6)             69.8671         -DE/DX =    0.0                 !
 ! D11   D(1,2,5,7)            -69.8671         -DE/DX =    0.0                 !
 ! D12   D(3,2,5,6)            -41.6368         -DE/DX =    0.0                 !
 ! D13   D(3,2,5,7)            178.629          -DE/DX =    0.0                 !
 ! D14   D(4,2,5,6)           -178.629          -DE/DX =    0.0                 !
 ! D15   D(4,2,5,7)             41.6368         -DE/DX =    0.0                 !
 --------------------------------------------------------------------------------
 GradGradGradGradGradGradGradGradGradGradGradGradGradGradGradGradGradGrad


 ----------------------------------------------------------------------

 Electric dipole moment (input orientation):
 (Debye = 10**-18 statcoulomb cm , SI units = C m)
                  (au)            (Debye)         (10**-30 SI)
   Tot        0.164808D+01      0.418901D+01      0.139730D+02
   x          0.147273D+01      0.374332D+01      0.124864D+02
   y          0.738473D+00      0.187701D+01      0.626103D+01
   z          0.434338D-01      0.110398D+00      0.368247D+00

 Dipole polarizability, Alpha (input orientation).
 (esu units = cm**3 , SI units = C**2 m**2 J**-1)
 Alpha(0;0):
               (au)            (10**-24 esu)      (10**-40 SI)
   iso        0.473424D+02      0.701542D+01      0.780571D+01
   aniso      0.248112D+01      0.367664D+00      0.409082D+00
   xx         0.466329D+02      0.691028D+01      0.768872D+01
   yx        -0.365771D+00     -0.542017D-01     -0.603076D-01
   yy         0.473427D+02      0.701546D+01      0.780575D+01
   zx         0.105022D+01      0.155626D+00      0.173158D+00
   zy         0.558521D+00      0.827643D-01      0.920877D-01
   zz         0.480517D+02      0.712053D+01      0.792266D+01

 ----------------------------------------------------------------------

 Dipole orientation:
     6          0.12863421          2.35308339         -1.57443401
    16         -2.97430809          1.00124233         -2.48350331
     8         -4.33274273          3.04248672         -3.67560745
     8         -2.40446751         -1.38356536         -3.67560793
     7         -4.34122872          0.40572370          0.22933984
     1         -4.87502426          1.94689451          1.24089118
     1         -3.57606750         -1.03464583          1.24089551
     9          1.45037854          2.92894180         -3.61540157
     9          1.40224461          0.67761989         -0.19212217
     9         -0.23109163          4.42667320         -0.19208690

 Electric dipole moment (dipole orientation):
 (Debye = 10**-18 statcoulomb cm , SI units = C m)
                  (au)            (Debye)         (10**-30 SI)
   Tot        0.164808D+01      0.418901D+01      0.139730D+02
   x          0.000000D+00      0.000000D+00      0.000000D+00
   y          0.000000D+00      0.000000D+00      0.000000D+00
   z          0.164808D+01      0.418901D+01      0.139730D+02

 Dipole polarizability, Alpha (dipole orientation).
 (esu units = cm**3 , SI units = C**2 m**2 J**-1)
 Alpha(0;0):
               (au)            (10**-24 esu)      (10**-40 SI)
   iso        0.473424D+02      0.701542D+01      0.780571D+01
   aniso      0.248112D+01      0.367664D+00      0.409082D+00
   xx         0.479100D+02      0.709953D+01      0.789930D+01
   yx         0.182246D+00      0.270060D-01      0.300483D-01
   yy         0.475711D+02      0.704931D+01      0.784342D+01
   zx        -0.112822D+01     -0.167185D+00     -0.186019D+00
   zy        -0.491517D+00     -0.728353D-01     -0.810402D-01
   zz         0.465461D+02      0.689742D+01      0.767442D+01

 ----------------------------------------------------------------------
 Unable to Open any file for archive entry.
 1\1\GINC-GADI-CPU-CLX-2806\Freq\RM062X\Gen\C1H2F3N1O2S1\YJ5695\20-May-
 2022\0\\#N Geom=AllCheck Guess=TCheck SCRF=Check GenChk RM062X/ChkBas 
 Freq\\HA.16.a3.freq\\0,1\C,-1.2151842103,0.6017361811,-0.6407334626\S,
 -1.730462931,0.4513474001,1.1344336764\O,-2.8751518794,1.3180004467,1.
 276171715\O,-1.734911789,-0.9640737167,1.4138156788\N,-0.4852479744,1.
 1233060666,1.9598557752\H,-0.3877794444,2.1293722192,1.8609488626\H,0.
 3803280843,0.5920890455,1.9536684887\F,-2.1439335803,0.0900463333,-1.4
 307611014\F,-0.0660282624,-0.0466063637,-0.8264392477\F,-1.0318440129,
 1.8864163879,-0.9430263851\\Version=ES64L-G16RevC.01\State=1-A\HF=-941
 .9389696\RMSD=1.974e-09\RMSF=2.752e-05\ZeroPoint=0.0523678\Thermal=0.0
 602003\ETot=-941.8787693\HTot=-941.8778251\GTot=-941.9194597\Dipole=1.
 4727344,0.7384728,0.0434338\DipoleDeriv=1.4285883,-0.0193973,-0.028246
 4,-0.0156555,1.4558378,-0.0056435,0.03379,0.0253526,1.6044191,2.185053
 4,0.0468284,0.2275606,0.0391149,2.1439609,0.0931032,0.0996718,0.029203
 4,1.7772995,-0.9703883,0.1930573,0.1347274,0.3359084,-0.7376658,-0.091
 6271,0.0812949,-0.0393206,-0.6385924,-0.5691565,0.0287894,0.008613,-0.
 1158597,-1.111904,0.2031803,0.0322338,0.1359778,-0.6655857,-0.8653818,
 -0.2076434,-0.311921,-0.2015852,-0.5991945,-0.1826029,-0.2114703,-0.13
 24125,-0.9309817,0.163249,-0.0256932,-0.0567432,0.0339519,0.2592497,0.
 052825,-0.0199325,0.0553902,0.3140383,0.2266613,-0.0123892,0.0050021,-
 0.0680218,0.1827105,-0.0677414,0.0347202,-0.0370652,0.3271653,-0.53763
 42,-0.1603171,-0.2711515,-0.1633468,-0.3412239,-0.1675831,-0.3213887,-
 0.1926839,-0.7818006,-0.7731597,0.2775662,0.209993,0.2527278,-0.402698
 7,-0.0823788,0.2036912,-0.0932041,-0.4835027,-0.2878314,-0.120801,0.08
 2166,-0.0972342,-0.8490718,0.2484683,0.0673895,0.2487622,-0.522459\Pol
 ar=46.6328702,-0.3657714,47.3426521,1.0502195,0.5585211,48.0517342\Qua
 drupole=1.2901743,-0.9500827,-0.3400916,1.9083988,4.106834,2.1541385\P
 G=C01 [X(C1H2F3N1O2S1)]\NImag=0\\0.57608689,0.00564093,0.57102447,0.02
 312179,0.01029865,0.54678100,-0.03620348,-0.00527279,0.04069803,0.8054
 5174,-0.00497191,-0.02257323,0.01075064,-0.20843529,1.11510395,0.04568
 870,0.01324414,-0.17963834,-0.00500634,-0.04575561,0.50486147,-0.01169
 462,0.01470335,-0.01939382,-0.44037249,0.27342903,0.05184813,0.4694791
 8,0.00547460,-0.00763487,0.01318318,0.26655861,-0.29257185,-0.03811521
 ,-0.29907282,0.28130457,0.01367230,-0.01240629,0.01520968,0.05770364,-
 0.03925297,-0.09753468,-0.05189209,0.03982016,0.06549103,0.00076342,-0
 .00483383,-0.00139340,-0.08679244,-0.00360193,0.00167417,0.01108002,0.
 03129291,-0.00631097,0.06193806,0.00629334,-0.02007366,-0.01973393,0.0
 0373743,-0.62841135,0.11600003,-0.00896023,-0.00590559,0.00661036,0.01
 150722,0.67056033,-0.00298441,0.02158210,0.01519030,0.00359450,0.12102
 294,-0.11527566,0.00193767,-0.00503932,0.01960559,-0.00075111,-0.12350
 240,0.08377686,-0.01117763,-0.00622056,0.00756304,-0.19073246,-0.04604
 530,-0.09359979,-0.02859724,-0.00767773,-0.01967136,0.00637193,-0.0012
 1889,-0.00441903,0.62787176,-0.00806312,-0.00159268,0.00416165,-0.0441
 9606,-0.13477035,-0.04661242,0.02542209,0.01253818,0.00934242,-0.03270
 190,-0.02413100,-0.01975148,-0.07962140,0.76177310,-0.02298537,-0.0111
 0177,0.00853078,-0.06293759,-0.03129193,-0.10730577,-0.00016890,-0.000
 06680,0.00897924,0.00288404,0.00305109,0.01067938,0.11166949,0.0141149
 5,0.10963790,0.00010267,0.00007431,0.00019110,0.00515613,-0.02639207,0
 .00852413,-0.00045661,0.00446433,0.00024880,-0.00388490,-0.00503526,-0
 .00397111,-0.06895100,-0.04287242,-0.01498048,0.05850323,0.00063964,0.
 00099117,-0.00202523,-0.00535135,-0.01060924,0.00148174,0.00260918,0.0
 0076060,0.00015181,-0.00014594,0.00231887,-0.00060556,-0.02944769,-0.4
 4635488,0.03481191,0.03814264,0.46110374,-0.00235094,-0.00390724,-0.00
 087859,-0.00585652,-0.02026884,-0.00352475,0.00228981,0.00056813,-0.00
 164044,-0.00304438,-0.00257634,0.00189846,-0.00695997,0.06185139,-0.01
 043474,0.01205667,-0.03876680,0.01926985,0.00129771,-0.00020370,-0.001
 38361,-0.01947055,0.01383844,0.00423543,-0.00208778,-0.00149537,-0.002
 93670,0.00360650,-0.00055960,0.00058027,-0.34651666,0.17950641,-0.0147
 8089,0.01004307,-0.00685565,0.00230188,0.35323809,-0.00110093,0.000244
 30,0.00120498,-0.00951023,0.01584138,0.00361351,-0.00636188,0.00047633
 ,-0.00299200,0.00150125,-0.00324228,0.00033625,0.16823190,-0.17524924,
 -0.00878289,0.03075682,-0.00782655,-0.00105980,-0.18434913,0.17111037,
 -0.00434427,0.00033751,-0.00132673,-0.01965014,0.00624430,-0.00534863,
 -0.00348539,-0.00083230,0.00194389,0.00194970,0.00162396,-0.00170069,0
 .01284966,-0.01800923,-0.00397486,-0.00175087,0.00251106,-0.00409290,0
 .01020641,0.00928445,0.01452844,-0.18673057,-0.06454231,-0.11586821,-0
 .01060469,-0.00597300,-0.00154421,0.00626463,-0.00143982,-0.00086762,0
 .00240092,0.00325682,-0.00030510,0.00108452,0.00012622,-0.00294784,0.0
 0002646,0.00037375,0.00065238,0.00024517,0.00004514,0.00087251,0.26966
 173,-0.06480154,-0.10789470,-0.06593812,-0.00806822,-0.00294411,-0.001
 26878,0.00086844,0.00092485,0.00044760,0.00176202,0.00521306,-0.001504
 05,0.00011836,0.00039685,-0.00229339,0.00016108,0.00011625,0.00059708,
 0.00023571,-0.00025146,0.00021836,0.10596463,0.13611870,-0.12016537,-0
 .06808518,-0.20493993,-0.03628295,-0.01862569,-0.00708015,0.00843047,-
 0.00152459,-0.00124425,0.00388451,0.00720731,-0.00166890,-0.00307840,-
 0.00235872,-0.01312843,0.00005902,0.00135107,0.00017803,0.00109970,-0.
 00071857,0.00032706,0.16669115,0.09073527,0.20121820,-0.25407892,0.097
 02231,0.05211088,-0.02627558,0.01923842,-0.01030296,-0.00491781,0.0017
 9456,0.00966030,0.00435044,-0.00638840,0.00254966,0.00777359,-0.000174
 17,0.00289212,-0.00034081,-0.00011997,-0.00007536,-0.00012530,0.000816
 76,0.00287135,-0.07186393,0.00905766,-0.01733757,0.34441132,0.09869523
 ,-0.12439956,-0.02672191,0.01024032,-0.00751522,0.00494341,0.00143618,
 0.00102570,-0.00345580,-0.00230812,0.00632860,-0.00163104,-0.00138666,
 0.00128856,-0.00044719,0.00003717,-0.00003768,0.00066382,0.00005625,-0
 .00086289,-0.00092967,-0.00090581,0.01667505,0.00481480,-0.15393144,0.
 16762963,0.05547404,-0.02878551,-0.09345451,0.02531941,-0.01565401,0.0
 0646550,0.00762629,-0.00345296,-0.00892072,-0.00141692,0.00386812,-0.0
 0218349,-0.00301208,0.00072838,-0.00153553,0.00020624,0.00036138,-0.00
 005233,0.00025470,-0.00085150,-0.00039494,-0.03514722,0.00899733,0.011
 34406,-0.03981351,0.02606063,0.07428306,-0.07836548,-0.03636770,0.0143
 5419,-0.00015618,-0.01108639,-0.00151725,0.00130272,0.00010074,0.00039
 369,0.00016605,-0.00263243,0.00376864,0.00287320,0.00257435,0.00135541
 ,-0.00019822,0.00015540,0.00098643,-0.00023025,-0.00002969,0.00048106,
 -0.01048426,-0.04529813,-0.00330056,0.00106700,0.04806689,-0.00949096,
 0.08402542,-0.03780623,-0.28809125,0.07482008,0.00029757,-0.03154999,-
 0.00753081,-0.00407333,0.00908207,0.00173470,-0.00247168,-0.00265698,0
 .00909254,0.00326798,0.00610145,0.00200601,0.00066339,-0.00046229,0.00
 289861,-0.00017334,-0.00023996,-0.00044844,-0.03690561,-0.04835449,-0.
 01279570,0.03268427,-0.06013219,0.00872814,0.04451698,0.41630362,0.014
 87352,0.07882359,-0.10547365,0.00241795,0.03283117,0.00438103,0.002807
 84,-0.00454029,-0.00188935,0.00252436,0.00745180,-0.01032185,-0.001341
 58,-0.00346695,-0.00144796,-0.00058349,0.00072862,-0.00072260,0.000422
 80,-0.00003444,0.00003936,-0.01153584,-0.02999132,0.01499432,-0.002554
 92,-0.00329705,0.01444890,-0.00703065,-0.07850514,0.08599181\\-0.00002
 860,-0.00001876,-0.00006335,0.00007608,0.00004006,0.00002645,-0.000039
 25,0.00000008,-0.00000567,-0.00002326,-0.00003240,-0.00000368,-0.00002
 756,-0.00001366,0.00000230,-0.00000696,0.00001274,-0.00001363,0.000006
 62,-0.00001440,-0.00001203,0.00002905,0.00001553,0.00001777,0.00001939
 ,-0.00002024,0.00002756,-0.00000552,0.00003106,0.00002427\\\@
 The archive entry for this job was punched.


      TO SUSPECT YOUR OWN MORTALITY IS TO KNOW THE BEGINNING OF TERROR.
      TO LEARN IRREFUTABLY THAT YOU ARE MORTAL IS TO KNOW THE END
      OF TERROR.

                                                  -- JESSICA
                                                     CHILDREN OF DUNE
                                                     BY FRANK HERBERT
 Job cpu time:       0 days  0 hours 13 minutes 35.9 seconds.
 Elapsed time:       0 days  0 hours  0 minutes 52.7 seconds.
 File lengths (MBytes):  RWF=     39 Int=      0 D2E=      0 Chk=      3 Scr=      1
 Normal termination of Gaussian 16 at Fri May 20 19:51:29 2022.
