 Entering Gaussian System, Link 0=g16
 AtFile(1): /home/561/yj5695/Basis/6-31pGd.gbs
 Initial command:
 /apps/gaussian/g16c01/g16/l1.exe "/jobfs/48733082.gadi-pbs/Gau-1323848.inp" -scrdir="/jobfs/48733082.gadi-pbs/"
 Entering Link 1 = /apps/gaussian/g16c01/g16/l1.exe PID=   1323849.
  
 Copyright (c) 1988-2019, Gaussian, Inc.  All Rights Reserved.
  
 This is part of the Gaussian(R) 16 program.  It is based on
 the Gaussian(R) 09 system (copyright 2009, Gaussian, Inc.),
 the Gaussian(R) 03 system (copyright 2003, Gaussian, Inc.),
 the Gaussian(R) 98 system (copyright 1998, Gaussian, Inc.),
 the Gaussian(R) 94 system (copyright 1995, Gaussian, Inc.),
 the Gaussian 92(TM) system (copyright 1992, Gaussian, Inc.),
 the Gaussian 90(TM) system (copyright 1990, Gaussian, Inc.),
 the Gaussian 88(TM) system (copyright 1988, Gaussian, Inc.),
 the Gaussian 86(TM) system (copyright 1986, Carnegie Mellon
 University), and the Gaussian 82(TM) system (copyright 1983,
 Carnegie Mellon University). Gaussian is a federally registered
 trademark of Gaussian, Inc.
  
 This software contains proprietary and confidential information,
 including trade secrets, belonging to Gaussian, Inc.
  
 This software is provided under written license and may be
 used, copied, transmitted, or stored only in accord with that
 written license.
  
 The following legend is applicable only to US Government
 contracts under FAR:
  
                    RESTRICTED RIGHTS LEGEND
  
 Use, reproduction and disclosure by the US Government is
 subject to restrictions as set forth in subparagraphs (a)
 and (c) of the Commercial Computer Software - Restricted
 Rights clause in FAR 52.227-19.
  
 Gaussian, Inc.
 340 Quinnipiac St., Bldg. 40, Wallingford CT 06492
  
  
 ---------------------------------------------------------------
 Warning -- This program may not be used in any manner that
 competes with the business of Gaussian, Inc. or will provide
 assistance to any competitor of Gaussian, Inc.  The licensee
 of this program is prohibited from giving any competitor of
 Gaussian, Inc. access to this program.  By using this program,
 the user acknowledges that Gaussian, Inc. is engaged in the
 business of creating and licensing software in the field of
 computational chemistry and represents and warrants to the
 licensee that it is not a competitor of Gaussian, Inc. and that
 it will not use this program in any manner prohibited above.
 ---------------------------------------------------------------
  

 Cite this work as:
 Gaussian 16, Revision C.01,
 M. J. Frisch, G. W. Trucks, H. B. Schlegel, G. E. Scuseria, 
 M. A. Robb, J. R. Cheeseman, G. Scalmani, V. Barone, 
 G. A. Petersson, H. Nakatsuji, X. Li, M. Caricato, A. V. Marenich, 
 J. Bloino, B. G. Janesko, R. Gomperts, B. Mennucci, H. P. Hratchian, 
 J. V. Ortiz, A. F. Izmaylov, J. L. Sonnenberg, D. Williams-Young, 
 F. Ding, F. Lipparini, F. Egidi, J. Goings, B. Peng, A. Petrone, 
 T. Henderson, D. Ranasinghe, V. G. Zakrzewski, J. Gao, N. Rega, 
 G. Zheng, W. Liang, M. Hada, M. Ehara, K. Toyota, R. Fukuda, 
 J. Hasegawa, M. Ishida, T. Nakajima, Y. Honda, O. Kitao, H. Nakai, 
 T. Vreven, K. Throssell, J. A. Montgomery, Jr., J. E. Peralta, 
 F. Ogliaro, M. J. Bearpark, J. J. Heyd, E. N. Brothers, K. N. Kudin, 
 V. N. Staroverov, T. A. Keith, R. Kobayashi, J. Normand, 
 K. Raghavachari, A. P. Rendell, J. C. Burant, S. S. Iyengar, 
 J. Tomasi, M. Cossi, J. M. Millam, M. Klene, C. Adamo, R. Cammi, 
 J. W. Ochterski, R. L. Martin, K. Morokuma, O. Farkas, 
 J. B. Foresman, and D. J. Fox, Gaussian, Inc., Wallingford CT, 2019.
 
 ******************************************
 Gaussian 16:  ES64L-G16RevC.01  3-Jul-2019
                29-Jun-2022 
 ******************************************
 %nproc=16
 Will use up to   16 processors via shared memory.
 %mem=40gb
 --------------------------------------------------
 #M062X/gen 6D INT(grid=ultrafine) OPT Freq=noraman
 --------------------------------------------------
 1/18=20,19=15,26=4,38=1/1,3;
 2/9=110,12=2,17=6,18=5,40=1/2;
 3/5=7,8=2,11=2,25=1,30=1,71=1,74=-55,75=-5/1,2,3;
 4//1;
 5/5=2,38=5/2;
 6/7=2,8=2,9=2,10=2,28=1/1;
 7//1,2,3,16;
 1/18=20,19=15,26=4/3(2);
 2/9=110/2;
 99//99;
 2/9=110/2;
 3/5=7,6=1,8=2,11=2,25=1,30=1,71=1,74=-55,75=-5,82=7/1,2,3;
 4/5=5,16=3,69=1/1;
 5/5=2,38=5/2;
 7//1,2,3,16;
 1/18=20,19=15,26=4/3(-5);
 2/9=110/2;
 6/7=2,8=2,9=2,10=2,19=2,28=1/1;
 99/9=1/99;
 ----------
 HA.11.freq
 ----------
 Symbolic Z-matrix:
 Charge =  0 Multiplicity = 1
 C                    -1.44365   0.71578  -0.99386 
 C                    -2.60493   0.5516   -1.7403 
 H                    -3.5721    0.48236  -1.25221 
 C                    -2.50728   0.48926  -3.13077 
 H                    -3.41505   0.3694   -3.71469 
 C                    -1.26759   0.58302  -3.76542 
 C                    -1.11486   0.52218  -5.27417 
 C                    -0.1133    0.74267  -2.98344 
 H                     0.8558    0.81978  -3.47112 
 C                    -0.18839   0.81048  -1.59949 
 H                     0.70893   0.9412   -1.00153 
 S                    -1.5438    0.75516   0.77648 
 O                    -0.46277   1.60725   1.27594 
 O                    -2.92647   1.05552   1.1512 
 N                    -1.23029  -0.75843   1.36522 
 H                    -0.28133  -1.06102   1.13477 
 H                    -1.9125   -1.44075   1.02784 
 N                    -2.32431   0.3557   -6.06894 
 H                    -0.61233   1.43883  -5.60011 
 H                    -0.43086  -0.29922  -5.51182 
 H                    -2.97073   1.11837  -5.87005 
 H                    -2.8023   -0.49956  -5.78778 
 

 GradGradGradGradGradGradGradGradGradGradGradGradGradGradGradGradGradGrad
 Berny optimization.
 Initialization pass.
                           ----------------------------
                           !    Initial Parameters    !
                           ! (Angstroms and Degrees)  !
 --------------------------                            --------------------------
 ! Name  Definition              Value          Derivative Info.                !
 --------------------------------------------------------------------------------
 ! R1    R(1,2)                  1.3902         estimate D2E/DX2                !
 ! R2    R(1,10)                 1.3969         estimate D2E/DX2                !
 ! R3    R(1,12)                 1.7736         estimate D2E/DX2                !
 ! R4    R(2,3)                  1.0856         estimate D2E/DX2                !
 ! R5    R(2,4)                  1.3953         estimate D2E/DX2                !
 ! R6    R(4,5)                  1.086          estimate D2E/DX2                !
 ! R7    R(4,6)                  1.3958         estimate D2E/DX2                !
 ! R8    R(6,7)                  1.5177         estimate D2E/DX2                !
 ! R9    R(6,8)                  1.4033         estimate D2E/DX2                !
 ! R10   R(7,18)                 1.4568         estimate D2E/DX2                !
 ! R11   R(7,19)                 1.095          estimate D2E/DX2                !
 ! R12   R(7,20)                 1.095          estimate D2E/DX2                !
 ! R13   R(8,9)                  1.0876         estimate D2E/DX2                !
 ! R14   R(8,10)                 1.3876         estimate D2E/DX2                !
 ! R15   R(10,11)                1.0862         estimate D2E/DX2                !
 ! R16   R(12,13)                1.4643         estimate D2E/DX2                !
 ! R17   R(12,14)                1.4637         estimate D2E/DX2                !
 ! R18   R(12,15)                1.654          estimate D2E/DX2                !
 ! R19   R(15,16)                1.0223         estimate D2E/DX2                !
 ! R20   R(15,17)                1.0222         estimate D2E/DX2                !
 ! R21   R(18,21)                1.0194         estimate D2E/DX2                !
 ! R22   R(18,22)                1.0193         estimate D2E/DX2                !
 ! A1    A(2,1,10)             121.7247         estimate D2E/DX2                !
 ! A2    A(2,1,12)             119.4314         estimate D2E/DX2                !
 ! A3    A(10,1,12)            118.8148         estimate D2E/DX2                !
 ! A4    A(1,2,3)              120.6875         estimate D2E/DX2                !
 ! A5    A(1,2,4)              118.8081         estimate D2E/DX2                !
 ! A6    A(3,2,4)              120.5019         estimate D2E/DX2                !
 ! A7    A(2,4,5)              118.8329         estimate D2E/DX2                !
 ! A8    A(2,4,6)              120.8138         estimate D2E/DX2                !
 ! A9    A(5,4,6)              120.3529         estimate D2E/DX2                !
 ! A10   A(4,6,7)              122.5934         estimate D2E/DX2                !
 ! A11   A(4,6,8)              118.9995         estimate D2E/DX2                !
 ! A12   A(7,6,8)              118.407          estimate D2E/DX2                !
 ! A13   A(6,7,18)             117.6063         estimate D2E/DX2                !
 ! A14   A(6,7,19)             107.9707         estimate D2E/DX2                !
 ! A15   A(6,7,20)             107.9805         estimate D2E/DX2                !
 ! A16   A(18,7,19)            108.3181         estimate D2E/DX2                !
 ! A17   A(18,7,20)            108.3294         estimate D2E/DX2                !
 ! A18   A(19,7,20)            106.062          estimate D2E/DX2                !
 ! A19   A(6,8,9)              119.4129         estimate D2E/DX2                !
 ! A20   A(6,8,10)             121.1174         estimate D2E/DX2                !
 ! A21   A(9,8,10)             119.469          estimate D2E/DX2                !
 ! A22   A(1,10,8)             118.5353         estimate D2E/DX2                !
 ! A23   A(1,10,11)            120.7848         estimate D2E/DX2                !
 ! A24   A(8,10,11)            120.6786         estimate D2E/DX2                !
 ! A25   A(1,12,13)            108.1614         estimate D2E/DX2                !
 ! A26   A(1,12,14)            108.2664         estimate D2E/DX2                !
 ! A27   A(1,12,15)            108.921          estimate D2E/DX2                !
 ! A28   A(13,12,14)           119.3838         estimate D2E/DX2                !
 ! A29   A(13,12,15)           105.7334         estimate D2E/DX2                !
 ! A30   A(14,12,15)           106.0043         estimate D2E/DX2                !
 ! A31   A(12,15,16)           111.5029         estimate D2E/DX2                !
 ! A32   A(12,15,17)           111.5227         estimate D2E/DX2                !
 ! A33   A(16,15,17)           110.3368         estimate D2E/DX2                !
 ! A34   A(7,18,21)            109.5444         estimate D2E/DX2                !
 ! A35   A(7,18,22)            109.5556         estimate D2E/DX2                !
 ! A36   A(21,18,22)           106.0558         estimate D2E/DX2                !
 ! D1    D(10,1,2,3)          -179.8501         estimate D2E/DX2                !
 ! D2    D(10,1,2,4)            -0.4186         estimate D2E/DX2                !
 ! D3    D(12,1,2,3)             2.1378         estimate D2E/DX2                !
 ! D4    D(12,1,2,4)          -178.4307         estimate D2E/DX2                !
 ! D5    D(2,1,10,8)             0.2563         estimate D2E/DX2                !
 ! D6    D(2,1,10,11)          179.8401         estimate D2E/DX2                !
 ! D7    D(12,1,10,8)          178.2803         estimate D2E/DX2                !
 ! D8    D(12,1,10,11)          -2.1359         estimate D2E/DX2                !
 ! D9    D(2,1,12,13)         -149.821          estimate D2E/DX2                !
 ! D10   D(2,1,12,14)          -19.1242         estimate D2E/DX2                !
 ! D11   D(2,1,12,15)           95.7147         estimate D2E/DX2                !
 ! D12   D(10,1,12,13)          32.1088         estimate D2E/DX2                !
 ! D13   D(10,1,12,14)         162.8057         estimate D2E/DX2                !
 ! D14   D(10,1,12,15)         -82.3555         estimate D2E/DX2                !
 ! D15   D(1,2,4,5)           -179.4917         estimate D2E/DX2                !
 ! D16   D(1,2,4,6)              0.3076         estimate D2E/DX2                !
 ! D17   D(3,2,4,5)             -0.0591         estimate D2E/DX2                !
 ! D18   D(3,2,4,6)            179.7402         estimate D2E/DX2                !
 ! D19   D(2,4,6,7)           -179.91           estimate D2E/DX2                !
 ! D20   D(2,4,6,8)             -0.0429         estimate D2E/DX2                !
 ! D21   D(5,4,6,7)             -0.1137         estimate D2E/DX2                !
 ! D22   D(5,4,6,8)            179.7534         estimate D2E/DX2                !
 ! D23   D(4,6,7,18)            -0.1518         estimate D2E/DX2                !
 ! D24   D(4,6,7,19)           122.7005         estimate D2E/DX2                !
 ! D25   D(4,6,7,20)          -123.0275         estimate D2E/DX2                !
 ! D26   D(8,6,7,18)           179.9803         estimate D2E/DX2                !
 ! D27   D(8,6,7,19)           -57.1674         estimate D2E/DX2                !
 ! D28   D(8,6,7,20)            57.1047         estimate D2E/DX2                !
 ! D29   D(4,6,8,9)           -179.7975         estimate D2E/DX2                !
 ! D30   D(4,6,8,10)            -0.1239         estimate D2E/DX2                !
 ! D31   D(7,6,8,9)              0.0751         estimate D2E/DX2                !
 ! D32   D(7,6,8,10)           179.7488         estimate D2E/DX2                !
 ! D33   D(6,7,18,21)           57.9778         estimate D2E/DX2                !
 ! D34   D(6,7,18,22)          -57.9696         estimate D2E/DX2                !
 ! D35   D(19,7,18,21)         -64.6976         estimate D2E/DX2                !
 ! D36   D(19,7,18,22)         179.355          estimate D2E/DX2                !
 ! D37   D(20,7,18,21)        -179.3242         estimate D2E/DX2                !
 ! D38   D(20,7,18,22)          64.7284         estimate D2E/DX2                !
 ! D39   D(6,8,10,1)             0.0201         estimate D2E/DX2                !
 ! D40   D(6,8,10,11)         -179.5641         estimate D2E/DX2                !
 ! D41   D(9,8,10,1)           179.6936         estimate D2E/DX2                !
 ! D42   D(9,8,10,11)            0.1093         estimate D2E/DX2                !
 ! D43   D(1,12,15,16)          62.7608         estimate D2E/DX2                !
 ! D44   D(1,12,15,17)         -61.0811         estimate D2E/DX2                !
 ! D45   D(13,12,15,16)        -53.2725         estimate D2E/DX2                !
 ! D46   D(13,12,15,17)       -177.1144         estimate D2E/DX2                !
 ! D47   D(14,12,15,16)        179.0574         estimate D2E/DX2                !
 ! D48   D(14,12,15,17)         55.2156         estimate D2E/DX2                !
 --------------------------------------------------------------------------------
 Trust Radius=3.00D-01 FncErr=1.00D-07 GrdErr=1.00D-06 EigMax=2.50D+02 EigMin=1.00D-04
 Number of steps in this run=    116 maximum allowed number of steps=    132.
 GradGradGradGradGradGradGradGradGradGradGradGradGradGradGradGradGradGrad

                          Input orientation:                          
 ---------------------------------------------------------------------
 Center     Atomic      Atomic             Coordinates (Angstroms)
 Number     Number       Type             X           Y           Z
 ---------------------------------------------------------------------
      1          6           0       -1.443646    0.715778   -0.993864
      2          6           0       -2.604934    0.551604   -1.740295
      3          1           0       -3.572097    0.482355   -1.252213
      4          6           0       -2.507281    0.489257   -3.130774
      5          1           0       -3.415051    0.369400   -3.714694
      6          6           0       -1.267593    0.583021   -3.765415
      7          6           0       -1.114858    0.522175   -5.274173
      8          6           0       -0.113300    0.742671   -2.983435
      9          1           0        0.855801    0.819783   -3.471124
     10          6           0       -0.188388    0.810478   -1.599495
     11          1           0        0.708935    0.941199   -1.001530
     12         16           0       -1.543798    0.755155    0.776480
     13          8           0       -0.462768    1.607247    1.275937
     14          8           0       -2.926467    1.055521    1.151199
     15          7           0       -1.230290   -0.758425    1.365215
     16          1           0       -0.281332   -1.061017    1.134768
     17          1           0       -1.912499   -1.440753    1.027844
     18          7           0       -2.324308    0.355700   -6.068943
     19          1           0       -0.612325    1.438830   -5.600109
     20          1           0       -0.430859   -0.299220   -5.511824
     21          1           0       -2.970728    1.118369   -5.870048
     22          1           0       -2.802300   -0.499555   -5.787777
 ---------------------------------------------------------------------
                    Distance matrix (angstroms):
                    1          2          3          4          5
     1  C    0.000000
     2  C    1.390217   0.000000
     3  H    2.156742   1.085552   0.000000
     4  C    2.397710   1.395297   2.159368   0.000000
     5  H    3.377770   2.141900   2.470067   1.085990   0.000000
     6  C    2.780309   2.427051   3.411313   1.395846   2.158653
     7  C    4.297282   3.835294   4.713360   2.556185   2.783200
     8  C    2.393520   2.791083   3.876619   2.411861   3.402298
     9  H    3.381581   3.878708   4.964243   3.396382   4.301436
    10  C    1.396935   2.434447   3.417273   2.797367   3.883293
    11  H    2.164365   3.417497   4.312843   3.883552   4.969454
    12  S    1.773612   2.738905   2.881668   4.033067   4.880680
    13  O    2.628466   3.847196   4.162314   4.984881   5.929134
    14  O    2.629730   2.952636   2.553772   4.339547   4.938258
    15  N    2.789991   3.640058   3.724853   4.837493   5.643637
    16  H    3.006501   4.033071   4.348426   5.055002   5.948408
    17  H    2.992951   3.480165   3.413396   4.623073   5.293957
    18  N    5.163492   4.342156   4.977339   2.946889   2.594687
    19  H    4.736179   4.433488   5.345960   3.254253   3.543126
    20  H    4.740034   4.435643   5.350002   3.256167   3.547130
    21  H    5.125546   4.184481   4.700059   2.848541   2.324635
    22  H    5.128799   4.186407   4.704049   2.850343   2.329855
                    6          7          8          9         10
     6  C    0.000000
     7  C    1.517689   0.000000
     8  C    1.403344   2.509824   0.000000
     9  H    2.156726   2.687574   1.087632   0.000000
    10  C    2.430562   3.800622   1.387634   2.143225   0.000000
    11  H    3.416726   4.664470   2.154862   2.476934   1.086204
    12  S    4.553541   6.070311   4.022865   4.878975   2.735956
    13  O    5.206920   6.671322   4.360261   4.989320   2.996370
    14  O    5.210395   6.697148   5.010687   5.977206   3.888886
    15  N    5.303229   6.762746   4.734102   5.498426   3.512339
    16  H    5.261878   6.654005   4.499013   5.103402   3.314713
    17  H    5.242795   6.648665   4.908648   5.745801   3.865684
    18  N    2.544516   1.456757   3.815581   4.132449   4.974429
    19  H    2.127883   1.095002   2.753297   2.659171   4.071788
    20  H    2.128008   1.094999   2.753022   2.659346   4.073886
    21  H    2.759845   2.038324   4.079041   4.526181   5.106254
    22  H    2.759935   2.038426   4.078992   4.526504   5.107879
                   11         12         13         14         15
    11  H    0.000000
    12  S    2.875889   0.000000
    13  O    2.646387   1.464289   0.000000
    14  O    4.226519   1.463696   2.527800   0.000000
    15  N    3.500114   1.654032   2.488667   2.492633   0.000000
    16  H    3.090836   2.240686   2.678149   3.387734   1.022345
    17  H    4.082153   2.240789   3.384313   2.697170   1.022154
    18  N    5.934816   6.901346   7.679776   7.278928   7.596371
    19  H    4.810435   6.480427   6.879734   7.147191   7.329771
    20  H    4.814615   6.472489   7.050485   7.242877   6.938561
    21  H    6.105225   6.807671   7.589069   7.021668   7.674667
    22  H    6.108412   6.800559   7.733569   7.112178   7.328269
                   16         17         18         19         20
    16  H    0.000000
    17  H    1.678195   0.000000
    18  N    7.620649   7.332204   0.000000
    19  H    7.191478   7.342494   2.079389   0.000000
    20  H    6.691777   6.801884   2.079531   1.749726   0.000000
    21  H    7.813451   7.433025   1.019354   2.395334   2.930668
    22  H    7.388650   6.937600   1.019309   2.930622   2.395833
                   21         22
    21  H    0.000000
    22  H    1.628747   0.000000
 Stoichiometry    C7H10N2O2S
 Framework group  C1[X(C7H10N2O2S)]
 Deg. of freedom    60
 Full point group                 C1      NOp   1
 Largest Abelian subgroup         C1      NOp   1
 Largest concise Abelian subgroup C1      NOp   1
                         Standard orientation:                         
 ---------------------------------------------------------------------
 Center     Atomic      Atomic             Coordinates (Angstroms)
 Number     Number       Type             X           Y           Z
 ---------------------------------------------------------------------
      1          6           0       -0.520678    0.047708   -0.098157
      2          6           0        0.262898   -1.100421   -0.075572
      3          1           0       -0.195019   -2.084301   -0.102353
      4          6           0        1.650984   -0.966314   -0.029909
      5          1           0        2.263747   -1.862869   -0.020687
      6          6           0        2.246841    0.295625   -0.000727
      7          6           0        3.751482    0.488354    0.047137
      8          6           0        1.428048    1.435196   -0.018888
      9          1           0        1.885336    2.421838    0.000297
     10          6           0        0.045712    1.324306   -0.067653
     11          1           0       -0.581027    2.211211   -0.088535
     12         16           0       -2.287777   -0.103331   -0.113910
     13          8           0       -2.837785    1.047113   -0.833710
     14          8           0       -2.628639   -1.456596   -0.555376
     15          7           0       -2.850984    0.026202    1.435878
     16          1           0       -2.641570    0.943724    1.835239
     17          1           0       -2.478451   -0.714727    2.033408
     18          7           0        4.584823   -0.706357    0.065843
     19          1           0        4.041745    1.096947   -0.815643
     20          1           0        3.987589    1.086804    0.933215
     21          1           0        4.387677   -1.272587   -0.758535
     22          1           0        4.337192   -1.282525    0.869399
 ---------------------------------------------------------------------
 Rotational constants (GHZ):           2.3390735           0.4031123           0.3722193
 General basis read from cards:  (6D, 7F)
 There are   252 symmetry adapted cartesian basis functions of A   symmetry.
 There are   252 symmetry adapted basis functions of A   symmetry.
   252 basis functions,   448 primitive gaussians,   252 cartesian basis functions
    49 alpha electrons       49 beta electrons
       nuclear repulsion energy       819.1196297891 Hartrees.
 NAtoms=   22 NActive=   22 NUniq=   22 SFac= 1.00D+00 NAtFMM=   60 NAOKFM=F Big=F
 Integral buffers will be    131072 words long.
 Raffenetti 2 integral format.
 Two-electron integral symmetry is turned on.
 One-electron integrals computed using PRISM.
 NBasis=   252 RedAO= T EigKep=  1.59D-06  NBF=   252
 NBsUse=   252 1.00D-06 EigRej= -1.00D+00 NBFU=   252
 ExpMin= 4.05D-02 ExpMax= 2.19D+04 ExpMxC= 3.30D+03 IAcc=3 IRadAn=         5 AccDes= 0.00D+00
 Harris functional with IExCor= 1009 and IRadAn=       5 diagonalized for initial guess.
 HarFok:  IExCor= 1009 AccDes= 0.00D+00 IRadAn=         5 IDoV= 1 UseB2=F ITyADJ=14
 ICtDFT=  3500011 ScaDFX=  1.000000  1.000000  1.000000  1.000000
 FoFCou: FMM=F IPFlag=           0 FMFlag=      100000 FMFlg1=           0
         NFxFlg=           0 DoJE=T BraDBF=F KetDBF=T FulRan=T
         wScrn=  0.000000 ICntrl=       500 IOpCl=  0 I1Cent=   200000004 NGrid=           0
         NMat0=    1 NMatS0=      1 NMatT0=    0 NMatD0=    1 NMtDS0=    0 NMtDT0=    0
 Petite list used in FoFCou.
 Requested convergence on RMS density matrix=1.00D-08 within 128 cycles.
 Requested convergence on MAX density matrix=1.00D-06.
 Requested convergence on             energy=1.00D-06.
 No special actions if energy rises.
 SCF Done:  E(RM062X) =  -930.586786643     A.U. after   16 cycles
            NFock= 16  Conv=0.55D-08     -V/T= 2.0065

 **********************************************************************

            Population analysis using the SCF Density.

 **********************************************************************

 Orbital symmetries:
       Occupied  (A) (A) (A) (A) (A) (A) (A) (A) (A) (A) (A) (A)
                 (A) (A) (A) (A) (A) (A) (A) (A) (A) (A) (A) (A)
                 (A) (A) (A) (A) (A) (A) (A) (A) (A) (A) (A) (A)
                 (A) (A) (A) (A) (A) (A) (A) (A) (A) (A) (A) (A)
                 (A)
       Virtual   (A) (A) (A) (A) (A) (A) (A) (A) (A) (A) (A) (A)
                 (A) (A) (A) (A) (A) (A) (A) (A) (A) (A) (A) (A)
                 (A) (A) (A) (A) (A) (A) (A) (A) (A) (A) (A) (A)
                 (A) (A) (A) (A) (A) (A) (A) (A) (A) (A) (A) (A)
                 (A) (A) (A) (A) (A) (A) (A) (A) (A) (A) (A) (A)
                 (A) (A) (A) (A) (A) (A) (A) (A) (A) (A) (A) (A)
                 (A) (A) (A) (A) (A) (A) (A) (A) (A) (A) (A) (A)
                 (A) (A) (A) (A) (A) (A) (A) (A) (A) (A) (A) (A)
                 (A) (A) (A) (A) (A) (A) (A) (A) (A) (A) (A) (A)
                 (A) (A) (A) (A) (A) (A) (A) (A) (A) (A) (A) (A)
                 (A) (A) (A) (A) (A) (A) (A) (A) (A) (A) (A) (A)
                 (A) (A) (A) (A) (A) (A) (A) (A) (A) (A) (A) (A)
                 (A) (A) (A) (A) (A) (A) (A) (A) (A) (A) (A) (A)
                 (A) (A) (A) (A) (A) (A) (A) (A) (A) (A) (A) (A)
                 (A) (A) (A) (A) (A) (A) (A) (A) (A) (A) (A) (A)
                 (A) (A) (A) (A) (A) (A) (A) (A) (A) (A) (A) (A)
                 (A) (A) (A) (A) (A) (A) (A) (A) (A) (A) (A)
 The electronic state is 1-A.
 Alpha  occ. eigenvalues --  -90.16930 -19.64264 -19.64178 -14.81260 -14.76843
 Alpha  occ. eigenvalues --  -10.60560 -10.59857 -10.59336 -10.59327 -10.59277
 Alpha  occ. eigenvalues --  -10.58512 -10.58485  -8.47912  -6.40131  -6.40065
 Alpha  occ. eigenvalues --   -6.39988  -1.24312  -1.12487  -1.03708  -1.02355
 Alpha  occ. eigenvalues --   -0.99274  -0.89831  -0.87900  -0.80304  -0.74684
 Alpha  occ. eigenvalues --   -0.72329  -0.68942  -0.64896  -0.62375  -0.59574
 Alpha  occ. eigenvalues --   -0.59141  -0.56685  -0.56238  -0.54608  -0.52303
 Alpha  occ. eigenvalues --   -0.52007  -0.49517  -0.49036  -0.46518  -0.45703
 Alpha  occ. eigenvalues --   -0.43458  -0.41675  -0.40193  -0.39767  -0.37842
 Alpha  occ. eigenvalues --   -0.37764  -0.34047  -0.33373  -0.32772
 Alpha virt. eigenvalues --   -0.02505  -0.01229  -0.00541   0.00718   0.01806
 Alpha virt. eigenvalues --    0.02841   0.03758   0.04012   0.05190   0.05726
 Alpha virt. eigenvalues --    0.06868   0.06980   0.07724   0.08118   0.08808
 Alpha virt. eigenvalues --    0.10049   0.10200   0.10605   0.10849   0.12454
 Alpha virt. eigenvalues --    0.12860   0.13044   0.13466   0.13887   0.14731
 Alpha virt. eigenvalues --    0.15244   0.15785   0.15914   0.16362   0.17273
 Alpha virt. eigenvalues --    0.18205   0.18726   0.19085   0.19718   0.19985
 Alpha virt. eigenvalues --    0.20549   0.21006   0.21487   0.21861   0.22074
 Alpha virt. eigenvalues --    0.22660   0.23543   0.24457   0.24626   0.24941
 Alpha virt. eigenvalues --    0.26206   0.26991   0.27319   0.28137   0.28268
 Alpha virt. eigenvalues --    0.28955   0.29398   0.29665   0.30214   0.31043
 Alpha virt. eigenvalues --    0.32130   0.32623   0.33212   0.33448   0.35173
 Alpha virt. eigenvalues --    0.36088   0.36541   0.37450   0.38920   0.40076
 Alpha virt. eigenvalues --    0.40664   0.42086   0.42622   0.46446   0.47703
 Alpha virt. eigenvalues --    0.48745   0.54893   0.56389   0.57319   0.62844
 Alpha virt. eigenvalues --    0.65564   0.66637   0.68921   0.69763   0.70196
 Alpha virt. eigenvalues --    0.72513   0.73449   0.73717   0.75325   0.76479
 Alpha virt. eigenvalues --    0.77647   0.79109   0.79839   0.81383   0.82018
 Alpha virt. eigenvalues --    0.82657   0.88791   0.91419   0.92773   0.93423
 Alpha virt. eigenvalues --    0.93803   0.96045   0.97441   0.98679   0.99338
 Alpha virt. eigenvalues --    1.00729   1.02282   1.02642   1.03784   1.04499
 Alpha virt. eigenvalues --    1.08518   1.08795   1.09726   1.10991   1.11534
 Alpha virt. eigenvalues --    1.12820   1.14973   1.15818   1.16548   1.17905
 Alpha virt. eigenvalues --    1.18975   1.20953   1.23279   1.24389   1.26794
 Alpha virt. eigenvalues --    1.28085   1.31259   1.33940   1.36846   1.37770
 Alpha virt. eigenvalues --    1.38851   1.39346   1.41356   1.41971   1.42403
 Alpha virt. eigenvalues --    1.42767   1.45425   1.49749   1.49902   1.51400
 Alpha virt. eigenvalues --    1.53044   1.55044   1.60562   1.62214   1.69624
 Alpha virt. eigenvalues --    1.70364   1.75284   1.80324   1.81434   1.83229
 Alpha virt. eigenvalues --    1.83368   1.84605   1.86134   1.87969   1.89926
 Alpha virt. eigenvalues --    1.91744   1.92700   1.96213   2.01733   2.02550
 Alpha virt. eigenvalues --    2.03271   2.07256   2.09008   2.11126   2.12058
 Alpha virt. eigenvalues --    2.14552   2.15588   2.17567   2.18303   2.20708
 Alpha virt. eigenvalues --    2.22511   2.23547   2.23891   2.26752   2.30786
 Alpha virt. eigenvalues --    2.31585   2.34803   2.37280   2.39681   2.43031
 Alpha virt. eigenvalues --    2.45673   2.48661   2.56465   2.61525   2.64468
 Alpha virt. eigenvalues --    2.67846   2.70886   2.75995   2.78146   2.79978
 Alpha virt. eigenvalues --    2.86832   2.91774   2.92716   2.95947   3.08688
 Alpha virt. eigenvalues --    3.36787   3.87894   3.99975   4.08367   4.24116
 Alpha virt. eigenvalues --    4.24732   4.27252   4.29700   4.33221   4.38724
 Alpha virt. eigenvalues --    4.40159   4.51218   4.71976
          Condensed to atoms (all electrons):
               1          2          3          4          5          6
     1  C   24.291287  -2.116683   0.091929  -3.979129   0.054391  -5.498403
     2  C   -2.116683  37.846012   0.129866 -11.925645   0.051563  -1.113866
     3  H    0.091929   0.129866   0.439674   0.055974  -0.003977  -0.011185
     4  C   -3.979129 -11.925645   0.055974  25.938206   0.189363   3.092466
     5  H    0.054391   0.051563  -0.003977   0.189363   0.506142   0.062160
     6  C   -5.498403  -1.113866  -0.011185   3.092466   0.062160  14.209248
     7  C   -2.269777  -1.825775  -0.001057  -2.232702  -0.103247  -0.841031
     8  C   -0.473790   0.528201  -0.036337  -6.741430   0.073015  -3.690769
     9  H    0.015013  -0.061996   0.000014   0.122004  -0.000141   0.128590
    10  C   -2.854932 -14.758753   0.078654   2.105610  -0.045464   1.069606
    11  H    0.145345   0.122585  -0.000120  -0.048515   0.000015  -0.032936
    12  S    0.127240  -0.917504  -0.005992  -0.906610   0.003602  -0.772210
    13  O   -0.002294  -0.027540   0.001072   0.182221   0.000022  -0.040006
    14  O    0.028226  -0.343215  -0.000366  -0.092154   0.000275  -0.058120
    15  N   -0.609608   0.291195   0.001508   0.271177   0.000016   0.143772
    16  H    0.040177   0.043051   0.000001  -0.002275   0.000000  -0.005193
    17  H    0.052589  -0.149573  -0.000020  -0.029492   0.000001  -0.009704
    18  N    0.288715   0.439673   0.000580   0.357155   0.008482  -0.400379
    19  H    0.003605   0.013079   0.000002   0.107598   0.000083   0.059220
    20  H   -0.002498   0.031822   0.000002   0.094611   0.000110  -0.023321
    21  H   -0.000130   0.056308  -0.000002   0.077795  -0.000312  -0.083656
    22  H    0.002536   0.028640   0.000000   0.089498  -0.000501  -0.059380
               7          8          9         10         11         12
     1  C   -2.269777  -0.473790   0.015013  -2.854932   0.145345   0.127240
     2  C   -1.825775   0.528201  -0.061996 -14.758753   0.122585  -0.917504
     3  H   -0.001057  -0.036337   0.000014   0.078654  -0.000120  -0.005992
     4  C   -2.232702  -6.741430   0.122004   2.105610  -0.048515  -0.906610
     5  H   -0.103247   0.073015  -0.000141  -0.045464   0.000015   0.003602
     6  C   -0.841031  -3.690769   0.128590   1.069606  -0.032936  -0.772210
     7  C   12.040878   1.890086  -0.053961  -0.269327  -0.000059  -0.403671
     8  C    1.890086  27.019566   0.128725 -12.583483   0.001196  -0.167273
     9  H   -0.053961   0.128725   0.484837   0.016753  -0.003527   0.002319
    10  C   -0.269327 -12.583483   0.016753  31.799972   0.108731   0.947867
    11  H   -0.000059   0.001196  -0.003527   0.108731   0.446452   0.008783
    12  S   -0.403671  -0.167273   0.002319   0.947867   0.008783  16.683549
    13  O   -0.012265  -0.108070   0.000153  -0.223409  -0.001197   0.392844
    14  O   -0.007776   0.170477   0.000022   0.094302   0.001303   0.327503
    15  N    0.027695   0.249164  -0.000010   0.081124  -0.000001  -1.045960
    16  H   -0.000870  -0.019753   0.000001  -0.096330  -0.000060   0.087778
    17  H   -0.000903  -0.003295  -0.000000   0.082647   0.000038   0.100509
    18  N   -0.564321  -0.075598   0.002217  -0.025101   0.000039   0.014252
    19  H    0.290276  -0.166708   0.000719   0.024524   0.000001   0.000380
    20  H    0.369261  -0.136542   0.000703  -0.002150   0.000001   0.000249
    21  H   -0.050863  -0.043632  -0.000004   0.002937  -0.000000   0.000007
    22  H   -0.067214  -0.049747  -0.000003   0.012875  -0.000000   0.000080
              13         14         15         16         17         18
     1  C   -0.002294   0.028226  -0.609608   0.040177   0.052589   0.288715
     2  C   -0.027540  -0.343215   0.291195   0.043051  -0.149573   0.439673
     3  H    0.001072  -0.000366   0.001508   0.000001  -0.000020   0.000580
     4  C    0.182221  -0.092154   0.271177  -0.002275  -0.029492   0.357155
     5  H    0.000022   0.000275   0.000016   0.000000   0.000001   0.008482
     6  C   -0.040006  -0.058120   0.143772  -0.005193  -0.009704  -0.400379
     7  C   -0.012265  -0.007776   0.027695  -0.000870  -0.000903  -0.564321
     8  C   -0.108070   0.170477   0.249164  -0.019753  -0.003295  -0.075598
     9  H    0.000153   0.000022  -0.000010   0.000001  -0.000000   0.002217
    10  C   -0.223409   0.094302   0.081124  -0.096330   0.082647  -0.025101
    11  H   -0.001197   0.001303  -0.000001  -0.000060   0.000038   0.000039
    12  S    0.392844   0.327503  -1.045960   0.087778   0.100509   0.014252
    13  O    8.691040  -0.177063  -0.156016  -0.004978   0.010061   0.000115
    14  O   -0.177063   8.736869  -0.132662   0.010414  -0.006911   0.000043
    15  N   -0.156016  -0.132662   8.377502   0.205210   0.213294  -0.000081
    16  H   -0.004978   0.010414   0.205210   0.324702  -0.022458   0.000002
    17  H    0.010061  -0.006911   0.213294  -0.022458   0.320078   0.000000
    18  N    0.000115   0.000043  -0.000081   0.000002   0.000000   7.257794
    19  H    0.000002  -0.000000   0.000005   0.000000   0.000000  -0.026063
    20  H   -0.000001  -0.000000  -0.000006  -0.000000  -0.000000  -0.027198
    21  H   -0.000000   0.000000  -0.000000  -0.000000  -0.000000   0.311680
    22  H    0.000000  -0.000001   0.000003  -0.000000  -0.000000   0.313293
              19         20         21         22
     1  C    0.003605  -0.002498  -0.000130   0.002536
     2  C    0.013079   0.031822   0.056308   0.028640
     3  H    0.000002   0.000002  -0.000002   0.000000
     4  C    0.107598   0.094611   0.077795   0.089498
     5  H    0.000083   0.000110  -0.000312  -0.000501
     6  C    0.059220  -0.023321  -0.083656  -0.059380
     7  C    0.290276   0.369261  -0.050863  -0.067214
     8  C   -0.166708  -0.136542  -0.043632  -0.049747
     9  H    0.000719   0.000703  -0.000004  -0.000003
    10  C    0.024524  -0.002150   0.002937   0.012875
    11  H    0.000001   0.000001  -0.000000  -0.000000
    12  S    0.000380   0.000249   0.000007   0.000080
    13  O    0.000002  -0.000001  -0.000000   0.000000
    14  O   -0.000000  -0.000000   0.000000  -0.000001
    15  N    0.000005  -0.000006  -0.000000   0.000003
    16  H    0.000000  -0.000000  -0.000000  -0.000000
    17  H    0.000000  -0.000000  -0.000000  -0.000000
    18  N   -0.026063  -0.027198   0.311680   0.313293
    19  H    0.484506  -0.031565  -0.006996   0.004822
    20  H   -0.031565   0.489757   0.004850  -0.007007
    21  H   -0.006996   0.004850   0.368763  -0.046334
    22  H    0.004822  -0.007007  -0.046334   0.370721
 Mulliken charges:
               1
     1  C   -1.333809
     2  C   -0.341446
     3  H    0.259779
     4  C   -0.725725
     5  H    0.204403
     6  C   -0.124905
     7  C    0.086624
     8  C    0.235995
     9  H    0.217570
    10  C    0.433344
    11  H    0.251926
    12  S    1.522257
    13  O   -0.524691
    14  O   -0.551166
    15  N   -0.917319
    16  H    0.440581
    17  H    0.443140
    18  N   -0.875299
    19  H    0.242512
    20  H    0.238923
    21  H    0.409587
    22  H    0.407718
 Sum of Mulliken charges =  -0.00000
 Mulliken charges with hydrogens summed into heavy atoms:
               1
     1  C   -1.333809
     2  C   -0.081667
     4  C   -0.521322
     6  C   -0.124905
     7  C    0.568059
     8  C    0.453565
    10  C    0.685271
    12  S    1.522257
    13  O   -0.524691
    14  O   -0.551166
    15  N   -0.033599
    18  N   -0.057994
 Electronic spatial extent (au):  <R**2>=           2942.5508
 Charge=             -0.0000 electrons
 Dipole moment (field-independent basis, Debye):
    X=              4.3410    Y=              0.5744    Z=              3.9958  Tot=              5.9279
 Quadrupole moment (field-independent basis, Debye-Ang):
   XX=           -103.3539   YY=            -74.0099   ZZ=            -75.6825
   XY=             -2.8419   XZ=            -10.6973   YZ=              0.5400
 Traceless Quadrupole moment (field-independent basis, Debye-Ang):
   XX=            -19.0051   YY=             10.3389   ZZ=              8.6663
   XY=             -2.8419   XZ=            -10.6973   YZ=              0.5400
 Octapole moment (field-independent basis, Debye-Ang**2):
  XXX=            -37.9558  YYY=              1.9460  ZZZ=             13.6805  XYY=             19.3488
  XXY=              4.1821  XXZ=             18.7056  XZZ=             -8.0441  YZZ=             -3.7200
  YYZ=              8.1067  XYZ=             -2.1460
 Hexadecapole moment (field-independent basis, Debye-Ang**3):
 XXXX=          -3981.3928 YYYY=           -478.5038 ZZZZ=           -202.3736 XXXY=              9.4065
 XXXZ=            -53.2968 YYYX=            -28.4197 YYYZ=             -0.1538 ZZZX=            -28.3378
 ZZZY=             -0.3975 XXYY=           -585.6253 XXZZ=           -518.9202 YYZZ=           -120.3904
 XXYZ=              9.7838 YYXZ=            -21.9795 ZZXY=             -6.8781
 N-N= 8.191196297891D+02 E-N=-3.822215878116D+03  KE= 9.246218337928D+02
 Calling FoFJK, ICntrl=      2127 FMM=F ISym2X=0 I1Cent= 0 IOpClX= 0 NMat=1 NMatS=1 NMatT=0.
 ***** Axes restored to original set *****
 -------------------------------------------------------------------
 Center     Atomic                   Forces (Hartrees/Bohr)
 Number     Number              X              Y              Z
 -------------------------------------------------------------------
      1        6           0.000693245   -0.003642777   -0.000929636
      2        6           0.001210929   -0.000350117   -0.001415227
      3        1           0.000612471    0.001023252    0.001860022
      4        6           0.002025166    0.000186166    0.000253943
      5        1           0.000179799    0.000098493   -0.000026127
      6        6           0.000271936    0.000298156    0.002514873
      7        6          -0.001678462   -0.000090623   -0.000972856
      8        6          -0.001419960   -0.000276998    0.000311185
      9        1           0.000164731    0.000101990   -0.000378164
     10        6          -0.001226577   -0.000731710   -0.002162123
     11        1          -0.000989899    0.001246166    0.001277139
     12       16          -0.007820212    0.032563960    0.021601120
     13        8          -0.003981887   -0.011839180   -0.009226591
     14        8           0.008957489   -0.008563662   -0.008807109
     15        7           0.003332989   -0.013292366   -0.005875388
     16        1          -0.002227566    0.001415829    0.002571599
     17        1           0.000868633    0.001980017    0.002781649
     18        7          -0.000111809    0.000156649    0.005469738
     19        1          -0.000044010    0.000541681   -0.001499495
     20        1           0.000159412   -0.000708447   -0.001501252
     21        1           0.000507337    0.000306477   -0.002967149
     22        1           0.000516244   -0.000422957   -0.002880151
 -------------------------------------------------------------------
 Cartesian Forces:  Max     0.032563960 RMS     0.006046273

 GradGradGradGradGradGradGradGradGradGradGradGradGradGradGradGradGradGrad
 Berny optimization.
 FormGI is forming the generalized inverse of G from B-inverse, IUseBI=4.
 Internal  Forces:  Max     0.012971934 RMS     0.002750668
 Search for a local minimum.
 Step number   1 out of a maximum of  116
 All quantities printed in internal units (Hartrees-Bohrs-Radians)
 Mixed Optimization -- RFO/linear search
 Second derivative matrix not updated -- first step.
 ITU=  0
     Eigenvalues ---    0.00532   0.00719   0.00941   0.01454   0.01627
     Eigenvalues ---    0.01904   0.02098   0.02146   0.02147   0.02171
     Eigenvalues ---    0.02174   0.02191   0.02205   0.04411   0.04579
     Eigenvalues ---    0.04620   0.06378   0.09423   0.10351   0.10790
     Eigenvalues ---    0.13751   0.14372   0.15999   0.16000   0.16000
     Eigenvalues ---    0.16000   0.16000   0.16000   0.16000   0.16000
     Eigenvalues ---    0.19857   0.22000   0.22057   0.22981   0.23996
     Eigenvalues ---    0.24986   0.25000   0.25000   0.28311   0.30590
     Eigenvalues ---    0.34241   0.34241   0.35088   0.35255   0.35280
     Eigenvalues ---    0.35332   0.37373   0.42044   0.42070   0.42333
     Eigenvalues ---    0.43966   0.43996   0.44441   0.44448   0.45767
     Eigenvalues ---    0.46229   0.46817   0.47404   0.89832   0.90075
 RFO step:  Lambda=-3.88006402D-03 EMin= 5.31956122D-03
 Linear search not attempted -- first point.
 Iteration  1 RMS(Cart)=  0.02792350 RMS(Int)=  0.00066797
 Iteration  2 RMS(Cart)=  0.00088228 RMS(Int)=  0.00026566
 Iteration  3 RMS(Cart)=  0.00000069 RMS(Int)=  0.00026566
 Variable       Old X    -DE/DX   Delta X   Delta X   Delta X     New X
                                 (Linear)    (Quad)   (Total)
    R1        2.62713  -0.00194   0.00000  -0.00419  -0.00418   2.62295
    R2        2.63983  -0.00142   0.00000  -0.00318  -0.00316   2.63666
    R3        3.35164   0.00314   0.00000   0.01093   0.01093   3.36257
    R4        2.05140   0.00023   0.00000   0.00063   0.00063   2.05203
    R5        2.63673   0.00101   0.00000   0.00215   0.00215   2.63888
    R6        2.05222  -0.00015   0.00000  -0.00041  -0.00041   2.05181
    R7        2.63777  -0.00079   0.00000  -0.00156  -0.00158   2.63619
    R8        2.86802   0.00426   0.00000   0.01376   0.01376   2.88178
    R9        2.65194  -0.00056   0.00000  -0.00110  -0.00111   2.65083
   R10        2.75287  -0.00055   0.00000  -0.00144  -0.00144   2.75143
   R11        2.06925   0.00088   0.00000   0.00253   0.00253   2.07179
   R12        2.06925   0.00095   0.00000   0.00276   0.00276   2.07201
   R13        2.05533   0.00032   0.00000   0.00091   0.00091   2.05624
   R14        2.62225   0.00069   0.00000   0.00144   0.00145   2.62370
   R15        2.05263   0.00004   0.00000   0.00010   0.00010   2.05273
   R16        2.76711  -0.01297   0.00000  -0.01438  -0.01438   2.75273
   R17        2.76598  -0.01248   0.00000  -0.01379  -0.01379   2.75219
   R18        3.12567   0.00925   0.00000   0.02179   0.02179   3.14746
   R19        1.93195  -0.00306   0.00000  -0.00691  -0.00691   1.92505
   R20        1.93159  -0.00282   0.00000  -0.00636  -0.00636   1.92523
   R21        1.92630  -0.00067   0.00000  -0.00149  -0.00149   1.92481
   R22        1.92622  -0.00068   0.00000  -0.00151  -0.00151   1.92470
    A1        2.12450  -0.00148   0.00000  -0.00635  -0.00638   2.11811
    A2        2.08447  -0.00014   0.00000   0.00002  -0.00009   2.08438
    A3        2.07371   0.00164   0.00000   0.00705   0.00694   2.08065
    A4        2.10639  -0.00253   0.00000  -0.01446  -0.01450   2.09189
    A5        2.07359   0.00090   0.00000   0.00338   0.00337   2.07697
    A6        2.10316   0.00163   0.00000   0.01095   0.01090   2.11406
    A7        2.07403  -0.00025   0.00000  -0.00090  -0.00091   2.07311
    A8        2.10860   0.00075   0.00000   0.00325   0.00325   2.11185
    A9        2.10056  -0.00049   0.00000  -0.00237  -0.00238   2.09817
   A10        2.13966   0.00161   0.00000   0.00624   0.00623   2.14589
   A11        2.07693  -0.00177   0.00000  -0.00679  -0.00680   2.07014
   A12        2.06659   0.00016   0.00000   0.00053   0.00052   2.06711
   A13        2.05262   0.00443   0.00000   0.02131   0.02130   2.07392
   A14        1.88444  -0.00026   0.00000   0.00430   0.00435   1.88879
   A15        1.88461  -0.00026   0.00000   0.00431   0.00436   1.88897
   A16        1.89051  -0.00228   0.00000  -0.01377  -0.01389   1.87662
   A17        1.89071  -0.00227   0.00000  -0.01370  -0.01382   1.87689
   A18        1.85113   0.00031   0.00000  -0.00472  -0.00487   1.84626
   A19        2.08415  -0.00053   0.00000  -0.00282  -0.00285   2.08130
   A20        2.11390   0.00053   0.00000   0.00232   0.00233   2.11623
   A21        2.08513   0.00000   0.00000   0.00045   0.00042   2.08555
   A22        2.06883   0.00108   0.00000   0.00424   0.00422   2.07305
   A23        2.10809  -0.00218   0.00000  -0.01217  -0.01226   2.09583
   A24        2.10624   0.00109   0.00000   0.00779   0.00769   2.11392
   A25        1.88777  -0.00203   0.00000  -0.01440  -0.01482   1.87295
   A26        1.88960  -0.00260   0.00000  -0.01875  -0.01928   1.87033
   A27        1.90103  -0.00447   0.00000  -0.03792  -0.03866   1.86237
   A28        2.08364   0.00788   0.00000   0.07226   0.07235   2.15599
   A29        1.84540   0.00013   0.00000  -0.00408  -0.00478   1.84061
   A30        1.85012   0.00017   0.00000  -0.00556  -0.00641   1.84372
   A31        1.94609   0.00096   0.00000   0.01387   0.01356   1.95965
   A32        1.94644   0.00108   0.00000   0.01459   0.01428   1.96072
   A33        1.92574   0.00052   0.00000   0.01730   0.01679   1.94253
   A34        1.91191   0.00279   0.00000   0.02875   0.02801   1.93992
   A35        1.91211   0.00286   0.00000   0.02917   0.02843   1.94054
   A36        1.85102  -0.00010   0.00000   0.02424   0.02283   1.87385
    D1       -3.13898   0.00062   0.00000   0.02658   0.02643  -3.11255
    D2       -0.00731   0.00024   0.00000   0.01161   0.01161   0.00430
    D3        0.03731   0.00009   0.00000   0.00160   0.00159   0.03890
    D4       -3.11420  -0.00029   0.00000  -0.01337  -0.01324  -3.12744
    D5        0.00447  -0.00024   0.00000  -0.01183  -0.01185  -0.00737
    D6        3.13880  -0.00081   0.00000  -0.03408  -0.03395   3.10486
    D7        3.11158   0.00025   0.00000   0.01286   0.01281   3.12439
    D8       -0.03728  -0.00032   0.00000  -0.00939  -0.00929  -0.04657
    D9       -2.61487  -0.00329   0.00000  -0.03990  -0.03957  -2.65444
   D10       -0.33378   0.00343   0.00000   0.02838   0.02805  -0.30573
   D11        1.67054  -0.00008   0.00000  -0.00794  -0.00786   1.66268
   D12        0.56040  -0.00374   0.00000  -0.06388  -0.06361   0.49679
   D13        2.84150   0.00298   0.00000   0.00439   0.00401   2.84550
   D14       -1.43737  -0.00053   0.00000  -0.03192  -0.03190  -1.46927
   D15       -3.13272   0.00011   0.00000   0.00354   0.00355  -3.12917
   D16        0.00537  -0.00008   0.00000  -0.00377  -0.00377   0.00159
   D17       -0.00103  -0.00030   0.00000  -0.01155  -0.01162  -0.01265
   D18        3.13706  -0.00049   0.00000  -0.01886  -0.01894   3.11811
   D19       -3.14002   0.00009   0.00000   0.00452   0.00452  -3.13551
   D20       -0.00075  -0.00005   0.00000  -0.00342  -0.00344  -0.00419
   D21       -0.00198  -0.00010   0.00000  -0.00290  -0.00291  -0.00490
   D22        3.13729  -0.00024   0.00000  -0.01084  -0.01087   3.12641
   D23       -0.00265  -0.00006   0.00000  -0.00345  -0.00348  -0.00613
   D24        2.14153  -0.00012   0.00000  -0.00292  -0.00289   2.13863
   D25       -2.14723  -0.00001   0.00000  -0.00410  -0.00418  -2.15141
   D26        3.14125   0.00008   0.00000   0.00445   0.00448  -3.13746
   D27       -0.99776   0.00002   0.00000   0.00498   0.00506  -0.99270
   D28        0.99667   0.00013   0.00000   0.00380   0.00378   1.00044
   D29       -3.13806   0.00029   0.00000   0.01326   0.01330  -3.12476
   D30       -0.00216   0.00005   0.00000   0.00316   0.00318   0.00102
   D31        0.00131   0.00016   0.00000   0.00566   0.00571   0.00702
   D32        3.13721  -0.00008   0.00000  -0.00443  -0.00441   3.13280
   D33        1.01190   0.00157   0.00000   0.03348   0.03385   1.04576
   D34       -1.01176  -0.00151   0.00000  -0.02857  -0.02895  -1.04071
   D35       -1.12919   0.00059   0.00000   0.02366   0.02415  -1.10504
   D36        3.13034  -0.00250   0.00000  -0.03840  -0.03865   3.09168
   D37       -3.12980   0.00256   0.00000   0.04338   0.04363  -3.08616
   D38        1.12972  -0.00052   0.00000  -0.01868  -0.01917   1.11056
   D39        0.00035   0.00010   0.00000   0.00428   0.00430   0.00465
   D40       -3.13399   0.00068   0.00000   0.02659   0.02672  -3.10726
   D41        3.13624  -0.00015   0.00000  -0.00584  -0.00585   3.13039
   D42        0.00191   0.00043   0.00000   0.01648   0.01657   0.01848
   D43        1.09538   0.00130   0.00000   0.02311   0.02322   1.11860
   D44       -1.06607  -0.00088   0.00000  -0.02048  -0.02063  -1.08669
   D45       -0.92978   0.00574   0.00000   0.06019   0.06021  -0.86957
   D46       -3.09123   0.00355   0.00000   0.01661   0.01637  -3.07486
   D47        3.12514  -0.00382   0.00000  -0.02020  -0.01995   3.10519
   D48        0.96369  -0.00600   0.00000  -0.06379  -0.06379   0.89990
         Item               Value     Threshold  Converged?
 Maximum Force            0.012972     0.000450     NO 
 RMS     Force            0.002751     0.000300     NO 
 Maximum Displacement     0.135677     0.001800     NO 
 RMS     Displacement     0.027832     0.001200     NO 
 Predicted change in Energy=-2.017362D-03
 GradGradGradGradGradGradGradGradGradGradGradGradGradGradGradGradGradGrad

                          Input orientation:                          
 ---------------------------------------------------------------------
 Center     Atomic      Atomic             Coordinates (Angstroms)
 Number     Number       Type             X           Y           Z
 ---------------------------------------------------------------------
      1          6           0       -1.436717    0.712811   -0.974649
      2          6           0       -2.597247    0.548571   -1.718122
      3          1           0       -3.558421    0.496665   -1.215532
      4          6           0       -2.505988    0.482829   -3.110019
      5          1           0       -3.417244    0.366051   -3.688705
      6          6           0       -1.272385    0.577681   -3.754444
      7          6           0       -1.122075    0.519252   -5.270865
      8          6           0       -0.118500    0.746429   -2.974829
      9          1           0        0.847404    0.837482   -3.467508
     10          6           0       -0.188917    0.817833   -1.590055
     11          1           0        0.702059    0.980164   -0.990253
     12         16           0       -1.537498    0.776243    0.800758
     13          8           0       -0.417054    1.580145    1.270085
     14          8           0       -2.925712    1.053726    1.142747
     15          7           0       -1.238923   -0.766590    1.352681
     16          1           0       -0.294530   -1.079231    1.133347
     17          1           0       -1.935075   -1.435655    1.027636
     18          7           0       -2.314776    0.349549   -6.088534
     19          1           0       -0.623126    1.437774   -5.601519
     20          1           0       -0.434232   -0.298640   -5.516112
     21          1           0       -2.972618    1.113227   -5.941845
     22          1           0       -2.798510   -0.516741   -5.858533
 ---------------------------------------------------------------------
                    Distance matrix (angstroms):
                    1          2          3          4          5
     1  C    0.000000
     2  C    1.388004   0.000000
     3  H    2.146246   1.085886   0.000000
     4  C    2.399174   1.396434   2.167231   0.000000
     5  H    3.377695   2.142173   2.480640   1.085772   0.000000
     6  C    2.787925   2.429550   3.417397   1.395012   2.156277
     7  C    4.312068   3.846943   4.730964   2.566281   2.791863
     8  C    2.395735   2.786152   3.871765   2.405797   3.396471
     9  H    3.383356   3.874202   4.959723   3.390991   4.296323
    10  C    1.395263   2.426717   3.405433   2.791297   3.876923
    11  H    2.155477   3.406095   4.293741   3.877153   4.962603
    12  S    1.779397   2.742200   2.868401   4.039585   4.884361
    13  O    2.613582   3.840152   4.149748   4.975245   5.921550
    14  O    2.610881   2.923636   2.504420   4.311393   4.904837
    15  N    2.764817   3.606179   3.683966   4.804393   5.607453
    16  H    2.993268   4.010377   4.318989   5.033561   5.923881
    17  H    2.978828   3.451784   3.376525   4.596380   5.261829
    18  N    5.201419   4.384050   5.031346   2.987620   2.641001
    19  H    4.753464   4.446189   5.360832   3.265679   3.551695
    20  H    4.759506   4.452092   5.374761   3.269885   3.560841
    21  H    5.214629   4.277800   4.802223   2.938432   2.415078
    22  H    5.217145   4.280000   4.812683   2.939224   2.422872
                    6          7          8          9         10
     6  C    0.000000
     7  C    1.524972   0.000000
     8  C    1.402756   2.516059   0.000000
     9  H    2.154839   2.689277   1.088115   0.000000
    10  C    2.432314   3.808975   1.388400   2.144570   0.000000
    11  H    3.420698   4.675847   2.160206   2.485614   1.086256
    12  S    4.567229   6.091242   4.033547   4.889745   2.745248
    13  O    5.194460   6.663826   4.336302   4.959354   2.968765
    14  O    5.190625   6.683801   4.992925   5.961344   3.874777
    15  N    5.281185   6.748215   4.719313   5.491816   3.503228
    16  H    5.252814   6.652361   4.499014   5.113284   3.320681
    17  H    5.230772   6.644828   4.907256   5.754622   3.870347
    18  N    2.566437   1.455993   3.830966   4.136089   4.997487
    19  H    2.138453   1.096342   2.762627   2.660227   4.082243
    20  H    2.138671   1.096458   2.765859   2.670233   4.089085
    21  H    2.821759   2.056096   4.133245   4.559709   5.174391
    22  H    2.820286   2.056471   4.134466   4.565480   5.177931
                   11         12         13         14         15
    11  H    0.000000
    12  S    2.874877   0.000000
    13  O    2.592589   1.456681   0.000000
    14  O    4.209017   1.456397   2.566456   0.000000
    15  N    3.508261   1.665563   2.487861   2.490557   0.000000
    16  H    3.121533   2.257957   2.665707   3.387139   1.018691
    17  H    4.106401   2.258769   3.384999   2.681721   1.018789
    18  N    5.957469   6.946119   7.698375   7.291127   7.600980
    19  H    4.819678   6.500988   6.876167   7.136842   7.321156
    20  H    4.838378   6.501955   7.041492   7.237180   6.931582
    21  H    6.167595   6.901871   7.665563   7.084997   7.729781
    22  H    6.180199   6.899864   7.802914   7.176383   7.382164
                   16         17         18         19         20
    16  H    0.000000
    17  H    1.682142   0.000000
    18  N    7.634026   7.346496   0.000000
    19  H    7.197340   7.343262   2.069564   0.000000
    20  H    6.696577   6.809257   2.069845   1.748746   0.000000
    21  H    7.876380   7.493128   1.018566   2.396094   2.935646
    22  H    7.447999   7.000661   1.018508   2.935725   2.398881
                   21         22
    21  H    0.000000
    22  H    1.641356   0.000000
 Stoichiometry    C7H10N2O2S
 Framework group  C1[X(C7H10N2O2S)]
 Deg. of freedom    60
 Full point group                 C1      NOp   1
 Largest Abelian subgroup         C1      NOp   1
 Largest concise Abelian subgroup C1      NOp   1
                         Standard orientation:                         
 ---------------------------------------------------------------------
 Center     Atomic      Atomic             Coordinates (Angstroms)
 Number     Number       Type             X           Y           Z
 ---------------------------------------------------------------------
      1          6           0       -0.534519    0.049263   -0.094107
      2          6           0        0.248496   -1.096715   -0.080798
      3          1           0       -0.222471   -2.073853   -0.131198
      4          6           0        1.638026   -0.966749   -0.032412
      5          1           0        2.247477   -1.865341   -0.033960
      6          6           0        2.241200    0.290588    0.004248
      7          6           0        3.753142    0.484225    0.049785
      8          6           0        1.422172    1.429272   -0.013596
      9          1           0        1.882166    2.415299   -0.001323
     10          6           0        0.038975    1.320890   -0.065319
     11          1           0       -0.592016    2.203908   -0.110948
     12         16           0       -2.306915   -0.103368   -0.133726
     13          8           0       -2.829808    1.086074   -0.792308
     14          8           0       -2.611826   -1.460904   -0.564092
     15          7           0       -2.831398   -0.004091    1.443982
     16          1           0       -2.634359    0.904652    1.860027
     17          1           0       -2.469102   -0.761604    2.020911
     18          7           0        4.611429   -0.691819    0.063306
     19          1           0        4.046326    1.096962   -0.810774
     20          1           0        3.995987    1.080708    0.937171
     21          1           0        4.467408   -1.261466   -0.768702
     22          1           0        4.417116   -1.280013    0.871779
 ---------------------------------------------------------------------
 Rotational constants (GHZ):           2.3364856           0.4022308           0.3712025
 Basis read from rwf:  (6D, 7F)
 There are   252 symmetry adapted cartesian basis functions of A   symmetry.
 There are   252 symmetry adapted basis functions of A   symmetry.
   252 basis functions,   448 primitive gaussians,   252 cartesian basis functions
    49 alpha electrons       49 beta electrons
       nuclear repulsion energy       818.8059143323 Hartrees.
 NAtoms=   22 NActive=   22 NUniq=   22 SFac= 1.00D+00 NAtFMM=   60 NAOKFM=F Big=F
 Integral buffers will be    131072 words long.
 Raffenetti 2 integral format.
 Two-electron integral symmetry is turned on.
 One-electron integrals computed using PRISM.
 NBasis=   252 RedAO= T EigKep=  1.58D-06  NBF=   252
 NBsUse=   252 1.00D-06 EigRej= -1.00D+00 NBFU=   252
 Initial guess from the checkpoint file:  "/jobfs/48733082.gadi-pbs/Gau-1323849.chk"
 B after Tr=    -0.000000   -0.000000   -0.000000
         Rot=    0.999984   -0.005669   -0.000281   -0.000409 Ang=  -0.65 deg.
 ExpMin= 4.05D-02 ExpMax= 2.19D+04 ExpMxC= 3.30D+03 IAcc=3 IRadAn=         5 AccDes= 0.00D+00
 Harris functional with IExCor= 1009 and IRadAn=       5 diagonalized for initial guess.
 HarFok:  IExCor= 1009 AccDes= 0.00D+00 IRadAn=         5 IDoV= 1 UseB2=F ITyADJ=14
 ICtDFT=  3500011 ScaDFX=  1.000000  1.000000  1.000000  1.000000
 FoFCou: FMM=F IPFlag=           0 FMFlag=      100000 FMFlg1=           0
         NFxFlg=           0 DoJE=T BraDBF=F KetDBF=T FulRan=T
         wScrn=  0.000000 ICntrl=       500 IOpCl=  0 I1Cent=   200000004 NGrid=           0
         NMat0=    1 NMatS0=      1 NMatT0=    0 NMatD0=    1 NMtDS0=    0 NMtDT0=    0
 Petite list used in FoFCou.
 Requested convergence on RMS density matrix=1.00D-08 within 128 cycles.
 Requested convergence on MAX density matrix=1.00D-06.
 Requested convergence on             energy=1.00D-06.
 No special actions if energy rises.
 SCF Done:  E(RM062X) =  -930.588727515     A.U. after   14 cycles
            NFock= 14  Conv=0.69D-08     -V/T= 2.0065
 Calling FoFJK, ICntrl=      2127 FMM=F ISym2X=0 I1Cent= 0 IOpClX= 0 NMat=1 NMatS=1 NMatT=0.
 ***** Axes restored to original set *****
 -------------------------------------------------------------------
 Center     Atomic                   Forces (Hartrees/Bohr)
 Number     Number              X              Y              Z
 -------------------------------------------------------------------
      1        6           0.000532148    0.000362862   -0.000882380
      2        6          -0.000195107   -0.000124963   -0.001553965
      3        1           0.000001978    0.000136459    0.000125643
      4        6           0.000087819   -0.000132900   -0.000014880
      5        1          -0.000135050   -0.000097318   -0.000693438
      6        6          -0.000308291    0.000026687   -0.000038590
      7        6          -0.001366651   -0.000286071   -0.001191189
      8        6           0.000087266   -0.000022563   -0.000184981
      9        1           0.000135616   -0.000055996    0.000034029
     10        6          -0.000032431    0.000331751   -0.001218607
     11        1          -0.000072602    0.000134820    0.000221609
     12       16          -0.000908404    0.004491252    0.001678807
     13        8          -0.004953233   -0.003149984   -0.000722834
     14        8           0.005611000   -0.000553545   -0.000030399
     15        7           0.000848360   -0.004026960   -0.000486498
     16        1          -0.000519335    0.001235967    0.000964727
     17        1          -0.000194095    0.001396863    0.001051901
     18        7          -0.000505760    0.000193811    0.004467627
     19        1           0.000069845    0.000075514    0.000137977
     20        1           0.000089436   -0.000020395    0.000100601
     21        1           0.000944973   -0.000551215   -0.000868041
     22        1           0.000782518    0.000635926   -0.000897120
 -------------------------------------------------------------------
 Cartesian Forces:  Max     0.005611000 RMS     0.001492833

 GradGradGradGradGradGradGradGradGradGradGradGradGradGradGradGradGradGrad
 Berny optimization.
 Using GEDIIS/GDIIS optimizer.
 FormGI is forming the generalized inverse of G from B-inverse, IUseBI=4.
 Internal  Forces:  Max     0.005776932 RMS     0.001046741
 Search for a local minimum.
 Step number   2 out of a maximum of  116
 All quantities printed in internal units (Hartrees-Bohrs-Radians)
 Mixed Optimization -- RFO/linear search
 Update second derivatives using D2CorX and points    1    2
 DE= -1.94D-03 DEPred=-2.02D-03 R= 9.62D-01
 TightC=F SS=  1.41D+00  RLast= 2.02D-01 DXNew= 5.0454D-01 6.0696D-01
 Trust test= 9.62D-01 RLast= 2.02D-01 DXMaxT set to 5.05D-01
 ITU=  1  0
 Use linear search instead of GDIIS.
     Eigenvalues ---    0.00532   0.00714   0.00941   0.01452   0.01627
     Eigenvalues ---    0.01904   0.02097   0.02145   0.02148   0.02167
     Eigenvalues ---    0.02178   0.02187   0.02214   0.03949   0.04275
     Eigenvalues ---    0.04305   0.06356   0.10123   0.10965   0.11149
     Eigenvalues ---    0.13855   0.14672   0.15799   0.15993   0.15997
     Eigenvalues ---    0.15999   0.15999   0.16000   0.16000   0.16313
     Eigenvalues ---    0.19385   0.21999   0.22615   0.23123   0.24048
     Eigenvalues ---    0.24984   0.24999   0.25498   0.28082   0.31208
     Eigenvalues ---    0.34232   0.34241   0.35086   0.35255   0.35295
     Eigenvalues ---    0.35331   0.37491   0.41020   0.42151   0.42443
     Eigenvalues ---    0.43790   0.43984   0.44445   0.44505   0.45790
     Eigenvalues ---    0.46210   0.46966   0.47410   0.84316   0.89961
 RFO step:  Lambda=-3.79405081D-04 EMin= 5.31953405D-03
 Quartic linear search produced a step of  0.00199.
 Iteration  1 RMS(Cart)=  0.01803468 RMS(Int)=  0.00012095
 Iteration  2 RMS(Cart)=  0.00016117 RMS(Int)=  0.00002894
 Iteration  3 RMS(Cart)=  0.00000001 RMS(Int)=  0.00002894
 Variable       Old X    -DE/DX   Delta X   Delta X   Delta X     New X
                                 (Linear)    (Quad)   (Total)
    R1        2.62295   0.00102  -0.00001   0.00189   0.00187   2.62482
    R2        2.63666   0.00046  -0.00001   0.00083   0.00082   2.63748
    R3        3.36257   0.00243   0.00002   0.00957   0.00959   3.37216
    R4        2.05203   0.00005   0.00000   0.00020   0.00020   2.05222
    R5        2.63888  -0.00052   0.00000  -0.00094  -0.00094   2.63794
    R6        2.05181   0.00049  -0.00000   0.00137   0.00136   2.05318
    R7        2.63619  -0.00087  -0.00000  -0.00213  -0.00214   2.63405
    R8        2.88178  -0.00174   0.00003  -0.00451  -0.00448   2.87730
    R9        2.65083  -0.00032  -0.00000  -0.00090  -0.00090   2.64993
   R10        2.75143  -0.00254  -0.00000  -0.00694  -0.00694   2.74449
   R11        2.07179   0.00005   0.00001   0.00037   0.00037   2.07216
   R12        2.07201   0.00005   0.00001   0.00038   0.00039   2.07239
   R13        2.05624   0.00010   0.00000   0.00037   0.00037   2.05661
   R14        2.62370  -0.00033   0.00000  -0.00056  -0.00056   2.62314
   R15        2.05273   0.00008   0.00000   0.00024   0.00024   2.05297
   R16        2.75273  -0.00578  -0.00003  -0.00771  -0.00774   2.74499
   R17        2.75219  -0.00546  -0.00003  -0.00729  -0.00732   2.74487
   R18        3.14746   0.00182   0.00004   0.00625   0.00629   3.15375
   R19        1.92505  -0.00106  -0.00001  -0.00303  -0.00305   1.92200
   R20        1.92523  -0.00112  -0.00001  -0.00312  -0.00313   1.92210
   R21        1.92481  -0.00115  -0.00000  -0.00271  -0.00272   1.92209
   R22        1.92470  -0.00111  -0.00000  -0.00264  -0.00264   1.92206
    A1        2.11811  -0.00052  -0.00001  -0.00224  -0.00226   2.11585
    A2        2.08438   0.00031  -0.00000   0.00104   0.00104   2.08542
    A3        2.08065   0.00020   0.00001   0.00121   0.00122   2.08187
    A4        2.09189  -0.00020  -0.00003  -0.00250  -0.00253   2.08936
    A5        2.07697   0.00014   0.00001   0.00116   0.00116   2.07813
    A6        2.11406   0.00006   0.00002   0.00139   0.00141   2.11547
    A7        2.07311   0.00067  -0.00000   0.00399   0.00399   2.07710
    A8        2.11185  -0.00030   0.00001  -0.00131  -0.00131   2.11054
    A9        2.09817  -0.00037  -0.00000  -0.00268  -0.00268   2.09549
   A10        2.14589  -0.00154   0.00001  -0.00546  -0.00545   2.14045
   A11        2.07014   0.00092  -0.00001   0.00272   0.00271   2.07284
   A12        2.06711   0.00063   0.00000   0.00273   0.00274   2.06985
   A13        2.07392  -0.00197   0.00004  -0.00768  -0.00764   2.06628
   A14        1.88879   0.00044   0.00001   0.00145   0.00145   1.89024
   A15        1.88897   0.00048   0.00001   0.00190   0.00191   1.89088
   A16        1.87662   0.00069  -0.00003   0.00190   0.00186   1.87849
   A17        1.87689   0.00069  -0.00003   0.00207   0.00204   1.87893
   A18        1.84626  -0.00017  -0.00001   0.00126   0.00124   1.84750
   A19        2.08130   0.00031  -0.00001   0.00139   0.00139   2.08269
   A20        2.11623  -0.00046   0.00000  -0.00201  -0.00201   2.11422
   A21        2.08555   0.00015   0.00000   0.00064   0.00064   2.08619
   A22        2.07305   0.00021   0.00001   0.00164   0.00164   2.07469
   A23        2.09583  -0.00033  -0.00002  -0.00310  -0.00312   2.09271
   A24        2.11392   0.00012   0.00002   0.00148   0.00150   2.11542
   A25        1.87295   0.00049  -0.00003   0.00340   0.00338   1.87633
   A26        1.87033   0.00067  -0.00004   0.00431   0.00427   1.87460
   A27        1.86237   0.00184  -0.00008   0.00683   0.00676   1.86912
   A28        2.15599  -0.00087   0.00014  -0.00317  -0.00306   2.15293
   A29        1.84061  -0.00085  -0.00001  -0.00504  -0.00507   1.83554
   A30        1.84372  -0.00089  -0.00001  -0.00501  -0.00506   1.83866
   A31        1.95965  -0.00039   0.00003   0.00228   0.00226   1.96192
   A32        1.96072  -0.00047   0.00003   0.00184   0.00183   1.96254
   A33        1.94253   0.00113   0.00003   0.01445   0.01441   1.95694
   A34        1.93992   0.00048   0.00006   0.00929   0.00924   1.94916
   A35        1.94054   0.00048   0.00006   0.00932   0.00927   1.94981
   A36        1.87385   0.00014   0.00005   0.01023   0.01009   1.88394
    D1       -3.11255   0.00009   0.00005   0.00619   0.00624  -3.10631
    D2        0.00430   0.00017   0.00002   0.00839   0.00841   0.01271
    D3        0.03890   0.00012   0.00000   0.00568   0.00568   0.04458
    D4       -3.12744   0.00020  -0.00003   0.00788   0.00785  -3.11959
    D5       -0.00737  -0.00015  -0.00002  -0.00773  -0.00775  -0.01513
    D6        3.10486  -0.00009  -0.00007  -0.00688  -0.00694   3.09792
    D7        3.12439  -0.00018   0.00003  -0.00723  -0.00720   3.11719
    D8       -0.04657  -0.00011  -0.00002  -0.00637  -0.00639  -0.05296
    D9       -2.65444  -0.00008  -0.00008  -0.02630  -0.02638  -2.68082
   D10       -0.30573  -0.00033   0.00006  -0.02465  -0.02460  -0.33033
   D11        1.66268  -0.00018  -0.00002  -0.02526  -0.02527   1.63741
   D12        0.49679  -0.00005  -0.00013  -0.02678  -0.02690   0.46989
   D13        2.84550  -0.00030   0.00001  -0.02513  -0.02512   2.82038
   D14       -1.46927  -0.00015  -0.00006  -0.02574  -0.02580  -1.49507
   D15       -3.12917  -0.00009   0.00001  -0.00385  -0.00385  -3.13302
   D16        0.00159  -0.00008  -0.00001  -0.00377  -0.00378  -0.00219
   D17       -0.01265  -0.00002  -0.00002  -0.00169  -0.00171  -0.01436
   D18        3.11811  -0.00000  -0.00004  -0.00160  -0.00164   3.11647
   D19       -3.13551  -0.00003   0.00001  -0.00090  -0.00089  -3.13640
   D20       -0.00419  -0.00003  -0.00001  -0.00133  -0.00134  -0.00553
   D21       -0.00490  -0.00001  -0.00001  -0.00077  -0.00078  -0.00568
   D22        3.12641  -0.00001  -0.00002  -0.00120  -0.00123   3.12519
   D23       -0.00613   0.00001  -0.00001   0.00091   0.00090  -0.00523
   D24        2.13863  -0.00013  -0.00001  -0.00099  -0.00100   2.13764
   D25       -2.15141   0.00014  -0.00001   0.00218   0.00217  -2.14924
   D26       -3.13746   0.00001   0.00001   0.00134   0.00135  -3.13611
   D27       -0.99270  -0.00013   0.00001  -0.00056  -0.00055  -0.99325
   D28        1.00044   0.00013   0.00001   0.00261   0.00262   1.00306
   D29       -3.12476   0.00000   0.00003   0.00088   0.00091  -3.12386
   D30        0.00102   0.00004   0.00001   0.00199   0.00200   0.00302
   D31        0.00702  -0.00001   0.00001   0.00042   0.00043   0.00745
   D32        3.13280   0.00003  -0.00001   0.00154   0.00153   3.13432
   D33        1.04576   0.00041   0.00007   0.01368   0.01380   1.05955
   D34       -1.04071  -0.00041  -0.00006  -0.01160  -0.01171  -1.05242
   D35       -1.10504   0.00066   0.00005   0.01574   0.01584  -1.08920
   D36        3.09168  -0.00016  -0.00008  -0.00954  -0.00967   3.08202
   D37       -3.08616   0.00019   0.00009   0.01238   0.01251  -3.07365
   D38        1.11056  -0.00062  -0.00004  -0.01290  -0.01299   1.09757
   D39        0.00465   0.00005   0.00001   0.00245   0.00246   0.00711
   D40       -3.10726  -0.00001   0.00005   0.00166   0.00172  -3.10554
   D41        3.13039   0.00009  -0.00001   0.00357   0.00357   3.13396
   D42        0.01848   0.00003   0.00003   0.00279   0.00282   0.02130
   D43        1.11860   0.00033   0.00005   0.00973   0.00979   1.12839
   D44       -1.08669  -0.00051  -0.00004  -0.01314  -0.01320  -1.09989
   D45       -0.86957  -0.00065   0.00012   0.00517   0.00533  -0.86424
   D46       -3.07486  -0.00148   0.00003  -0.01770  -0.01766  -3.09251
   D47        3.10519   0.00150  -0.00004   0.01534   0.01529   3.12048
   D48        0.89990   0.00066  -0.00013  -0.00753  -0.00770   0.89220
         Item               Value     Threshold  Converged?
 Maximum Force            0.005777     0.000450     NO 
 RMS     Force            0.001047     0.000300     NO 
 Maximum Displacement     0.068372     0.001800     NO 
 RMS     Displacement     0.018033     0.001200     NO 
 Predicted change in Energy=-1.915436D-04
 GradGradGradGradGradGradGradGradGradGradGradGradGradGradGradGradGradGrad

                          Input orientation:                          
 ---------------------------------------------------------------------
 Center     Atomic      Atomic             Coordinates (Angstroms)
 Number     Number       Type             X           Y           Z
 ---------------------------------------------------------------------
      1          6           0       -1.430110    0.717994   -0.979368
      2          6           0       -2.590238    0.548247   -1.724083
      3          1           0       -3.550309    0.492186   -1.219608
      4          6           0       -2.499172    0.480135   -3.115380
      5          1           0       -3.408100    0.355432   -3.697418
      6          6           0       -1.266746    0.582536   -3.758454
      7          6           0       -1.123053    0.520119   -5.272975
      8          6           0       -0.113233    0.762871   -2.981743
      9          1           0        0.851820    0.860643   -3.475233
     10          6           0       -0.184270    0.835922   -1.597384
     11          1           0        0.704183    1.008747   -0.996538
     12         16           0       -1.529662    0.772616    0.801488
     13          8           0       -0.398994    1.549714    1.278685
     14          8           0       -2.907756    1.070469    1.150721
     15          7           0       -1.258804   -0.778087    1.355709
     16          1           0       -0.318875   -1.105811    1.146949
     17          1           0       -1.971256   -1.432651    1.041838
     18          7           0       -2.321418    0.340171   -6.073458
     19          1           0       -0.633326    1.441275   -5.610671
     20          1           0       -0.432121   -0.294678   -5.520741
     21          1           0       -2.981594    1.102006   -5.938086
     22          1           0       -2.797051   -0.530283   -5.848518
 ---------------------------------------------------------------------
                    Distance matrix (angstroms):
                    1          2          3          4          5
     1  C    0.000000
     2  C    1.388996   0.000000
     3  H    2.145682   1.085990   0.000000
     4  C    2.400420   1.395937   2.167715   0.000000
     5  H    3.381078   2.144791   2.485652   1.086494   0.000000
     6  C    2.787177   2.427236   3.415928   1.393881   2.154228
     7  C    4.309118   3.840320   4.724631   2.559398   2.780458
     8  C    2.397015   2.786275   3.871936   2.406347   3.396226
     9  H    3.384803   3.874517   4.960076   3.391671   4.295524
    10  C    1.395695   2.426415   3.404568   2.790998   3.877382
    11  H    2.154074   3.405083   4.291538   3.876907   4.963108
    12  S    1.784473   2.748394   2.871669   4.045658   4.893130
    13  O    2.617969   3.849818   4.158199   4.986236   5.936550
    14  O    2.616288   2.939053   2.523043   4.326090   4.926061
    15  N    2.778522   3.607907   3.673805   4.807522   5.606998
    16  H    3.013691   4.017191   4.312349   5.043449   5.928443
    17  H    3.000564   3.457949   3.363412   4.606507   5.265197
    18  N    5.185261   4.362640   5.009306   2.966718   2.612792
    19  H    4.754678   4.442136   5.356398   3.260621   3.541040
    20  H    4.758735   4.447764   5.370476   3.264782   3.550156
    21  H    5.209938   4.268212   4.791592   2.930379   2.399974
    22  H    5.209160   4.268134   4.799964   2.929116   2.405225
                    6          7          8          9         10
     6  C    0.000000
     7  C    1.522602   0.000000
     8  C    1.402282   2.515633   0.000000
     9  H    2.155431   2.692203   1.088310   0.000000
    10  C    2.430265   3.806707   1.388104   2.144858   0.000000
    11  H    3.419708   4.676052   2.160940   2.487501   1.086385
    12  S    4.571469   6.093290   4.039703   4.895871   2.751122
    13  O    5.202038   6.671475   4.341892   4.963778   2.971090
    14  O    5.199135   6.689688   4.998123   5.964721   3.876141
    15  N    5.292072   6.755976   4.743455   5.520704   3.532761
    16  H    5.273705   6.671265   4.536558   5.157717   3.364492
    17  H    5.253581   6.664054   4.945883   5.799387   3.912190
    18  N    2.555449   1.452320   3.822756   4.134139   4.984819
    19  H    2.137606   1.096540   2.764416   2.665125   4.083452
    20  H    2.138167   1.096663   2.768865   2.677195   4.090529
    21  H    2.821586   2.057946   4.133095   4.562780   5.170834
    22  H    2.819320   2.058364   4.134432   4.569619   5.173518
                   11         12         13         14         15
    11  H    0.000000
    12  S    2.877276   0.000000
    13  O    2.585785   1.452587   0.000000
    14  O    4.202456   1.452523   2.557330   0.000000
    15  N    3.546710   1.668893   2.482712   2.485603   0.000000
    16  H    3.180021   2.261379   2.659997   3.382088   1.017079
    17  H    4.156124   2.261852   3.379734   2.674789   1.017132
    18  N    5.947805   6.933886   7.694980   7.284635   7.587633
    19  H    4.823509   6.508940   6.894193   7.143315   7.338068
    20  H    4.843400   6.504944   7.045217   7.245745   6.942813
    21  H    6.165432   6.902062   7.678024   7.089262   7.726720
    22  H    6.178104   6.893940   7.802185   7.180809   7.370787
                   16         17         18         19         20
    16  H    0.000000
    17  H    1.687672   0.000000
    18  N    7.631208   7.341182   0.000000
    19  H    7.228552   7.369218   2.067911   0.000000
    20  H    6.717802   6.836034   2.068327   1.749887   0.000000
    21  H    7.884304   7.494305   1.017128   2.395134   2.936787
    22  H    7.443733   6.998086   1.017111   2.936889   2.399134
                   21         22
    21  H    0.000000
    22  H    1.645128   0.000000
 Stoichiometry    C7H10N2O2S
 Framework group  C1[X(C7H10N2O2S)]
 Deg. of freedom    60
 Full point group                 C1      NOp   1
 Largest Abelian subgroup         C1      NOp   1
 Largest concise Abelian subgroup C1      NOp   1
                         Standard orientation:                         
 ---------------------------------------------------------------------
 Center     Atomic      Atomic             Coordinates (Angstroms)
 Number     Number       Type             X           Y           Z
[...]
 707,-0.00148297,0.00161424,0.07941656,0.61511600,0.00455513,0.00066739
 ,-0.16375944,-0.01283042,-0.00211607,-0.02196511,0.00169199,0.00065299
 ,0.00060084,-0.00276613,-0.00088355,0.00579612,0.00057463,0.00020532,0
 .00104536,0.00064817,0.00028865,-0.00118058,-0.00265175,-0.00036843,-0
 .00167393,0.00194834,-0.00026285,0.00657917,-0.00069914,0.00005851,0.0
 0126043,0.01560897,0.00172454,-0.01836928,-0.00230509,0.00015214,0.000
 79637,0.01898268,0.07948502,0.53177133,-0.00304481,-0.00713275,0.00294
 922,0.00183855,-0.00065087,-0.00333871,0.00078044,-0.00010951,0.000884
 45,-0.00014863,0.00051156,-0.00020313,0.00002360,0.00008846,-0.0003721
 9,0.00000768,-0.00009313,0.00048925,0.00050274,-0.00000114,0.00010260,
 0.00208443,0.00086585,-0.00080636,0.00006852,-0.00002276,-0.00047889,-
 0.00447218,-0.00019076,0.00021987,0.00231995,-0.00034786,-0.00107454,-
 0.41862905,-0.20629897,-0.13505428,0.42944646,-0.00956582,0.00459416,0
 .00185316,0.00147651,0.00104069,-0.00389268,0.00022295,-0.00000894,0.0
 0001739,-0.00107399,-0.00063843,0.00028927,0.00004636,-0.00014797,-0.0
 0029121,0.00035847,0.00008336,0.00013308,0.00015739,-0.00003373,0.0001
 0977,0.00031533,0.00005142,-0.00051344,0.00004716,-0.00004558,-0.00016
 822,-0.00126613,0.00059924,0.00060012,0.00047792,-0.00088983,-0.000395
 74,-0.21187136,-0.21755415,-0.08768565,0.24463603,0.22493378,-0.027426
 70,-0.01707160,-0.00405002,0.00606974,-0.00129059,-0.00514966,-0.00024
 768,-0.00051699,0.00007551,-0.00192627,0.00096004,-0.00210633,0.000008
 46,0.00014063,-0.00084089,-0.00104412,-0.00033377,-0.00000750,0.000454
 88,0.00003562,0.00063767,-0.00088607,0.00046561,-0.00002706,0.00017220
 ,-0.00002301,-0.00025982,-0.00026133,-0.00097172,-0.00141250,-0.001017
 32,-0.00049437,-0.00141050,-0.14497939,-0.09460816,-0.14864168,0.15591
 019,0.10174494,0.13414250,-0.00983188,0.00431504,-0.00372972,-0.004527
 76,-0.00107247,-0.00076633,0.00189832,0.00115493,0.00146558,0.00209557
 ,-0.00032473,0.00109689,0.00004280,0.00005259,0.00052057,0.00037540,0.
 00011746,-0.00043440,-0.00025292,0.00003667,-0.00032973,-0.00057418,-0
 .00047449,0.00021226,-0.00000854,-0.00004249,0.00057661,0.00208527,0.0
 0111010,0.00508438,0.00080466,0.00030911,-0.00076778,-0.54674277,0.111
 92983,0.11825867,-0.01368680,0.01182698,0.01165755,0.58083911,0.005366
 29,0.00865222,0.00155627,-0.00023786,0.00048235,0.00050351,0.00038134,
 -0.00070454,-0.00005087,0.00029093,-0.00003658,-0.00021445,-0.00000457
 ,-0.00004022,-0.00001846,-0.00037149,0.00001697,-0.00007541,0.00003059
 ,-0.00003824,0.00009558,0.00104180,-0.00044501,0.00045687,0.00002380,-
 0.00018810,-0.00016907,-0.00082638,0.00111896,-0.00262162,0.00002631,0
 .00000021,-0.00022989,0.11707177,-0.11393359,-0.03157898,-0.02114048,0
 .01546901,0.00189058,-0.14264519,0.10102024,0.03078030,-0.00756326,-0.
 00165145,0.00024033,-0.00091739,-0.00150841,0.00156187,-0.00009196,-0.
 00135421,0.00092983,0.00064442,0.00012841,-0.00013661,-0.00005433,-0.0
 0016965,0.00074000,-0.00008441,0.00008274,0.00063898,0.00010119,0.0005
 8051,0.00182611,0.00125378,-0.00186557,0.00004376,0.00011632,-0.000877
 53,-0.00485648,-0.00261973,-0.00542972,0.00044165,-0.00033344,0.000028
 39,0.12980070,-0.03562656,-0.12208938,-0.01505204,-0.00058780,0.018367
 24,-0.13819846,0.03621717,0.10520939,0.01105182,0.00125733,0.00072496,
 -0.00108591,-0.00042204,0.00054728,0.00021267,0.00015666,0.00044053,0.
 00020637,-0.00003154,0.00098744,-0.00004419,0.00008518,0.00011096,0.00
 100334,0.00005490,0.00009057,0.00006171,0.00007091,-0.00001710,0.00039
 264,-0.00002177,-0.00113266,0.00000675,-0.00008944,-0.00018864,-0.0011
 7407,0.00009894,-0.00118936,0.00019593,0.00011743,-0.00026801,-0.10303
 453,0.01533196,-0.01156356,0.00096617,-0.03777883,0.00473643,-0.013256
 66,0.04153648,-0.00849116,0.75336003,0.00253316,-0.00357587,0.00025413
 ,-0.00162063,-0.00082421,0.00191460,-0.00000197,-0.00076233,-0.0003306
 0,-0.00001039,0.00107129,0.00094851,0.00006450,0.00004463,0.00033523,0
 .00028291,0.00007224,0.00002430,-0.00035986,-0.00036546,-0.00034012,-0
 .00023140,0.00097687,0.00057878,-0.00010960,-0.00001560,0.00031909,0.0
 0114315,-0.00033050,0.00179659,0.00027014,-0.00070979,-0.00041343,0.01
 341596,-0.20742348,0.06210712,-0.00486788,-0.02258957,0.00746317,0.007
 00496,-0.00788322,0.00619171,0.02740334,0.56260126,-0.00331433,0.02342
 944,-0.00540485,0.00331174,0.00198365,-0.00017784,-0.00024142,0.000680
 28,-0.00035813,0.00097151,-0.00173473,-0.00094204,-0.00010733,-0.00013
 186,-0.00030894,-0.00036462,-0.00015363,0.00010694,0.00079886,0.000337
 32,0.00054274,-0.00036471,-0.00167313,-0.00084443,0.00016478,-0.000070
 03,-0.00033344,-0.00347881,0.00092414,-0.00075591,0.00014658,0.0006130
 9,-0.00036171,-0.00649749,0.02997123,-0.06942297,-0.00346869,-0.012540
 94,0.01056677,0.00490351,-0.00708922,0.01024839,0.02494388,0.05932799,
 0.13326303,0.00049837,-0.00102013,0.00023386,-0.00047977,-0.00028320,-
 0.00007927,-0.00001094,-0.00004715,0.00000412,-0.00017783,0.00012109,0
 .00020847,0.00000353,0.00002022,0.00003853,0.00025476,-0.00012266,0.00
 003684,-0.00009124,0.00001422,-0.00007113,-0.00011521,0.00011073,-0.00
 013623,-0.00002296,-0.00000583,0.00006513,0.00058835,0.00000814,0.0002
 8217,-0.00005957,-0.00014065,-0.00001594,-0.00165452,0.00426664,0.0018
 2992,-0.00070503,-0.00195107,-0.00067411,0.00287398,-0.00115094,-0.000
 36564,-0.38128163,0.11709608,0.06702281,0.39673088,-0.00172066,-0.0000
 2524,-0.00022677,0.00015202,0.00036585,0.00002366,-0.00001855,-0.00008
 418,-0.00006243,0.00005763,-0.00009450,-0.00028522,-0.00000962,-0.0000
 1581,-0.00002875,-0.00021206,-0.00011563,-0.00005111,0.00003450,0.0000
 5261,0.00008482,-0.00019731,-0.00011036,0.00015885,0.00002253,0.000023
 32,0.00001419,0.00023577,0.00023198,0.00038558,-0.00019768,-0.00018921
 ,0.00018685,0.03241451,-0.00561344,-0.00984127,-0.00425959,0.00213142,
 0.00066668,0.00386906,-0.00714235,0.00227472,0.12423904,-0.11350212,-0
 .02639748,-0.13059164,0.11132921,0.00136334,-0.00029687,-0.00014885,-0
 .00039733,-0.00016833,-0.00021511,0.00000683,-0.00003657,0.00011531,-0
 .00014594,0.00005884,0.00034118,0.00001130,0.00002415,0.00001938,0.000
 29508,0.00011588,-0.00001243,-0.00009770,-0.00001707,-0.00015531,0.000
 23035,-0.00010162,-0.00036105,-0.00001429,-0.00000547,-0.00001954,-0.0
 0000481,-0.00007954,-0.00031386,0.00020355,0.00031603,0.00006637,-0.01
 141275,0.01280367,-0.00253899,-0.00119214,-0.00153745,-0.00222500,-0.0
 0169338,0.00229688,0.00311790,0.10211470,-0.04536604,-0.02711474,-0.07
 719968,0.02713940,0.03109173,-0.00024859,0.00092901,-0.00017171,0.0006
 4571,0.00011221,-0.00024134,-0.00013414,0.00013553,-0.00005765,-0.0001
 0516,-0.00011731,0.00007635,-0.00001110,-0.00000006,-0.00006371,0.0000
 6227,0.00022545,-0.00001097,0.00009587,-0.00004060,0.00006231,-0.00011
 527,-0.00015670,-0.00012308,0.00000958,-0.00001550,-0.00003188,-0.0004
 6689,0.00009767,0.00002166,-0.00003200,0.00005865,-0.00000343,0.007678
 64,-0.00132286,0.00238400,0.00270013,0.00396764,-0.00036821,-0.0024357
 9,0.00060858,0.00041807,-0.26754510,-0.16221612,-0.08398791,-0.0163772
 8,-0.02379208,-0.01212460,0.27634050,0.00156111,0.00088641,-0.00014551
 ,-0.00007770,0.00022789,0.00031441,0.00016760,-0.00008447,0.00017714,0
 .00016896,-0.00012374,0.00018173,-0.00003522,0.00001288,-0.00000073,0.
 00022012,-0.00002329,-0.00001344,0.00011868,0.00004785,0.00009226,-0.0
 0005037,-0.00013439,-0.00033077,0.00002069,-0.00001470,-0.00004423,-0.
 00038935,0.00033229,-0.00000630,0.00003672,-0.00005870,-0.00005048,-0.
 02669219,-0.01603562,-0.01298288,-0.00093484,-0.00702745,0.00205758,0.
 00274824,0.00362310,0.00120999,-0.17200279,-0.20684403,-0.06743128,0.0
 1366257,0.01277047,0.00483853,0.18154250,0.21245057,-0.00110489,-0.000
 63493,-0.00026355,0.00005269,-0.00009529,-0.00039528,-0.00026345,0.000
 23321,0.00005669,-0.00018300,-0.00013462,-0.00032818,0.00001736,-0.000
 00110,-0.00003037,-0.00021005,0.00010672,-0.00006817,-0.00011963,-0.00
 003820,-0.00012435,0.00010233,0.00006033,0.00028392,-0.00001806,0.0000
 1667,0.00002083,0.00037595,-0.00004471,-0.00011973,-0.00001482,-0.0000
 3321,0.00011619,0.00759167,0.01544793,-0.00153623,0.00087417,0.0030945
 3,0.00326213,0.00160231,-0.00089987,-0.00196674,-0.11179769,-0.0954588
 9,-0.04762379,0.00869946,0.00607700,-0.00181056,0.09432779,0.07229200,
 0.05037534,0.00091361,0.00006170,0.00014592,0.00151299,0.00017853,-0.0
 0040880,-0.00001795,-0.00001435,-0.00022739,-0.00405686,-0.00042651,0.
 00309125,0.00250500,0.00044681,0.00110271,-0.00149431,-0.00104972,-0.0
 1011779,-0.20274141,-0.01836285,-0.10649149,0.00089213,-0.00024368,-0.
 00144669,0.00027907,0.00012285,0.00061772,-0.00085552,-0.00002654,0.00
 118432,0.00002572,0.00003575,-0.00013763,-0.00009783,0.00001477,0.0005
 4952,0.00008542,0.00000990,-0.00008401,0.00022523,-0.00002016,-0.00016
 973,0.00001151,0.00008781,-0.00018403,0.00000229,-0.00001939,0.0000475
 1,-0.00004132,-0.00003066,0.00004013,0.60701075,0.00006460,0.00031965,
 -0.00007695,0.00014035,-0.00021525,-0.00004294,-0.00000182,-0.00000990
 ,-0.00002738,-0.00061560,0.00098314,0.00037190,0.00028810,-0.00075596,
 0.00013275,-0.00236028,0.00211617,-0.00271216,-0.01538473,-0.10966166,
 -0.01370169,0.00001742,0.00200518,-0.00064523,0.00007125,-0.00032888,0
 .00011042,-0.00025435,0.00005550,0.00009987,0.00005002,-0.00023365,-0.
 00003368,0.00001721,-0.00033093,0.00025415,-0.00002036,0.00004783,-0.0
 0009939,0.00005035,0.00003934,-0.00009767,0.00000133,0.00008773,-0.000
 03410,0.00000888,-0.00001905,0.00001029,-0.00001659,-0.00001132,0.0000
 0341,-0.01159165,0.71517044,-0.00035898,-0.00013424,-0.00126484,-0.001
 48348,0.00000094,0.00047370,0.00003119,0.00001586,-0.00002177,0.000238
 80,-0.00007518,0.00015072,-0.00214512,-0.00023024,-0.00044748,-0.03559
 416,-0.00610411,-0.02399553,-0.05596686,-0.00725350,-0.10727806,0.0042
 2987,0.00021982,-0.00668652,-0.00055001,-0.00004959,0.00023023,-0.0026
 8311,-0.00041191,-0.00102410,0.00009581,0.00001962,-0.00065517,-0.0003
 5162,-0.00023386,0.00335110,-0.00036527,-0.00028365,-0.00114376,0.0006
 1762,-0.00012252,-0.00099800,-0.00003104,0.00071659,-0.00110631,0.0001
 3035,-0.00013415,0.00022904,-0.00011039,-0.00016490,0.00021019,0.05362
 252,-0.02215657,0.19260551,0.00087704,0.00004261,-0.00054452,-0.000658
 96,0.00022057,-0.00031712,0.00000367,-0.00006346,0.00008419,0.00042474
 ,0.00015745,0.00084180,-0.00000171,-0.00026427,-0.00020699,-0.00167662
 ,-0.00500088,0.00583371,-0.09092465,-0.08878591,0.03317166,0.00005971,
 0.00007741,-0.00237412,-0.00003656,-0.00057271,0.00005305,-0.00055872,
 0.00077923,0.00138252,-0.00000762,-0.00000951,0.00003686,0.00005464,-0
 .00014653,0.00042275,-0.00006760,-0.00000107,-0.00006000,0.00006259,0.
 00003546,-0.00008668,-0.00000959,0.00005036,-0.00009117,0.00001072,-0.
 00000502,0.00001022,-0.00001318,-0.00001372,0.00000966,-0.01822938,-0.
 03007048,0.00202158,0.10606451,0.00056844,-0.00001397,-0.00024740,-0.0
 0009841,-0.00030430,-0.00034938,0.00001293,0.00001550,-0.00001858,0.00
 032065,-0.00022571,-0.00002919,0.00009168,0.00013530,-0.00005980,0.001
 70118,0.00355951,-0.00104680,-0.09418291,-0.24152349,0.07136854,-0.000
 55503,0.00088709,-0.00067042,0.00027101,-0.00041395,0.00043378,-0.0000
 4264,0.00030294,0.00077121,-0.00002160,0.00002386,0.00004863,0.0000258
 7,-0.00009166,0.00010814,-0.00000033,0.00001508,-0.00000518,0.00003958
 ,0.00002161,-0.00004060,-0.00000770,0.00002074,-0.00000517,-0.00000359
 ,-0.00000137,-0.00000363,-0.00000304,-0.00000470,-0.00000198,-0.003482
 67,-0.00301811,-0.00171584,0.10588476,0.25885092,0.00028075,0.00008620
 ,-0.00061800,0.00080327,-0.00146930,-0.00030367,-0.00000081,-0.0000225
 3,-0.00027664,-0.00176646,-0.00031092,-0.00296526,0.00009649,0.0007109
 6,0.00009316,0.01442803,0.02714606,-0.01557308,0.03681713,0.07736850,-
 0.07301331,0.00142361,-0.00070698,0.00018793,-0.00087414,0.00036088,0.
 00002875,0.00007146,-0.00068305,0.00036930,-0.00004981,0.00010565,-0.0
 0002967,0.00001494,0.00014654,0.00099067,-0.00017397,-0.00009279,-0.00
 022394,0.00010155,-0.00002855,-0.00022489,-0.00002512,0.00017442,-0.00
 036023,0.00004361,-0.00002428,0.00004777,-0.00003108,-0.00004432,0.000
 05093,-0.01184972,-0.02070893,0.00368816,-0.03223573,-0.07554523,0.086
 19095,0.00100733,0.00013638,-0.00058260,-0.00061544,-0.00041236,-0.000
 37390,-0.00000500,0.00006451,0.00007188,0.00048986,0.00014584,0.000874
 55,-0.00002861,0.00019135,-0.00025006,-0.00248138,0.00433071,0.0050843
 8,-0.14781765,0.11937285,0.03752122,0.00003373,-0.00053941,-0.00242526
 ,-0.00016154,0.00065503,0.00012965,-0.00031472,-0.00079629,0.00165078,
 -0.00001415,0.00000400,0.00004857,-0.00001151,0.00022004,0.00039776,-0
 .00003805,-0.00003513,-0.00003366,0.00005757,-0.00002140,-0.00004187,-
 0.00001160,0.00003804,-0.00015871,0.00001324,-0.00000016,0.00001035,-0
 .00001661,-0.00001300,0.00002381,-0.02537557,0.02382703,-0.00148824,0.
 01002682,-0.01018659,-0.00349469,0.17025467,-0.00027810,-0.00009516,0.
 00003650,0.00005145,-0.00017946,0.00023538,-0.00001946,0.00003522,0.00
 000559,-0.00030105,-0.00030232,-0.00004356,-0.00010898,0.00009719,0.00
 000214,-0.00107398,0.00173426,0.00079887,0.12505719,-0.19689567,-0.045
 65456,0.00039981,0.00108988,-0.00007815,-0.00024427,-0.00042605,-0.000
 36382,-0.00011728,0.00005242,-0.00037445,0.00000859,0.00001102,-0.0000
 4370,0.00000382,-0.00004444,0.00012786,-0.00003948,-0.00000532,-0.0000
 4810,-0.00000673,0.00001079,-0.00002703,-0.00000381,0.00002205,-0.0000
 3603,0.00001228,-0.00000272,0.00000830,-0.00000057,-0.00000351,0.00000
 937,-0.00423991,0.00631929,0.00189102,0.01803134,-0.02104896,-0.006428
 25,-0.13507668,0.20731271,0.00034659,-0.00015031,-0.00062914,0.0004561
 1,0.00158988,-0.00049401,0.00000458,0.00001636,-0.00028638,-0.00170871
 ,-0.00035208,-0.00302184,0.00026197,-0.00067732,0.00017138,0.02137954,
 -0.02422713,-0.01294667,0.04199044,-0.05058246,-0.06037762,0.00108948,
 0.00103665,0.00004011,-0.00070546,-0.00055661,0.00014515,-0.00014394,0
 .00070188,0.00037325,-0.00001327,-0.00011510,-0.00001940,0.00002735,-0
 .00016261,0.00105396,-0.00017300,-0.00004455,-0.00025735,0.00011054,0.
 00000876,-0.00023687,-0.00001461,0.00018386,-0.00029835,0.00003815,-0.
 00003507,0.00002597,-0.00002488,-0.00004834,0.00003395,-0.01685546,0.0
 1702075,0.00145177,-0.00681972,0.00755909,0.00244426,-0.03590941,0.050
 06523,0.07328708,0.00017881,0.00001741,-0.00001752,0.00006178,-0.00001
 951,-0.00026034,0.00000559,-0.00001349,-0.00001122,0.00030624,0.000007
 53,0.00004332,0.00033679,-0.00010385,0.00019557,0.00114684,-0.00003647
 ,0.00052456,-0.02081155,0.02546707,0.00851201,-0.00017787,-0.00031074,
 -0.00008066,0.00008338,0.00011260,0.00006329,0.00000792,0.00000968,0.0
 0020212,-0.00001052,0.00002689,0.00000072,0.00004775,0.00003775,-0.000
 04440,-0.00000935,-0.00000747,0.00002111,-0.00002500,-0.00000162,0.000
 00565,-0.00000775,-0.00001528,0.00001232,-0.00000270,0.00000501,-0.000
 00488,0.00000283,0.00000038,-0.00000228,-0.22244326,0.18670452,0.01671
 376,0.00028239,-0.00009715,0.00058560,-0.00518110,-0.00216290,-0.00399
 762,0.23269477,0.00009467,-0.00005131,-0.00013698,-0.00046298,0.000032
 42,-0.00018943,0.00000634,0.00005243,0.00000695,0.00099669,-0.00009594
 ,0.00019464,-0.00044590,-0.00000068,0.00046071,-0.00065623,-0.00017517
 ,-0.00035332,-0.00544285,0.00754123,-0.00075608,-0.00001699,-0.0000963
 4,-0.00024033,-0.00005919,0.00003472,0.00001732,-0.00018847,-0.0000180
 8,-0.00002298,-0.00000295,-0.00000869,-0.00001856,-0.00001073,0.000033
 67,0.00033777,-0.00007293,-0.00006304,-0.00013538,0.00004697,-0.000038
 77,-0.00011090,-0.00000763,0.00006407,-0.00011089,0.00001402,-0.000011
 48,0.00002502,-0.00000568,-0.00001632,0.00002464,0.17357006,-0.2719928
 8,-0.03094401,-0.00017871,0.00048116,0.00040981,-0.00208585,0.00177403
 ,-0.00096543,-0.19197426,0.28612056,0.00047038,0.00005757,0.00043632,0
 .00030788,-0.00004831,-0.00042185,-0.00000523,0.00001172,-0.00000008,-
 0.00076201,-0.00064460,0.00006380,0.00078282,0.00102970,-0.00161241,-0
 .00083333,0.00198501,0.00151014,-0.01815148,0.01729242,-0.00284900,-0.
 00034661,-0.00067726,-0.00047515,0.00019542,0.00004567,0.00002458,-0.0
 0001660,-0.00000744,0.00049342,-0.00000895,0.00006381,0.00001780,0.000
 05610,0.00007807,-0.00106152,0.00016768,0.00009366,0.00036934,-0.00014
 345,0.00003348,0.00031994,0.00001401,-0.00021293,0.00034113,-0.0000445
 9,0.00003635,-0.00006745,0.00002961,0.00005005,-0.00007030,0.04643028,
 -0.06832910,-0.02118347,0.00100742,-0.00034936,0.00046197,-0.00191838,
 -0.00067630,-0.00089224,-0.02165303,0.04052653,0.02764250,0.00018828,0
 .00002175,-0.00005593,-0.00005739,-0.00003892,-0.00029793,0.00000673,0
 .00000501,-0.00001026,0.00053701,0.00016808,0.00006786,0.00015557,0.00
 020222,0.00032025,0.00091251,0.00039679,0.00038583,-0.01398037,-0.0297
 8680,0.01124290,-0.00026031,0.00025569,-0.00016588,0.00009891,-0.00008
 832,0.00007671,-0.00003705,0.00000380,0.00018320,-0.00000389,-0.000022
 43,-0.00000115,0.00005347,-0.00006137,0.00006223,-0.00002260,0.0000082
 1,-0.00002170,-0.00001821,0.00000673,-0.00002860,-0.00001790,0.0000427
 3,-0.00001673,0.00000255,-0.00000633,-0.00000575,0.00000690,-0.0000077
 3,-0.00000347,-0.13811030,-0.15092522,0.02342678,-0.00568223,-0.000234
 43,-0.00416491,0.00018971,0.00010869,0.00066132,0.01351399,0.02688258,
 -0.00557795,0.14252460,0.00002560,-0.00003472,0.00017647,0.00046910,0.
 00011213,0.00007011,-0.00001417,0.00004069,-0.00001845,-0.00094536,-0.
 00024615,-0.00017554,0.00061392,-0.00001400,-0.00055233,0.00090905,-0.
 00009170,0.00066466,-0.00172241,-0.00131600,0.00271783,-0.00008269,0.0
 0005826,0.00014053,0.00009625,0.00003052,0.00000195,0.00017775,0.00001
 238,0.00013815,0.00000715,-0.00001990,0.00002359,0.00000872,0.00010416
 ,-0.00044993,0.00008175,0.00003802,0.00017342,-0.00004577,-0.00000417,
 0.00014578,0.00001203,-0.00013471,0.00014135,-0.00001800,0.00002259,-0
 .00002438,0.00000986,0.00003078,-0.00002299,-0.13502009,-0.34056669,0.
 06715041,-0.00016694,0.00233250,-0.00044390,0.00018109,0.00054473,-0.0
 0026546,-0.01764610,-0.02356559,0.00964126,0.15306927,0.36266687,0.000
 46883,0.00013273,0.00041196,0.00024155,-0.00002823,-0.00043603,0.00000
 122,-0.00002827,0.00000039,-0.00076239,0.00047934,0.00003108,0.0009791
 9,-0.00099013,-0.00144762,-0.00036655,-0.00191396,0.00175211,-0.013265
 79,-0.02194682,-0.00081008,-0.00051661,0.00042892,-0.00056754,0.000196
 24,0.00001644,0.00002517,-0.00004706,0.00005942,0.00049684,0.00001236,
 -0.00006058,0.00002613,0.00007518,0.00003580,-0.00100624,0.00015578,0.
 00009822,0.00033485,-0.00014479,0.00003982,0.00028949,0.00000818,-0.00
 021409,0.00034469,-0.00004683,0.00003843,-0.00007175,0.00003107,0.0000
 4948,-0.00007291,0.04114086,0.11066225,-0.03658543,-0.00213936,-0.0002
 0082,-0.00096517,0.00086384,0.00059371,0.00043299,-0.00080809,-0.00801
 911,-0.00304748,-0.02607683,-0.07923254,0.04086454\\-0.00002620,-0.000
 00226,-0.00000061,0.00000818,-0.00000684,0.00003470,0.00000073,0.00000
 172,-0.00000568,-0.00001790,-0.00000021,0.00000184,0.00000732,0.000002
 26,-0.00000267,0.00001721,0.00000728,0.00003759,-0.00009420,-0.0000191
 4,-0.00010236,-0.00000248,-0.00000460,-0.00000165,-0.00000371,0.000000
 58,-0.00000819,0.00001190,0.00000055,0.00002034,-0.00000017,-0.0000033
 9,-0.00000771,0.00002610,-0.00008206,-0.00005615,0.00003668,0.00002941
 ,0.00002512,-0.00001726,0.00003103,0.00003157,-0.00003034,0.00003248,-
 0.00003731,0.00001492,0.00001790,0.00002207,0.00001621,-0.00000779,-0.
 00000827,0.00001892,0.00000279,0.00007506,0.00000426,-0.00000165,0.000
 00720,0.00000972,0.00000038,0.00000378,0.00001241,-0.00000798,-0.00001
 415,0.00000769,0.00000956,-0.00001452\\\@
 The archive entry for this job was punched.


 KNOWLEDGE IS EXPERIMENT'S DAUGHTER.
 -- LEONARDO DA VINCI, IN "PENSIERI" CA. 1492
 Job cpu time:       0 days  1 hours  2 minutes 47.4 seconds.
 Elapsed time:       0 days  0 hours  3 minutes 57.8 seconds.
 File lengths (MBytes):  RWF=    162 Int=      0 D2E=      0 Chk=      7 Scr=      1
 Normal termination of Gaussian 16 at Wed Jun 29 13:39:21 2022.
