 Entering Gaussian System, Link 0=g16
 AtFile(1): /home/561/yj5695/Basis/6-31pGd.gbs
 Initial command:
 /apps/gaussian/g16c01/g16/l1.exe "/jobfs/40919555.gadi-pbs/Gau-1135464.inp" -scrdir="/jobfs/40919555.gadi-pbs/"
 Entering Link 1 = /apps/gaussian/g16c01/g16/l1.exe PID=   1135501.
  
 Copyright (c) 1988-2019, Gaussian, Inc.  All Rights Reserved.
  
 This is part of the Gaussian(R) 16 program.  It is based on
 the Gaussian(R) 09 system (copyright 2009, Gaussian, Inc.),
 the Gaussian(R) 03 system (copyright 2003, Gaussian, Inc.),
 the Gaussian(R) 98 system (copyright 1998, Gaussian, Inc.),
 the Gaussian(R) 94 system (copyright 1995, Gaussian, Inc.),
 the Gaussian 92(TM) system (copyright 1992, Gaussian, Inc.),
 the Gaussian 90(TM) system (copyright 1990, Gaussian, Inc.),
 the Gaussian 88(TM) system (copyright 1988, Gaussian, Inc.),
 the Gaussian 86(TM) system (copyright 1986, Carnegie Mellon
 University), and the Gaussian 82(TM) system (copyright 1983,
 Carnegie Mellon University). Gaussian is a federally registered
 trademark of Gaussian, Inc.
  
 This software contains proprietary and confidential information,
 including trade secrets, belonging to Gaussian, Inc.
  
 This software is provided under written license and may be
 used, copied, transmitted, or stored only in accord with that
 written license.
  
 The following legend is applicable only to US Government
 contracts under FAR:
  
                    RESTRICTED RIGHTS LEGEND
  
 Use, reproduction and disclosure by the US Government is
 subject to restrictions as set forth in subparagraphs (a)
 and (c) of the Commercial Computer Software - Restricted
 Rights clause in FAR 52.227-19.
  
 Gaussian, Inc.
 340 Quinnipiac St., Bldg. 40, Wallingford CT 06492
  
  
 ---------------------------------------------------------------
 Warning -- This program may not be used in any manner that
 competes with the business of Gaussian, Inc. or will provide
 assistance to any competitor of Gaussian, Inc.  The licensee
 of this program is prohibited from giving any competitor of
 Gaussian, Inc. access to this program.  By using this program,
 the user acknowledges that Gaussian, Inc. is engaged in the
 business of creating and licensing software in the field of
 computational chemistry and represents and warrants to the
 licensee that it is not a competitor of Gaussian, Inc. and that
 it will not use this program in any manner prohibited above.
 ---------------------------------------------------------------
  

 Cite this work as:
 Gaussian 16, Revision C.01,
 M. J. Frisch, G. W. Trucks, H. B. Schlegel, G. E. Scuseria, 
 M. A. Robb, J. R. Cheeseman, G. Scalmani, V. Barone, 
 G. A. Petersson, H. Nakatsuji, X. Li, M. Caricato, A. V. Marenich, 
 J. Bloino, B. G. Janesko, R. Gomperts, B. Mennucci, H. P. Hratchian, 
 J. V. Ortiz, A. F. Izmaylov, J. L. Sonnenberg, D. Williams-Young, 
 F. Ding, F. Lipparini, F. Egidi, J. Goings, B. Peng, A. Petrone, 
 T. Henderson, D. Ranasinghe, V. G. Zakrzewski, J. Gao, N. Rega, 
 G. Zheng, W. Liang, M. Hada, M. Ehara, K. Toyota, R. Fukuda, 
 J. Hasegawa, M. Ishida, T. Nakajima, Y. Honda, O. Kitao, H. Nakai, 
 T. Vreven, K. Throssell, J. A. Montgomery, Jr., J. E. Peralta, 
 F. Ogliaro, M. J. Bearpark, J. J. Heyd, E. N. Brothers, K. N. Kudin, 
 V. N. Staroverov, T. A. Keith, R. Kobayashi, J. Normand, 
 K. Raghavachari, A. P. Rendell, J. C. Burant, S. S. Iyengar, 
 J. Tomasi, M. Cossi, J. M. Millam, M. Klene, C. Adamo, R. Cammi, 
 J. W. Ochterski, R. L. Martin, K. Morokuma, O. Farkas, 
 J. B. Foresman, and D. J. Fox, Gaussian, Inc., Wallingford CT, 2019.
 
 ******************************************
 Gaussian 16:  ES64L-G16RevC.01  3-Jul-2019
                22-May-2022 
 ******************************************
 %nproc=16
 Will use up to   16 processors via shared memory.
 %mem=20gb
 --------------------------------------------------
 #M062X/gen 6D INT(grid=ultrafine) OPT Freq=noraman
 --------------------------------------------------
 1/18=20,19=15,26=4,38=1/1,3;
 2/9=110,12=2,17=6,18=5,40=1/2;
 3/5=7,8=2,11=2,25=1,30=1,71=1,74=-55,75=-5/1,2,3;
 4//1;
 5/5=2,38=5/2;
 6/7=2,8=2,9=2,10=2,28=1/1;
 7//1,2,3,16;
 1/18=20,19=15,26=4/3(2);
 2/9=110/2;
 99//99;
 2/9=110/2;
 3/5=7,6=1,8=2,11=2,25=1,30=1,71=1,74=-55,75=-5,82=7/1,2,3;
 4/5=5,16=3,69=1/1;
 5/5=2,38=5/2;
 7//1,2,3,16;
 1/18=20,19=15,26=4/3(-5);
 2/9=110/2;
 6/7=2,8=2,9=2,10=2,19=2,28=1/1;
 99/9=1/99;
 ---------------
 HA.15.a3d3.freq
 ---------------
 Symbolic Z-matrix:
 Charge =  0 Multiplicity = 1
 C                    -1.14039   0.54393  -0.83508 
 C                    -2.33992   0.89574  -1.44856 
 H                    -3.25141   1.00631  -0.86935 
 C                    -2.35068   1.1015   -2.82478 
 H                    -3.28117   1.3896   -3.30471 
 C                    -1.17168   0.96334  -3.56389 
 C                    -1.12581   1.19531  -5.04765 
 C                     0.02327   0.62368  -2.92376 
 H                     0.93386   0.52105  -3.50497 
 C                     0.04644   0.40484  -1.55066 
 H                     0.96838   0.12491  -1.05088 
 S                    -1.11413   0.32391   0.93174 
 O                    -2.45047  -0.09498   1.35372 
 O                     0.04291  -0.50472   1.26741 
 N                    -0.85074   1.79269   1.63734 
 H                    -1.59953   2.4546    1.42193 
 H                     0.05833   2.18117   1.37735 
 N                    -2.24466   0.95796  -5.74147 
 O                    -0.08106   1.5878   -5.59408 
 C                    -2.29631   1.16268  -7.17973 
 H                    -3.30398   0.93211  -7.52209 
 H                    -1.58307   0.50925  -7.68993 
 H                    -2.06018   2.20113  -7.4252 
 H                    -3.05401   0.56868  -5.27379 
 

 GradGradGradGradGradGradGradGradGradGradGradGradGradGradGradGradGradGrad
 Berny optimization.
 Initialization pass.
                           ----------------------------
                           !    Initial Parameters    !
                           ! (Angstroms and Degrees)  !
 --------------------------                            --------------------------
 ! Name  Definition              Value          Derivative Info.                !
 --------------------------------------------------------------------------------
 ! R1    R(1,2)                  1.3925         estimate D2E/DX2                !
 ! R2    R(1,10)                 1.3928         estimate D2E/DX2                !
 ! R3    R(1,12)                 1.7807         estimate D2E/DX2                !
 ! R4    R(2,3)                  1.0856         estimate D2E/DX2                !
 ! R5    R(2,4)                  1.3916         estimate D2E/DX2                !
 ! R6    R(4,5)                  1.0859         estimate D2E/DX2                !
 ! R7    R(4,6)                  1.3984         estimate D2E/DX2                !
 ! R8    R(6,7)                  1.5025         estimate D2E/DX2                !
 ! R9    R(6,8)                  1.3975         estimate D2E/DX2                !
 ! R10   R(7,18)                 1.3377         estimate D2E/DX2                !
 ! R11   R(7,19)                 1.2426         estimate D2E/DX2                !
 ! R12   R(8,9)                  1.0851         estimate D2E/DX2                !
 ! R13   R(8,10)                 1.3906         estimate D2E/DX2                !
 ! R14   R(10,11)                1.0854         estimate D2E/DX2                !
 ! R15   R(12,13)                1.4626         estimate D2E/DX2                !
 ! R16   R(12,14)                1.4622         estimate D2E/DX2                !
 ! R17   R(12,15)                1.6506         estimate D2E/DX2                !
 ! R18   R(15,16)                1.0224         estimate D2E/DX2                !
 ! R19   R(15,17)                1.0222         estimate D2E/DX2                !
 ! R20   R(18,20)                1.4537         estimate D2E/DX2                !
 ! R21   R(18,24)                1.0126         estimate D2E/DX2                !
 ! R22   R(20,21)                1.0889         estimate D2E/DX2                !
 ! R23   R(20,22)                1.0936         estimate D2E/DX2                !
 ! R24   R(20,23)                1.0929         estimate D2E/DX2                !
 ! A1    A(2,1,10)             122.2027         estimate D2E/DX2                !
 ! A2    A(2,1,12)             118.7547         estimate D2E/DX2                !
 ! A3    A(10,1,12)            119.0035         estimate D2E/DX2                !
 ! A4    A(1,2,3)              120.9273         estimate D2E/DX2                !
 ! A5    A(1,2,4)              118.6676         estimate D2E/DX2                !
 ! A6    A(3,2,4)              120.4049         estimate D2E/DX2                !
 ! A7    A(2,4,5)              118.8787         estimate D2E/DX2                !
 ! A8    A(2,4,6)              120.1062         estimate D2E/DX2                !
 ! A9    A(5,4,6)              121.0026         estimate D2E/DX2                !
 ! A10   A(4,6,7)              122.1719         estimate D2E/DX2                !
 ! A11   A(4,6,8)              120.1874         estimate D2E/DX2                !
 ! A12   A(7,6,8)              117.6297         estimate D2E/DX2                !
 ! A13   A(6,7,18)             117.3393         estimate D2E/DX2                !
 ! A14   A(6,7,19)             120.5766         estimate D2E/DX2                !
 ! A15   A(18,7,19)            122.0837         estimate D2E/DX2                !
 ! A16   A(6,8,9)              119.6815         estimate D2E/DX2                !
 ! A17   A(6,8,10)             120.3164         estimate D2E/DX2                !
 ! A18   A(9,8,10)             119.9992         estimate D2E/DX2                !
 ! A19   A(1,10,8)             118.5137         estimate D2E/DX2                !
 ! A20   A(1,10,11)            120.8611         estimate D2E/DX2                !
 ! A21   A(8,10,11)            120.6237         estimate D2E/DX2                !
 ! A22   A(1,12,13)            107.9495         estimate D2E/DX2                !
 ! A23   A(1,12,14)            108.0271         estimate D2E/DX2                !
 ! A24   A(1,12,15)            108.4549         estimate D2E/DX2                !
 ! A25   A(13,12,14)           119.6327         estimate D2E/DX2                !
 ! A26   A(13,12,15)           106.0994         estimate D2E/DX2                !
 ! A27   A(14,12,15)           106.252          estimate D2E/DX2                !
 ! A28   A(12,15,16)           111.6639         estimate D2E/DX2                !
 ! A29   A(12,15,17)           111.7997         estimate D2E/DX2                !
 ! A30   A(16,15,17)           110.5914         estimate D2E/DX2                !
 ! A31   A(7,18,20)            121.1905         estimate D2E/DX2                !
 ! A32   A(7,18,24)            119.8129         estimate D2E/DX2                !
 ! A33   A(20,18,24)           118.8628         estimate D2E/DX2                !
 ! A34   A(18,20,21)           108.3085         estimate D2E/DX2                !
 ! A35   A(18,20,22)           110.7485         estimate D2E/DX2                !
 ! A36   A(18,20,23)           110.3871         estimate D2E/DX2                !
 ! A37   A(21,20,22)           109.289          estimate D2E/DX2                !
 ! A38   A(21,20,23)           109.2994         estimate D2E/DX2                !
 ! A39   A(22,20,23)           108.7863         estimate D2E/DX2                !
 ! D1    D(10,1,2,3)          -179.4982         estimate D2E/DX2                !
 ! D2    D(10,1,2,4)             0.6341         estimate D2E/DX2                !
 ! D3    D(12,1,2,3)            -1.7956         estimate D2E/DX2                !
 ! D4    D(12,1,2,4)           178.3367         estimate D2E/DX2                !
 ! D5    D(2,1,10,8)            -0.1379         estimate D2E/DX2                !
 ! D6    D(2,1,10,11)         -179.6984         estimate D2E/DX2                !
 ! D7    D(12,1,10,8)         -177.835          estimate D2E/DX2                !
 ! D8    D(12,1,10,11)           2.6045         estimate D2E/DX2                !
 ! D9    D(2,1,12,13)           28.0813         estimate D2E/DX2                !
 ! D10   D(2,1,12,14)          158.7731         estimate D2E/DX2                !
 ! D11   D(2,1,12,15)          -86.4634         estimate D2E/DX2                !
 ! D12   D(10,1,12,13)        -154.1414         estimate D2E/DX2                !
 ! D13   D(10,1,12,14)         -23.4496         estimate D2E/DX2                !
 ! D14   D(10,1,12,15)          91.3139         estimate D2E/DX2                !
 ! D15   D(1,2,4,5)           -179.1491         estimate D2E/DX2                !
 ! D16   D(1,2,4,6)             -0.4234         estimate D2E/DX2                !
 ! D17   D(3,2,4,5)              0.9825         estimate D2E/DX2                !
 ! D18   D(3,2,4,6)            179.7082         estimate D2E/DX2                !
 ! D19   D(2,4,6,7)           -179.0318         estimate D2E/DX2                !
 ! D20   D(2,4,6,8)             -0.2665         estimate D2E/DX2                !
 ! D21   D(5,4,6,7)             -0.3336         estimate D2E/DX2                !
 ! D22   D(5,4,6,8)            178.4317         estimate D2E/DX2                !
 ! D23   D(4,6,7,18)           -28.9358         estimate D2E/DX2                !
 ! D24   D(4,6,7,19)           151.3003         estimate D2E/DX2                !
 ! D25   D(8,6,7,18)           152.2688         estimate D2E/DX2                !
 ! D26   D(8,6,7,19)           -27.4952         estimate D2E/DX2                !
 ! D27   D(4,6,8,9)           -179.8479         estimate D2E/DX2                !
 ! D28   D(4,6,8,10)             0.7743         estimate D2E/DX2                !
 ! D29   D(7,6,8,9)             -1.0275         estimate D2E/DX2                !
 ! D30   D(7,6,8,10)           179.5947         estimate D2E/DX2                !
 ! D31   D(6,7,18,20)          179.6067         estimate D2E/DX2                !
 ! D32   D(6,7,18,24)           -4.6468         estimate D2E/DX2                !
 ! D33   D(19,7,18,20)          -0.6332         estimate D2E/DX2                !
 ! D34   D(19,7,18,24)         175.1134         estimate D2E/DX2                !
 ! D35   D(6,8,10,1)            -0.5694         estimate D2E/DX2                !
 ! D36   D(6,8,10,11)          178.9922         estimate D2E/DX2                !
 ! D37   D(9,8,10,1)          -179.9452         estimate D2E/DX2                !
 ! D38   D(9,8,10,11)           -0.3836         estimate D2E/DX2                !
 ! D39   D(1,12,15,16)          61.79           estimate D2E/DX2                !
 ! D40   D(1,12,15,17)         -62.7132         estimate D2E/DX2                !
 ! D41   D(13,12,15,16)        -53.9615         estimate D2E/DX2                !
 ! D42   D(13,12,15,17)       -178.4647         estimate D2E/DX2                !
 ! D43   D(14,12,15,16)        177.7095         estimate D2E/DX2                !
 ! D44   D(14,12,15,17)         53.2062         estimate D2E/DX2                !
 ! D45   D(7,18,20,21)        -178.6094         estimate D2E/DX2                !
 ! D46   D(7,18,20,22)          61.5606         estimate D2E/DX2                !
 ! D47   D(7,18,20,23)         -58.9819         estimate D2E/DX2                !
 ! D48   D(24,18,20,21)          5.6046         estimate D2E/DX2                !
 ! D49   D(24,18,20,22)       -114.2255         estimate D2E/DX2                !
 ! D50   D(24,18,20,23)        125.2321         estimate D2E/DX2                !
 --------------------------------------------------------------------------------
 Trust Radius=3.00D-01 FncErr=1.00D-07 GrdErr=1.00D-06 EigMax=2.50D+02 EigMin=1.00D-04
 Number of steps in this run=    123 maximum allowed number of steps=    144.
 GradGradGradGradGradGradGradGradGradGradGradGradGradGradGradGradGradGrad

                          Input orientation:                          
 ---------------------------------------------------------------------
 Center     Atomic      Atomic             Coordinates (Angstroms)
 Number     Number       Type             X           Y           Z
 ---------------------------------------------------------------------
      1          6           0       -1.140387    0.543933   -0.835082
      2          6           0       -2.339924    0.895736   -1.448565
      3          1           0       -3.251409    1.006314   -0.869354
      4          6           0       -2.350681    1.101500   -2.824780
      5          1           0       -3.281167    1.389595   -3.304711
      6          6           0       -1.171684    0.963344   -3.563893
      7          6           0       -1.125807    1.195311   -5.047650
      8          6           0        0.023271    0.623684   -2.923763
      9          1           0        0.933861    0.521047   -3.504965
     10          6           0        0.046445    0.404836   -1.550661
     11          1           0        0.968377    0.124909   -1.050878
     12         16           0       -1.114133    0.323913    0.931739
     13          8           0       -2.450472   -0.094976    1.353720
     14          8           0        0.042905   -0.504717    1.267406
     15          7           0       -0.850736    1.792686    1.637341
     16          1           0       -1.599531    2.454598    1.421925
     17          1           0        0.058325    2.181171    1.377351
     18          7           0       -2.244658    0.957965   -5.741472
     19          8           0       -0.081058    1.587801   -5.594078
     20          6           0       -2.296309    1.162675   -7.179727
     21          1           0       -3.303976    0.932114   -7.522090
     22          1           0       -1.583066    0.509248   -7.689928
     23          1           0       -2.060182    2.201128   -7.425199
     24          1           0       -3.054009    0.568675   -5.273789
 ---------------------------------------------------------------------
                    Distance matrix (angstroms):
                    1          2          3          4          5
     1  C    0.000000
     2  C    1.392485   0.000000
     3  H    2.161339   1.085596   0.000000
     4  C    2.394702   1.391555   2.155009   0.000000
     5  H    3.375967   2.138952   2.465513   1.085880   0.000000
     6  C    2.761032   2.417431   3.404063   1.398360   2.167668
     7  C    4.262657   3.810150   4.691702   2.539738   2.778698
     8  C    2.392289   2.799091   3.884653   2.423583   3.413364
     9  H    3.381021   3.884178   4.969750   3.404086   4.308241
    10  C    1.392828   2.438475   3.420788   2.802666   3.888373
    11  H    2.160794   3.420114   4.314675   3.888008   4.973713
    12  S    1.780661   2.737771   2.877074   4.030525   4.876394
    13  O    2.629712   2.974312   2.606990   4.347572   4.959333
    14  O    2.630646   3.875002   4.207311   5.005515   5.961722
    15  N    2.784987   3.541894   3.558810   4.757951   5.522079
    16  H    2.992580   3.349321   3.174301   4.519913   5.128667
    17  H    3.002052   3.922977   4.169210   4.962551   5.805214
    18  N    5.046137   4.294415   4.975281   2.922145   2.682995
    19  O    4.985968   4.771447   5.719464   3.613404   3.939693
    20  C    6.478697   5.737541   6.384158   4.355716   4.004646
    21  H    7.039025   6.149669   6.653357   4.796058   4.242180
    22  H    6.869212   6.298954   7.039223   4.960812   4.784212
    23  H    6.857257   6.123925   6.769469   4.738926   4.373536
    24  H    4.833703   3.905026   4.430524   2.603117   2.145409
                    6          7          8          9         10
     6  C    0.000000
     7  C    1.502481   0.000000
     8  C    1.397516   2.481539   0.000000
     9  H    2.152305   2.660215   1.085129   0.000000
    10  C    2.418444   3.771997   1.390626   2.149493   0.000000
    11  H    3.405595   4.637408   2.156317   2.486094   1.085403
    12  S    4.541244   6.042563   4.030936   4.890550   2.741495
    13  O    5.190209   6.663117   4.993270   5.953152   3.862620
    14  O    5.193446   6.643487   4.340457   4.962007   2.961216
    15  N    5.276708   6.717263   4.788958   5.589737   3.590879
    16  H    5.221617   6.607997   4.987057   5.867789   3.968252
    17  H    5.235640   6.607173   4.574558   5.230639   3.424728
    18  N    2.427581   1.337740   3.632454   3.910990   4.808118
    19  O    2.387689   1.242631   2.840948   2.555859   4.214841
    20  C    3.791934   2.432466   4.876903   4.934527   6.144038
    21  H    4.496105   3.307044   5.684215   5.853677   6.867409
    22  H    4.171282   2.767923   5.030878   4.883541   6.352701
    23  H    4.151051   2.745444   5.205001   5.211066   6.494209
    24  H    2.573452   2.040043   3.872377   4.362811   4.847819
                   11         12         13         14         15
    11  H    0.000000
    12  S    2.882224   0.000000
    13  O    4.185567   1.462648   0.000000
    14  O    2.574367   1.462203   2.528294   0.000000
    15  N    3.649269   1.650620   2.490555   2.492691   0.000000
    16  H    4.258680   2.239579   2.688695   3.388070   1.022363
    17  H    3.309487   2.241124   3.387546   2.688182   1.022207
    18  N    5.746238   6.797930   7.175848   7.516432   7.555571
    19  O    4.886925   6.726882   7.531120   7.174535   7.275149
    20  C    7.021248   8.239960   8.627003   8.922229   8.956968
    21  H    7.796227   8.754001   8.975711   9.514270   9.521246
    22  H    7.122820   8.636398   9.105221   9.160007   9.443593
    23  H    7.356278   8.617271   9.082613   9.343766   9.152006
    24  H    5.848889   6.506274   6.687942   7.316439   7.356380
                   16         17         18         19         20
    16  H    0.000000
    17  H    1.680844   0.000000
    18  N    7.346452   7.581399   0.000000
    19  O    7.230588   6.998024   2.258226   0.000000
    20  C    8.725995   8.933377   1.453668   2.757236   0.000000
    21  H    9.231386   9.595064   2.072058   3.812395   1.088928
    22  H    9.317216   9.365097   2.106070   2.794976   1.093612
    23  H    8.862734   9.053915   2.101053   2.765159   1.092884
    24  H    7.106673   7.518274   1.012583   3.159057   2.135309
                   21         22         23         24
    21  H    0.000000
    22  H    1.780033   0.000000
    23  H    1.779552   1.777689   0.000000
    24  H    2.291163   2.829299   2.877701   0.000000
 Stoichiometry    C8H10N2O3S
 Framework group  C1[X(C8H10N2O3S)]
 Deg. of freedom    66
 Full point group                 C1      NOp   1
 Largest Abelian subgroup         C1      NOp   1
 Largest concise Abelian subgroup C1      NOp   1
                         Standard orientation:                         
 ---------------------------------------------------------------------
 Center     Atomic      Atomic             Coordinates (Angstroms)
 Number     Number       Type             X           Y           Z
 ---------------------------------------------------------------------
      1          6           0        1.182292    0.005599   -0.095807
      2          6           0        0.448800   -1.152020    0.151021
      3          1           0        0.944694   -2.107567    0.290795
      4          6           0       -0.938507   -1.062788    0.212990
      5          1           0       -1.513099   -1.960829    0.419147
      6          6           0       -1.570448    0.172311    0.038084
      7          6           0       -3.063017    0.325551    0.116851
      8          6           0       -0.812148    1.323022   -0.194071
      9          1           0       -1.310919    2.277631   -0.326184
     10          6           0        0.574364    1.246732   -0.268958
     11          1           0        1.167155    2.134527   -0.465226
     12         16           0        2.959607   -0.097664   -0.131069
     13          8           0        3.324290   -1.451405   -0.547877
     14          8           0        3.464787    1.050770   -0.882022
     15          7           0        3.523679    0.074159    1.410633
     16          1           0        3.185285   -0.672357    2.021722
     17          1           0        3.291517    0.990395    1.799890
     18          7           0       -3.808092   -0.730734   -0.227640
     19          8           0       -3.569713    1.398812    0.484954
     20          6           0       -5.259812   -0.677498   -0.174477
     21          1           0       -5.648905   -1.649973   -0.472239
     22          1           0       -5.644521    0.088790   -0.853292
     23          1           0       -5.595518   -0.449425    0.840255
     24          1           0       -3.362562   -1.563426   -0.592948
 ---------------------------------------------------------------------
 Rotational constants (GHZ):           1.9870083           0.2602106           0.2440212
 General basis read from cards:  (6D, 7F)
 There are   290 symmetry adapted cartesian basis functions of A   symmetry.
 There are   290 symmetry adapted basis functions of A   symmetry.
   290 basis functions,   512 primitive gaussians,   290 cartesian basis functions
    56 alpha electrons       56 beta electrons
       nuclear repulsion energy      1002.1201392431 Hartrees.
 NAtoms=   24 NActive=   24 NUniq=   24 SFac= 1.00D+00 NAtFMM=   60 NAOKFM=F Big=F
 Integral buffers will be    131072 words long.
 Raffenetti 2 integral format.
 Two-electron integral symmetry is turned on.
 One-electron integrals computed using PRISM.
 NBasis=   290 RedAO= T EigKep=  1.36D-06  NBF=   290
 NBsUse=   290 1.00D-06 EigRej= -1.00D+00 NBFU=   290
 ExpMin= 4.05D-02 ExpMax= 2.19D+04 ExpMxC= 3.30D+03 IAcc=3 IRadAn=         5 AccDes= 0.00D+00
 Harris functional with IExCor= 1009 and IRadAn=       5 diagonalized for initial guess.
 HarFok:  IExCor= 1009 AccDes= 0.00D+00 IRadAn=         5 IDoV= 1 UseB2=F ITyADJ=14
 ICtDFT=  3500011 ScaDFX=  1.000000  1.000000  1.000000  1.000000
 FoFCou: FMM=F IPFlag=           0 FMFlag=      100000 FMFlg1=           0
         NFxFlg=           0 DoJE=T BraDBF=F KetDBF=T FulRan=T
         wScrn=  0.000000 ICntrl=       500 IOpCl=  0 I1Cent=   200000004 NGrid=           0
         NMat0=    1 NMatS0=      1 NMatT0=    0 NMatD0=    1 NMtDS0=    0 NMtDT0=    0
 Petite list used in FoFCou.
 Requested convergence on RMS density matrix=1.00D-08 within 128 cycles.
 Requested convergence on MAX density matrix=1.00D-06.
 Requested convergence on             energy=1.00D-06.
 No special actions if energy rises.
 SCF Done:  E(RM062X) =  -1043.90192271     A.U. after   16 cycles
            NFock= 16  Conv=0.91D-08     -V/T= 2.0067

 **********************************************************************

            Population analysis using the SCF Density.

 **********************************************************************

 Orbital symmetries:
       Occupied  (A) (A) (A) (A) (A) (A) (A) (A) (A) (A) (A) (A)
                 (A) (A) (A) (A) (A) (A) (A) (A) (A) (A) (A) (A)
                 (A) (A) (A) (A) (A) (A) (A) (A) (A) (A) (A) (A)
                 (A) (A) (A) (A) (A) (A) (A) (A) (A) (A) (A) (A)
                 (A) (A) (A) (A) (A) (A) (A) (A)
       Virtual   (A) (A) (A) (A) (A) (A) (A) (A) (A) (A) (A) (A)
                 (A) (A) (A) (A) (A) (A) (A) (A) (A) (A) (A) (A)
                 (A) (A) (A) (A) (A) (A) (A) (A) (A) (A) (A) (A)
                 (A) (A) (A) (A) (A) (A) (A) (A) (A) (A) (A) (A)
                 (A) (A) (A) (A) (A) (A) (A) (A) (A) (A) (A) (A)
                 (A) (A) (A) (A) (A) (A) (A) (A) (A) (A) (A) (A)
                 (A) (A) (A) (A) (A) (A) (A) (A) (A) (A) (A) (A)
                 (A) (A) (A) (A) (A) (A) (A) (A) (A) (A) (A) (A)
                 (A) (A) (A) (A) (A) (A) (A) (A) (A) (A) (A) (A)
                 (A) (A) (A) (A) (A) (A) (A) (A) (A) (A) (A) (A)
                 (A) (A) (A) (A) (A) (A) (A) (A) (A) (A) (A) (A)
                 (A) (A) (A) (A) (A) (A) (A) (A) (A) (A) (A) (A)
                 (A) (A) (A) (A) (A) (A) (A) (A) (A) (A) (A) (A)
                 (A) (A) (A) (A) (A) (A) (A) (A) (A) (A) (A) (A)
                 (A) (A) (A) (A) (A) (A) (A) (A) (A) (A) (A) (A)
                 (A) (A) (A) (A) (A) (A) (A) (A) (A) (A) (A) (A)
                 (A) (A) (A) (A) (A) (A) (A) (A) (A) (A) (A) (A)
                 (A) (A) (A) (A) (A) (A) (A) (A) (A) (A) (A) (A)
                 (A) (A) (A) (A) (A) (A) (A) (A) (A) (A) (A) (A)
                 (A) (A) (A) (A) (A) (A)
 The electronic state is 1-A.
 Alpha  occ. eigenvalues --  -90.17441 -19.64753 -19.64739 -19.62637 -14.81701
 Alpha  occ. eigenvalues --  -14.81557 -10.67378 -10.61441 -10.60087 -10.59998
 Alpha  occ. eigenvalues --  -10.59873 -10.59720 -10.59616 -10.58944  -8.48421
 Alpha  occ. eigenvalues --   -6.40639  -6.40574  -6.40500  -1.24896  -1.17055
 Alpha  occ. eigenvalues --   -1.13084  -1.05480  -1.04220  -1.00654  -0.90841
 Alpha  occ. eigenvalues --   -0.88644  -0.83094  -0.77885  -0.73277  -0.71660
 Alpha  occ. eigenvalues --   -0.69016  -0.65935  -0.63561  -0.62872  -0.58283
 Alpha  occ. eigenvalues --   -0.57673  -0.55768  -0.55155  -0.53979  -0.52883
 Alpha  occ. eigenvalues --   -0.52468  -0.52050  -0.49149  -0.48033  -0.47192
 Alpha  occ. eigenvalues --   -0.46028  -0.44313  -0.42232  -0.40838  -0.40318
 Alpha  occ. eigenvalues --   -0.38372  -0.38241  -0.35218  -0.34736  -0.33650
 Alpha  occ. eigenvalues --   -0.33586
 Alpha virt. eigenvalues --   -0.04530  -0.01777  -0.00859   0.00165   0.02278
 Alpha virt. eigenvalues --    0.02819   0.03484   0.03675   0.04525   0.05230
 Alpha virt. eigenvalues --    0.05537   0.06182   0.06499   0.07225   0.07531
 Alpha virt. eigenvalues --    0.08053   0.08863   0.09254   0.09566   0.09674
 Alpha virt. eigenvalues --    0.11134   0.11369   0.11879   0.12094   0.12462
 Alpha virt. eigenvalues --    0.13774   0.13998   0.14485   0.14655   0.15384
 Alpha virt. eigenvalues --    0.16161   0.16695   0.17600   0.17999   0.18504
 Alpha virt. eigenvalues --    0.19018   0.19554   0.19921   0.20303   0.20714
 Alpha virt. eigenvalues --    0.21196   0.22161   0.22558   0.23364   0.23452
 Alpha virt. eigenvalues --    0.24033   0.24207   0.24320   0.25053   0.25275
 Alpha virt. eigenvalues --    0.26067   0.26347   0.26852   0.27531   0.28002
 Alpha virt. eigenvalues --    0.28878   0.29294   0.29460   0.30159   0.30928
 Alpha virt. eigenvalues --    0.31192   0.32091   0.32557   0.33243   0.33437
 Alpha virt. eigenvalues --    0.33847   0.34191   0.35656   0.36295   0.36676
 Alpha virt. eigenvalues --    0.37553   0.38388   0.39432   0.39953   0.40768
 Alpha virt. eigenvalues --    0.41682   0.43079   0.45200   0.47216   0.48340
 Alpha virt. eigenvalues --    0.49260   0.53073   0.56422   0.57077   0.57760
 Alpha virt. eigenvalues --    0.64646   0.65802   0.68065   0.68693   0.69449
 Alpha virt. eigenvalues --    0.71074   0.71609   0.72519   0.74314   0.75793
 Alpha virt. eigenvalues --    0.77242   0.77518   0.79380   0.80038   0.81489
 Alpha virt. eigenvalues --    0.82314   0.84227   0.85505   0.86928   0.89096
 Alpha virt. eigenvalues --    0.90404   0.92290   0.93223   0.94848   0.95785
 Alpha virt. eigenvalues --    0.98329   0.98974   1.00064   1.00541   1.02040
 Alpha virt. eigenvalues --    1.02665   1.02984   1.05423   1.06163   1.08227
 Alpha virt. eigenvalues --    1.08439   1.09547   1.10528   1.11168   1.11905
 Alpha virt. eigenvalues --    1.12650   1.15132   1.16022   1.16507   1.17469
 Alpha virt. eigenvalues --    1.19100   1.22933   1.23863   1.24994   1.29169
 Alpha virt. eigenvalues --    1.30869   1.33251   1.33992   1.35965   1.37521
 Alpha virt. eigenvalues --    1.37938   1.38174   1.40479   1.40784   1.41933
 Alpha virt. eigenvalues --    1.42120   1.42779   1.43252   1.45225   1.45482
 Alpha virt. eigenvalues --    1.49080   1.50027   1.50833   1.52835   1.54274
 Alpha virt. eigenvalues --    1.54593   1.56142   1.60197   1.61056   1.69941
 Alpha virt. eigenvalues --    1.71913   1.75694   1.79358   1.80339   1.81512
 Alpha virt. eigenvalues --    1.83335   1.84946   1.87407   1.87577   1.89642
 Alpha virt. eigenvalues --    1.91322   1.92242   1.93058   1.95330   1.98802
 Alpha virt. eigenvalues --    1.99162   2.01942   2.02633   2.03252   2.06961
 Alpha virt. eigenvalues --    2.07721   2.11612   2.11963   2.12454   2.15289
 Alpha virt. eigenvalues --    2.15863   2.16285   2.17502   2.18611   2.19313
 Alpha virt. eigenvalues --    2.23808   2.24615   2.28220   2.30184   2.30435
 Alpha virt. eigenvalues --    2.34472   2.35977   2.39489   2.41466   2.44255
 Alpha virt. eigenvalues --    2.47838   2.49164   2.55330   2.57242   2.62839
 Alpha virt. eigenvalues --    2.64270   2.67989   2.70963   2.72951   2.74329
 Alpha virt. eigenvalues --    2.78291   2.80071   2.89034   2.91093   2.92165
 Alpha virt. eigenvalues --    2.96254   3.10573   3.15105   3.25597   3.39309
 Alpha virt. eigenvalues --    3.87687   4.07732   4.11398   4.23953   4.24535
 Alpha virt. eigenvalues --    4.28551   4.29176   4.32133   4.34758   4.38028
 Alpha virt. eigenvalues --    4.39451   4.46219   4.61339   4.74078
          Condensed to atoms (all electrons):
               1          2          3          4          5          6
     1  C   22.958335  -1.890810   0.143988  -2.839909   0.009892  -2.942345
     2  C   -1.890810  33.570110   0.096207 -11.788043   0.088441  -1.094070
     3  H    0.143988   0.096207   0.441092   0.023722  -0.003710  -0.032420
     4  C   -2.839909 -11.788043   0.023722  24.344436   0.135472   0.160276
     5  H    0.009892   0.088441  -0.003710   0.135472   0.495218   0.042988
     6  C   -2.942345  -1.094070  -0.032420   0.160276   0.042988  25.812073
     7  C   -2.970656  -0.303410   0.002754   0.225840  -0.007279 -13.996706
     8  C   -2.074990   1.979783  -0.039032  -5.848890   0.063003  -2.079596
     9  H    0.011859  -0.056455   0.000013   0.090632  -0.000117   0.063226
    10  C   -2.534220 -14.543449   0.108999   2.043303  -0.049912   2.271190
    11  H    0.099463   0.100078  -0.000115  -0.043942   0.000014  -0.010233
    12  S    0.013066  -0.057085   0.000955  -0.528831   0.001717  -0.621029
    13  O    0.034830  -0.265664  -0.001182  -0.098785   0.000206  -0.032499
    14  O    0.022138   0.057790   0.001316   0.179002   0.000022  -0.054972
    15  N   -0.634370   0.171831   0.000972   0.314226  -0.000031   0.175442
    16  H    0.052435  -0.129098  -0.000069  -0.026235   0.000001  -0.009135
    17  H    0.047691   0.070112   0.000021  -0.001735   0.000000  -0.009503
    18  N   -0.067854   0.000072   0.000253   0.121817   0.005323  -1.382335
    19  O   -0.014883   0.032029   0.000008  -0.079918  -0.000628  -0.099056
    20  C   -0.039678  -0.028943   0.000052  -0.063951   0.005338  -0.573669
    21  H    0.000244   0.000405  -0.000000  -0.002717   0.000022   0.029369
    22  H   -0.000081   0.002500   0.000000   0.029547  -0.000002  -0.052322
    23  H   -0.000407  -0.004565  -0.000000  -0.033558  -0.000006   0.023758
    24  H   -0.002070   0.012845  -0.000002   0.015175   0.003426  -0.022328
               7          8          9         10         11         12
     1  C   -2.970656  -2.074990   0.011859  -2.534220   0.099463   0.013066
     2  C   -0.303410   1.979783  -0.056455 -14.543449   0.100078  -0.057085
     3  H    0.002754  -0.039032   0.000013   0.108999  -0.000115   0.000955
     4  C    0.225840  -5.848890   0.090632   2.043303  -0.043942  -0.528831
     5  H   -0.007279   0.063003  -0.000117  -0.049912   0.000014   0.001717
     6  C  -13.996706  -2.079596   0.063226   2.271190  -0.010233  -0.621029
     7  C   21.134790   2.534989  -0.007895  -2.273004   0.001959  -0.734673
     8  C    2.534989  23.649976   0.247530 -11.794949   0.016989  -0.969775
     9  H   -0.007895   0.247530   0.437876  -0.047505  -0.003216   0.001214
    10  C   -2.273004 -11.794949  -0.047505  32.432123   0.148502   0.429665
    11  H    0.001959   0.016989  -0.003216   0.148502   0.432944  -0.007475
    12  S   -0.734673  -0.969775   0.001214   0.429665  -0.007475  17.142116
    13  O   -0.012450   0.150550   0.000014   0.042906   0.001129   0.345906
    14  O   -0.021316  -0.097124   0.000187  -0.310854  -0.001037   0.358715
    15  N    0.054429   0.365724  -0.000028   0.115543   0.001179  -1.151725
    16  H   -0.001881  -0.006885   0.000000   0.067416   0.000009   0.099806
    17  H   -0.002120  -0.034089   0.000001  -0.131644  -0.000034   0.104429
    18  N    1.034820   0.051935   0.000864   0.062090   0.000095  -0.005766
    19  O    0.531949   0.027248   0.000982   0.026990   0.000099  -0.000267
    20  C    0.369321   0.073674   0.000927  -0.040046  -0.000006  -0.003915
    21  H   -0.010915   0.000832   0.000000   0.000322   0.000000   0.000005
    22  H    0.012060  -0.023813   0.000001  -0.002705  -0.000000  -0.000002
    23  H   -0.020526   0.019852  -0.000000   0.001071   0.000000  -0.000006
    24  H    0.013507  -0.009994  -0.000005  -0.003675   0.000000  -0.000086
              13         14         15         16         17         18
     1  C    0.034830   0.022138  -0.634370   0.052435   0.047691  -0.067854
     2  C   -0.265664   0.057790   0.171831  -0.129098   0.070112   0.000072
     3  H   -0.001182   0.001316   0.000972  -0.000069   0.000021   0.000253
     4  C   -0.098785   0.179002   0.314226  -0.026235  -0.001735   0.121817
     5  H    0.000206   0.000022  -0.000031   0.000001   0.000000   0.005323
     6  C   -0.032499  -0.054972   0.175442  -0.009135  -0.009503  -1.382335
     7  C   -0.012450  -0.021316   0.054429  -0.001881  -0.002120   1.034820
     8  C    0.150550  -0.097124   0.365724  -0.006885  -0.034089   0.051935
     9  H    0.000014   0.000187  -0.000028   0.000000   0.000001   0.000864
    10  C    0.042906  -0.310854   0.115543   0.067416  -0.131644   0.062090
    11  H    0.001129  -0.001037   0.001179   0.000009  -0.000034   0.000095
    12  S    0.345906   0.358715  -1.151725   0.099806   0.104429  -0.005766
    13  O    8.683628  -0.179572  -0.150293  -0.005667   0.010043  -0.000075
    14  O   -0.179572   8.713554  -0.137771   0.010126  -0.006157  -0.000048
    15  N   -0.150293  -0.137771   8.382537   0.204886   0.210532   0.000088
    16  H   -0.005667   0.010126   0.204886   0.321155  -0.021723  -0.000003
    17  H    0.010043  -0.006157   0.210532  -0.021723   0.316138  -0.000000
    18  N   -0.000075  -0.000048   0.000088  -0.000003  -0.000000   7.554173
    19  O    0.000006  -0.000020  -0.000028   0.000000  -0.000000  -0.172675
    20  C   -0.000025  -0.000037   0.000027  -0.000002  -0.000001   0.196036
    21  H    0.000000   0.000000   0.000000   0.000000   0.000000  -0.039520
    22  H    0.000000   0.000000  -0.000000  -0.000000   0.000000  -0.031420
    23  H    0.000000  -0.000000   0.000000   0.000000   0.000000  -0.052666
    24  H    0.000001  -0.000000  -0.000002   0.000000   0.000000   0.270496
              19         20         21         22         23         24
     1  C   -0.014883  -0.039678   0.000244  -0.000081  -0.000407  -0.002070
     2  C    0.032029  -0.028943   0.000405   0.002500  -0.004565   0.012845
     3  H    0.000008   0.000052  -0.000000   0.000000  -0.000000  -0.000002
     4  C   -0.079918  -0.063951  -0.002717   0.029547  -0.033558   0.015175
     5  H   -0.000628   0.005338   0.000022  -0.000002  -0.000006   0.003426
     6  C   -0.099056  -0.573669   0.029369  -0.052322   0.023758  -0.022328
     7  C    0.531949   0.369321  -0.010915   0.012060  -0.020526   0.013507
     8  C    0.027248   0.073674   0.000832  -0.023813   0.019852  -0.009994
     9  H    0.000982   0.000927   0.000000   0.000001  -0.000000  -0.000005
    10  C    0.026990  -0.040046   0.000322  -0.002705   0.001071  -0.003675
    11  H    0.000099  -0.000006   0.000000  -0.000000   0.000000   0.000000
    12  S   -0.000267  -0.003915   0.000005  -0.000002  -0.000006  -0.000086
    13  O    0.000006  -0.000025   0.000000   0.000000   0.000000   0.000001
    14  O   -0.000020  -0.000037   0.000000   0.000000  -0.000000  -0.000000
    15  N   -0.000028   0.000027   0.000000  -0.000000   0.000000  -0.000002
    16  H    0.000000  -0.000002   0.000000  -0.000000   0.000000   0.000000
    17  H   -0.000000  -0.000001   0.000000   0.000000   0.000000   0.000000
    18  N   -0.172675   0.196036  -0.039520  -0.031420  -0.052666   0.270496
    19  O    8.295149  -0.026623   0.002894  -0.003836   0.000726   0.006353
    20  C   -0.026623   5.403524   0.370232   0.420670   0.413206  -0.021636
    21  H    0.002894   0.370232   0.494948  -0.025590  -0.024299  -0.004953
    22  H   -0.003836   0.420670  -0.025590   0.459337  -0.030775   0.002211
    23  H    0.000726   0.413206  -0.024299  -0.030775   0.461452   0.002508
    24  H    0.006353  -0.021636  -0.004953   0.002211   0.002508   0.324814
 Mulliken charges:
               1
     1  C   -1.381669
     2  C   -0.020612
     3  H    0.256179
     4  C   -0.326934
     5  H    0.210605
     6  C    0.433898
     7  C    0.446413
     8  C   -0.202949
     9  H    0.259897
    10  C   -0.018158
    11  H    0.263599
    12  S    1.583043
    13  O   -0.523008
    14  O   -0.533941
    15  N   -0.923168
    16  H    0.444863
    17  H    0.448040
    18  N   -0.545703
    19  O   -0.526501
    20  C   -0.454477
    21  H    0.208722
    22  H    0.244218
    23  H    0.244231
    24  H    0.413414
 Sum of Mulliken charges =  -0.00000
 Mulliken charges with hydrogens summed into heavy atoms:
               1
     1  C   -1.381669
     2  C    0.235567
     4  C   -0.116329
     6  C    0.433898
     7  C    0.446413
     8  C    0.056949
    10  C    0.245440
    12  S    1.583043
    13  O   -0.523008
    14  O   -0.533941
    15  N   -0.030266
    18  N   -0.132289
    19  O   -0.526501
    20  C    0.242694
 Electronic spatial extent (au):  <R**2>=           4319.2102
 Charge=              0.0000 electrons
 Dipole moment (field-independent basis, Debye):
    X=             -4.4972    Y=             -2.7372    Z=              2.7032  Tot=              5.9181
 Quadrupole moment (field-independent basis, Debye-Ang):
   XX=           -104.5947   YY=            -87.8279   ZZ=            -87.9655
   XY=             17.6205   XZ=             18.4734   YZ=             -1.6469
 Traceless Quadrupole moment (field-independent basis, Debye-Ang):
   XX=            -11.1320   YY=              5.6348   ZZ=              5.4972
   XY=             17.6205   XZ=             18.4734   YZ=             -1.6469
 Octapole moment (field-independent basis, Debye-Ang**2):
  XXX=           -137.2037  YYY=             -3.7861  ZZZ=             13.8396  XYY=             -3.4602
  XXY=            -50.0606  XXZ=             18.1865  XZZ=             15.8326  YZZ=             -1.6212
  YYZ=              2.3727  XYZ=              5.1405
 Hexadecapole moment (field-independent basis, Debye-Ang**3):
 XXXX=          -4812.9883 YYYY=           -554.2342 ZZZZ=           -231.0211 XXXY=            252.8440
 XXXZ=            172.6565 YYYX=             55.8327 YYYZ=             -6.4434 ZZZX=             35.6060
 ZZZY=              2.9027 XXYY=           -951.4495 XXZZ=           -815.7644 YYZZ=           -138.7430
 XXYZ=              1.5013 YYXZ=             47.8664 ZZXY=             -1.0835
 N-N= 1.002120139243D+03 E-N=-4.453650620200D+03  KE= 1.036999780772D+03
 Calling FoFJK, ICntrl=      2127 FMM=F ISym2X=0 I1Cent= 0 IOpClX= 0 NMat=1 NMatS=1 NMatT=0.
 ***** Axes restored to original set *****
 -------------------------------------------------------------------
 Center     Atomic                   Forces (Hartrees/Bohr)
 Number     Number              X              Y              Z
 -------------------------------------------------------------------
      1        6           0.000126652    0.003339523    0.001439018
      2        6           0.000305759    0.000612530   -0.001618182
      3        1           0.000592203   -0.001557937    0.001698398
      4        6           0.002068536   -0.001076806    0.001011587
      5        1          -0.000030456    0.000804701   -0.000414533
      6        6          -0.001515156   -0.000513998   -0.000646557
      7        6           0.035369060    0.011148079   -0.005981315
      8        6           0.000415704   -0.000526703    0.000681061
      9        1          -0.001061044    0.001314818   -0.001996399
     10        6          -0.001462483    0.001027612   -0.002448459
     11        1          -0.000958814   -0.001008508    0.001617542
     12       16          -0.005038280   -0.033875575    0.015581103
     13        8           0.007429768    0.009791340   -0.007540199
     14        8          -0.004714245    0.011733771   -0.007099278
     15        7           0.002164069    0.014222160   -0.004019999
     16        1           0.001591903   -0.002246007    0.002680860
     17        1          -0.001881391   -0.001762379    0.002384743
     18        7          -0.016271659   -0.002733812   -0.005082697
     19        8          -0.020978856   -0.008658033    0.010509849
     20        6           0.000177101   -0.000194580    0.000537126
     21        1          -0.001008102   -0.000158508   -0.000487192
     22        1           0.000662454    0.000641483    0.000475309
     23        1           0.000920544   -0.000352528    0.000399691
     24        1           0.003096733    0.000029358   -0.001681478
 -------------------------------------------------------------------
 Cartesian Forces:  Max     0.035369060 RMS     0.007895843

 GradGradGradGradGradGradGradGradGradGradGradGradGradGradGradGradGradGrad
 Berny optimization.
 FormGI is forming the generalized inverse of G from B-inverse, IUseBI=4.
 Internal  Forces:  Max     0.024994267 RMS     0.003673807
 Search for a local minimum.
 Step number   1 out of a maximum of  123
 All quantities printed in internal units (Hartrees-Bohrs-Radians)
 Mixed Optimization -- RFO/linear search
 Second derivative matrix not updated -- first step.
 ITU=  0
     Eigenvalues ---    0.00626   0.00733   0.00982   0.01575   0.01611
     Eigenvalues ---    0.01639   0.01715   0.01949   0.02127   0.02154
     Eigenvalues ---    0.02168   0.02183   0.02190   0.02195   0.02200
     Eigenvalues ---    0.02515   0.04590   0.07467   0.07709   0.09508
     Eigenvalues ---    0.10391   0.14230   0.15971   0.15996   0.15999
     Eigenvalues ---    0.16000   0.16000   0.16000   0.16000   0.16000
     Eigenvalues ---    0.16000   0.16000   0.19774   0.22000   0.22006
     Eigenvalues ---    0.22988   0.23993   0.24981   0.24994   0.25000
     Eigenvalues ---    0.25000   0.25000   0.27701   0.32118   0.34399
     Eigenvalues ---    0.34481   0.34937   0.35293   0.35327   0.35349
     Eigenvalues ---    0.35382   0.37768   0.42317   0.42521   0.42555
     Eigenvalues ---    0.43963   0.43988   0.45543   0.46178   0.46454
     Eigenvalues ---    0.46910   0.47138   0.57714   0.86020   0.90507
     Eigenvalues ---    0.90691
 RFO step:  Lambda=-4.25188286D-03 EMin= 6.26120729D-03
 Linear search not attempted -- first point.
 Iteration  1 RMS(Cart)=  0.02705439 RMS(Int)=  0.00047654
 Iteration  2 RMS(Cart)=  0.00081035 RMS(Int)=  0.00015184
 Iteration  3 RMS(Cart)=  0.00000034 RMS(Int)=  0.00015184
 Variable       Old X    -DE/DX   Delta X   Delta X   Delta X     New X
                                 (Linear)    (Quad)   (Total)
    R1        2.63142  -0.00127   0.00000  -0.00271  -0.00270   2.62872
    R2        2.63206  -0.00013   0.00000  -0.00032  -0.00031   2.63175
    R3        3.36496   0.00223   0.00000   0.00793   0.00793   3.37289
    R4        2.05148   0.00025   0.00000   0.00070   0.00070   2.05218
    R5        2.62966   0.00129   0.00000   0.00275   0.00275   2.63241
    R6        2.05202   0.00042   0.00000   0.00118   0.00118   2.05320
    R7        2.64252   0.00005   0.00000   0.00015   0.00015   2.64266
    R8        2.83928   0.00131   0.00000   0.00403   0.00403   2.84331
    R9        2.64092  -0.00157   0.00000  -0.00336  -0.00338   2.63755
   R10        2.52796   0.01391   0.00000   0.02393   0.02393   2.55189
   R11        2.34823  -0.02499   0.00000  -0.02891  -0.02891   2.31932
   R12        2.05060   0.00005   0.00000   0.00015   0.00015   2.05075
   R13        2.62790   0.00129   0.00000   0.00268   0.00267   2.63058
   R14        2.05112   0.00019   0.00000   0.00053   0.00053   2.05165
   R15        2.76400  -0.01177   0.00000  -0.01294  -0.01294   2.75106
   R16        2.76316  -0.01201   0.00000  -0.01318  -0.01318   2.74998
   R17        3.11922   0.00983   0.00000   0.02288   0.02288   3.14210
   R18        1.93199  -0.00318   0.00000  -0.00717  -0.00717   1.92481
   R19        1.93169  -0.00295   0.00000  -0.00664  -0.00664   1.92505
   R20        2.74704  -0.00095   0.00000  -0.00249  -0.00249   2.74454
   R21        1.91350  -0.00326   0.00000  -0.00710  -0.00710   1.90641
   R22        2.05778   0.00112   0.00000   0.00317   0.00317   2.06094
   R23        2.06663  -0.00017   0.00000  -0.00050  -0.00050   2.06613
   R24        2.06525  -0.00023   0.00000  -0.00065  -0.00065   2.06460
    A1        2.13284  -0.00162   0.00000  -0.00653  -0.00655   2.12629
    A2        2.07266   0.00071   0.00000   0.00316   0.00309   2.07575
    A3        2.07700   0.00093   0.00000   0.00405   0.00397   2.08098
    A4        2.11058  -0.00233   0.00000  -0.01372  -0.01378   2.09680
    A5        2.07114   0.00040   0.00000   0.00150   0.00149   2.07263
    A6        2.10146   0.00193   0.00000   0.01219   0.01213   2.11359
    A7        2.07482  -0.00008   0.00000   0.00030   0.00029   2.07512
    A8        2.09625   0.00093   0.00000   0.00399   0.00400   2.10024
    A9        2.11189  -0.00085   0.00000  -0.00438  -0.00439   2.10751
   A10        2.13230   0.00292   0.00000   0.01155   0.01156   2.14386
   A11        2.09767  -0.00115   0.00000  -0.00467  -0.00468   2.09298
   A12        2.05303  -0.00178   0.00000  -0.00694  -0.00694   2.04609
   A13        2.04796  -0.00028   0.00000  -0.00110  -0.00115   2.04681
   A14        2.10446   0.00063   0.00000   0.00246   0.00241   2.10687
   A15        2.13076  -0.00036   0.00000  -0.00142  -0.00146   2.12930
   A16        2.08884  -0.00258   0.00000  -0.01553  -0.01552   2.07331
   A17        2.09992   0.00003   0.00000  -0.00015  -0.00016   2.09975
   A18        2.09438   0.00255   0.00000   0.01571   0.01571   2.11009
   A19        2.06845   0.00141   0.00000   0.00585   0.00584   2.07430
   A20        2.10942  -0.00267   0.00000  -0.01488  -0.01490   2.09452
   A21        2.10528   0.00125   0.00000   0.00897   0.00896   2.11424
   A22        1.88407  -0.00212   0.00000  -0.01436  -0.01477   1.86930
   A23        1.88543  -0.00207   0.00000  -0.01487  -0.01535   1.87008
   A24        1.89290  -0.00345   0.00000  -0.03283  -0.03346   1.85944
   A25        2.08798   0.00763   0.00000   0.06864   0.06876   2.15675
   A26        1.85178  -0.00029   0.00000  -0.00640  -0.00698   1.84480
   A27        1.85445  -0.00059   0.00000  -0.00871  -0.00934   1.84511
   A28        1.94890   0.00142   0.00000   0.01655   0.01623   1.96513
   A29        1.95127   0.00074   0.00000   0.01239   0.01207   1.96335
   A30        1.93018   0.00039   0.00000   0.01608   0.01557   1.94575
   A31        2.11517  -0.00278   0.00000  -0.01275  -0.01284   2.10233
   A32        2.09113   0.00129   0.00000   0.00502   0.00492   2.09605
   A33        2.07455   0.00145   0.00000   0.00610   0.00600   2.08055
   A34        1.89034   0.00079   0.00000   0.00751   0.00751   1.89785
   A35        1.93293  -0.00066   0.00000  -0.00528  -0.00531   1.92761
   A36        1.92662  -0.00079   0.00000  -0.00628  -0.00631   1.92030
   A37        1.90745   0.00047   0.00000   0.00574   0.00574   1.91319
   A38        1.90763   0.00046   0.00000   0.00531   0.00532   1.91295
   A39        1.89868  -0.00025   0.00000  -0.00667  -0.00674   1.89194
    D1       -3.13283  -0.00062   0.00000  -0.02490  -0.02474   3.12561
    D2        0.01107  -0.00017   0.00000  -0.00778  -0.00777   0.00329
    D3       -0.03134  -0.00019   0.00000  -0.00499  -0.00492  -0.03626
    D4        3.11256   0.00026   0.00000   0.01212   0.01205   3.12461
    D5       -0.00241   0.00023   0.00000   0.01063   0.01064   0.00823
    D6       -3.13633   0.00048   0.00000   0.01994   0.01984  -3.11648
    D7       -3.10381  -0.00019   0.00000  -0.00930  -0.00922  -3.11302
    D8        0.04546   0.00006   0.00000   0.00001  -0.00001   0.04544
    D9        0.49011  -0.00370   0.00000  -0.06352  -0.06329   0.42682
   D10        2.77111   0.00301   0.00000   0.00279   0.00251   2.77362
   D11       -1.50907  -0.00052   0.00000  -0.03194  -0.03195  -1.54102
   D12       -2.69028  -0.00334   0.00000  -0.04451  -0.04424  -2.73451
   D13       -0.40927   0.00336   0.00000   0.02180   0.02156  -0.38771
   D14        1.59373  -0.00016   0.00000  -0.01293  -0.01290   1.58083
   D15       -3.12674   0.00022   0.00000   0.00880   0.00879  -3.11795
   D16       -0.00739   0.00008   0.00000   0.00413   0.00415  -0.00324
   D17        0.01715   0.00067   0.00000   0.02586   0.02596   0.04311
   D18        3.13650   0.00054   0.00000   0.02119   0.02132  -3.12537
   D19       -3.12470   0.00001   0.00000  -0.00022  -0.00023  -3.12492
   D20       -0.00465  -0.00010   0.00000  -0.00371  -0.00369  -0.00834
   D21       -0.00582  -0.00012   0.00000  -0.00493  -0.00490  -0.01072
   D22        3.11422  -0.00023   0.00000  -0.00842  -0.00836   3.10586
   D23       -0.50502  -0.00027   0.00000  -0.01387  -0.01387  -0.51890
   D24        2.64069   0.00009   0.00000   0.00345   0.00348   2.64416
   D25        2.65759  -0.00017   0.00000  -0.01049  -0.01052   2.64708
   D26       -0.47988   0.00019   0.00000   0.00684   0.00683  -0.47305
   D27       -3.13894   0.00026   0.00000   0.01000   0.00992  -3.12902
   D28        0.01351   0.00016   0.00000   0.00663   0.00659   0.02010
   D29       -0.01793   0.00022   0.00000   0.00689   0.00687  -0.01106
   D30        3.13452   0.00012   0.00000   0.00352   0.00354   3.13806
   D31        3.13473  -0.00003   0.00000   0.00537   0.00536   3.14008
   D32       -0.08110  -0.00056   0.00000  -0.02016  -0.02016  -0.10126
   D33       -0.01105  -0.00039   0.00000  -0.01223  -0.01222  -0.02327
   D34        3.05630  -0.00092   0.00000  -0.03776  -0.03774   3.01856
   D35       -0.00994  -0.00024   0.00000  -0.00992  -0.00995  -0.01989
   D36        3.12400  -0.00050   0.00000  -0.01932  -0.01937   3.10463
   D37       -3.14064  -0.00031   0.00000  -0.01311  -0.01315   3.12940
   D38       -0.00669  -0.00058   0.00000  -0.02251  -0.02257  -0.02927
   D39        1.07844   0.00117   0.00000   0.02443   0.02453   1.10297
   D40       -1.09455  -0.00099   0.00000  -0.01867  -0.01881  -1.11337
   D41       -0.94181   0.00544   0.00000   0.06014   0.06013  -0.88167
   D42       -3.11480   0.00327   0.00000   0.01705   0.01679  -3.09801
   D43        3.10162  -0.00321   0.00000  -0.01327  -0.01299   3.08863
   D44        0.92862  -0.00537   0.00000  -0.05636  -0.05633   0.87229
   D45       -3.11732  -0.00022   0.00000  -0.01141  -0.01140  -3.12873
   D46        1.07443  -0.00090   0.00000  -0.01998  -0.01996   1.05448
   D47       -1.02943   0.00036   0.00000  -0.00402  -0.00405  -1.03348
   D48        0.09782   0.00031   0.00000   0.01392   0.01393   0.11174
   D49       -1.99361  -0.00037   0.00000   0.00535   0.00537  -1.98824
   D50        2.18571   0.00089   0.00000   0.02131   0.02128   2.20699
         Item               Value     Threshold  Converged?
 Maximum Force            0.024994     0.000450     NO 
 RMS     Force            0.003674     0.000300     NO 
 Maximum Displacement     0.087242     0.001800     NO 
 RMS     Displacement     0.027151     0.001200     NO 
 Predicted change in Energy=-2.189971D-03
 GradGradGradGradGradGradGradGradGradGradGradGradGradGradGradGradGradGrad

                          Input orientation:                          
 ---------------------------------------------------------------------
 Center     Atomic      Atomic             Coordinates (Angstroms)
 Number     Number       Type             X           Y           Z
 ---------------------------------------------------------------------
      1          6           0       -1.148531    0.547727   -0.823571
      2          6           0       -2.349062    0.893628   -1.435223
      3          1           0       -3.257082    0.977641   -0.845508
      4          6           0       -2.363221    1.104531   -2.812103
      5          1           0       -3.294803    1.396512   -3.288966
      6          6           0       -1.188183    0.973183   -3.558869
      7          6           0       -1.134878    1.208184   -5.044060
      8          6           0        0.007832    0.638882   -2.921803
      9          1           0        0.911042    0.553318   -3.517263
     10          6           0        0.032699    0.411778   -1.548637
     11          1           0        0.948327    0.117813   -1.044730
     12         16           0       -1.119413    0.302067    0.944058
     13          8           0       -2.472242   -0.051166    1.349562
     14          8           0        0.049151   -0.511309    1.245004
     15          7           0       -0.819927    1.789668    1.623773
     16          1           0       -1.559030    2.463669    1.431607
     17          1           0        0.095481    2.157171    1.369411
     18          7           0       -2.256178    0.952230   -5.751703
     19          8           0       -0.101041    1.594636   -5.580881
     20          6           0       -2.282140    1.156823   -7.189336
     21          1           0       -3.276328    0.906099   -7.561013
     22          1           0       -1.536899    0.523909   -7.678673
     23          1           0       -2.055715    2.199801   -7.422951
     24          1           0       -3.055863    0.535695   -5.299229
 ---------------------------------------------------------------------
                    Distance matrix (angstroms):
                    1          2          3          4          5
     1  C    0.000000
     2  C    1.391057   0.000000
     3  H    2.152044   1.085966   0.000000
     4  C    2.395780   1.393011   2.163928   0.000000
     5  H    3.377143   2.140953   2.479388   1.086506   0.000000
     6  C    2.768473   2.421538   3.412139   1.398437   2.165618
     7  C    4.271876   3.820589   4.710068   2.549746   2.789462
     8  C    2.397512   2.798172   3.883996   2.418834   3.408256
     9  H    3.390848   3.883166   4.969062   3.394390   4.295605
    10  C    1.392662   2.432658   3.411341   2.795833   3.882101
    11  H    2.151871   3.409860   4.297028   3.881181   4.967476
    12  S    1.784856   2.742802   2.868549   4.037296   4.883505
    13  O    2.614076   2.943270   2.548088   4.320530   4.928318
    14  O    2.614384   3.861203   4.185497   4.989048   5.947999
    15  N    2.764035   3.535336   3.563209   4.746385   5.514942
    16  H    2.987502   3.362721   3.205762   4.528030   5.141550
    17  H    2.991161   3.929161   4.187700   4.963701   5.811464
    18  N    5.067247   4.317877   5.007315   2.945488   2.709465
    19  O    4.982495   4.767756   5.724075   3.608849   3.936019
    20  C    6.494539   5.760518   6.420808   4.378296   4.036809
    21  H    7.074537   6.195586   6.715914   4.839967   4.300143
    22  H    6.866136   6.306899   7.060952   4.970255   4.808450
    23  H    6.863246   6.135554   6.797037   4.749115   4.389811
    24  H    4.865139   3.944392   4.480116   2.643695   2.199830
                    6          7          8          9         10
     6  C    0.000000
     7  C    1.504613   0.000000
     8  C    1.395730   2.476665   0.000000
     9  H    2.141205   2.635478   1.085210   0.000000
    10  C    2.418007   3.770342   1.392041   2.160326   0.000000
    11  H    3.408406   4.639321   2.163203   2.510872   1.085686
    12  S    4.553184   6.056307   4.040917   4.908082   2.748260
    13  O    5.175983   6.652287   4.987133   5.958020   3.858576
    14  O    5.178022   6.626531   4.322838   4.955348   2.942243
    15  N    5.259472   6.700547   4.761487   5.563728   3.562267
    16  H    5.221487   6.609872   4.973639   5.851667   3.952937
    17  H    5.228535   6.599014   4.552736   5.207405   3.400787
    18  N    2.439174   1.350401   3.637617   3.896554   4.816306
    19  O    2.378364   1.227331   2.827723   2.523326   4.204287
    20  C    3.796150   2.433322   4.870736   4.903544   6.142561
    21  H    4.514643   3.318450   5.690288   5.831846   6.880601
    22  H    4.158874   2.751552   5.002722   4.828106   6.328787
    23  H    4.145881   2.736853   5.191823   5.173678   6.485835
    24  H    2.590073   2.051228   3.879308   4.348799   4.860196
                   11         12         13         14         15
    11  H    0.000000
    12  S    2.874852   0.000000
    13  O    4.178693   1.455799   0.000000
    14  O    2.539132   1.455229   2.565168   0.000000
    15  N    3.611472   1.662727   2.488775   2.488626   0.000000
    16  H    4.233452   2.259091   2.676767   3.386970   1.018567
    17  H    3.273286   2.257943   3.386790   2.671781   1.018691
    18  N    5.755058   6.822622   7.175058   7.510685   7.560540
    19  O    4.884552   6.729239   7.507483   7.144948   7.243058
    20  C    7.019376   8.260427   8.626017   8.908180   8.955973
    21  H    7.805834   8.795077   8.997848   9.519127   9.548555
    22  H    7.095806   8.635682   9.094757   9.122458   9.415503
    23  H    7.351234   8.630464   9.066275   9.322769   9.139945
    24  H    5.857382   6.540876   6.700108   7.318765   7.382399
                   16         17         18         19         20
    16  H    0.000000
    17  H    1.683810   0.000000
    18  N    7.373629   7.595555   0.000000
    19  O    7.214980   6.975789   2.255323   0.000000
    20  C    8.749365   8.939012   1.452351   2.745178   0.000000
    21  H    9.286676   9.627396   2.077604   3.804925   1.090604
    22  H    9.314524   9.338096   2.100960   2.758419   1.093349
    23  H    8.872402   9.051801   2.095158   2.753216   1.092541
    24  H    7.159731   7.551882   1.008826   3.151454   2.134702
                   21         22         23         24
    21  H    0.000000
    22  H    1.784804   0.000000
    23  H    1.783990   1.772900   0.000000
    24  H    2.302492   2.822967   2.877453   0.000000
 Stoichiometry    C8H10N2O3S
 Framework group  C1[X(C8H10N2O3S)]
 Deg. of freedom    66
 Full point group                 C1      NOp   1
 Largest Abelian subgroup         C1      NOp   1
 Largest concise Abelian subgroup C1      NOp   1
                         Standard orientation:                         
 ---------------------------------------------------------------------
 Center     Atomic      Atomic             Coordinates (Angstroms)
 Number     Number       Type             X           Y           Z
 ---------------------------------------------------------------------
      1          6           0        1.191891    0.000348   -0.092268
      2          6           0        0.459903   -1.156525    0.154472
      3          1           0        0.968571   -2.108546    0.273778
      4          6           0       -0.928800   -1.069431    0.220795
      5          1           0       -1.501512   -1.967437    0.435460
      6          6           0       -1.568432    0.161750    0.045605
      7          6           0       -3.062091    0.323907    0.126532
      8          6           0       -0.812803    1.311941   -0.187090
      9          1           0       -1.327360    2.259638   -0.308669
     10          6           0        0.574721    1.236131   -0.269606
     11          1           0        1.173280    2.116202   -0.483883
     12         16           0        2.972857   -0.101062   -0.152157
     13          8           0        3.312108   -1.473597   -0.499153
     14          8           0        3.443756    1.057137   -0.896817
     15          7           0        3.511904    0.115521    1.405785
     16          1           0        3.195403   -0.620094    2.035209
     17          1           0        3.288631    1.040148    1.770402
     18          7           0       -3.819814   -0.734532   -0.232839
     19          8           0       -3.558694    1.387841    0.483980
     20          6           0       -5.268970   -0.654424   -0.179428
     21          1           0       -5.684674   -1.611985   -0.495153
     22          1           0       -5.632162    0.138677   -0.838592
     23          1           0       -5.594054   -0.431787    0.839590
     24          1           0       -3.386335   -1.557986   -0.622390
 ---------------------------------------------------------------------
 Rotational constants (GHZ):           1.9898626           0.2603239           0.2440917
 Basis read from rwf:  (6D, 7F)
 There are   290 symmetry adapted cartesian basis functions of A   symmetry.
 There are   290 symmetry adapted basis functions of A   symmetry.
   290 basis functions,   512 primitive gaussians,   290 cartesian basis functions
    56 alpha electrons       56 beta electrons
       nuclear repulsion energy      1002.5937759406 Hartrees.
 NAtoms=   24 NActive=   24 NUniq=   24 SFac= 1.00D+00 NAtFMM=   60 NAOKFM=F Big=F
 Integral buffers will be    131072 words long.
 Raffenetti 2 integral format.
 Two-electron integral symmetry is turned on.
 One-electron integrals computed using PRISM.
 NBasis=   290 RedAO= T EigKep=  1.38D-06  NBF=   290
 NBsUse=   290 1.00D-06 EigRej= -1.00D+00 NBFU=   290
 Initial guess from the checkpoint file:  "/jobfs/40919555.gadi-pbs/Gau-1135501.chk"
 B after Tr=     0.000000    0.000000   -0.000000
         Rot=    0.999992    0.003983   -0.000188    0.000007 Ang=   0.46 deg.
 ExpMin= 4.05D-02 ExpMax= 2.19D+04 ExpMxC= 3.30D+03 IAcc=3 IRadAn=         5 AccDes= 0.00D+00
 Harris functional with IExCor= 1009 and IRadAn=       5 diagonalized for initial guess.
 HarFok:  IExCor= 1009 AccDes= 0.00D+00 IRadAn=         5 IDoV= 1 UseB2=F ITyADJ=14
 ICtDFT=  3500011 ScaDFX=  1.000000  1.000000  1.000000  1.000000
 FoFCou: FMM=F IPFlag=           0 FMFlag=      100000 FMFlg1=           0
         NFxFlg=           0 DoJE=T BraDBF=F KetDBF=T FulRan=T
         wScrn=  0.000000 ICntrl=       500 IOpCl=  0 I1Cent=   200000004 NGrid=           0
         NMat0=    1 NMatS0=      1 NMatT0=    0 NMatD0=    1 NMtDS0=    0 NMtDT0=    0
 Petite list used in FoFCou.
 Requested convergence on RMS density matrix=1.00D-08 within 128 cycles.
 Requested convergence on MAX density matrix=1.00D-06.
 Requested convergence on             energy=1.00D-06.
 No special actions if energy rises.
 SCF Done:  E(RM062X) =  -1043.90423026     A.U. after   15 cycles
            NFock= 15  Conv=0.79D-08     -V/T= 2.0066
 Calling FoFJK, ICntrl=      2127 FMM=F ISym2X=0 I1Cent= 0 IOpClX= 0 NMat=1 NMatS=1 NMatT=0.
 ***** Axes restored to original set *****
 -------------------------------------------------------------------
 Center     Atomic                   Forces (Hartrees/Bohr)
 Number     Number              X              Y              Z
 -------------------------------------------------------------------
      1        6           0.000027095   -0.000453772   -0.000543944
      2        6          -0.000396590    0.000030063   -0.001693681
      3        1           0.000126038   -0.000184593    0.000217833
      4        6           0.000114409   -0.000242159    0.000433880
      5        1          -0.000030043    0.000124044   -0.000388234
      6        6          -0.002774930    0.000686271    0.000568154
      7        6           0.011346556    0.001135153   -0.001556610
      8        6           0.001090105   -0.000640278    0.001608826
      9        1          -0.000065160    0.000279362   -0.000354100
     10        6           0.000032082    0.000543911   -0.001790916
     11        1          -0.000041890   -0.000237598    0.000286870
     12       16          -0.000612950   -0.004668914    0.001025592
     13        8           0.005142196    0.000953900   -0.000563291
     14        8          -0.004736708    0.002574031   -0.000093906
     15        7           0.000916322    0.004190678   -0.000239016
     16        1          -0.000084994   -0.001387673    0.000946187
     17        1          -0.000367056   -0.001312281    0.000863475
     18        7          -0.006322715    0.000670489   -0.000818647
     19        8          -0.004856909   -0.001222759    0.001890508
     20        6           0.000494707   -0.000393480    0.000459274
     21        1           0.000169688    0.000147772    0.000107080
     22        1           0.000202150    0.000084152   -0.000407665
     23        1           0.000161537    0.000076466   -0.000319876
     24        1           0.000467062   -0.000752785    0.000362210
 -------------------------------------------------------------------
 Cartesian Forces:  Max     0.011346556 RMS     0.002136295

 GradGradGradGradGradGradGradGradGradGradGradGradGradGradGradGradGradGrad
 Berny optimization.
 Using GEDIIS/GDIIS optimizer.
 FormGI is forming the generalized inverse of G from B-inverse, IUseBI=4.
 Internal  Forces:  Max     0.005302996 RMS     0.001127746
 Search for a local minimum.
 Step number   2 out of a maximum of  123
 All quantities printed in internal units (Hartrees-Bohrs-Radians)
 Mixed Optimization -- RFO/linear search
 Update second derivatives using D2CorX and points    1    2
 DE= -2.31D-03 DEPred=-2.19D-03 R= 1.05D+00
 TightC=F SS=  1.41D+00  RLast= 1.87D-01 DXNew= 5.0454D-01 5.6210D-01
 Trust test= 1.05D+00 RLast= 1.87D-01 DXMaxT set to 5.05D-01
 ITU=  1  0
 Use linear search instead of GDIIS.
     Eigenvalues ---    0.00623   0.00734   0.00982   0.01568   0.01597
     Eigenvalues ---    0.01659   0.01719   0.01949   0.02128   0.02155
     Eigenvalues ---    0.02168   0.02183   0.02185   0.02197   0.02206
     Eigenvalues ---    0.02514   0.04231   0.07541   0.07666   0.10140
     Eigenvalues ---    0.11486   0.14471   0.15684   0.15954   0.15995
     Eigenvalues ---    0.15997   0.15998   0.16000   0.16000   0.16000
     Eigenvalues ---    0.16000   0.16396   0.19349   0.21767   0.22013
     Eigenvalues ---    0.22976   0.23933   0.24791   0.24995   0.24996
     Eigenvalues ---    0.25000   0.25651   0.27565   0.32101   0.34402
     Eigenvalues ---    0.34485   0.34957   0.35288   0.35327   0.35348
     Eigenvalues ---    0.35382   0.37778   0.41301   0.42365   0.42500
     Eigenvalues ---    0.43799   0.43977   0.45561   0.46224   0.46573
     Eigenvalues ---    0.46924   0.47361   0.54957   0.78979   0.89512
     Eigenvalues ---    0.90603
 RFO step:  Lambda=-5.05902919D-04 EMin= 6.23106511D-03
 Quartic linear search produced a step of  0.09019.
 Iteration  1 RMS(Cart)=  0.02034101 RMS(Int)=  0.00017076
 Iteration  2 RMS(Cart)=  0.00030712 RMS(Int)=  0.00005989
 Iteration  3 RMS(Cart)=  0.00000008 RMS(Int)=  0.00005989
 Variable       Old X    -DE/DX   Delta X   Delta X   Delta X     New X
                                 (Linear)    (Quad)   (Total)
    R1        2.62872   0.00082  -0.00024   0.00187   0.00162   2.63034
    R2        2.63175   0.00046  -0.00003   0.00112   0.00109   2.63284
    R3        3.37289   0.00188   0.00072   0.00757   0.00829   3.38117
    R4        2.05218  -0.00000   0.00006   0.00001   0.00008   2.05225
    R5        2.63241  -0.00058   0.00025  -0.00129  -0.00105   2.63136
    R6        2.05320   0.00023   0.00011   0.00074   0.00084   2.05404
    R7        2.64266  -0.00060   0.00001  -0.00148  -0.00146   2.64120
    R8        2.84331   0.00030   0.00036   0.00112   0.00148   2.84478
    R9        2.63755   0.00084  -0.00030   0.00187   0.00157   2.63912
   R10        2.55189   0.00436   0.00216   0.00885   0.01101   2.56290
   R11        2.31932  -0.00530  -0.00261  -0.00747  -0.01007   2.30925
   R12        2.05075   0.00012   0.00001   0.00037   0.00038   2.05113
   R13        2.63058  -0.00099   0.00024  -0.00221  -0.00197   2.62861
   R14        2.05165   0.00016   0.00005   0.00051   0.00056   2.05221
   R15        2.75106  -0.00517  -0.00117  -0.00656  -0.00772   2.74334
   R16        2.74998  -0.00526  -0.00119  -0.00666  -0.00785   2.74213
   R17        3.14210   0.00206   0.00206   0.00585   0.00791   3.15001
   R18        1.92481  -0.00103  -0.00065  -0.00274  -0.00339   1.92142
   R19        1.92505  -0.00102  -0.00060  -0.00269  -0.00329   1.92175
   R20        2.74454   0.00013  -0.00022   0.00031   0.00009   2.74463
   R21        1.90641   0.00010  -0.00064   0.00007  -0.00057   1.90583
   R22        2.06094  -0.00023   0.00029  -0.00062  -0.00034   2.06060
   R23        2.06613   0.00027  -0.00004   0.00085   0.00080   2.06693
   R24        2.06460   0.00017  -0.00006   0.00054   0.00048   2.06508
    A1        2.12629  -0.00038  -0.00059  -0.00169  -0.00229   2.12400
    A2        2.07575   0.00032   0.00028   0.00138   0.00165   2.07740
    A3        2.08098   0.00006   0.00036   0.00027   0.00063   2.08160
    A4        2.09680  -0.00043  -0.00124  -0.00300  -0.00424   2.09256
    A5        2.07263   0.00026   0.00013   0.00137   0.00150   2.07413
    A6        2.11359   0.00017   0.00109   0.00164   0.00273   2.11632
    A7        2.07512   0.00045   0.00003   0.00295   0.00297   2.07809
    A8        2.10024  -0.00022   0.00036  -0.00112  -0.00076   2.09948
    A9        2.10751  -0.00023  -0.00040  -0.00182  -0.00222   2.10528
   A10        2.14386  -0.00029   0.00104  -0.00084   0.00019   2.14405
   A11        2.09298   0.00037  -0.00042   0.00140   0.00098   2.09396
   A12        2.04609  -0.00008  -0.00063  -0.00041  -0.00105   2.04504
   A13        2.04681  -0.00271  -0.00010  -0.01154  -0.01194   2.03487
   A14        2.10687   0.00200   0.00022   0.00902   0.00894   2.11581
   A15        2.12930   0.00072  -0.00013   0.00340   0.00298   2.13228
   A16        2.07331  -0.00031  -0.00140  -0.00262  -0.00402   2.06929
   A17        2.09975  -0.00017  -0.00001  -0.00090  -0.00092   2.09883
   A18        2.11009   0.00049   0.00142   0.00355   0.00496   2.11506
   A19        2.07430   0.00014   0.00053   0.00097   0.00150   2.07580
   A20        2.09452  -0.00036  -0.00134  -0.00271  -0.00406   2.09046
   A21        2.11424   0.00021   0.00081   0.00173   0.00254   2.11677
   A22        1.86930   0.00035  -0.00133   0.00372   0.00235   1.87165
   A23        1.87008   0.00047  -0.00138   0.00448   0.00306   1.87314
   A24        1.85944   0.00170  -0.00302   0.00932   0.00625   1.86568
   A25        2.15675  -0.00071   0.00620  -0.00712  -0.00094   2.15581
   A26        1.84480  -0.00067  -0.00063  -0.00385  -0.00455   1.84026
   A27        1.84511  -0.00074  -0.00084  -0.00420  -0.00511   1.84000
   A28        1.96513  -0.00033   0.00146   0.00197   0.00335   1.96848
   A29        1.96335  -0.00038   0.00109   0.00156   0.00256   1.96590
   A30        1.94575   0.00107   0.00140   0.01406   0.01532   1.96107
   A31        2.10233  -0.00108  -0.00116  -0.00615  -0.00745   2.09488
   A32        2.09605   0.00002   0.00044  -0.00162  -0.00132   2.09473
   A33        2.08055   0.00101   0.00054   0.00532   0.00571   2.08626
   A34        1.89785  -0.00013   0.00068  -0.00063   0.00005   1.89790
   A35        1.92761   0.00045  -0.00048   0.00304   0.00255   1.93016
   A36        1.92030   0.00030  -0.00057   0.00168   0.00111   1.92141
   A37        1.91319  -0.00007   0.00052   0.00009   0.00061   1.91380
   A38        1.91295  -0.00012   0.00048  -0.00097  -0.00049   1.91246
   A39        1.89194  -0.00042  -0.00061  -0.00323  -0.00384   1.88810
    D1        3.12561  -0.00007  -0.00223  -0.00371  -0.00593   3.11968
    D2        0.00329  -0.00010  -0.00070  -0.00449  -0.00519  -0.00189
    D3       -0.03626  -0.00011  -0.00044  -0.00594  -0.00637  -0.04263
    D4        3.12461  -0.00013   0.00109  -0.00671  -0.00563   3.11898
    D5        0.00823   0.00009   0.00096   0.00389   0.00485   0.01308
    D6       -3.11648   0.00009   0.00179   0.00442   0.00619  -3.11029
    D7       -3.11302   0.00012  -0.00083   0.00611   0.00528  -3.10774
    D8        0.04544   0.00012  -0.00000   0.00663   0.00663   0.05207
    D9        0.42682   0.00002  -0.00571  -0.02169  -0.02737   0.39945
   D10        2.77362  -0.00029   0.00023  -0.02477  -0.02457   2.74905
   D11       -1.54102  -0.00015  -0.00288  -0.02325  -0.02613  -1.56715
   D12       -2.73451  -0.00002  -0.00399  -0.02387  -0.02784  -2.76235
   D13       -0.38771  -0.00033   0.00194  -0.02696  -0.02504  -0.41275
   D14        1.58083  -0.00018  -0.00116  -0.02543  -0.02660   1.55423
   D15       -3.11795   0.00004   0.00079   0.00136   0.00216  -3.11580
   D16       -0.00324   0.00004   0.00037   0.00138   0.00176  -0.00148
   D17        0.04311   0.00002   0.00234   0.00063   0.00299   0.04610
   D18       -3.12537   0.00002   0.00192   0.00065   0.00259  -3.12278
   D19       -3.12492  -0.00009  -0.00002  -0.00518  -0.00520  -3.13013
   D20       -0.00834   0.00003  -0.00033   0.00222   0.00189  -0.00645
   D21       -0.01072  -0.00008  -0.00044  -0.00508  -0.00552  -0.01624
   D22        3.10586   0.00004  -0.00075   0.00232   0.00157   3.10744
   D23       -0.51890   0.00056  -0.00125   0.04800   0.04678  -0.47211
   D24        2.64416  -0.00013   0.00031   0.00276   0.00304   2.64720
   D25        2.64708   0.00044  -0.00095   0.04076   0.03985   2.68692
   D26       -0.47305  -0.00025   0.00062  -0.00448  -0.00390  -0.47695
   D27       -3.12902   0.00004   0.00089   0.00115   0.00202  -3.12700
   D28        0.02010  -0.00004   0.00059  -0.00285  -0.00226   0.01784
   D29       -0.01106   0.00015   0.00062   0.00814   0.00874  -0.00232
   D30        3.13806   0.00007   0.00032   0.00413   0.00445  -3.14067
   D31        3.14008  -0.00024   0.00048  -0.01260  -0.01212   3.12796
   D32       -0.10126  -0.00065  -0.00182  -0.04091  -0.04265  -0.14392
   D33       -0.02327   0.00048  -0.00110   0.03333   0.03215   0.00888
   D34        3.01856   0.00007  -0.00340   0.00502   0.00162   3.02018
   D35       -0.01989  -0.00001  -0.00090  -0.00014  -0.00104  -0.02093
   D36        3.10463  -0.00002  -0.00175  -0.00072  -0.00247   3.10216
   D37        3.12940  -0.00009  -0.00119  -0.00420  -0.00540   3.12399
   D38       -0.02927  -0.00010  -0.00204  -0.00478  -0.00683  -0.03610
   D39        1.10297   0.00043   0.00221   0.01236   0.01460   1.11757
   D40       -1.11337  -0.00044  -0.00170  -0.00977  -0.01150  -1.12487
   D41       -0.88167  -0.00041   0.00542   0.00580   0.01126  -0.87041
   D42       -3.09801  -0.00128   0.00151  -0.01633  -0.01484  -3.11285
   D43        3.08863   0.00137  -0.00117   0.01963   0.01849   3.10712
   D44        0.87229   0.00050  -0.00508  -0.00250  -0.00762   0.86468
   D45       -3.12873  -0.00015  -0.00103  -0.01017  -0.01122  -3.13994
   D46        1.05448  -0.00025  -0.00180  -0.01174  -0.01356   1.04092
   D47       -1.03348  -0.00020  -0.00037  -0.01073  -0.01112  -1.04459
   D48        0.11174   0.00031   0.00126   0.01828   0.01956   0.13130
   D49       -1.98824   0.00021   0.00048   0.01671   0.01722  -1.97102
   D50        2.20699   0.00026   0.00192   0.01772   0.01966   2.22665
         Item               Value     Threshold  Converged?
 Maximum Force            0.005303     0.000450     NO 
 RMS     Force            0.001128     0.000300     NO 
 Maximum Displacement     0.069099     0.001800     NO 
 RMS     Displacement     0.020401     0.001200     NO 
 Predicted change in Energy=-2.733909D-04
 GradGradGradGradGradGradGradGradGradGradGradGradGradGradGradGradGradGrad

                          Input orientation:                          
 ---------------------------------------------------------------------
 Center     Atomic      Atomic             Coordinates (Angstroms)
[...]
 -0.00006488,0.00003867,-0.00015204,-0.00018952,0.00008716,0.00003284,0
 .00028513,-0.00005402,0.00010182,0.00000320,-0.00000387,0.00001337,-0.
 00001768,-0.00037747,-0.00002055,-0.00003495,-0.00004063,-0.00006178,0
 .00000030,0.01013542,-0.00164807,0.00221579,-0.00251034,-0.00019441,0.
 00033634,0.00246151,-0.00475798,-0.00101578,-0.25927483,0.17839158,-0.
 04326005,0.26543266,-0.00130475,0.00088528,0.00026974,0.00009015,0.000
 18166,-0.00016017,-0.00014890,-0.00002451,-0.00017987,-0.00010776,-0.0
 0005796,-0.00021941,0.00003179,0.00001447,0.00001062,-0.00019167,-0.00
 001441,0.00026036,-0.00003948,0.00007082,-0.00041558,0.00001915,-0.000
 14834,0.00018116,0.00000263,-0.00000939,0.00002560,0.00030847,0.000293
 63,0.00010458,-0.00002487,-0.00006061,0.00002444,0.02492884,-0.0168883
 5,0.00906111,-0.00256854,0.00374499,-0.00037085,0.00007178,-0.00598097
 ,-0.00309855,0.18893850,-0.24268554,0.03415384,-0.19686530,0.24740505,
 -0.00126156,0.00080154,-0.00019046,0.00006257,0.00013469,-0.00029431,-
 0.00027954,-0.00022514,0.00003282,-0.00014316,0.00021089,-0.00041915,0
 .00001649,0.00000239,-0.00002477,-0.00026976,-0.00008347,0.00021771,-0
 .00010809,0.00003358,-0.00061904,0.00009245,-0.00011669,0.00022217,0.0
 0000491,-0.00001827,0.00000187,0.00039684,0.00006446,-0.00009486,0.000
 00086,0.00002024,0.00012675,0.00877421,-0.01741767,-0.00307698,0.00138
 126,0.00149865,-0.00206471,0.00072465,-0.00381908,0.00262438,-0.067544
 17,0.06388581,-0.01907047,0.05058414,-0.03853000,0.02501645,0.00070089
 ,0.00097027,0.00016287,-0.00043658,0.00032315,0.00010240,-0.00001053,0
 .00004208,0.00001882,-0.00012724,-0.00014638,0.00015492,0.00000566,-0.
 00002375,0.00004333,0.00026209,0.00004686,0.00026543,0.00002197,0.0000
 4204,-0.00046851,-0.00017697,-0.00003393,-0.00031029,0.00000652,0.0000
 0119,0.00004932,0.00055641,-0.00007692,0.00033952,-0.00001928,0.000111
 98,-0.00000519,-0.00429847,-0.00563328,0.00168165,0.00259441,0.0005977
 9,-0.00033646,-0.00050214,0.00230734,-0.00054045,-0.38270960,-0.107608
 75,0.07971022,-0.01556922,-0.01313505,0.00753083,0.39977966,0.00149149
 ,-0.00019536,0.00005476,-0.00002707,0.00032036,0.00008394,0.00001381,-
 0.00010099,0.00003868,0.00001033,-0.00009976,0.00016982,0.00000845,-0.
 00001530,0.00002379,0.00012717,-0.00015277,0.00013467,0.00004656,0.000
 07309,-0.00024378,0.00015115,-0.00008581,-0.00018062,-0.00000985,0.000
 03225,-0.00002002,-0.00031742,0.00026379,-0.00027101,0.00015346,-0.000
 13682,-0.00022907,-0.03009086,-0.00346497,0.01151948,-0.00430662,-0.00
 624871,-0.00305901,0.00442698,0.00163881,-0.00048937,-0.11997283,-0.10
 783650,0.02068281,0.02604818,0.01334925,-0.00639709,0.12228040,0.10270
 706,0.00142484,0.00010752,-0.00030058,-0.00031406,0.00018863,-0.000074
 40,0.00001733,0.00000588,0.00012591,-0.00006427,-0.00007398,0.00026788
 ,0.00000880,-0.00003087,0.00001637,0.00022774,-0.00025497,0.00014100,-
 0.00008904,0.00006422,-0.00054620,0.00019821,0.00012587,-0.00046942,0.
 00000211,0.00001405,-0.00004940,-0.00015657,0.00020228,-0.00031520,0.0
 0022644,-0.00037891,-0.00001309,-0.01559535,-0.01192986,-0.00207529,-0
 .00224412,-0.00327334,0.00269713,-0.00068782,0.00189004,-0.00196914,0.
 11382506,0.03683229,-0.03105469,-0.00811006,-0.00145007,-0.00287734,-0
 .08874388,-0.02202073,0.03604957,0.00039312,0.00009421,-0.00058435,0.0
 0093760,-0.00036316,-0.00104855,-0.00003805,0.00000814,-0.00028121,-0.
 00468168,0.00011790,-0.00041787,0.00156835,0.00039486,-0.00047440,0.00
 437939,0.00097289,-0.01034441,-0.24976671,-0.04169740,-0.10856342,0.00
 092321,-0.00059479,0.00214273,0.00065134,-0.00091698,0.00113064,0.0009
 9884,-0.00025409,0.00001272,0.00000901,0.00003093,0.00006348,-0.000252
 71,-0.00027064,0.00205734,0.00059181,0.00014307,-0.00061903,-0.0000974
 8,0.00018777,-0.00050910,-0.00002683,-0.00021836,-0.00071365,-0.000106
 07,0.00008930,0.00014655,0.00006799,0.00003794,0.00015056,0.69500182,-
 0.00026230,0.00007715,-0.00000525,-0.00055084,-0.00044255,0.00015158,0
 .00001404,-0.00004853,0.00011474,0.00157526,-0.00051092,-0.00005610,-0
 .00060032,0.00023291,-0.00002196,0.00181343,0.01060741,0.00232915,-0.0
 6618709,-0.07474671,-0.01137115,0.00012269,0.00076462,0.00141978,0.000
 05466,-0.00001686,0.00032116,0.00019347,-0.00051626,-0.00023948,-0.000
 00880,-0.00010707,0.00007596,0.00000910,-0.00009782,-0.00028136,-0.000
 04796,0.00006332,0.00006315,-0.00003458,0.00006702,0.00004551,0.000030
 83,0.00011254,0.00014060,0.00002494,-0.00003014,-0.00000829,-0.0000138
 0,-0.00000491,-0.00000070,0.29953512,0.24626199,-0.00055576,0.00044957
 ,-0.00127762,-0.00003387,0.00044664,0.00037276,0.00000222,-0.00008813,
 -0.00019994,-0.00214088,0.00003278,-0.00259059,-0.00059072,-0.00035783
 ,-0.00122231,-0.03588300,-0.00441632,-0.02680827,-0.10210082,0.0004142
 1,-0.21042652,0.00433705,0.00008806,-0.00539128,-0.00010496,-0.0006120
 1,0.00031140,-0.00167823,0.00115287,-0.00120125,0.00008758,0.00012556,
 -0.00062306,-0.00018405,-0.00049439,0.00409250,0.00076493,0.00026506,-
 0.00119157,-0.00046126,0.00049716,-0.00117498,-0.00016516,-0.00062152,
 -0.00147559,-0.00012534,0.00017301,0.00028601,0.00018672,0.00010798,0.
 00027379,0.00649963,-0.11994933,0.68132306,0.00057781,-0.00024461,-0.0
 0007934,0.00014333,0.00066029,0.00028967,0.00000998,-0.00004680,0.0002
 3593,0.00179998,0.00005656,0.00127667,0.00070285,-0.00089808,-0.000589
 70,-0.00642648,-0.01062320,0.02697593,-0.50778414,-0.16798062,0.229279
 23,-0.00625008,0.00233654,-0.00284346,0.00250087,-0.00079510,0.0007589
 4,0.00194741,-0.00021097,0.00121850,-0.00003490,-0.00012220,0.00041658
 ,-0.00040315,-0.00014906,-0.00136935,0.00019206,0.00002528,0.00026988,
 0.00046954,-0.00017508,0.00041701,0.00014912,0.00031251,0.00048390,-0.
 00000964,-0.00006861,-0.00006690,-0.00012013,-0.00005613,-0.00003452,-
 0.10153879,-0.03437395,0.00532605,0.61508535,0.00002826,0.00004536,0.0
 0004867,-0.00126401,-0.00075894,0.00040788,0.00003264,-0.00020088,0.00
 023958,0.00217992,0.00064731,0.00254572,0.00009955,0.00018283,-0.00021
 449,-0.01421041,0.01238737,0.01539249,-0.16308125,-0.14310440,0.094876
 67,-0.00127400,0.00021699,-0.00105685,-0.00010301,-0.00046195,-0.00010
 060,-0.00023944,-0.00036535,0.00014704,0.00001799,-0.00002197,0.000059
 01,-0.00024135,-0.00021393,-0.00078977,0.00003894,0.00001844,0.0002976
 0,0.00014791,-0.00003728,0.00025377,0.00009729,0.00031767,0.00028688,-
 0.00000348,-0.00006179,-0.00002917,-0.00004609,-0.00005460,-0.00001644
 ,-0.03829215,0.01210241,-0.00176285,0.21546569,0.11855350,0.00171936,0
 .00001345,-0.00168039,0.00122752,-0.00148691,-0.00303119,-0.00012368,-
 0.00005358,-0.00074679,-0.00547457,0.00250374,-0.00510295,0.00055357,0
 .00081440,0.00036350,0.04378637,0.01968399,-0.02815163,0.22367521,0.09
 583988,-0.23486547,0.00234423,0.00089016,-0.00173586,0.00053927,0.0004
 1617,-0.00131327,-0.00017108,-0.00110249,0.00130449,0.00000524,0.00019
 951,-0.00009381,0.00052858,-0.00023810,0.00461546,0.00054883,0.0002462
 3,-0.00135466,-0.00079392,0.00055386,-0.00123185,-0.00028423,-0.000713
 78,-0.00155421,-0.00011203,0.00020868,0.00030800,0.00022181,0.00011964
 ,0.00026138,-0.00127469,-0.00606733,0.03012085,-0.25959381,-0.11203538
 ,0.24015802,0.00002304,-0.00006066,0.00007385,0.00029596,0.00008415,-0
 .00008538,0.00000335,0.00000507,-0.00002666,-0.00030009,0.00041878,0.0
 0055593,0.00048507,-0.00026317,-0.00003631,-0.00441598,-0.00336485,-0.
 00156939,-0.00141173,0.00336419,-0.03444177,0.00039037,0.00017101,-0.0
 0117384,-0.00002351,-0.00013733,-0.00004540,-0.00026942,0.00043187,-0.
 00000220,0.00000319,-0.00001074,-0.00010951,0.00004432,-0.00002209,0.0
 0000268,-0.00001045,0.00000334,0.00000378,-0.00000663,0.00000275,0.000
 00468,-0.00001067,-0.00000905,-0.00001734,0.00000285,0.00000204,-0.000
 00118,0.00000273,0.00000280,0.00000234,-0.09681475,-0.01958905,0.00465
 367,0.00181310,0.00321348,-0.00299895,0.62523539,0.00050347,-0.0001210
 0,-0.00005099,-0.00024179,0.00012980,-0.00054885,0.00000347,0.00003470
 ,-0.00002110,-0.00007221,-0.00004008,0.00048911,-0.00019004,-0.0001932
 1,0.00000320,-0.00243374,0.00511209,0.00080119,0.00935666,0.00547103,-
 0.00451042,0.00004992,0.00029041,-0.00135364,0.00003708,0.00012236,0.0
 0013408,-0.00059929,-0.00024168,0.00038405,0.00000550,0.00000288,-0.00
 007429,-0.00002213,0.00002679,0.00023883,0.00005871,0.00000645,-0.0000
 8388,-0.00000250,0.00001532,-0.00007516,-0.00001432,-0.00006569,-0.000
 09597,-0.00000906,0.00001665,0.00001767,0.00000670,0.00001477,0.000014
 73,-0.02469485,-0.07007854,0.01182607,-0.00112130,-0.00619124,0.001199
 53,0.01695614,0.59085326,0.00016234,-0.00010962,0.00043029,0.00010934,
 0.00003612,-0.00006363,-0.00000031,-0.00001208,0.00002446,0.00000150,0
 .00031871,0.00067948,0.00048263,-0.00014172,-0.00027061,-0.00008419,0.
 00065169,0.00296386,-0.02098025,-0.00537879,-0.02897121,-0.00030148,-0
 .00003887,-0.00019484,-0.00005964,0.00016889,-0.00008535,-0.00006530,-
 0.00018106,0.00031554,0.00001271,0.00001630,0.00004847,-0.00005590,0.0
 0013487,-0.00157897,-0.00022466,-0.00009708,0.00048161,0.00025163,-0.0
 0021128,0.00047063,0.00007737,0.00024474,0.00056394,0.00004418,-0.0000
 6644,-0.00012483,-0.00007895,-0.00003874,-0.00011807,0.00563500,0.0248
 4316,-0.24842081,0.01120520,0.00419464,-0.00057209,0.00805769,0.007576
 96,0.50764665,0.00002310,0.00002285,-0.00008211,-0.00000658,-0.0000092
 1,-0.00003117,-0.00000129,-0.00000075,-0.00000908,-0.00002689,0.000001
 56,-0.00006851,-0.00003385,0.00001361,0.00001175,0.00006475,0.00009344
 ,0.00005884,-0.00030724,-0.00013184,0.00160244,0.00002520,0.00001425,-
 0.00007261,0.00002818,-0.00001566,0.00002856,-0.00000653,-0.00001488,0
 .00001365,0.00000076,0.00000147,-0.00000251,-0.00001315,-0.00002918,0.
 00023725,0.00004815,0.00001726,-0.00007178,-0.00002567,0.00002891,-0.0
 0006631,-0.00000730,-0.00003258,-0.00008392,-0.00000831,0.00000941,0.0
 0001830,0.00000962,0.00000526,0.00001745,0.00380593,0.00001438,0.00330
 348,0.00043502,0.00020483,-0.00148399,-0.30164259,-0.02910496,-0.08631
 017,0.32084800,-0.00000740,-0.00000038,0.00001792,-0.00000268,-0.00004
 685,-0.00000755,-0.00000079,0.00000489,-0.00000056,-0.00004124,-0.0000
 4988,0.00002420,0.00000269,0.00006252,0.00001253,0.00004846,0.00043737
 ,-0.00001769,-0.00136336,-0.00067724,0.00120354,0.00002073,-0.00001065
 ,0.00000039,0.00001695,0.00000592,0.00000662,-0.00000444,-0.00003218,-
 0.00002610,0.00000079,0.00000159,-0.00000040,0.00000486,0.00002774,0.0
 0000899,-0.00000105,-0.00000583,-0.00000606,0.00000077,-0.00000565,-0.
 00000549,-0.00000110,-0.00000926,-0.00000171,-0.00000102,0.00000211,0.
 00000114,-0.00000069,0.00000100,0.00000166,0.00494167,-0.00160775,0.00
 342659,-0.00012383,0.00071574,-0.00131993,-0.02950958,-0.05411696,-0.0
 1096965,0.03213913,0.05048672,-0.00002498,0.00000779,-0.00009472,0.000
 08444,0.00003901,0.00001431,-0.00000304,0.00000106,-0.00002677,-0.0001
 2977,0.00007881,-0.00006167,0.00001245,-0.00004795,-0.00001538,-0.0015
 5729,-0.00070727,-0.00032978,0.00461859,0.00312280,-0.00600015,0.00021
 824,0.00002215,-0.00047545,-0.00000424,-0.00003940,-0.00000065,-0.0001
 1859,0.00011975,-0.00003642,0.00000320,0.00000022,-0.00005123,-0.00002
 085,-0.00003418,0.00028482,0.00006005,0.00001741,-0.00008111,-0.000026
 79,0.00003055,-0.00007739,-0.00000870,-0.00004178,-0.00010101,-0.00001
 017,0.00001211,0.00001796,0.00001194,0.00000766,0.00001779,-0.03874329
 ,-0.00630001,-0.02017818,-0.00022991,-0.00019213,0.00199489,-0.0752530
 8,-0.00840930,-0.07580063,0.09120354,0.00994019,0.09109630,0.00000058,
 0.00000690,-0.00001525,-0.00001958,0.00000382,0.00004979,0.00000066,0.
 00000339,0.00000414,-0.00003879,-0.00003249,0.00003703,0.00003087,-0.0
 0001564,-0.00001178,-0.00022392,0.00071473,0.00025502,0.00145869,-0.00
 079414,-0.00223830,-0.00000842,-0.00002734,-0.00009247,-0.00001464,0.0
 0002577,-0.00002379,-0.00000913,-0.00003946,0.00003135,0.00000125,0.00
 000710,-0.00000048,-0.00000141,0.00001721,-0.00007553,-0.00001292,-0.0
 0001324,0.00002977,0.00001447,-0.00002087,0.00002965,0.00000443,0.0000
 0682,0.00002545,0.00000131,-0.00000263,-0.00000888,-0.00000416,-0.0000
 0043,-0.00000819,0.00345203,-0.00487780,0.00208725,0.00044240,0.000442
 55,0.00168196,-0.14752050,0.11133685,0.06459666,-0.01604281,0.02169173
 ,0.01235906,0.15165170,-0.00005247,-0.00000092,0.00001740,0.00002358,-
 0.00000117,0.00005396,-0.00000007,-0.00000204,0.00000458,-0.00001406,-
 0.00000916,0.00000597,0.00000244,-0.00000195,0.00000934,-0.00007582,-0
 .00048183,-0.00016229,0.00186088,0.00093356,-0.00008124,0.00007258,-0.
 00001418,0.00008312,-0.00000480,-0.00000038,-0.00002134,0.00002052,0.0
 0002326,-0.00005476,0.00000154,-0.00000275,-0.00000296,0.00001315,-0.0
 0000093,0.00001752,-0.00000612,0.00000076,-0.00000591,-0.00001047,0.00
 000443,-0.00000853,-0.00000195,0.00000128,-0.00000603,-0.00000018,-0.0
 0000108,0.00000325,0.00000373,-0.00000095,0.00000311,-0.00652743,0.009
 23117,0.00084781,-0.00045074,-0.00017524,0.00114873,0.11087749,-0.1805
 9803,-0.07578532,-0.00371010,0.00385145,0.00342654,-0.12108079,0.18779
 513,0.00001175,0.00004902,-0.00013976,-0.00010079,0.00004887,-0.000031
 11,-0.00000125,-0.00000112,-0.00001169,0.00002265,-0.00008868,-0.00007
 508,-0.00021669,0.00000042,0.00008728,-0.00043275,0.00111032,-0.000108
 29,0.00955516,0.00160056,0.00107235,0.00018066,0.00002663,-0.00018403,
 -0.00001599,-0.00001814,0.00001956,-0.00011452,-0.00004250,-0.00004781
 ,0.00000190,0.00000300,-0.00002910,0.00000543,-0.00006722,0.00039994,0
 .00006166,0.00003145,-0.00011971,-0.00006324,0.00006242,-0.00011617,-0
 .00001794,-0.00005741,-0.00014474,-0.00001047,0.00001649,0.00002977,0.
 00001834,0.00001055,0.00002813,0.01574719,-0.02013565,-0.03280913,-0.0
 0322419,-0.00132982,0.00227731,0.06233557,-0.07343874,-0.08960964,-0.0
 0555861,0.00865523,0.00579475,-0.07385360,0.08184639,0.11149477,-0.000
 06122,-0.00000228,0.00001007,0.00004184,0.00005590,0.00010066,-0.00000
 009,-0.00001195,0.00000433,0.00003468,0.00004274,-0.00005322,0.0000096
 0,-0.00005796,-0.00001578,0.00006932,-0.00051174,0.00023558,0.00204235
 ,0.00122703,-0.00190835,-0.00001353,0.00001809,0.00010087,-0.00000991,
 0.00001806,-0.00002834,0.00003763,-0.00001460,-0.00004291,0.00000065,-
 0.00000004,0.00000368,-0.00000196,-0.00000492,-0.00009219,-0.00001671,
 -0.00000347,0.00003270,0.00000751,-0.00000810,0.00002791,0.00000542,0.
 00002045,0.00003245,0.00000382,-0.00000597,-0.00000727,-0.00000268,-0.
 00000252,-0.00000666,-0.00142657,0.00090048,0.00155423,-0.00111043,-0.
 00029403,0.00105049,-0.08067691,-0.08622067,0.02114998,-0.00791542,-0.
 02792443,0.00788130,0.00712745,0.01942170,-0.00473529,0.08126188,0.000
 01159,0.00001446,0.00000910,0.00002650,-0.00000548,-0.00001754,-0.0000
 0126,-0.00000621,-0.00000583,0.00000883,0.00005518,-0.00005059,0.00003
 249,0.00000235,-0.00002789,0.00028127,-0.00034223,0.00002780,-0.003206
 83,-0.00021643,-0.00021599,-0.00002041,0.00005132,0.00002063,0.0000071
 6,0.00000166,0.00000348,0.00000959,-0.00002951,0.00000972,-0.00000132,
 -0.00000057,0.00000325,-0.00000449,-0.00000328,-0.00005870,-0.00000395
 ,-0.00000076,0.00001675,0.00000924,-0.00000372,0.00001802,0.00000378,0
 .00001394,0.00002427,0.00000244,-0.00000272,-0.00000488,-0.00000451,-0
 .00000191,-0.00000541,0.00023962,0.00347002,0.00538552,0.00071792,0.00
 032701,-0.00164343,-0.08521401,-0.28638889,0.05740817,0.00044255,0.000
 05682,-0.00109360,-0.00817644,-0.02045417,0.00404314,0.09356540,0.3037
 8610,-0.00016796,0.00006088,-0.00008486,0.00003591,-0.00003871,0.00017
 565,0.00000062,-0.00000698,-0.00000287,-0.00003660,-0.00006188,-0.0002
 3321,-0.00004726,0.00010117,0.00005871,0.00012969,-0.00085512,-0.00032
 778,0.00504876,0.00239177,0.00014163,0.00013199,-0.00007915,0.00025222
 ,-0.00002401,-0.00001777,-0.00001796,0.00009629,0.00005442,-0.00016767
 ,-0.00000003,0.00000284,0.00000059,-0.00000734,0.00000202,0.00022281,0
 .00003005,0.00000641,-0.00005737,-0.00003105,0.00001887,-0.00006387,-0
 .00001033,-0.00004181,-0.00007642,-0.00000561,0.00001089,0.00001165,0.
 00000961,0.00000678,0.00001142,0.01486725,0.03395283,-0.02044026,-0.00
 216103,-0.00130249,0.00135479,0.01756368,0.04972420,-0.05998661,-0.002
 12586,-0.01112523,0.00299004,-0.00526242,-0.01179222,0.00429330,-0.025
 28341,-0.06315609,0.07666707,0.00061894,-0.00022180,0.00032904,-0.0003
 8437,0.00036521,-0.00062363,0.00001242,-0.00000219,0.00007143,0.001013
 29,-0.00008273,0.00114285,0.00034952,0.00018847,0.00082427,-0.00023697
 ,0.00087538,0.00005890,-0.02010132,-0.01177436,0.01819639,-0.00057214,
 0.00053283,-0.00048709,-0.00000110,0.00001482,0.00006391,-0.00035197,-
 0.00018025,0.00054794,-0.00001025,-0.00002725,0.00001601,0.00014260,0.
 00002329,-0.00079183,-0.00019410,-0.00003192,0.00019903,0.00004803,-0.
 00004477,0.00020634,0.00000328,0.00010629,0.00026289,0.00003186,-0.000
 02853,-0.00004352,-0.00003095,-0.00002026,-0.00004635,-0.25803080,-0.1
 7774192,0.11522123,-0.00259110,-0.00291981,-0.00557146,0.00480386,0.00
 641237,-0.00362539,0.00074893,0.00011384,-0.00032212,-0.00028957,-0.00
 036263,0.00040502,0.00059328,0.00127483,-0.00275095,0.27442861,-0.0000
 2529,-0.00005017,0.00012437,0.00071768,-0.00023499,0.00027517,-0.00000
 358,0.00005316,-0.00001862,-0.00180163,0.00049309,0.00001634,0.0010753
 6,0.00000170,-0.00131928,0.00044505,-0.00061525,-0.00058642,0.00726137
 ,-0.00732175,0.00385220,0.00005315,-0.00003193,0.00012247,0.00014319,-
 0.00008033,0.00008851,0.00032357,0.00004029,0.00012622,-0.00000043,-0.
 00000051,0.00001855,0.00001013,0.00012992,-0.00013797,-0.00001011,-0.0
 0007085,0.00006473,0.00008982,-0.00012010,0.00009560,0.00000514,-0.000
 01204,0.00003824,-0.00001096,0.00000190,-0.00002455,-0.00001038,-0.000
 00101,-0.00001499,-0.19296356,-0.13478248,0.10306348,-0.00213451,0.006
 13294,0.00082297,0.00264743,-0.00406116,-0.00256359,0.00004023,0.00090
 876,0.00003957,0.00082439,-0.00009625,-0.00232521,-0.00020717,-0.00032
 298,0.00214437,0.18353110,0.14004006,0.00014490,-0.00006339,-0.0000561
 5,0.00037257,0.00006141,-0.00022523,0.00001095,-0.00000090,-0.00004885
 ,-0.00144002,0.00016454,-0.00193290,0.00078868,-0.00137353,-0.00208177
 ,-0.00055244,0.00011767,-0.00101061,-0.00625163,-0.01191509,0.01725834
 ,0.00020103,-0.00011450,-0.00004856,0.00015213,-0.00015914,0.00018499,
 0.00027048,-0.00000098,0.00016674,-0.00000534,0.00000196,-0.00001064,-
 0.00006518,-0.00002300,-0.00037512,0.00000477,-0.00002592,0.00014504,0
 .00010800,-0.00008200,0.00016267,0.00003710,0.00009177,0.00013376,-0.0
 0000003,-0.00002168,-0.00003862,-0.00002399,-0.00001112,-0.00002754,0.
 11512088,0.10097896,-0.14134904,-0.00796124,0.00008003,-0.00132451,0.0
 2250715,0.01625270,-0.00782764,-0.00052863,0.00018139,0.00111966,0.000
 40357,0.00045288,-0.00207092,-0.00001083,-0.00068989,-0.00472100,-0.12
 328290,-0.10390216,0.14397792\\-0.00000348,0.00000072,0.00000019,0.000
 00076,-0.00000261,0.00000166,0.00000113,-0.00000084,0.00000101,0.00000
 265,-0.00000005,-0.00000165,-0.00000056,-0.00000058,0.00000208,-0.0000
 0153,0.00000010,-0.00000002,-0.00000124,0.00000071,-0.00000007,0.00000
 261,0.00000052,0.00000309,-0.00000063,0.00000097,-0.00000129,0.0000007
 3,0.00000159,-0.00000405,0.00000118,-0.00000016,-0.00000108,0.00000029
 ,-0.00000578,-0.00000515,0.00000047,-0.00000034,0.00000094,0.00000360,
 -0.00000069,-0.00000034,0.00000250,-0.00000142,0.00001096,0.00000169,0
 .00000118,-0.00000291,0.00000137,0.00000198,-0.00000321,0.00000020,0.0
 0000158,-0.00000030,-0.00000127,0.00000055,0.00000123,-0.00000308,0.00
 000050,-0.00000259,-0.00000203,0.00000064,0.00000037,-0.00000223,0.000
 00115,0.00000112,-0.00000245,0.00000090,0.00000072,-0.00000067,-0.0000
 0061,-0.00000070\\\@
 The archive entry for this job was punched.


 Just remember, when you're over the hill, you begin to pick up speed.
 -- Charles Schulz
 Job cpu time:       0 days  1 hours 24 minutes 18.5 seconds.
 Elapsed time:       0 days  0 hours  5 minutes 18.2 seconds.
 File lengths (MBytes):  RWF=    234 Int=      0 D2E=      0 Chk=      8 Scr=      1
 Normal termination of Gaussian 16 at Sun May 22 16:04:02 2022.
