 Entering Gaussian System, Link 0=g16
 AtFile(1): /home/561/yj5695/Basis/6-31pGd.gbs
 Initial command:
 /apps/gaussian/g16c01/g16/l1.exe "/jobfs/40766272.gadi-pbs/Gau-84452.inp" -scrdir="/jobfs/40766272.gadi-pbs/"
 Entering Link 1 = /apps/gaussian/g16c01/g16/l1.exe PID=     84453.
  
 Copyright (c) 1988-2019, Gaussian, Inc.  All Rights Reserved.
  
 This is part of the Gaussian(R) 16 program.  It is based on
 the Gaussian(R) 09 system (copyright 2009, Gaussian, Inc.),
 the Gaussian(R) 03 system (copyright 2003, Gaussian, Inc.),
 the Gaussian(R) 98 system (copyright 1998, Gaussian, Inc.),
 the Gaussian(R) 94 system (copyright 1995, Gaussian, Inc.),
 the Gaussian 92(TM) system (copyright 1992, Gaussian, Inc.),
 the Gaussian 90(TM) system (copyright 1990, Gaussian, Inc.),
 the Gaussian 88(TM) system (copyright 1988, Gaussian, Inc.),
 the Gaussian 86(TM) system (copyright 1986, Carnegie Mellon
 University), and the Gaussian 82(TM) system (copyright 1983,
 Carnegie Mellon University). Gaussian is a federally registered
 trademark of Gaussian, Inc.
  
 This software contains proprietary and confidential information,
 including trade secrets, belonging to Gaussian, Inc.
  
 This software is provided under written license and may be
 used, copied, transmitted, or stored only in accord with that
 written license.
  
 The following legend is applicable only to US Government
 contracts under FAR:
  
                    RESTRICTED RIGHTS LEGEND
  
 Use, reproduction and disclosure by the US Government is
 subject to restrictions as set forth in subparagraphs (a)
 and (c) of the Commercial Computer Software - Restricted
 Rights clause in FAR 52.227-19.
  
 Gaussian, Inc.
 340 Quinnipiac St., Bldg. 40, Wallingford CT 06492
  
  
 ---------------------------------------------------------------
 Warning -- This program may not be used in any manner that
 competes with the business of Gaussian, Inc. or will provide
 assistance to any competitor of Gaussian, Inc.  The licensee
 of this program is prohibited from giving any competitor of
 Gaussian, Inc. access to this program.  By using this program,
 the user acknowledges that Gaussian, Inc. is engaged in the
 business of creating and licensing software in the field of
 computational chemistry and represents and warrants to the
 licensee that it is not a competitor of Gaussian, Inc. and that
 it will not use this program in any manner prohibited above.
 ---------------------------------------------------------------
  

 Cite this work as:
 Gaussian 16, Revision C.01,
 M. J. Frisch, G. W. Trucks, H. B. Schlegel, G. E. Scuseria, 
 M. A. Robb, J. R. Cheeseman, G. Scalmani, V. Barone, 
 G. A. Petersson, H. Nakatsuji, X. Li, M. Caricato, A. V. Marenich, 
 J. Bloino, B. G. Janesko, R. Gomperts, B. Mennucci, H. P. Hratchian, 
 J. V. Ortiz, A. F. Izmaylov, J. L. Sonnenberg, D. Williams-Young, 
 F. Ding, F. Lipparini, F. Egidi, J. Goings, B. Peng, A. Petrone, 
 T. Henderson, D. Ranasinghe, V. G. Zakrzewski, J. Gao, N. Rega, 
 G. Zheng, W. Liang, M. Hada, M. Ehara, K. Toyota, R. Fukuda, 
 J. Hasegawa, M. Ishida, T. Nakajima, Y. Honda, O. Kitao, H. Nakai, 
 T. Vreven, K. Throssell, J. A. Montgomery, Jr., J. E. Peralta, 
 F. Ogliaro, M. J. Bearpark, J. J. Heyd, E. N. Brothers, K. N. Kudin, 
 V. N. Staroverov, T. A. Keith, R. Kobayashi, J. Normand, 
 K. Raghavachari, A. P. Rendell, J. C. Burant, S. S. Iyengar, 
 J. Tomasi, M. Cossi, J. M. Millam, M. Klene, C. Adamo, R. Cammi, 
 J. W. Ochterski, R. L. Martin, K. Morokuma, O. Farkas, 
 J. B. Foresman, and D. J. Fox, Gaussian, Inc., Wallingford CT, 2019.
 
 ******************************************
 Gaussian 16:  ES64L-G16RevC.01  3-Jul-2019
                20-May-2022 
 ******************************************
 %nproc=16
 Will use up to   16 processors via shared memory.
 %mem=20gb
 --------------------------------------------------
 #M062X/gen 6D INT(grid=ultrafine) OPT Freq=noraman
 --------------------------------------------------
 1/18=20,19=15,26=4,38=1/1,3;
 2/9=110,12=2,17=6,18=5,40=1/2;
 3/5=7,8=2,11=2,25=1,30=1,71=1,74=-55,75=-5/1,2,3;
 4//1;
 5/5=2,38=5/2;
 6/7=2,8=2,9=2,10=2,28=1/1;
 7//1,2,3,16;
 1/18=20,19=15,26=4/3(2);
 2/9=110/2;
 99//99;
 2/9=110/2;
 3/5=7,6=1,8=2,11=2,25=1,30=1,71=1,74=-55,75=-5,82=7/1,2,3;
 4/5=5,16=3,69=1/1;
 5/5=2,38=5/2;
 7//1,2,3,16;
 1/18=20,19=15,26=4/3(-5);
 2/9=110/2;
 6/7=2,8=2,9=2,10=2,19=2,28=1/1;
 99/9=1/99;
 -------------
 HA.17.a2.freq
 -------------
 Symbolic Z-matrix:
 Charge =  0 Multiplicity = 1
 S                    -1.73692   0.35781   1.26392 
 O                    -0.63456   0.83532   2.10404 
 O                    -3.02924   1.0448    1.34711 
 N                    -2.0148   -1.20677   1.71062 
 H                    -1.16598  -1.77381   1.67041 
 C                    -1.20082   0.3728   -0.42829 
 H                    -0.28097  -0.21043  -0.50165 
 H                    -1.02223   1.41493  -0.70474 
 H                    -1.99232  -0.06068  -1.04245 
 H                    -2.76379  -1.63484   1.16348 
 

 GradGradGradGradGradGradGradGradGradGradGradGradGradGradGradGradGradGrad
 Berny optimization.
 Initialization pass.
                           ----------------------------
                           !    Initial Parameters    !
                           ! (Angstroms and Degrees)  !
 --------------------------                            --------------------------
 ! Name  Definition              Value          Derivative Info.                !
 --------------------------------------------------------------------------------
 ! R1    R(1,2)                  1.4659         estimate D2E/DX2                !
 ! R2    R(1,3)                  1.4659         estimate D2E/DX2                !
 ! R3    R(1,4)                  1.6507         estimate D2E/DX2                !
 ! R4    R(1,6)                  1.7752         estimate D2E/DX2                !
 ! R5    R(4,5)                  1.0216         estimate D2E/DX2                !
 ! R6    R(4,10)                 1.0216         estimate D2E/DX2                !
 ! R7    R(6,7)                  1.0916         estimate D2E/DX2                !
 ! R8    R(6,8)                  1.0929         estimate D2E/DX2                !
 ! R9    R(6,9)                  1.0916         estimate D2E/DX2                !
 ! A1    A(2,1,3)              118.5382         estimate D2E/DX2                !
 ! A2    A(2,1,4)              106.2754         estimate D2E/DX2                !
 ! A3    A(2,1,6)              108.449          estimate D2E/DX2                !
 ! A4    A(3,1,4)              106.2862         estimate D2E/DX2                !
 ! A5    A(3,1,6)              108.4436         estimate D2E/DX2                !
 ! A6    A(4,1,6)              108.4702         estimate D2E/DX2                !
 ! A7    A(1,4,5)              112.0607         estimate D2E/DX2                !
 ! A8    A(1,4,10)             112.0658         estimate D2E/DX2                !
 ! A9    A(5,4,10)             110.8251         estimate D2E/DX2                !
 ! A10   A(1,6,7)              108.3018         estimate D2E/DX2                !
 ! A11   A(1,6,8)              107.37           estimate D2E/DX2                !
 ! A12   A(1,6,9)              108.3011         estimate D2E/DX2                !
 ! A13   A(7,6,8)              110.7789         estimate D2E/DX2                !
 ! A14   A(7,6,9)              111.1628         estimate D2E/DX2                !
 ! A15   A(8,6,9)              110.7839         estimate D2E/DX2                !
 ! D1    D(2,1,4,5)            -53.6983         estimate D2E/DX2                !
 ! D2    D(2,1,4,10)          -179.0222         estimate D2E/DX2                !
 ! D3    D(3,1,4,5)            179.1597         estimate D2E/DX2                !
 ! D4    D(3,1,4,10)            53.8358         estimate D2E/DX2                !
 ! D5    D(6,1,4,5)             62.7311         estimate D2E/DX2                !
 ! D6    D(6,1,4,10)           -62.5928         estimate D2E/DX2                !
 ! D7    D(2,1,6,7)             54.6961         estimate D2E/DX2                !
 ! D8    D(2,1,6,8)            -64.9724         estimate D2E/DX2                !
 ! D9    D(2,1,6,9)            175.3536         estimate D2E/DX2                !
 ! D10   D(3,1,6,7)           -175.3512         estimate D2E/DX2                !
 ! D11   D(3,1,6,8)             64.9804         estimate D2E/DX2                !
 ! D12   D(3,1,6,9)            -54.6936         estimate D2E/DX2                !
 ! D13   D(4,1,6,7)            -60.3226         estimate D2E/DX2                !
 ! D14   D(4,1,6,8)           -179.991          estimate D2E/DX2                !
 ! D15   D(4,1,6,9)             60.335          estimate D2E/DX2                !
 --------------------------------------------------------------------------------
 Trust Radius=3.00D-01 FncErr=1.00D-07 GrdErr=1.00D-06 EigMax=2.50D+02 EigMin=1.00D-04
 Number of steps in this run=     49 maximum allowed number of steps=    100.
 GradGradGradGradGradGradGradGradGradGradGradGradGradGradGradGradGradGrad

                          Input orientation:                          
 ---------------------------------------------------------------------
 Center     Atomic      Atomic             Coordinates (Angstroms)
 Number     Number       Type             X           Y           Z
 ---------------------------------------------------------------------
      1         16           0       -1.736920    0.357812    1.263925
      2          8           0       -0.634563    0.835322    2.104036
      3          8           0       -3.029237    1.044801    1.347114
      4          7           0       -2.014796   -1.206769    1.710618
      5          1           0       -1.165980   -1.773808    1.670407
      6          6           0       -1.200824    0.372800   -0.428290
      7          1           0       -0.280968   -0.210426   -0.501645
      8          1           0       -1.022228    1.414930   -0.704738
      9          1           0       -1.992324   -0.060678   -1.042450
     10          1           0       -2.763792   -1.634842    1.163479
 ---------------------------------------------------------------------
                    Distance matrix (angstroms):
                    1          2          3          4          5
     1  S    0.000000
     2  O    1.465945   0.000000
     3  O    1.465932   2.520174   0.000000
     4  N    1.650656   2.495989   2.496156   0.000000
     5  H    2.243882   2.697777   3.394231   1.021586   0.000000
     6  C    1.775166   2.635764   2.635666   2.780740   3.002277
     7  H    2.357950   2.829875   3.542102   2.982108   2.818727
     8  H    2.346043   2.894036   2.893990   3.700331   3.978697
     9  H    2.357908   3.542133   2.829716   2.982183   3.313194
    10  H    2.243931   3.394109   2.699013   1.021569   1.682049
                    6          7          8          9         10
     6  C    0.000000
     7  H    1.091635   0.000000
     8  H    1.092866   1.797914   0.000000
     9  H    1.091590   1.801008   1.797931   0.000000
    10  H    3.001204   3.311497   3.977989   2.817673   0.000000
 Stoichiometry    CH5NO2S
 Framework group  C1[X(CH5NO2S)]
 Deg. of freedom    24
 Full point group                 C1      NOp   1
 Largest Abelian subgroup         C1      NOp   1
 Largest concise Abelian subgroup C1      NOp   1
                         Standard orientation:                         
 ---------------------------------------------------------------------
 Center     Atomic      Atomic             Coordinates (Angstroms)
 Number     Number       Type             X           Y           Z
 ---------------------------------------------------------------------
      1         16           0        0.050633   -0.148734    0.000045
      2          8           0        0.222518   -0.877055    1.260599
      3          8           0        0.221152   -0.878968   -1.259573
      4          7           0        1.187218    1.048278   -0.001306
      5          1           0        1.137228    1.625804    0.839885
      6          6           0       -1.557605    0.602789    0.000252
      7          1           0       -1.650516    1.213434    0.900334
      8          1           0       -2.294758   -0.204032    0.001313
      9          1           0       -1.651401    1.211971   -0.900674
     10          1           0        1.135063    1.626068   -0.842163
 ---------------------------------------------------------------------
 Rotational constants (GHZ):           4.7233000           4.3217583           4.2956201
 General basis read from cards:  (6D, 7F)
 There are   109 symmetry adapted cartesian basis functions of A   symmetry.
 There are   109 symmetry adapted basis functions of A   symmetry.
   109 basis functions,   204 primitive gaussians,   109 cartesian basis functions
    25 alpha electrons       25 beta electrons
       nuclear repulsion energy       277.3950576046 Hartrees.
 NAtoms=   10 NActive=   10 NUniq=   10 SFac= 1.00D+00 NAtFMM=   60 NAOKFM=F Big=F
 Integral buffers will be    131072 words long.
 Raffenetti 2 integral format.
 Two-electron integral symmetry is turned on.
 One-electron integrals computed using PRISM.
 NBasis=   109 RedAO= T EigKep=  4.53D-04  NBF=   109
 NBsUse=   109 1.00D-06 EigRej= -1.00D+00 NBFU=   109
 ExpMin= 4.05D-02 ExpMax= 2.19D+04 ExpMxC= 3.30D+03 IAcc=3 IRadAn=         5 AccDes= 0.00D+00
 Harris functional with IExCor= 1009 and IRadAn=       5 diagonalized for initial guess.
 HarFok:  IExCor= 1009 AccDes= 0.00D+00 IRadAn=         5 IDoV= 1 UseB2=F ITyADJ=14
 ICtDFT=  3500011 ScaDFX=  1.000000  1.000000  1.000000  1.000000
 FoFCou: FMM=F IPFlag=           0 FMFlag=      100000 FMFlg1=           0
         NFxFlg=           0 DoJE=T BraDBF=F KetDBF=T FulRan=T
         wScrn=  0.000000 ICntrl=       500 IOpCl=  0 I1Cent=   200000004 NGrid=           0
         NMat0=    1 NMatS0=      1 NMatT0=    0 NMatD0=    1 NMtDS0=    0 NMtDT0=    0
 Petite list used in FoFCou.
 Keep R1 ints in memory in canonical form, NReq=32944093.
 Requested convergence on RMS density matrix=1.00D-08 within 128 cycles.
 Requested convergence on MAX density matrix=1.00D-06.
 Requested convergence on             energy=1.00D-06.
 No special actions if energy rises.
 SCF Done:  E(RM062X) =  -644.300581874     A.U. after   13 cycles
            NFock= 13  Conv=0.42D-08     -V/T= 2.0054

 **********************************************************************

            Population analysis using the SCF Density.

 **********************************************************************

 Orbital symmetries:
       Occupied  (A) (A) (A) (A) (A) (A) (A) (A) (A) (A) (A) (A)
                 (A) (A) (A) (A) (A) (A) (A) (A) (A) (A) (A) (A)
                 (A)
       Virtual   (A) (A) (A) (A) (A) (A) (A) (A) (A) (A) (A) (A)
                 (A) (A) (A) (A) (A) (A) (A) (A) (A) (A) (A) (A)
                 (A) (A) (A) (A) (A) (A) (A) (A) (A) (A) (A) (A)
                 (A) (A) (A) (A) (A) (A) (A) (A) (A) (A) (A) (A)
                 (A) (A) (A) (A) (A) (A) (A) (A) (A) (A) (A) (A)
                 (A) (A) (A) (A) (A) (A) (A) (A) (A) (A) (A) (A)
                 (A) (A) (A) (A) (A) (A) (A) (A) (A) (A) (A) (A)
 The electronic state is 1-A.
 Alpha  occ. eigenvalues --  -90.17264 -19.64297 -19.64296 -14.81826 -10.60514
 Alpha  occ. eigenvalues --   -8.48274  -6.40502  -6.40412  -6.40341  -1.24410
 Alpha  occ. eigenvalues --   -1.12382  -1.04329  -0.88807  -0.72816  -0.63179
 Alpha  occ. eigenvalues --   -0.62303  -0.57422  -0.55220  -0.52729  -0.50760
 Alpha  occ. eigenvalues --   -0.41857  -0.39878  -0.39654  -0.38247  -0.37640
 Alpha virt. eigenvalues --   -0.00928   0.02648   0.04173   0.05143   0.05542
 Alpha virt. eigenvalues --    0.07275   0.07412   0.09179   0.10075   0.11856
 Alpha virt. eigenvalues --    0.14056   0.14564   0.16222   0.16639   0.17475
 Alpha virt. eigenvalues --    0.19073   0.19964   0.21344   0.23283   0.24924
 Alpha virt. eigenvalues --    0.26797   0.28930   0.29424   0.31062   0.32624
 Alpha virt. eigenvalues --    0.33100   0.34376   0.34960   0.35812   0.53004
 Alpha virt. eigenvalues --    0.57256   0.61495   0.63156   0.63726   0.67314
 Alpha virt. eigenvalues --    0.76417   0.78951   0.79420   0.89878   0.97648
 Alpha virt. eigenvalues --    0.98809   0.99555   0.99586   1.00586   1.08996
 Alpha virt. eigenvalues --    1.09471   1.13857   1.15800   1.16114   1.29855
 Alpha virt. eigenvalues --    1.30289   1.32627   1.34120   1.36639   1.39351
 Alpha virt. eigenvalues --    1.40020   1.40519   1.55616   1.68334   1.68818
 Alpha virt. eigenvalues --    1.71747   1.77980   1.82029   1.86221   1.87691
 Alpha virt. eigenvalues --    1.90932   1.96253   2.08539   2.08646   2.12305
 Alpha virt. eigenvalues --    2.16562   2.20503   2.25131   2.28939   2.35361
 Alpha virt. eigenvalues --    2.42645   2.48666   2.87002   2.92281   3.84546
 Alpha virt. eigenvalues --    4.04191   4.08519   4.13106   4.25481
          Condensed to atoms (all electrons):
               1          2          3          4          5          6
     1  S   14.182899   0.321456   0.321452  -0.177567   0.032675   0.153156
     2  O    0.321456   8.741439  -0.186873  -0.140599  -0.004669  -0.159308
     3  O    0.321452  -0.186873   8.741370  -0.140476   0.009567  -0.159530
     4  N   -0.177567  -0.140599  -0.140476   8.043158   0.235534  -0.122720
     5  H    0.032675  -0.004669   0.009567   0.235534   0.330329  -0.005415
     6  C    0.153156  -0.159308  -0.159530  -0.122720  -0.005415   5.973057
     7  H   -0.005164  -0.008596   0.010205  -0.009496  -0.000033   0.349550
     8  H   -0.029619  -0.005962  -0.005957   0.014058  -0.000079   0.376041
     9  H   -0.005164   0.010200  -0.008602  -0.009495   0.000388   0.349572
    10  H    0.032662   0.009571  -0.004689   0.235475  -0.026260  -0.005363
               7          8          9         10
     1  S   -0.005164  -0.029619  -0.005164   0.032662
     2  O   -0.008596  -0.005962   0.010200   0.009571
     3  O    0.010205  -0.005957  -0.008602  -0.004689
     4  N   -0.009496   0.014058  -0.009495   0.235475
     5  H   -0.000033  -0.000079   0.000388  -0.026260
     6  C    0.349550   0.376041   0.349572  -0.005363
     7  H    0.450146  -0.017458  -0.025814   0.000388
     8  H   -0.017458   0.398079  -0.017451  -0.000079
     9  H   -0.025814  -0.017451   0.450125  -0.000034
    10  H    0.000388  -0.000079  -0.000034   0.330447
 Mulliken charges:
               1
     1  S    1.173214
     2  O   -0.576660
     3  O   -0.576467
     4  N   -0.927872
     5  H    0.427965
     6  C   -0.749039
     7  H    0.256274
     8  H    0.288429
     9  H    0.256275
    10  H    0.427882
 Sum of Mulliken charges =  -0.00000
 Mulliken charges with hydrogens summed into heavy atoms:
               1
     1  S    1.173214
     2  O   -0.576660
     3  O   -0.576467
     4  N   -0.072026
     6  C    0.051939
 Electronic spatial extent (au):  <R**2>=            432.7956
 Charge=             -0.0000 electrons
 Dipole moment (field-independent basis, Debye):
    X=             -2.3654    Y=              5.7326    Z=             -0.0016  Tot=              6.2014
 Quadrupole moment (field-independent basis, Debye-Ang):
   XX=            -35.3346   YY=            -34.9950   ZZ=            -41.9310
   XY=              2.3600   XZ=             -0.0003   YZ=             -0.0057
 Traceless Quadrupole moment (field-independent basis, Debye-Ang):
   XX=              2.0856   YY=              2.4252   ZZ=             -4.5108
   XY=              2.3600   XZ=             -0.0003   YZ=             -0.0057
 Octapole moment (field-independent basis, Debye-Ang**2):
  XXX=             -8.9636  YYY=             10.3542  ZZZ=             -0.0209  XYY=              4.1315
  XXY=              0.8777  XXZ=              0.0144  XZZ=              0.8357  YZZ=             11.0764
  YYZ=              0.0039  XYZ=              0.0084
 Hexadecapole moment (field-independent basis, Debye-Ang**3):
 XXXX=           -220.6948 YYYY=           -159.6862 ZZZZ=           -169.8939 XXXY=              3.4061
 XXXZ=              0.0231 YYYX=             12.7019 YYYZ=             -0.0175 ZZZX=             -0.0042
 ZZZY=             -0.0143 XXYY=            -57.8160 XXZZ=            -60.2681 YYZZ=            -51.6844
 XXYZ=              0.0104 YYXZ=             -0.0000 ZZXY=              3.8755
 N-N= 2.773950576046D+02 E-N=-2.075879886595D+03  KE= 6.408193725097D+02
 Calling FoFJK, ICntrl=      2127 FMM=F ISym2X=0 I1Cent= 0 IOpClX= 0 NMat=1 NMatS=1 NMatT=0.
 ***** Axes restored to original set *****
 -------------------------------------------------------------------
 Center     Atomic                   Forces (Hartrees/Bohr)
 Number     Number              X              Y              Z
 -------------------------------------------------------------------
      1       16          -0.006377706    0.036355637    0.030259469
      2        8          -0.005560761   -0.010498246   -0.013975684
      3        8           0.010800130   -0.011940472   -0.008810452
      4        7           0.001602503   -0.014079546   -0.008907409
      5        1          -0.002020900    0.001530414    0.003269121
      6        6           0.001055700   -0.003838010   -0.004289938
      7        1           0.000470030    0.001074394   -0.001158770
      8        1          -0.000373166   -0.001014832    0.000881616
      9        1           0.000430509    0.001069335   -0.001185473
     10        1          -0.000026338    0.001341326    0.003917520
 -------------------------------------------------------------------
 Cartesian Forces:  Max     0.036355637 RMS     0.010499826

 GradGradGradGradGradGradGradGradGradGradGradGradGradGradGradGradGradGrad
 Berny optimization.
 FormGI is forming the generalized inverse of G from B-inverse, IUseBI=4.
 Internal  Forces:  Max     0.015617060 RMS     0.004937390
 Search for a local minimum.
 Step number   1 out of a maximum of   49
 All quantities printed in internal units (Hartrees-Bohrs-Radians)
 Mixed Optimization -- RFO/linear search
 Second derivative matrix not updated -- first step.
 ITU=  0
     Eigenvalues ---    0.00699   0.01949   0.04498   0.06229   0.06343
     Eigenvalues ---    0.08140   0.08537   0.13801   0.16000   0.16000
     Eigenvalues ---    0.16000   0.16000   0.16000   0.19124   0.25000
     Eigenvalues ---    0.28175   0.34484   0.34624   0.34630   0.42550
     Eigenvalues ---    0.44086   0.44089   0.89158   0.89163
 RFO step:  Lambda=-3.95858168D-03 EMin= 6.98812564D-03
 Linear search not attempted -- first point.
 Iteration  1 RMS(Cart)=  0.02002776 RMS(Int)=  0.00075966
 Iteration  2 RMS(Cart)=  0.00100295 RMS(Int)=  0.00045216
 Iteration  3 RMS(Cart)=  0.00000022 RMS(Int)=  0.00045216
 Variable       Old X    -DE/DX   Delta X   Delta X   Delta X     New X
                                 (Linear)    (Quad)   (Total)
    R1        2.77023  -0.01561   0.00000  -0.01743  -0.01743   2.75280
    R2        2.77021  -0.01562   0.00000  -0.01744  -0.01744   2.75277
    R3        3.11929   0.01024   0.00000   0.02383   0.02383   3.14312
    R4        3.35458   0.00593   0.00000   0.02077   0.02077   3.37535
    R5        1.93052  -0.00266   0.00000  -0.00597  -0.00597   1.92455
    R6        1.93048  -0.00264   0.00000  -0.00593  -0.00593   1.92455
    R7        2.06289  -0.00010   0.00000  -0.00029  -0.00029   2.06260
    R8        2.06522  -0.00125   0.00000  -0.00358  -0.00358   2.06163
    R9        2.06281  -0.00007   0.00000  -0.00020  -0.00020   2.06260
    A1        2.06888   0.00815   0.00000   0.07739   0.07743   2.14632
    A2        1.85485   0.00112   0.00000  -0.00023  -0.00127   1.85359
    A3        1.89279  -0.00393   0.00000  -0.02481  -0.02511   1.86768
    A4        1.85504   0.00111   0.00000  -0.00030  -0.00134   1.85370
    A5        1.89270  -0.00393   0.00000  -0.02481  -0.02512   1.86758
    A6        1.89316  -0.00313   0.00000  -0.03478  -0.03557   1.85759
    A7        1.95583   0.00185   0.00000   0.02415   0.02326   1.97908
    A8        1.95592   0.00187   0.00000   0.02432   0.02342   1.97933
    A9        1.93426   0.00040   0.00000   0.02440   0.02300   1.95726
   A10        1.89022   0.00208   0.00000   0.01469   0.01457   1.90479
   A11        1.87396  -0.00189   0.00000  -0.01546  -0.01540   1.85856
   A12        1.89021   0.00208   0.00000   0.01470   0.01459   1.90480
   A13        1.93346  -0.00064   0.00000  -0.00808  -0.00802   1.92543
   A14        1.94016  -0.00088   0.00000   0.00280   0.00252   1.94268
   A15        1.93354  -0.00065   0.00000  -0.00815  -0.00809   1.92545
    D1       -0.93721   0.00725   0.00000   0.08119   0.08156  -0.85565
    D2       -3.12453   0.00380   0.00000   0.01064   0.01036  -3.11417
    D3        3.12693  -0.00381   0.00000  -0.01106  -0.01078   3.11615
    D4        0.93961  -0.00726   0.00000  -0.08160  -0.08197   0.85764
    D5        1.09486   0.00172   0.00000   0.03509   0.03541   1.13028
    D6       -1.09245  -0.00173   0.00000  -0.03546  -0.03578  -1.12823
    D7        0.95463  -0.00306   0.00000  -0.04174  -0.04151   0.91312
    D8       -1.13398  -0.00239   0.00000  -0.03156  -0.03124  -1.16522
    D9        3.06050  -0.00171   0.00000  -0.02131  -0.02089   3.03961
   D10       -3.06046   0.00171   0.00000   0.02137   0.02095  -3.03951
   D11        1.13412   0.00239   0.00000   0.03155   0.03122   1.16534
   D12       -0.95458   0.00306   0.00000   0.04180   0.04157  -0.91302
   D13       -1.05283  -0.00068   0.00000  -0.01023  -0.01032  -1.06315
   D14       -3.14144  -0.00000   0.00000  -0.00005  -0.00005  -3.14149
   D15        1.05304   0.00067   0.00000   0.01020   0.01030   1.06334
         Item               Value     Threshold  Converged?
 Maximum Force            0.015617     0.000450     NO 
 RMS     Force            0.004937     0.000300     NO 
 Maximum Displacement     0.057535     0.001800     NO 
 RMS     Displacement     0.019635     0.001200     NO 
 Predicted change in Energy=-2.047762D-03
 GradGradGradGradGradGradGradGradGradGradGradGradGradGradGradGradGradGrad

                          Input orientation:                          
 ---------------------------------------------------------------------
 Center     Atomic      Atomic             Coordinates (Angstroms)
 Number     Number       Type             X           Y           Z
 ---------------------------------------------------------------------
      1         16           0       -1.741015    0.378965    1.282818
      2          8           0       -0.608941    0.821672    2.085596
      3          8           0       -3.041520    1.034350    1.316667
      4          7           0       -2.010574   -1.209289    1.696644
      5          1           0       -1.166653   -1.779231    1.684135
      6          6           0       -1.203242    0.373028   -0.420450
      7          1           0       -0.279429   -0.202518   -0.501993
      8          1           0       -1.026045    1.414483   -0.692828
      9          1           0       -1.992045   -0.052702   -1.043247
     10          1           0       -2.772167   -1.639617    1.175115
 ---------------------------------------------------------------------
                    Distance matrix (angstroms):
                    1          2          3          4          5
     1  S    0.000000
     2  O    1.456720   0.000000
     3  O    1.456705   2.560063   0.000000
     4  N    1.663268   2.498131   2.498229   0.000000
     5  H    2.269087   2.690150   3.400941   1.018427   0.000000
     6  C    1.786158   2.614334   2.614229   2.763621   3.010455
     7  H    2.379056   2.802349   3.530795   2.973963   2.837666
     8  H    2.342361   2.871417   2.871361   3.682804   3.983658
     9  H    2.379061   3.530887   2.802191   2.974061   3.331784
    10  H    2.269261   3.400951   2.691224   1.018430   1.690051
                    6          7          8          9         10
     6  C    0.000000
     7  H    1.091482   0.000000
     8  H    1.090970   1.791241   0.000000
     9  H    1.091482   1.802347   1.791251   0.000000
    10  H    3.009667   3.330419   3.983174   2.836903   0.000000
 Stoichiometry    CH5NO2S
 Framework group  C1[X(CH5NO2S)]
 Deg. of freedom    24
 Full point group                 C1      NOp   1
 Largest Abelian subgroup         C1      NOp   1
 Largest concise Abelian subgroup C1      NOp   1
                         Standard orientation:                         
 ---------------------------------------------------------------------
 Center     Atomic      Atomic             Coordinates (Angstroms)
 Number     Number       Type             X           Y           Z
 ---------------------------------------------------------------------
      1         16           0        0.053355   -0.177560    0.000039
      2          8           0        0.165657   -0.863268    1.280362
      3          8           0        0.164360   -0.864535   -1.279700
      4          7           0        1.229063    0.998948   -0.001034
      5          1           0        1.233327    1.567107    0.844170
      6          6           0       -1.515628    0.676049    0.000313
      7          1           0       -1.589984    1.287803    0.901180
      8          1           0       -2.287547   -0.094897    0.001130
      9          1           0       -1.590856    1.286791   -0.901167
     10          1           0        1.231568    1.567656   -0.845880
 ---------------------------------------------------------------------
 Rotational constants (GHZ):           4.6879052           4.3817059           4.2642459
 Basis read from rwf:  (6D, 7F)
 There are   109 symmetry adapted cartesian basis functions of A   symmetry.
 There are   109 symmetry adapted basis functions of A   symmetry.
   109 basis functions,   204 primitive gaussians,   109 cartesian basis functions
    25 alpha electrons       25 beta electrons
       nuclear repulsion energy       277.4617254440 Hartrees.
 NAtoms=   10 NActive=   10 NUniq=   10 SFac= 1.00D+00 NAtFMM=   60 NAOKFM=F Big=F
 Integral buffers will be    131072 words long.
 Raffenetti 2 integral format.
 Two-electron integral symmetry is turned on.
 One-electron integrals computed using PRISM.
 NBasis=   109 RedAO= T EigKep=  4.51D-04  NBF=   109
 NBsUse=   109 1.00D-06 EigRej= -1.00D+00 NBFU=   109
 Initial guess from the checkpoint file:  "/jobfs/40766272.gadi-pbs/Gau-84453.chk"
 B after Tr=    -0.000000    0.000000   -0.000000
         Rot=    0.999695   -0.000107    0.000028    0.024708 Ang=  -2.83 deg.
 ExpMin= 4.05D-02 ExpMax= 2.19D+04 ExpMxC= 3.30D+03 IAcc=3 IRadAn=         5 AccDes= 0.00D+00
 Harris functional with IExCor= 1009 and IRadAn=       5 diagonalized for initial guess.
 HarFok:  IExCor= 1009 AccDes= 0.00D+00 IRadAn=         5 IDoV= 1 UseB2=F ITyADJ=14
 ICtDFT=  3500011 ScaDFX=  1.000000  1.000000  1.000000  1.000000
 FoFCou: FMM=F IPFlag=           0 FMFlag=      100000 FMFlg1=           0
         NFxFlg=           0 DoJE=T BraDBF=F KetDBF=T FulRan=T
         wScrn=  0.000000 ICntrl=       500 IOpCl=  0 I1Cent=   200000004 NGrid=           0
         NMat0=    1 NMatS0=      1 NMatT0=    0 NMatD0=    1 NMtDS0=    0 NMtDT0=    0
 Petite list used in FoFCou.
 Keep R1 ints in memory in canonical form, NReq=32944093.
 Requested convergence on RMS density matrix=1.00D-08 within 128 cycles.
 Requested convergence on MAX density matrix=1.00D-06.
 Requested convergence on             energy=1.00D-06.
 No special actions if energy rises.
 SCF Done:  E(RM062X) =  -644.302595679     A.U. after   11 cycles
            NFock= 11  Conv=0.73D-08     -V/T= 2.0054
 Calling FoFJK, ICntrl=      2127 FMM=F ISym2X=0 I1Cent= 0 IOpClX= 0 NMat=1 NMatS=1 NMatT=0.
 ***** Axes restored to original set *****
 -------------------------------------------------------------------
 Center     Atomic                   Forces (Hartrees/Bohr)
 Number     Number              X              Y              Z
 -------------------------------------------------------------------
      1       16          -0.000111369    0.004817907    0.001671081
      2        8          -0.005945169   -0.002170861   -0.002429516
      3        8           0.005825707   -0.003197510    0.001292964
      4        7           0.000273402   -0.004133548   -0.001953352
      5        1          -0.000608606    0.001817231    0.001673573
      6        6           0.000556042   -0.000435106   -0.001849489
      7        1          -0.000035211    0.000501254    0.000220597
      8        1           0.000254072    0.000509607   -0.000669873
      9        1          -0.000019167    0.000501172    0.000226659
     10        1          -0.000189702    0.001789854    0.001817356
 -------------------------------------------------------------------
 Cartesian Forces:  Max     0.005945169 RMS     0.002288381

 GradGradGradGradGradGradGradGradGradGradGradGradGradGradGradGradGradGrad
 Berny optimization.
 Using GEDIIS/GDIIS optimizer.
 FormGI is forming the generalized inverse of G from B-inverse, IUseBI=4.
 Internal  Forces:  Max     0.006618660 RMS     0.001825432
 Search for a local minimum.
 Step number   2 out of a maximum of   49
 All quantities printed in internal units (Hartrees-Bohrs-Radians)
 Mixed Optimization -- RFO/linear search
 Update second derivatives using D2CorX and points    1    2
 DE= -2.01D-03 DEPred=-2.05D-03 R= 9.83D-01
 TightC=F SS=  1.41D+00  RLast= 1.88D-01 DXNew= 5.0454D-01 5.6327D-01
 Trust test= 9.83D-01 RLast= 1.88D-01 DXMaxT set to 5.05D-01
 ITU=  1  0
 Use linear search instead of GDIIS.
     Eigenvalues ---    0.00699   0.01949   0.03762   0.06057   0.06396
     Eigenvalues ---    0.08773   0.08939   0.15109   0.15957   0.16000
     Eigenvalues ---    0.16000   0.16000   0.17338   0.18633   0.25284
     Eigenvalues ---    0.27590   0.34547   0.34626   0.34638   0.41751
     Eigenvalues ---    0.44010   0.44087   0.81194   0.89161
 RFO step:  Lambda=-4.16805337D-04 EMin= 6.98812564D-03
 Quartic linear search produced a step of  0.01963.
 Iteration  1 RMS(Cart)=  0.01767119 RMS(Int)=  0.00018762
 Iteration  2 RMS(Cart)=  0.00017068 RMS(Int)=  0.00009509
 Iteration  3 RMS(Cart)=  0.00000005 RMS(Int)=  0.00009509
 Variable       Old X    -DE/DX   Delta X   Delta X   Delta X     New X
                                 (Linear)    (Quad)   (Total)
    R1        2.75280  -0.00662  -0.00034  -0.00899  -0.00933   2.74347
    R2        2.75277  -0.00661  -0.00034  -0.00898  -0.00932   2.74345
    R3        3.14312   0.00097   0.00047   0.00426   0.00472   3.14785
    R4        3.37535   0.00220   0.00041   0.00965   0.01006   3.38541
    R5        1.92455  -0.00154  -0.00012  -0.00405  -0.00417   1.92038
    R6        1.92455  -0.00155  -0.00012  -0.00406  -0.00417   1.92038
    R7        2.06260  -0.00031  -0.00001  -0.00093  -0.00094   2.06166
    R8        2.06163   0.00069  -0.00007   0.00176   0.00169   2.06332
    R9        2.06260  -0.00031  -0.00000  -0.00093  -0.00093   2.06167
    A1        2.14632  -0.00051   0.00152  -0.00216  -0.00073   2.14559
    A2        1.85359  -0.00158  -0.00002  -0.00891  -0.00902   1.84457
    A3        1.86768   0.00052  -0.00049   0.00450   0.00403   1.87171
    A4        1.85370  -0.00158  -0.00003  -0.00891  -0.00901   1.84469
    A5        1.86758   0.00053  -0.00049   0.00455   0.00408   1.87167
    A6        1.85759   0.00329  -0.00070   0.01358   0.01287   1.87046
    A7        1.97908  -0.00031   0.00046   0.00687   0.00707   1.98616
    A8        1.97933  -0.00032   0.00046   0.00682   0.00702   1.98636
    A9        1.95726   0.00150   0.00045   0.02226   0.02233   1.97960
   A10        1.90479  -0.00023   0.00029   0.00000   0.00028   1.90508
   A11        1.85856   0.00079  -0.00030   0.00323   0.00293   1.86149
   A12        1.90480  -0.00023   0.00029  -0.00002   0.00027   1.90507
   A13        1.92543  -0.00034  -0.00016  -0.00340  -0.00356   1.92188
   A14        1.94268   0.00037   0.00005   0.00365   0.00369   1.94637
   A15        1.92545  -0.00034  -0.00016  -0.00343  -0.00359   1.92186
    D1       -0.85565  -0.00058   0.00160   0.01469   0.01644  -0.83922
    D2       -3.11417  -0.00214   0.00020  -0.02952  -0.02935   3.13967
    D3        3.11615   0.00213  -0.00021   0.02910   0.02892  -3.13812
    D4        0.85764   0.00057  -0.00161  -0.01511  -0.01686   0.84077
    D5        1.13028   0.00077   0.00070   0.02187   0.02265   1.15292
    D6       -1.12823  -0.00079  -0.00070  -0.02235  -0.02314  -1.15137
    D7        0.91312  -0.00014  -0.00081  -0.00411  -0.00491   0.90821
    D8       -1.16522  -0.00005  -0.00061  -0.00189  -0.00249  -1.16771
    D9        3.03961   0.00003  -0.00041   0.00037  -0.00002   3.03958
   D10       -3.03951  -0.00003   0.00041  -0.00038   0.00001  -3.03950
   D11        1.16534   0.00005   0.00061   0.00183   0.00243   1.16777
   D12       -0.91302   0.00014   0.00082   0.00409   0.00490  -0.90812
   D13       -1.06315  -0.00008  -0.00020  -0.00223  -0.00244  -1.06558
   D14       -3.14149  -0.00000  -0.00000  -0.00001  -0.00002  -3.14150
   D15        1.06334   0.00008   0.00020   0.00225   0.00245   1.06579
         Item               Value     Threshold  Converged?
 Maximum Force            0.006619     0.000450     NO 
 RMS     Force            0.001825     0.000300     NO 
 Maximum Displacement     0.051607     0.001800     NO 
 RMS     Displacement     0.017635     0.001200     NO 
 Predicted change in Energy=-2.108185D-04
 GradGradGradGradGradGradGradGradGradGradGradGradGradGradGradGradGradGrad

                          Input orientation:                          
 ---------------------------------------------------------------------
 Center     Atomic      Atomic             Coordinates (Angstroms)
 Number     Number       Type             X           Y           Z
 ---------------------------------------------------------------------
      1         16           0       -1.739258    0.374349    1.275957
      2          8           0       -0.614710    0.808704    2.084905
      3          8           0       -3.038577    1.020552    1.318745
      4          7           0       -2.011652   -1.213610    1.699006
      5          1           0       -1.171129   -1.784635    1.711444
      6          6           0       -1.198814    0.381369   -0.432047
      7          1           0       -0.272761   -0.189146   -0.516807
      8          1           0       -1.022781    1.425026   -0.700300
      9          1           0       -1.986755   -0.039270   -1.058519
     10          1           0       -2.785193   -1.644195    1.200071
 ---------------------------------------------------------------------
                    Distance matrix (angstroms):
                    1          2          3          4          5
     1  S    0.000000
     2  O    1.451781   0.000000
     3  O    1.451771   2.550885   0.000000
     4  N    1.665768   2.487996   2.488103   0.000000
     5  H    2.274561   2.678522   3.392734   1.016220   0.000000
     6  C    1.791481   2.618938   2.618885   2.783173   3.047440
     7  H    2.383724   2.807408   3.533039   2.997182   2.884051
     8  H    2.350074   2.881621   2.881593   3.700937   4.017516
     9  H    2.383718   3.533083   2.807301   2.997271   3.374053
    10  H    2.274700   3.392734   2.679397   1.016221   1.698949
                    6          7          8          9         10
     6  C    0.000000
     7  H    1.090984   0.000000
     8  H    1.091864   1.789344   0.000000
     9  H    1.090988   1.803799   1.789338   0.000000
    10  H    3.046854   3.373004   4.017166   2.883490   0.000000
 Stoichiometry    CH5NO2S
 Framework group  C1[X(CH5NO2S)]
 Deg. of freedom    24
 Full point group                 C1      NOp   1
 Largest Abelian subgroup         C1      NOp   1
 Largest concise Abelian subgroup C1      NOp   1
                         Standard orientation:                         
 ---------------------------------------------------------------------
 Center     Atomic      Atomic             Coordinates (Angstroms)
 Number     Number       Type             X           Y           Z
 ---------------------------------------------------------------------
      1         16           0        0.049678   -0.175620    0.000124
      2          8           0        0.174016   -0.856718    1.276178
      3          8           0        0.173107   -0.859152   -1.274705
      4          7           0        1.232239    0.997552   -0.001307
      5          1           0        1.257859    1.555006    0.847982
      6          6           0       -1.531241    0.667054   -0.000166
      7          1           0       -1.612213    1.276419    0.901147
      8          1           0       -2.299447   -0.108848    0.000872
      9          1           0       -1.612837    1.274605   -0.902651
     10          1           0        1.256572    1.554500   -0.850966
 ---------------------------------------------------------------------
 Rotational constants (GHZ):           4.7326835           4.3658977           4.2383906
 Basis read from rwf:  (6D, 7F)
 There are   109 symmetry adapted cartesian basis functions of A   symmetry.
 There are   109 symmetry adapted basis functions of A   symmetry.
   109 basis functions,   204 primitive gaussians,   109 cartesian basis functions
    25 alpha electrons       25 beta electrons
       nuclear repulsion energy       277.6046246476 Hartrees.
 NAtoms=   10 NActive=   10 NUniq=   10 SFac= 1.00D+00 NAtFMM=   60 NAOKFM=F Big=F
 Integral buffers will be    131072 words long.
 Raffenetti 2 integral format.
 Two-electron integral symmetry is turned on.
 One-electron integrals computed using PRISM.
 NBasis=   109 RedAO= T EigKep=  4.55D-04  NBF=   109
 NBsUse=   109 1.00D-06 EigRej= -1.00D+00 NBFU=   109
 Initial guess from the checkpoint file:  "/jobfs/40766272.gadi-pbs/Gau-84453.chk"
 B after Tr=     0.000000   -0.000000    0.000000
         Rot=    0.999998    0.000229    0.000068   -0.001837 Ang=   0.21 deg.
 ExpMin= 4.05D-02 ExpMax= 2.19D+04 ExpMxC= 3.30D+03 IAcc=3 IRadAn=         5 AccDes= 0.00D+00
 Harris functional with IExCor= 1009 and IRadAn=       5 diagonalized for initial guess.
 HarFok:  IExCor= 1009 AccDes= 0.00D+00 IRadAn=         5 IDoV= 1 UseB2=F ITyADJ=14
 ICtDFT=  3500011 ScaDFX=  1.000000  1.000000  1.000000  1.000000
 FoFCou: FMM=F IPFlag=           0 FMFlag=      100000 FMFlg1=           0
         NFxFlg=           0 DoJE=T BraDBF=F KetDBF=T FulRan=T
         wScrn=  0.000000 ICntrl=       500 IOpCl=  0 I1Cent=   200000004 NGrid=           0
         NMat0=    1 NMatS0=      1 NMatT0=    0 NMatD0=    1 NMtDS0=    0 NMtDT0=    0
 Petite list used in FoFCou.
 Keep R1 ints in memory in canonical form, NReq=32944093.
 Requested convergence on RMS density matrix=1.00D-08 within 128 cycles.
 Requested convergence on MAX density matrix=1.00D-06.
 Requested convergence on             energy=1.00D-06.
 No special actions if energy rises.
 SCF Done:  E(RM062X) =  -644.302817878     A.U. after   10 cycles
            NFock= 10  Conv=0.67D-08     -V/T= 2.0054
 Calling FoFJK, ICntrl=      2127 FMM=F ISym2X=0 I1Cent= 0 IOpClX= 0 NMat=1 NMatS=1 NMatT=0.
 ***** Axes restored to original set *****
 -------------------------------------------------------------------
 Center     Atomic                   Forces (Hartrees/Bohr)
 Number     Number              X              Y              Z
 -------------------------------------------------------------------
      1       16          -0.000533505   -0.002190504    0.001096754
      2        8          -0.000378260    0.000637145   -0.000460516
      3        8           0.000661531    0.000544409   -0.000133237
      4        7           0.000757139    0.000120134   -0.002340210
      5        1          -0.000020367    0.000355789    0.000729571
      6        6           0.000067641    0.000015168   -0.000210439
      7        1          -0.000016366   -0.000033973    0.000290777
      8        1          -0.000030882    0.000182106    0.000147367
      9        1          -0.000156347   -0.000021129    0.000246385
     10        1          -0.000350584    0.000390854    0.000633548
 -------------------------------------------------------------------
 Cartesian Forces:  Max     0.002340210 RMS     0.000718233

 GradGradGradGradGradGradGradGradGradGradGradGradGradGradGradGradGradGrad
 Berny optimization.
 Using GEDIIS/GDIIS optimizer.
 FormGI is forming the generalized inverse of G from B-inverse, IUseBI=4.
 Internal  Forces:  Max     0.001139133 RMS     0.000395096
 Search for a local minimum.
 Step number   3 out of a maximum of   49
 All quantities printed in internal units (Hartrees-Bohrs-Radians)
 Mixed Optimization -- En-DIIS/RFO-DIIS
 Update second derivatives using D2CorX and points    1    2    3
 DE= -2.22D-04 DEPred=-2.11D-04 R= 1.05D+00
 TightC=F SS=  1.41D+00  RLast= 6.87D-02 DXNew= 8.4853D-01 2.0604D-01
 Trust test= 1.05D+00 RLast= 6.87D-02 DXMaxT set to 5.05D-01
 ITU=  1  1  0
 Use linear search instead of GDIIS.
     Eigenvalues ---    0.00699   0.01949   0.02701   0.06059   0.06385
     Eigenvalues ---    0.08639   0.09584   0.15221   0.15977   0.16000
     Eigenvalues ---    0.16000   0.16164   0.17626   0.18765   0.26662
     Eigenvalues ---    0.29199   0.34534   0.34626   0.34637   0.43455
     Eigenvalues ---    0.43657   0.44087   0.80133   0.89161
 RFO step:  Lambda=-6.10008359D-05 EMin= 6.98812545D-03
 Quartic linear search produced a step of  0.06741.
 Iteration  1 RMS(Cart)=  0.00499129 RMS(Int)=  0.00005916
 Iteration  2 RMS(Cart)=  0.00004025 RMS(Int)=  0.00004389
 Iteration  3 RMS(Cart)=  0.00000000 RMS(Int)=  0.00004389
 Variable       Old X    -DE/DX   Delta X   Delta X   Delta X     New X
                                 (Linear)    (Quad)   (Total)
    R1        2.74347  -0.00036  -0.00063  -0.00137  -0.00200   2.74147
    R2        2.74345  -0.00035  -0.00063  -0.00137  -0.00200   2.74145
    R3        3.14785  -0.00114   0.00032  -0.00218  -0.00187   3.14598
    R4        3.38541  -0.00049   0.00068  -0.00083  -0.00015   3.38526
    R5        1.92038  -0.00021  -0.00028  -0.00090  -0.00118   1.91919
    R6        1.92038  -0.00021  -0.00028  -0.00091  -0.00119   1.91919
    R7        2.06166  -0.00002  -0.00006  -0.00013  -0.00019   2.06147
    R8        2.06332   0.00013   0.00011   0.00049   0.00060   2.06392
    R9        2.06167  -0.00002  -0.00006  -0.00013  -0.00020   2.06147
    A1        2.14559  -0.00039  -0.00005  -0.00319  -0.00326   2.14233
    A2        1.84457   0.00069  -0.00061   0.00493   0.00432   1.84888
    A3        1.87171  -0.00022   0.00027  -0.00277  -0.00250   1.86921
    A4        1.84469   0.00069  -0.00061   0.00490   0.00428   1.84898
    A5        1.87167  -0.00022   0.00028  -0.00276  -0.00249   1.86917
    A6        1.87046  -0.00058   0.00087  -0.00062   0.00025   1.87071
    A7        1.98616   0.00011   0.00048   0.00526   0.00561   1.99177
    A8        1.98636   0.00010   0.00047   0.00521   0.00556   1.99192
    A9        1.97960   0.00037   0.00151   0.00999   0.01131   1.99091
   A10        1.90508  -0.00033   0.00002  -0.00205  -0.00203   1.90305
   A11        1.86149  -0.00017   0.00020  -0.00106  -0.00086   1.86063
   A12        1.90507  -0.00033   0.00002  -0.00204  -0.00202   1.90304
   A13        1.92188   0.00024  -0.00024   0.00133   0.00108   1.92296
   A14        1.94637   0.00032   0.00025   0.00228   0.00253   1.94890
   A15        1.92186   0.00024  -0.00024   0.00132   0.00108   1.92294
    D1       -0.83922   0.00057   0.00111   0.01352   0.01468  -0.82454
    D2        3.13967  -0.00019  -0.00198  -0.01161  -0.01362   3.12606
    D3       -3.13812   0.00018   0.00195   0.01123   0.01321  -3.12491
    D4        0.84077  -0.00057  -0.00114  -0.01390  -0.01508   0.82569
    D5        1.15292   0.00037   0.00153   0.01238   0.01394   1.16687
    D6       -1.15137  -0.00038  -0.00156  -0.01275  -0.01435  -1.16572
    D7        0.90821   0.00042  -0.00033   0.00392   0.00359   0.91179
    D8       -1.16771   0.00041  -0.00017   0.00404   0.00387  -1.16384
    D9        3.03958   0.00040  -0.00000   0.00416   0.00415   3.04374
   D10       -3.03950  -0.00040   0.00000  -0.00417  -0.00416  -3.04366
   D11        1.16777  -0.00041   0.00016  -0.00405  -0.00388   1.16389
   D12       -0.90812  -0.00042   0.00033  -0.00393  -0.00360  -0.91172
   D13       -1.06558   0.00001  -0.00016  -0.00014  -0.00030  -1.06589
   D14       -3.14150  -0.00000  -0.00000  -0.00002  -0.00002  -3.14152
   D15        1.06579  -0.00001   0.00017   0.00010   0.00026   1.06605
         Item               Value     Threshold  Converged?
 Maximum Force            0.001139     0.000450     NO 
 RMS     Force            0.000395     0.000300     NO 
 Maximum Displacement     0.014374     0.001800     NO 
 RMS     Displacement     0.004975     0.001200     NO 
 Predicted change in Energy=-3.168427D-05
 GradGradGradGradGradGradGradGradGradGradGradGradGradGradGradGradGradGrad

                          Input orientation:                          
 ---------------------------------------------------------------------
 Center     Atomic      Atomic             Coordinates (Angstroms)
 Number     Number       Type             X           Y           Z
 ---------------------------------------------------------------------
      1         16           0       -1.739033    0.371547    1.274491
      2          8           0       -0.615450    0.809973    2.080678
      3          8           0       -3.035403    1.021391    1.315749
      4          7           0       -2.010210   -1.216599    1.693720
      5          1           0       -1.171148   -1.788230    1.719050
      6          6           0       -1.198240    0.383178   -0.433294
      7          1           0       -0.271693   -0.186495   -0.517005
      8          1           0       -1.023199    1.428196   -0.698165
      9          1           0       -1.986997   -0.036573   -1.059154
     10          1           0       -2.790259   -1.647244    1.206386
 ---------------------------------------------------------------------
                    Distance matrix (angstroms):
                    1          2          3          4          5
     1  S    0.000000
     2  O    1.450721   0.000000
     3  O    1.450715   2.546759   0.000000
     4  N    1.664781   2.490398   2.490478   0.000000
     5  H    2.277007   2.681461   3.395890   1.015593   0.000000
     6  C    1.791403   2.615693   2.615652   2.782583   3.057505
     7  H    2.382007   2.803404   3.529315   2.995139   2.893876
     8  H    2.349532   2.875835   2.875814   3.700033   4.026191
     9  H    2.382005   3.529352   2.803321   2.995216   3.384130
    10  H    2.277110   3.395893   2.682101   1.015592   1.704178
                    6          7          8          9         10
     6  C    0.000000
     7  H    1.090882   0.000000
     8  H    1.092181   1.790197   0.000000
     9  H    1.090884   1.805178   1.790186   0.000000
    10  H    3.057072   3.383347   4.025934   2.893469   0.000000
 Stoichiometry    CH5NO2S
 Framework group  C1[X(CH5NO2S)]
 Deg. of freedom    24
 Full point group                 C1      NOp   1
 Largest Abelian subgroup         C1      NOp   1
 Largest concise Abelian subgroup C1      NOp   1
                         Standard orientation:                         
 ---------------------------------------------------------------------
 Center     Atomic      Atomic             Coordinates (Angstroms)
 Number     Number       Type             X           Y           Z
 ---------------------------------------------------------------------
      1         16           0        0.049146   -0.174828    0.000073
      2          8           0        0.160609   -0.860176    1.273833
      3          8           0        0.159930   -0.861689   -1.272926
      4          7           0        1.243358    0.985065   -0.000853
      5          1           0        1.287436    1.536037    0.851154
      6          6           0       -1.522903    0.684117   -0.000058
      7          1           0       -1.595764    1.292982    0.902161
      8          1           0       -2.298657   -0.084690    0.000625
      9          1           0       -1.596239    1.291830   -0.903017
     10          1           0        1.286488    1.535855   -0.853024
 ---------------------------------------------------------------------
 Rotational constants (GHZ):           4.7374757           4.3646497           4.2445233
 Basis read from rwf:  (6D, 7F)
 There are   109 symmetry adapted cartesian basis functions of A   symmetry.
 There are   109 symmetry adapted basis functions of A   symmetry.
   109 basis functions,   204 primitive gaussians,   109 cartesian basis functions
    25 alpha electrons       25 beta electrons
       nuclear repulsion energy       277.7194942929 Hartrees.
 NAtoms=   10 NActive=   10 NUniq=   10 SFac= 1.00D+00 NAtFMM=   60 NAOKFM=F Big=F
 Integral buffers will be    131072 words long.
 Raffenetti 2 integral format.
 Two-electron integral symmetry is turned on.
 One-electron integrals computed using PRISM.
 NBasis=   109 RedAO= T EigKep=  4.55D-04  NBF=   109
 NBsUse=   109 1.00D-06 EigRej= -1.00D+00 NBFU=   109
 Initial guess from the checkpoint file:  "/jobfs/40766272.gadi-pbs/Gau-84453.chk"
 B after Tr=    -0.000000    0.000000    0.000000
         Rot=    0.999981   -0.000172    0.000045    0.006236 Ang=  -0.71 deg.
 Keep R1 ints in memory in canonical form, NReq=32944093.
 Requested convergence on RMS density matrix=1.00D-08 within 128 cycles.
 Requested convergence on MAX density matrix=1.00D-06.
 Requested convergence on             energy=1.00D-06.
 No special actions if energy rises.
 SCF Done:  E(RM062X) =  -644.302854695     A.U. after   10 cycles
            NFock= 10  Conv=0.24D-08     -V/T= 2.0054
 Calling FoFJK, ICntrl=      2127 FMM=F ISym2X=0 I1Cent= 0 IOpClX= 0 NMat=1 NMatS=1 NMatT=0.
 ***** Axes restored to original set *****
 -------------------------------------------------------------------
 Center     Atomic                   Forces (Hartrees/Bohr)
 Number     Number              X              Y              Z
 -------------------------------------------------------------------
      1       16           0.000088424   -0.001652840   -0.000734000
      2        8           0.000705917    0.000185954    0.000828528
      3        8          -0.001015673    0.000334247    0.000283181
      4        7           0.000539151    0.001321530   -0.001321343
      5        1          -0.000015859    0.000065808    0.000365845
      6        6          -0.000054384   -0.000085282    0.000149276
      7        1          -0.000016854   -0.000083198   -0.000031246
      8        1          -0.000058723   -0.000084830    0.000163257
      9        1           0.000019091   -0.000086701   -0.000019465
     10        1          -0.000191090    0.000085313    0.000315968
 -------------------------------------------------------------------
 Cartesian Forces:  Max     0.001652840 RMS     0.000573664

 GradGradGradGradGradGradGradGradGradGradGradGradGradGradGradGradGradGrad
 Berny optimization.
 Using GEDIIS/GDIIS optimizer.
 FormGI is forming the generalized inverse of G from B-inverse, IUseBI=4.
 Internal  Forces:  Max     0.001620791 RMS     0.000393023
 Search for a local minimum.
 Step number   4 out of a maximum of   49
 All quantities printed in internal units (Hartrees-Bohrs-Radians)
 Mixed Optimization -- En-DIIS/RFO-DIIS
 Swapping is turned off.
 Update second derivatives using D2CorX and points    1    2    3    4
 DE= -3.68D-05 DEPred=-3.17D-05 R= 1.16D+00
 TightC=F SS=  1.41D+00  RLast= 3.97D-02 DXNew= 8.4853D-01 1.1913D-01
 Trust test= 1.16D+00 RLast= 3.97D-02 DXMaxT set to 5.05D-01
 ITU=  1  1  1  0
     Eigenvalues ---    0.00699   0.01437   0.01949   0.06079   0.06400
     Eigenvalues ---    0.08628   0.10207   0.15835   0.15925   0.16000
     Eigenvalues ---    0.16000   0.16749   0.18772   0.19656   0.26679
     Eigenvalues ---    0.29041   0.34579   0.34627   0.34683   0.42382
     Eigenvalues ---    0.44087   0.44805   0.89161   0.95369
 En-DIIS/RFO-DIIS/Sim-DIIS IScMMF=       -3 using points:     4    3
 RFO step:  Lambda=-3.20069968D-05.
 DidBck=F Rises=F RFO-DIIS coefs:    1.90604   -0.90604
 Iteration  1 RMS(Cart)=  0.00402224 RMS(Int)=  0.00008959
 Iteration  2 RMS(Cart)=  0.00004591 RMS(Int)=  0.00007816
 Iteration  3 RMS(Cart)=  0.00000001 RMS(Int)=  0.00007816
 Variable       Old X    -DE/DX   Delta X   Delta X   Delta X     New X
                                 (Linear)    (Quad)   (Total)
    R1        2.74147   0.00106  -0.00182   0.00167  -0.00015   2.74132
    R2        2.74145   0.00107  -0.00181   0.00167  -0.00014   2.74131
    R3        3.14598  -0.00162  -0.00169  -0.00334  -0.00503   3.14095
    R4        3.38526  -0.00028  -0.00013  -0.00036  -0.00050   3.38476
    R5        1.91919  -0.00004  -0.00107   0.00012  -0.00095   1.91824
    R6        1.91919  -0.00004  -0.00108   0.00012  -0.00095   1.91823
    R7        2.06147   0.00003  -0.00018   0.00014  -0.00003   2.06143
    R8        2.06392  -0.00013   0.00054  -0.00067  -0.00012   2.06380
    R9        2.06147   0.00003  -0.00018   0.00014  -0.00004   2.06143
    A1        2.14233  -0.00014  -0.00296   0.00195  -0.00103   2.14130
    A2        1.84888  -0.00010   0.00391  -0.00432  -0.00041   1.84847
    A3        1.86921   0.00034  -0.00227   0.00392   0.00164   1.87085
    A4        1.84898  -0.00010   0.00388  -0.00433  -0.00045   1.84852
    A5        1.86917   0.00034  -0.00226   0.00392   0.00166   1.87083
    A6        1.87071  -0.00041   0.00022  -0.00195  -0.00172   1.86899
    A7        1.99177   0.00015   0.00509   0.00152   0.00638   1.99815
    A8        1.99192   0.00014   0.00504   0.00150   0.00631   1.99823
    A9        1.99091   0.00007   0.01025   0.00027   0.01020   2.00111
   A10        1.90305   0.00004  -0.00184   0.00134  -0.00051   1.90254
   A11        1.86063  -0.00021  -0.00078  -0.00103  -0.00182   1.85881
   A12        1.90304   0.00004  -0.00183   0.00133  -0.00050   1.90254
   A13        1.92296   0.00009   0.00098   0.00000   0.00098   1.92394
   A14        1.94890  -0.00006   0.00229  -0.00159   0.00070   1.94960
   A15        1.92294   0.00009   0.00098   0.00001   0.00099   1.92393
    D1       -0.82454   0.00005   0.01330   0.00015   0.01352  -0.81102
    D2        3.12606  -0.00036  -0.01234  -0.00342  -0.01582   3.11024
    D3       -3.12491   0.00035   0.01197   0.00329   0.01533  -3.10958
    D4        0.82569  -0.00005  -0.01367  -0.00027  -0.01401   0.81168
    D5        1.16687   0.00020   0.01263   0.00172   0.01442   1.18129
    D6       -1.16572  -0.00020  -0.01300  -0.00184  -0.01491  -1.18063
    D7        0.91179  -0.00014   0.00325  -0.00390  -0.00065   0.91114
    D8       -1.16384  -0.00015   0.00351  -0.00403  -0.00053  -1.16437
    D9        3.04374  -0.00016   0.00376  -0.00418  -0.00042   3.04332
   D10       -3.04366   0.00016  -0.00377   0.00417   0.00041  -3.04325
   D11        1.16389   0.00015  -0.00352   0.00403   0.00052   1.16442
   D12       -0.91172   0.00014  -0.00326   0.00389   0.00064  -0.91108
   D13       -1.06589   0.00001  -0.00028   0.00013  -0.00014  -1.06603
   D14       -3.14152  -0.00000  -0.00002  -0.00001  -0.00003  -3.14155
   D15        1.06605  -0.00001   0.00024  -0.00015   0.00009   1.06614
         Item               Value     Threshold  Converged?
 Maximum Force            0.001621     0.000450     NO 
 RMS     Force            0.000393     0.000300     NO 
 Maximum Displacement     0.012750     0.001800     NO 
 RMS     Displacement     0.004012     0.001200     NO 
 Predicted change in Energy=-1.617793D-05
 GradGradGradGradGradGradGradGradGradGradGradGradGradGradGradGradGradGrad

                          Input orientation:                          
 ---------------------------------------------------------------------
 Center     Atomic      Atomic             Coordinates (Angstroms)
 Number     Number       Type             X           Y           Z
 ---------------------------------------------------------------------
      1         16           0       -1.738428    0.370832    1.272402
      2          8           0       -0.616209    0.807971    2.081040
      3          8           0       -3.035358    1.019212    1.316358
      4          7           0       -2.007990   -1.216025    1.686973
      5          1           0       -1.170832   -1.788804    1.725629
      6          6           0       -1.197574    0.384051   -0.435076
      7          1           0       -0.270808   -0.185256   -0.518617
      8          1           0       -1.023378    1.429830   -0.697215
      9          1           0       -1.986490   -0.035389   -1.060910
     10          1           0       -2.794564   -1.647279    1.211871
 ---------------------------------------------------------------------
                    Distance matrix (angstroms):
                    1          2          3          4          5
     1  S    0.000000
     2  O    1.450642   0.000000
     3  O    1.450640   2.545907   0.000000
     4  N    1.662121   2.487751   2.487795   0.000000
     5  H    2.278510   2.679023   3.395426   1.015088   0.000000
     6  C    1.791139   2.616970   2.616945   2.778508   3.064419
     7  H    2.381364   2.804285   3.529959   2.990805   2.901388
     8  H    2.347801   2.875969   2.875961   3.695181   4.031318
     9  H    2.381364   3.529982   2.804231   2.990857   3.391838
    10  H    2.278565   3.395429   2.679379   1.015086   1.708942
                    6          7          8          9         10
     6  C    0.000000
     7  H    1.090864   0.000000
     8  H    1.092115   1.790743   0.000000
     9  H    1.090864   1.805576   1.790733   0.000000
    10  H    3.064165   3.391377   4.031167   2.901156   0.000000
 Stoichiometry    CH5NO2S
 Framework group  C1[X(CH5NO2S)]
 Deg. of freedom    24
 Full point group                 C1      NOp   1
 Largest Abelian subgroup         C1      NOp   1
 Largest concise Abelian subgroup C1      NOp   1
                         Standard orientation:                         
 ---------------------------------------------------------------------
 Center     Atomic      Atomic             Coordinates (Angstroms)
 Number     Number       Type             X           Y           Z
 ---------------------------------------------------------------------
      1         16           0        0.049228   -0.174286    0.000038
      2          8           0        0.166007   -0.859707    1.273192
      3          8           0        0.165617   -0.860513   -1.272715
      4          7           0        1.234452    0.991000   -0.000467
      5          1           0        1.288630    1.536358    0.853964
      6          6           0       -1.526330    0.677651   -0.000014
      7          1           0       -1.601497    1.285656    0.902573
      8          1           0       -2.297263   -0.095898    0.000365
      9          1           0       -1.601778    1.285026   -0.903003
     10          1           0        1.288078    1.536287   -0.854977
 ---------------------------------------------------------------------
 Rotational constants (GHZ):           4.7395736           4.3688418           4.2486433
 Basis read from rwf:  (6D, 7F)
 There are   109 symmetry adapted cartesian basis functions of A   symmetry.
 There are   109 symmetry adapted basis functions of A   symmetry.
   109 basis functions,   204 primitive gaussians,   109 cartesian basis functions
    25 alpha electrons       25 beta electrons
       nuclear repulsion energy       277.8202646427 Hartrees.
 NAtoms=   10 NActive=   10 NUniq=   10 SFac= 1.00D+00 NAtFMM=   60 NAOKFM=F Big=F
 Integral buffers will be    131072 words long.
 Raffenetti 2 integral format.
 Two-electron integral symmetry is turned on.
 One-electron integrals computed using PRISM.
 NBasis=   109 RedAO= T EigKep=  4.55D-04  NBF=   109
 NBsUse=   109 1.00D-06 EigRej= -1.00D+00 NBFU=   109
 Initial guess from the checkpoint file:  "/jobfs/40766272.gadi-pbs/Gau-84453.chk"
 B after Tr=     0.000000    0.000000    0.000000
         Rot=    0.999997   -0.000132    0.000050   -0.002360 Ang=  -0.27 deg.
 Keep R1 ints in memory in canonical form, NReq=32944093.
 Requested convergence on RMS density matrix=1.00D-08 within 128 cycles.
 Requested convergence on MAX density matrix=1.00D-06.
 Requested convergence on             energy=1.00D-06.
 No special actions if energy rises.
 SCF Done:  E(RM062X) =  -644.302874801     A.U. after   10 cycles
            NFock= 10  Conv=0.25D-08     -V/T= 2.0054
 Calling FoFJK, ICntrl=      2127 FMM=F ISym2X=0 I1Cent= 0 IOpClX= 0 NMat=1 NMatS=1 NMatT=0.
 ***** Axes restored to original set *****
 -------------------------------------------------------------------
 Center     Atomic                   Forces (Hartrees/Bohr)
 Number     Number              X              Y              Z
 -------------------------------------------------------------------
      1       16          -0.000021127   -0.001733564   -0.000415229
      2        8           0.001021666    0.000353627    0.000610205
      3        8          -0.001116568    0.000539056   -0.000066643
      4        7           0.000249558    0.001035958   -0.000490610
      5        1          -0.000067928   -0.000151891    0.000080935
      6        6          -0.000090464    0.000339528    0.000381922
      7        1          -0.000035919   -0.000060534   -0.000061802
      8        1           0.000025261   -0.000098381   -0.000105617
      9        1           0.000054612   -0.000069347   -0.000032748
     10        1          -0.000019090   -0.000154450    0.000099587
 -------------------------------------------------------------------
 Cartesian Forces:  Max     0.001733564 RMS     0.000516851

 GradGradGradGradGradGradGradGradGradGradGradGradGradGradGradGradGradGrad
 Berny optimization.
 Using GEDIIS/GDIIS optimizer.
 FormGI is forming the generalized inverse of G from B-inverse, IUseBI=4.
 Internal  Forces:  Max     0.001237170 RMS     0.000320479
 Search for a local minimum.
 Step number   5 out of a maximum of   49
 All quantities printed in internal units (Hartrees-Bohrs-Radians)
 Mixed Optimization -- En-DIIS/RFO-DIIS
 Swapping is turned off.
 Update second derivatives using D2CorX and points    1    2    3    4    5
 DE= -2.01D-05 DEPred=-1.62D-05 R= 1.24D+00
 TightC=F SS=  1.41D+00  RLast= 3.90D-02 DXNew= 8.4853D-01 1.1714D-01
 Trust test= 1.24D+00 RLast= 3.90D-02 DXMaxT set to 5.05D-01
 ITU=  1  1  1  1  0
     Eigenvalues ---    0.00699   0.01043   0.01949   0.06123   0.06413
     Eigenvalues ---    0.08640   0.10586   0.15739   0.16000   0.16000
     Eigenvalues ---    0.16737   0.17316   0.18757   0.20621   0.27083
     Eigenvalues ---    0.28307   0.34590   0.34627   0.34697   0.39248
     Eigenvalues ---    0.43695   0.44087   0.89161   0.92815
 En-DIIS/RFO-DIIS/Sim-DIIS IScMMF=       -3 using points:     5    4    3
 RFO step:  Lambda=-1.17116441D-05.
 DidBck=F Rises=F RFO-DIIS coefs:    1.31958   -0.11045   -0.20912
 Iteration  1 RMS(Cart)=  0.00233068 RMS(Int)=  0.00005502
 Iteration  2 RMS(Cart)=  0.00001489 RMS(Int)=  0.00005315
 Iteration  3 RMS(Cart)=  0.00000000 RMS(Int)=  0.00005315
 Variable       Old X    -DE/DX   Delta X   Delta X   Delta X     New X
                                 (Linear)    (Quad)   (Total)
    R1        2.74132   0.00124  -0.00047   0.00164   0.00117   2.74248
    R2        2.74131   0.00124  -0.00046   0.00163   0.00117   2.74248
    R3        3.14095  -0.00080  -0.00200  -0.00166  -0.00365   3.13730
    R4        3.38476  -0.00019  -0.00019  -0.00064  -0.00083   3.38393
    R5        1.91824   0.00003  -0.00055   0.00021  -0.00035   1.91789
    R6        1.91823   0.00003  -0.00055   0.00021  -0.00035   1.91789
    R7        2.06143   0.00001  -0.00005   0.00002  -0.00003   2.06140
    R8        2.06380  -0.00006   0.00009  -0.00018  -0.00010   2.06370
    R9        2.06143   0.00001  -0.00005   0.00002  -0.00003   2.06140
    A1        2.14130   0.00009  -0.00101   0.00040  -0.00062   2.14068
    A2        1.84847   0.00003   0.00077  -0.00020   0.00057   1.84904
    A3        1.87085  -0.00008   0.00000  -0.00026  -0.00026   1.87060
    A4        1.84852   0.00003   0.00075  -0.00021   0.00054   1.84907
    A5        1.87083  -0.00008   0.00001  -0.00026  -0.00025   1.87058
    A6        1.86899   0.00003  -0.00050   0.00062   0.00012   1.86911
    A7        1.99815   0.00020   0.00321   0.00120   0.00426   2.00240
    A8        1.99823   0.00020   0.00318   0.00119   0.00421   2.00244
    A9        2.00111  -0.00020   0.00563  -0.00167   0.00374   2.00485
   A10        1.90254   0.00002  -0.00059   0.00006  -0.00053   1.90201
   A11        1.85881   0.00021  -0.00076   0.00210   0.00134   1.86015
   A12        1.90254   0.00002  -0.00058   0.00005  -0.00053   1.90201
   A13        1.92394  -0.00007   0.00054  -0.00028   0.00026   1.92420
   A14        1.94960  -0.00010   0.00075  -0.00148  -0.00073   1.94887
   A15        1.92393  -0.00007   0.00054  -0.00027   0.00027   1.92420
    D1       -0.81102   0.00013   0.00739   0.00009   0.00753  -0.80349
    D2        3.11024   0.00000  -0.00790   0.00004  -0.00790   3.10233
    D3       -3.10958  -0.00001   0.00766  -0.00013   0.00758  -3.10200
    D4        0.81168  -0.00013  -0.00763  -0.00018  -0.00786   0.80382
    D5        1.18129   0.00006   0.00753  -0.00002   0.00755   1.18885
    D6       -1.18063  -0.00007  -0.00777  -0.00007  -0.00788  -1.18851
    D7        0.91114   0.00005   0.00054   0.00080   0.00134   0.91248
    D8       -1.16437   0.00001   0.00064  -0.00007   0.00057  -1.16381
    D9        3.04332  -0.00004   0.00073  -0.00095  -0.00022   3.04310
   D10       -3.04325   0.00004  -0.00074   0.00093   0.00019  -3.04306
   D11        1.16442  -0.00001  -0.00064   0.00006  -0.00058   1.16383
   D12       -0.91108  -0.00005  -0.00055  -0.00082  -0.00137  -0.91245
   D13       -1.06603   0.00005  -0.00011   0.00087   0.00076  -1.06528
   D14       -3.14155  -0.00000  -0.00001  -0.00001  -0.00002  -3.14157
   D15        1.06614  -0.00005   0.00008  -0.00089  -0.00080   1.06534
         Item               Value     Threshold  Converged?
 Maximum Force            0.001237     0.000450     NO 
 RMS     Force            0.000320     0.000300     NO 
 Maximum Displacement     0.007240     0.001800     NO 
 RMS     Displacement     0.002325     0.001200     NO 
 Predicted change in Energy=-5.778576D-06
 GradGradGradGradGradGradGradGradGradGradGradGradGradGradGradGradGradGrad

                          Input orientation:                          
 ---------------------------------------------------------------------
 Center     Atomic      Atomic             Coordinates (Angstroms)
 Number     Number       Type             X           Y           Z
 ---------------------------------------------------------------------
      1         16           0       -1.738212    0.369706    1.271414
      2          8           0       -0.615841    0.807259    2.080728
      3          8           0       -3.035617    1.018490    1.315844
      4          7           0       -2.006882   -1.215906    1.683571
      5          1           0       -1.171282   -1.790100    1.729461
      6          6           0       -1.197286    0.385403   -0.435558
      7          1           0       -0.270706   -0.184144   -0.519302
      8          1           0       -1.023142    1.431151   -0.697643
      9          1           0       -1.985936   -0.034382   -1.061466
     10          1           0       -2.796727   -1.648336    1.215407
 ---------------------------------------------------------------------
                    Distance matrix (angstroms):
                    1          2          3          4          5
     1  S    0.000000
     2  O    1.451260   0.000000
     3  O    1.451260   2.546562   0.000000
     4  N    1.660188   2.487152   2.487176   0.000000
     5  H    2.279469   2.679212   3.396321   1.014904   0.000000
     6  C    1.790699   2.616818   2.616805   2.776751   3.069332
     7  H    2.380543   2.803953   3.529706   2.988559   2.906383
     8  H    2.348441   2.876540   2.876539   3.693892   4.035992
     9  H    2.380542   3.529717   2.803921   2.988589   3.396391
    10  H    2.279493   3.396320   2.679387   1.014903   1.710678
                    6          7          8          9         10
     6  C    0.000000
     7  H    1.090848   0.000000
     8  H    1.092064   1.790850   0.000000
     9  H    1.090847   1.805100   1.790845   0.000000
    10  H    3.069201   3.396153   4.035914   2.906265   0.000000
 Stoichiometry    CH5NO2S
 Framework group  C1[X(CH5NO2S)]
 Deg. of freedom    24
 Full point group                 C1      NOp   1
 Largest Abelian subgroup         C1      NOp   1
 Largest concise Abelian subgroup C1      NOp   1
                         Standard orientation:                         
 ---------------------------------------------------------------------
 Center     Atomic      Atomic             Coordinates (Angstroms)
 Number     Number       Type             X           Y           Z
 ---------------------------------------------------------------------
      1         16           0        0.049266   -0.173651    0.000021
      2          8           0        0.165386   -0.860057    1.273410
      3          8           0        0.165185   -0.860489   -1.273152
      4          7           0        1.233147    0.990244   -0.000247
      5          1           0        1.295081    1.533048    0.855065
      6          6           0       -1.525985    0.677929   -0.000012
      7          1           0       -1.600414    1.286213    0.902429
      8          1           0       -2.297845   -0.094622    0.000192
      9          1           0       -1.600561    1.285870   -0.902671
     10          1           0        1.294797    1.532992   -0.855613
 ---------------------------------------------------------------------
 Rotational constants (GHZ):           4.7396713           4.3712593           4.2487917
 Basis read from rwf:  (6D, 7F)
 There are   109 symmetry adapted cartesian basis functions of A   symmetry.
 There are   109 symmetry adapted basis functions of A   symmetry.
   109 basis functions,   204 primitive gaussians,   109 cartesian basis functions
    25 alpha electrons       25 beta electrons
       nuclear repulsion energy       277.8338034441 Hartrees.
 NAtoms=   10 NActive=   10 NUniq=   10 SFac= 1.00D+00 NAtFMM=   60 NAOKFM=F Big=F
 Integral buffers will be    131072 words long.
 Raffenetti 2 integral format.
 Two-electron integral symmetry is turned on.
 One-electron integrals computed using PRISM.
 NBasis=   109 RedAO= T EigKep=  4.54D-04  NBF=   109
 NBsUse=   109 1.00D-06 EigRej= -1.00D+00 NBFU=   109
 Initial guess from the checkpoint file:  "/jobfs/40766272.gadi-pbs/Gau-84453.chk"
 B after Tr=    -0.000000    0.000000   -0.000000
         Rot=    1.000000   -0.000069    0.000034    0.000330 Ang=  -0.04 deg.
 Keep R1 ints in memory in canonical form, NReq=32944093.
 Requested convergence on RMS density matrix=1.00D-08 within 128 cycles.
 Requested convergence on MAX density matrix=1.00D-06.
 Requested convergence on             energy=1.00D-06.
 No special actions if energy rises.
 SCF Done:  E(RM062X) =  -644.302881473     A.U. after    9 cycles
            NFock=  9  Conv=0.92D-08     -V/T= 2.0054
 Calling FoFJK, ICntrl=      2127 FMM=F ISym2X=0 I1Cent= 0 IOpClX= 0 NMat=1 NMatS=1 NMatT=0.
 ***** Axes restored to original set *****
 -------------------------------------------------------------------
 Center     Atomic                   Forces (Hartrees/Bohr)
 Number     Number              X              Y              Z
 -------------------------------------------------------------------
      1       16          -0.000000369   -0.000428810   -0.000119078
      2        8           0.000496234    0.000033301    0.000241919
      3        8          -0.000532680    0.000122122   -0.000083900
      4        7           0.000072128    0.000470510   -0.000093004
      5        1          -0.000045005   -0.000108104   -0.000003945
      6        6          -0.000055971    0.000177726    0.000228040
      7        1           0.000005507   -0.000037242   -0.000073328
      8        1           0.000009294   -0.000076139   -0.000049798
      9        1           0.000031305   -0.000040107   -0.000065160
     10        1           0.000019556   -0.000113258    0.000018255
 -------------------------------------------------------------------
 Cartesian Forces:  Max     0.000532680 RMS     0.000198398

 GradGradGradGradGradGradGradGradGradGradGradGradGradGradGradGradGradGrad
 Berny optimization.
 Using GEDIIS/GDIIS optimizer.
 FormGI is forming the generalized inverse of G from B-inverse, IUseBI=4.
 Internal  Forces:  Max     0.000528729 RMS     0.000141622
 Search for a local minimum.
 Step number   6 out of a maximum of   49
 All quantities printed in internal units (Hartrees-Bohrs-Radians)
 Mixed Optimization -- En-DIIS/RFO-DIIS
 Swapping is turned off.
 Update second derivatives using D2CorX and points    1    2    3    4    5
                                                      6
 DE= -6.67D-06 DEPred=-5.78D-06 R= 1.15D+00
 TightC=F SS=  1.41D+00  RLast= 2.08D-02 DXNew= 8.4853D-01 6.2513D-02
 Trust test= 1.15D+00 RLast= 2.08D-02 DXMaxT set to 5.05D-01
 ITU=  1  1  1  1  1  0
     Eigenvalues ---    0.00699   0.00951   0.01949   0.06032   0.06405
     Eigenvalues ---    0.08637   0.11279   0.15601   0.16000   0.16000
     Eigenvalues ---    0.16715   0.17513   0.18759   0.21160   0.26916
     Eigenvalues ---    0.29608   0.34594   0.34627   0.34729   0.36962
     Eigenvalues ---    0.43458   0.44087   0.77871   0.89161
 En-DIIS/RFO-DIIS/Sim-DIIS IScMMF=       -3 using points:     6    5    4    3
 RFO step:  Lambda=-2.24665187D-06.
 DidBck=F Rises=F RFO-DIIS coefs:    1.54436   -0.53993   -0.11590    0.11148
 Iteration  1 RMS(Cart)=  0.00106426 RMS(Int)=  0.00000843
 Iteration  2 RMS(Cart)=  0.00000230 RMS(Int)=  0.00000815
 Iteration  3 RMS(Cart)=  0.00000000 RMS(Int)=  0.00000815
 Variable       Old X    -DE/DX   Delta X   Delta X   Delta X     New X
                                 (Linear)    (Quad)   (Total)
    R1        2.74248   0.00053   0.00086  -0.00009   0.00077   2.74326
    R2        2.74248   0.00053   0.00086  -0.00009   0.00077   2.74326
    R3        3.13730  -0.00026  -0.00180   0.00020  -0.00161   3.13570
    R4        3.38393  -0.00004  -0.00044   0.00007  -0.00037   3.38356
    R5        1.91789   0.00002  -0.00006  -0.00001  -0.00007   1.91782
    R6        1.91789   0.00002  -0.00006  -0.00001  -0.00007   1.91782
    R7        2.06140   0.00003   0.00000   0.00010   0.00010   2.06151
    R8        2.06370  -0.00006  -0.00012  -0.00005  -0.00017   2.06353
    R9        2.06140   0.00003   0.00000   0.00010   0.00010   2.06151
    A1        2.14068   0.00015   0.00002   0.00094   0.00097   2.14164
    A2        1.84904  -0.00006  -0.00017  -0.00009  -0.00027   1.84877
    A3        1.87060  -0.00005   0.00015  -0.00046  -0.00031   1.87028
    A4        1.84907  -0.00006  -0.00018  -0.00010  -0.00028   1.84878
    A5        1.87058  -0.00005   0.00015  -0.00046  -0.00031   1.87028
    A6        1.86911   0.00007   0.00003   0.00011   0.00014   1.86925
    A7        2.00240   0.00011   0.00172   0.00024   0.00199   2.00439
    A8        2.00244   0.00011   0.00170   0.00024   0.00197   2.00441
    A9        2.00485  -0.00014   0.00082  -0.00031   0.00054   2.00539
   A10        1.90201   0.00006  -0.00006   0.00021   0.00015   1.90215
[...]
      6        6          -0.000010128    0.000022254    0.000039277
      7        1           0.000001694   -0.000003302   -0.000018545
      8        1           0.000001188   -0.000009466   -0.000006373
      9        1           0.000008686   -0.000004060   -0.000016290
     10        1           0.000011549   -0.000022152   -0.000004707
 -------------------------------------------------------------------
 Cartesian Forces:  Max     0.000048977 RMS     0.000020606
 FormGI is forming the generalized inverse of G from B-inverse, IUseBI=4.

 GradGradGradGradGradGradGradGradGradGradGradGradGradGradGradGradGradGrad
 Berny optimization.
 Internal  Forces:  Max     0.000040235 RMS     0.000016247
 Search for a local minimum.
 Step number   1 out of a maximum of    2
 All quantities printed in internal units (Hartrees-Bohrs-Radians)
 Second derivative matrix not updated -- analytic derivatives used.
 ITU=  0
     Eigenvalues ---    0.00240   0.00410   0.00877   0.04214   0.04343
     Eigenvalues ---    0.08070   0.09924   0.11756   0.12228   0.12413
     Eigenvalues ---    0.12754   0.16169   0.19064   0.19965   0.22503
     Eigenvalues ---    0.25513   0.32057   0.35717   0.35844   0.36133
     Eigenvalues ---    0.46628   0.47271   0.66593   0.66811
 Angle between quadratic step and forces=  60.36 degrees.
 Linear search not attempted -- first point.
 Iteration  1 RMS(Cart)=  0.00015060 RMS(Int)=  0.00000005
 Iteration  2 RMS(Cart)=  0.00000004 RMS(Int)=  0.00000003
 Variable       Old X    -DE/DX   Delta X   Delta X   Delta X     New X
                                 (Linear)    (Quad)   (Total)
    R1        2.74326   0.00003   0.00000   0.00005   0.00005   2.74331
    R2        2.74326   0.00003   0.00000   0.00005   0.00005   2.74331
    R3        3.13570  -0.00000   0.00000   0.00005   0.00005   3.13575
    R4        3.38356   0.00000   0.00000  -0.00003  -0.00003   3.38353
    R5        1.91782   0.00000   0.00000   0.00003   0.00003   1.91785
    R6        1.91782   0.00000   0.00000   0.00003   0.00003   1.91785
    R7        2.06151   0.00000   0.00000   0.00002   0.00002   2.06153
    R8        2.06353  -0.00001   0.00000  -0.00002  -0.00002   2.06351
    R9        2.06151   0.00000   0.00000   0.00002   0.00002   2.06153
    A1        2.14164   0.00003   0.00000   0.00025   0.00025   2.14189
    A2        1.84877  -0.00002   0.00000  -0.00012  -0.00012   1.84866
    A3        1.87028  -0.00001   0.00000  -0.00009  -0.00009   1.87019
    A4        1.84878  -0.00002   0.00000  -0.00013  -0.00013   1.84865
    A5        1.87028  -0.00001   0.00000  -0.00008  -0.00008   1.87020
    A6        1.86925   0.00004   0.00000   0.00018   0.00018   1.86943
    A7        2.00439   0.00002   0.00000  -0.00007  -0.00007   2.00432
    A8        2.00441   0.00002   0.00000  -0.00009  -0.00009   2.00432
    A9        2.00539  -0.00003   0.00000  -0.00049  -0.00049   2.00490
   A10        1.90215   0.00002   0.00000   0.00017   0.00017   1.90232
   A11        1.86111   0.00001   0.00000   0.00001   0.00001   1.86113
   A12        1.90215   0.00002   0.00000   0.00017   0.00017   1.90232
   A13        1.92408  -0.00001   0.00000  -0.00008  -0.00008   1.92399
   A14        1.94796  -0.00002   0.00000  -0.00017  -0.00017   1.94779
   A15        1.92407  -0.00001   0.00000  -0.00008  -0.00008   1.92399
    D1       -0.80045   0.00000   0.00000  -0.00049  -0.00049  -0.80094
    D2        3.09995   0.00001   0.00000   0.00048   0.00048   3.10043
    D3       -3.09979  -0.00001   0.00000  -0.00064  -0.00064  -3.10043
    D4        0.80061  -0.00000   0.00000   0.00033   0.00033   0.80094
    D5        1.19147  -0.00000   0.00000  -0.00057  -0.00057   1.19091
    D6       -1.19131   0.00000   0.00000   0.00040   0.00040  -1.19091
    D7        0.91255  -0.00001   0.00000  -0.00011  -0.00011   0.91244
    D8       -1.16420  -0.00001   0.00000  -0.00010  -0.00010  -1.16431
    D9        3.04223  -0.00001   0.00000  -0.00010  -0.00010   3.04213
   D10       -3.04221   0.00001   0.00000   0.00009   0.00009  -3.04212
   D11        1.16422   0.00001   0.00000   0.00009   0.00009   1.16431
   D12       -0.91253   0.00001   0.00000   0.00009   0.00009  -0.91244
   D13       -1.06482   0.00000   0.00000  -0.00002  -0.00002  -1.06484
   D14       -3.14158  -0.00000   0.00000  -0.00001  -0.00001  -3.14159
   D15        1.06485  -0.00000   0.00000  -0.00001  -0.00001   1.06484
         Item               Value     Threshold  Converged?
 Maximum Force            0.000040     0.000450     YES
 RMS     Force            0.000016     0.000300     YES
 Maximum Displacement     0.000589     0.001800     YES
 RMS     Displacement     0.000151     0.001200     YES
 Predicted change in Energy=-3.574899D-08
 Optimization completed.
    -- Stationary point found.
                           ----------------------------
                           !   Optimized Parameters   !
                           ! (Angstroms and Degrees)  !
 --------------------------                            --------------------------
 ! Name  Definition              Value          Derivative Info.                !
 --------------------------------------------------------------------------------
 ! R1    R(1,2)                  1.4517         -DE/DX =    0.0                 !
 ! R2    R(1,3)                  1.4517         -DE/DX =    0.0                 !
 ! R3    R(1,4)                  1.6593         -DE/DX =    0.0                 !
 ! R4    R(1,6)                  1.7905         -DE/DX =    0.0                 !
 ! R5    R(4,5)                  1.0149         -DE/DX =    0.0                 !
 ! R6    R(4,10)                 1.0149         -DE/DX =    0.0                 !
 ! R7    R(6,7)                  1.0909         -DE/DX =    0.0                 !
 ! R8    R(6,8)                  1.092          -DE/DX =    0.0                 !
 ! R9    R(6,9)                  1.0909         -DE/DX =    0.0                 !
 ! A1    A(2,1,3)              122.7071         -DE/DX =    0.0                 !
 ! A2    A(2,1,4)              105.9269         -DE/DX =    0.0                 !
 ! A3    A(2,1,6)              107.1593         -DE/DX =    0.0                 !
 ! A4    A(3,1,4)              105.9275         -DE/DX =    0.0                 !
 ! A5    A(3,1,6)              107.159          -DE/DX =    0.0                 !
 ! A6    A(4,1,6)              107.1002         -DE/DX =    0.0                 !
 ! A7    A(1,4,5)              114.8431         -DE/DX =    0.0                 !
 ! A8    A(1,4,10)             114.8442         -DE/DX =    0.0                 !
 ! A9    A(5,4,10)             114.9004         -DE/DX =    0.0                 !
 ! A10   A(1,6,7)              108.9854         -DE/DX =    0.0                 !
 ! A11   A(1,6,8)              106.634          -DE/DX =    0.0                 !
 ! A12   A(1,6,9)              108.9854         -DE/DX =    0.0                 !
 ! A13   A(7,6,8)              110.2415         -DE/DX =    0.0                 !
 ! A14   A(7,6,9)              111.6096         -DE/DX =    0.0                 !
 ! A15   A(8,6,9)              110.2413         -DE/DX =    0.0                 !
 ! D1    D(2,1,4,5)            -45.8625         -DE/DX =    0.0                 !
 ! D2    D(2,1,4,10)           177.614          -DE/DX =    0.0                 !
 ! D3    D(3,1,4,5)           -177.6051         -DE/DX =    0.0                 !
 ! D4    D(3,1,4,10)            45.8714         -DE/DX =    0.0                 !
 ! D5    D(6,1,4,5)             68.2662         -DE/DX =    0.0                 !
 ! D6    D(6,1,4,10)           -68.2572         -DE/DX =    0.0                 !
 ! D7    D(2,1,6,7)             52.2854         -DE/DX =    0.0                 !
 ! D8    D(2,1,6,8)            -66.7039         -DE/DX =    0.0                 !
 ! D9    D(2,1,6,9)            174.307          -DE/DX =    0.0                 !
 ! D10   D(3,1,6,7)           -174.3057         -DE/DX =    0.0                 !
 ! D11   D(3,1,6,8)             66.705          -DE/DX =    0.0                 !
 ! D12   D(3,1,6,9)            -52.2842         -DE/DX =    0.0                 !
 ! D13   D(4,1,6,7)            -61.0099         -DE/DX =    0.0                 !
 ! D14   D(4,1,6,8)           -179.9992         -DE/DX =    0.0                 !
 ! D15   D(4,1,6,9)             61.0117         -DE/DX =    0.0                 !
 --------------------------------------------------------------------------------
 GradGradGradGradGradGradGradGradGradGradGradGradGradGradGradGradGradGrad


 ----------------------------------------------------------------------

 Electric dipole moment (input orientation):
 (Debye = 10**-18 statcoulomb cm , SI units = C m)
                  (au)            (Debye)         (10**-30 SI)
   Tot        0.221046D+01      0.561842D+01      0.187410D+02
   x          0.361168D+00      0.917996D+00      0.306211D+01
   y         -0.152125D+01     -0.386664D+01     -0.128977D+02
   z         -0.156252D+01     -0.397153D+01     -0.132476D+02

 Dipole polarizability, Alpha (input orientation).
 (esu units = cm**3 , SI units = C**2 m**2 J**-1)
 Alpha(0;0):
               (au)            (10**-24 esu)      (10**-40 SI)
   iso        0.452844D+02      0.671046D+01      0.746639D+01
   aniso      0.279868D+01      0.414721D+00      0.461440D+00
   xx         0.454411D+02      0.673367D+01      0.749222D+01
   yx         0.386664D+00      0.572976D-01      0.637522D-01
   yy         0.446117D+02      0.661076D+01      0.735547D+01
   zx        -0.275542D+00     -0.408311D-01     -0.454307D-01
   zy        -0.141904D+01     -0.210281D+00     -0.233969D+00
   zz         0.458005D+02      0.678693D+01      0.755148D+01

 ----------------------------------------------------------------------

 Dipole orientation:
    16         -2.79477211          1.36510968         -2.71522265
     8         -0.40148284          1.68144085         -4.01812690
     8         -5.11513013          0.69903694         -4.01819557
     7         -3.36425685          4.09753160         -1.28618756
     1         -1.86805016          4.84197043         -0.34533653
     6         -2.31342096         -0.94468051         -0.29001519
     1         -0.68693399         -0.39168810          0.84952359
     1         -1.94020208         -2.73527019         -1.24534303
     1         -4.02545196         -1.08750778          0.84944066
     1         -5.03317357          4.18223935         -0.34514316

 Electric dipole moment (dipole orientation):
 (Debye = 10**-18 statcoulomb cm , SI units = C m)
                  (au)            (Debye)         (10**-30 SI)
   Tot        0.221046D+01      0.561842D+01      0.187410D+02
   x          0.000000D+00      0.000000D+00      0.000000D+00
   y          0.000000D+00      0.000000D+00      0.000000D+00
   z          0.221046D+01      0.561842D+01      0.187410D+02

 Dipole polarizability, Alpha (dipole orientation).
 (esu units = cm**3 , SI units = C**2 m**2 J**-1)
 Alpha(0;0):
               (au)            (10**-24 esu)      (10**-40 SI)
   iso        0.452844D+02      0.671046D+01      0.746639D+01
   aniso      0.279868D+01      0.414721D+00      0.461440D+00
   xx         0.453780D+02      0.672433D+01      0.748183D+01
   yx        -0.277298D+00     -0.410914D-01     -0.457203D-01
   yy         0.466513D+02      0.691301D+01      0.769177D+01
   zx         0.148333D+00      0.219807D-01      0.244568D-01
   zy        -0.711853D+00     -0.105486D+00     -0.117369D+00
   zz         0.438239D+02      0.649403D+01      0.722558D+01

 ----------------------------------------------------------------------
 Unable to Open any file for archive entry.
 1\1\GINC-GADI-CPU-CLX-0743\Freq\RM062X\Gen\C1H5N1O2S1\YJ5695\20-May-20
 22\0\\#N Geom=AllCheck Guess=TCheck SCRF=Check GenChk RM062X/ChkBas Fr
 eq\\HA.17.a2.freq\\0,1\S,-1.7381530307,0.3694751264,1.2711715253\O,-0.
 6151672833,0.8064593234,2.0806718703\O,-3.0362669537,1.0177715565,1.31
 53683791\N,-2.0064961787,-1.2155217445,1.6824873816\H,-1.1717250975,-1
 .7906327898,1.731028332\C,-1.1972049035,0.3861582167,-0.4355775387\H,-
 0.2707176135,-0.183572425,-0.5198155963\H,-1.022972471,1.4316969587,-0
 .6980592462\H,-1.985503552,-0.0338884618,-1.0618473416\H,-2.7974239161
 ,-1.6488027605,1.2170282346\\Version=ES64L-G16RevC.01\State=1-A\HF=-64
 4.3028828\RMSD=6.295e-10\RMSF=2.061e-05\ZeroPoint=0.0754218\Thermal=0.
 0812684\ETot=-644.2216144\HTot=-644.2206702\GTot=-644.256291\Dipole=0.
 3611675,-1.5212535,-1.5625196\DipoleDeriv=2.181005,0.0069336,0.0538767
 ,0.0461189,2.3014163,-0.1172426,0.0646953,0.0067298,1.9946342,-0.94472
 79,-0.2146349,-0.3201303,-0.0922101,-0.6879655,-0.1051188,-0.2345895,-
 0.1456663,-0.9131247,-1.1216711,0.3224333,0.1296912,0.2032283,-0.75927
 1,-0.0558796,0.0450362,-0.0051886,-0.6648724,-0.5310366,-0.1161411,0.1
 109141,-0.1396296,-1.1218617,0.2661463,0.1044254,0.1918445,-0.7631929,
 0.1706541,-0.0364292,0.012218,-0.0056025,0.1639059,-0.0130488,0.011447
 ,-0.0655645,0.3204628,-0.1164027,-0.0167867,0.0681477,-0.0255593,-0.19
 74653,0.0521209,0.0657264,0.0243732,-0.2946023,0.0090882,0.0527178,0.0
 181241,0.0578388,0.0561206,-0.0074639,0.0130174,0.002575,0.0257113,0.0
 940935,-0.0198582,0.0229911,-0.0119429,0.0187956,0.0145041,0.0251775,0
 .0395458,0.0343619,0.0163936,-0.0370283,-0.0234932,-0.0357498,0.072067
 3,-0.0332135,-0.0166187,-0.0230039,0.0024579,0.242604,0.0587938,-0.072
 3393,0.0035083,0.1542578,-0.0008041,-0.078317,-0.0256447,0.258164\Pola
 r=45.4410853,0.3866635,44.6116526,-0.2755416,-1.4190448,45.8004986\Qua
 drupole=-2.879575,3.1100302,-0.2304552,0.8797765,-1.0555999,-1.0164347
 \PG=C01 [X(C1H5N1O2S1)]\NImag=0\\1.09873068,-0.06308705,0.63395374,0.1
 7621538,0.05432319,0.61746644,-0.40062292,-0.11327838,-0.22527171,0.41
 412123,-0.12102773,-0.13245759,-0.08726145,0.14507763,0.12178855,-0.23
 345306,-0.08871394,-0.26378494,0.25863025,0.10451599,0.25432700,-0.514
 79387,0.20412092,0.01748632,-0.01191320,0.01744039,0.00293969,0.537069
 64,0.20923616,-0.18811876,-0.00720547,-0.01271639,0.01602009,-0.004725
 53,-0.24426343,0.18881681,0.02493990,-0.01408875,-0.09396665,-0.023261
 36,0.00709373,0.01713996,-0.02242472,0.00936911,0.06436334,-0.10601582
 ,-0.01730832,-0.00541986,-0.00812919,-0.03713222,-0.00060253,0.0007436
 7,0.04107634,-0.00802802,0.72516567,-0.02780924,-0.22107614,0.05626057
 ,-0.00970579,-0.01152248,0.00261675,0.00453716,-0.01965715,0.00801263,
 -0.02732456,0.58628977,-0.00831654,0.02305498,-0.07355509,-0.00952557,
 -0.02124034,0.01025867,-0.00162241,0.00303929,0.00952293,0.20251682,0.
 02977860,0.15926686,0.00865266,-0.00233723,0.00306816,-0.00165278,-0.0
 0034749,-0.00035840,0.00320838,-0.00399904,-0.00010392,-0.33178085,0.1
 8007969,-0.03548613,0.33647400,0.03029095,-0.01272297,-0.00116679,-0.0
 0333153,0.00328629,-0.00020634,0.00073736,-0.00685822,0.00207028,0.180
 57461,-0.18938269,0.01313042,-0.19021631,0.19037052,-0.00365711,0.0137
 1557,-0.00371924,-0.00151529,-0.00122958,-0.00286004,-0.00049003,0.000
 26099,0.00308229,-0.01088524,-0.01106562,-0.00452741,0.02667858,-0.012
 83298,0.01313274,-0.07973048,0.00025880,0.02919711,0.00220826,-0.00548
 560,-0.02992707,-0.01168149,0.00731195,0.02635545,0.00794453,-0.001280
 90,0.00488949,-0.00055524,-0.00112207,0.00021539,0.59282912,0.00005221
 ,-0.06944209,0.00013248,-0.00222860,0.00774021,-0.01476635,0.01372449,
 0.00533696,-0.01501908,-0.01034546,-0.00893730,0.02761147,-0.00123259,
 0.00120543,-0.00077783,-0.00567925,0.59331259,0.02914021,-0.00052078,-
 0.16285585,0.00411320,-0.00182665,-0.01198920,-0.00501508,0.00263197,0
 .00430331,0.00238645,-0.00106557,0.00175803,0.00002023,-0.00063427,-0.
 00019773,0.06239218,0.01251589,0.41911545,-0.00942593,0.00534990,-0.00
 185197,0.00143628,-0.00113963,-0.00074040,0.00033851,0.00021909,0.0025
 7262,0.00124998,-0.00115260,-0.00076324,-0.00000527,-0.00045505,0.0007
 7861,-0.25636918,0.12897136,0.01718416,0.27115862,-0.00149804,-0.00079
 554,0.00163105,-0.00103094,-0.00021542,-0.00033014,-0.00077097,0.00193
 464,0.00077585,0.00012673,-0.00025112,-0.00061328,-0.00018240,-0.00008
 492,0.00043755,0.12835718,-0.12713115,-0.01213298,-0.13915772,0.131721
 63,0.02566235,-0.01723389,0.00069386,-0.00289354,0.00227769,0.00082162
 ,0.00624093,-0.00153666,-0.00703528,-0.00302914,0.00057296,0.00103887,
 0.00046231,0.00095932,-0.00085570,0.01639450,-0.01167528,-0.04782906,-
 0.01951790,0.01136992,0.04919274,-0.00188714,-0.01007717,0.00180657,-0
 .00046426,0.00059146,-0.00073205,-0.00040646,0.00165313,-0.00057024,0.
 00016318,-0.00094504,0.00233368,-0.00022452,-0.00002596,0.00038989,-0.
 05447443,-0.04405516,0.01029764,0.00678058,0.02611832,-0.00829881,0.05
 307096,-0.00015477,-0.00113997,0.00029562,0.00044976,0.00052168,-0.000
 11025,-0.00010448,0.00047696,-0.00029803,0.00021159,0.00162476,-0.0004
 9245,0.00002605,0.00009225,-0.00012605,-0.04371524,-0.31176198,0.06528
 875,-0.00413644,-0.01245386,0.00343409,0.04743289,0.33120655,0.0045467
 8,0.03168622,-0.00607037,-0.00082102,-0.00338502,0.00127123,-0.0010057
 9,-0.00303183,0.00125795,0.00265312,0.00316697,-0.00653633,0.00031680,
 -0.00035392,0.00016681,0.01039151,0.06636419,-0.06192153,-0.00137811,-
 0.00406651,0.00078504,-0.01245265,-0.07102347,0.06477635,0.00595222,0.
 00424503,0.00553875,0.00216802,0.00047100,0.00400107,-0.00037599,-0.00
 035395,-0.00014805,-0.00046658,0.00066752,-0.00045668,-0.00010467,-0.0
 0003949,-0.00007429,-0.20031061,-0.08083532,-0.12051311,-0.01499125,-0
 .01186686,-0.01502650,-0.00283701,-0.00004652,-0.00194697,0.21072410,0
 .00046000,-0.00098712,0.00202908,0.00014510,0.00181871,0.00099114,0.00
 093827,-0.00044209,0.00019060,0.00018339,-0.00040189,-0.00066957,0.000
 06554,-0.00004115,0.00010771,-0.08010978,-0.09104791,-0.06446138,0.011
 40634,0.00731405,0.01187252,-0.02090604,-0.00863294,-0.01914628,0.0879
 9914,0.09252595,-0.02491180,-0.01274439,-0.01449266,-0.00003055,-0.000
 85914,-0.00874891,0.00239178,0.00201474,0.00286073,0.00202891,0.000659
 57,0.00290585,-0.00010638,-0.00007155,-0.00004172,-0.11969291,-0.06456
 789,-0.13997174,0.00371903,0.00287973,0.00316503,0.00756833,0.00307653
 ,0.00658170,0.12852823,0.06858214,0.14882380,-0.00085939,-0.00788649,-
 0.00076875,0.00284855,0.00155220,0.00024249,-0.00218920,0.00183615,0.0
 0066834,-0.28887458,-0.11706624,-0.15356940,-0.01401170,-0.01641251,-0
 .01144050,0.00013953,0.00162831,-0.00000589,-0.00017235,-0.00009530,0.
 00000580,0.00027908,0.00003716,-0.00030367,0.00024177,-0.00018197,0.00
 050536,0.30259830,-0.02646249,-0.00721357,-0.01903830,-0.00338086,-0.0
 0698003,0.00072867,0.00364029,0.00249076,0.00189365,-0.13006208,-0.136
 68577,-0.07359913,0.01814378,0.01413546,0.01151025,0.00146492,0.000725
 25,0.00020502,0.00009474,-0.00003833,-0.00004067,0.00021356,0.00006655
 ,-0.00021034,-0.00024054,-0.00010560,0.00103027,0.13658868,0.13360528,
 0.00983390,0.01052178,0.00028451,0.00057560,0.00191477,0.00356461,0.00
 149931,-0.00081661,-0.00152857,-0.18162052,-0.08893687,-0.10013238,0.0
 0550876,-0.00089417,-0.00417998,-0.00021565,0.00018240,-0.00041168,-0.
 00000282,0.00004881,0.00002290,-0.00034236,-0.00004475,-0.00031085,0.0
 0009756,0.00050404,-0.00108207,0.16466623,0.07752059,0.10377352\\-0.00
 000286,-0.00001504,0.00000621,-0.00004391,0.00001703,-0.00001072,0.000
 04432,0.00000952,0.00001736,0.00000505,-0.00004898,-0.00003199,0.00001
 038,0.00002074,0.00001251,0.00001013,-0.00002225,-0.00003928,-0.000001
 69,0.00000330,0.00001855,-0.00000119,0.00000947,0.00000637,-0.00000869
 ,0.00000406,0.00001629,-0.00001155,0.00002215,0.00000471\\\@
 The archive entry for this job was punched.


 WE DON'T KNOW ONE MILLIONTH OF ONE PERCENT ABOUT
 ANYTHING.
                                     T. A. EDISON.
 Job cpu time:       0 days  0 hours  6 minutes 35.3 seconds.
 Elapsed time:       0 days  0 hours  0 minutes 25.5 seconds.
 File lengths (MBytes):  RWF=     20 Int=      0 D2E=      0 Chk=      2 Scr=      1
 Normal termination of Gaussian 16 at Fri May 20 19:51:43 2022.
