 Entering Gaussian System, Link 0=g16
 AtFile(1): /home/561/yj5695/Basis/6-31pGd.gbs
 Initial command:
 /apps/gaussian/g16c01/g16/l1.exe "/jobfs/40735761.gadi-pbs/Gau-4169883.inp" -scrdir="/jobfs/40735761.gadi-pbs/"
 Entering Link 1 = /apps/gaussian/g16c01/g16/l1.exe PID=   4169884.
  
 Copyright (c) 1988-2019, Gaussian, Inc.  All Rights Reserved.
  
 This is part of the Gaussian(R) 16 program.  It is based on
 the Gaussian(R) 09 system (copyright 2009, Gaussian, Inc.),
 the Gaussian(R) 03 system (copyright 2003, Gaussian, Inc.),
 the Gaussian(R) 98 system (copyright 1998, Gaussian, Inc.),
 the Gaussian(R) 94 system (copyright 1995, Gaussian, Inc.),
 the Gaussian 92(TM) system (copyright 1992, Gaussian, Inc.),
 the Gaussian 90(TM) system (copyright 1990, Gaussian, Inc.),
 the Gaussian 88(TM) system (copyright 1988, Gaussian, Inc.),
 the Gaussian 86(TM) system (copyright 1986, Carnegie Mellon
 University), and the Gaussian 82(TM) system (copyright 1983,
 Carnegie Mellon University). Gaussian is a federally registered
 trademark of Gaussian, Inc.
  
 This software contains proprietary and confidential information,
 including trade secrets, belonging to Gaussian, Inc.
  
 This software is provided under written license and may be
 used, copied, transmitted, or stored only in accord with that
 written license.
  
 The following legend is applicable only to US Government
 contracts under FAR:
  
                    RESTRICTED RIGHTS LEGEND
  
 Use, reproduction and disclosure by the US Government is
 subject to restrictions as set forth in subparagraphs (a)
 and (c) of the Commercial Computer Software - Restricted
 Rights clause in FAR 52.227-19.
  
 Gaussian, Inc.
 340 Quinnipiac St., Bldg. 40, Wallingford CT 06492
  
  
 ---------------------------------------------------------------
 Warning -- This program may not be used in any manner that
 competes with the business of Gaussian, Inc. or will provide
 assistance to any competitor of Gaussian, Inc.  The licensee
 of this program is prohibited from giving any competitor of
 Gaussian, Inc. access to this program.  By using this program,
 the user acknowledges that Gaussian, Inc. is engaged in the
 business of creating and licensing software in the field of
 computational chemistry and represents and warrants to the
 licensee that it is not a competitor of Gaussian, Inc. and that
 it will not use this program in any manner prohibited above.
 ---------------------------------------------------------------
  

 Cite this work as:
 Gaussian 16, Revision C.01,
 M. J. Frisch, G. W. Trucks, H. B. Schlegel, G. E. Scuseria, 
 M. A. Robb, J. R. Cheeseman, G. Scalmani, V. Barone, 
 G. A. Petersson, H. Nakatsuji, X. Li, M. Caricato, A. V. Marenich, 
 J. Bloino, B. G. Janesko, R. Gomperts, B. Mennucci, H. P. Hratchian, 
 J. V. Ortiz, A. F. Izmaylov, J. L. Sonnenberg, D. Williams-Young, 
 F. Ding, F. Lipparini, F. Egidi, J. Goings, B. Peng, A. Petrone, 
 T. Henderson, D. Ranasinghe, V. G. Zakrzewski, J. Gao, N. Rega, 
 G. Zheng, W. Liang, M. Hada, M. Ehara, K. Toyota, R. Fukuda, 
 J. Hasegawa, M. Ishida, T. Nakajima, Y. Honda, O. Kitao, H. Nakai, 
 T. Vreven, K. Throssell, J. A. Montgomery, Jr., J. E. Peralta, 
 F. Ogliaro, M. J. Bearpark, J. J. Heyd, E. N. Brothers, K. N. Kudin, 
 V. N. Staroverov, T. A. Keith, R. Kobayashi, J. Normand, 
 K. Raghavachari, A. P. Rendell, J. C. Burant, S. S. Iyengar, 
 J. Tomasi, M. Cossi, J. M. Millam, M. Klene, C. Adamo, R. Cammi, 
 J. W. Ochterski, R. L. Martin, K. Morokuma, O. Farkas, 
 J. B. Foresman, and D. J. Fox, Gaussian, Inc., Wallingford CT, 2019.
 
 ******************************************
 Gaussian 16:  ES64L-G16RevC.01  3-Jul-2019
                20-May-2022 
 ******************************************
 %nproc=16
 Will use up to   16 processors via shared memory.
 %mem=20gb
 --------------------------------------------------
 #M062X/gen 6D INT(grid=ultrafine) OPT Freq=noraman
 --------------------------------------------------
 1/18=20,19=15,26=4,38=1/1,3;
 2/9=110,12=2,17=6,18=5,40=1/2;
 3/5=7,8=2,11=2,25=1,30=1,71=1,74=-55,75=-5/1,2,3;
 4//1;
 5/5=2,38=5/2;
 6/7=2,8=2,9=2,10=2,28=1/1;
 7//1,2,3,16;
 1/18=20,19=15,26=4/3(2);
 2/9=110/2;
 99//99;
 2/9=110/2;
 3/5=7,6=1,8=2,11=2,25=1,30=1,71=1,74=-55,75=-5,82=7/1,2,3;
 4/5=5,16=3,69=1/1;
 5/5=2,38=5/2;
 7//1,2,3,16;
 1/18=20,19=15,26=4/3(-5);
 2/9=110/2;
 6/7=2,8=2,9=2,10=2,19=2,28=1/1;
 99/9=1/99;
 ------------
 HA.1.a3.freq
 ------------
 Symbolic Z-matrix:
 Charge =  0 Multiplicity = 1
 C                    -1.20415   0.57115  -0.94374 
 C                    -2.32599   1.17125  -1.51293 
 H                    -3.1678    1.47047  -0.89599 
 C                    -2.34525   1.36928  -2.8918 
 H                    -3.21207   1.82916  -3.35558 
 C                    -1.25727   0.97415  -3.67154 
 H                    -1.27956   1.12987  -4.74588 
 C                    -0.14198   0.37801  -3.08117 
 H                     0.70035   0.06894  -3.69182 
 C                    -0.10595   0.17244  -1.70373 
 H                     0.7541   -0.29401  -1.23305 
 S                    -1.14451   0.36658   0.82118 
 O                    -2.51856   0.30704   1.32093 
 O                    -0.22041  -0.72704   1.12343 
 N                    -0.4764    1.72405   1.48761 
 H                    -1.04266   2.55341   1.29594 
 H                     0.48318   1.8667    1.16499 
 

 GradGradGradGradGradGradGradGradGradGradGradGradGradGradGradGradGradGrad
 Berny optimization.
 Initialization pass.
                           ----------------------------
                           !    Initial Parameters    !
                           ! (Angstroms and Degrees)  !
 --------------------------                            --------------------------
 ! Name  Definition              Value          Derivative Info.                !
 --------------------------------------------------------------------------------
 ! R1    R(1,2)                  1.3938         estimate D2E/DX2                !
 ! R2    R(1,10)                 1.3938         estimate D2E/DX2                !
 ! R3    R(1,12)                 1.7777         estimate D2E/DX2                !
 ! R4    R(2,3)                  1.0857         estimate D2E/DX2                !
 ! R5    R(2,4)                  1.3931         estimate D2E/DX2                !
 ! R6    R(4,5)                  1.0853         estimate D2E/DX2                !
 ! R7    R(4,6)                  1.3956         estimate D2E/DX2                !
 ! R8    R(6,7)                  1.0858         estimate D2E/DX2                !
 ! R9    R(6,8)                  1.3956         estimate D2E/DX2                !
 ! R10   R(8,9)                  1.0853         estimate D2E/DX2                !
 ! R11   R(8,10)                 1.3932         estimate D2E/DX2                !
 ! R12   R(10,11)                1.0857         estimate D2E/DX2                !
 ! R13   R(12,13)                1.4633         estimate D2E/DX2                !
 ! R14   R(12,14)                1.4633         estimate D2E/DX2                !
 ! R15   R(12,15)                1.6532         estimate D2E/DX2                !
 ! R16   R(15,16)                1.0224         estimate D2E/DX2                !
 ! R17   R(15,17)                1.0224         estimate D2E/DX2                !
 ! A1    A(2,1,10)             122.3223         estimate D2E/DX2                !
 ! A2    A(2,1,12)             118.8153         estimate D2E/DX2                !
 ! A3    A(10,1,12)            118.8158         estimate D2E/DX2                !
 ! A4    A(1,2,3)              120.708          estimate D2E/DX2                !
 ! A5    A(1,2,4)              118.4591         estimate D2E/DX2                !
 ! A6    A(3,2,4)              120.8314         estimate D2E/DX2                !
 ! A7    A(2,4,5)              119.6179         estimate D2E/DX2                !
 ! A8    A(2,4,6)              120.1286         estimate D2E/DX2                !
 ! A9    A(5,4,6)              120.2532         estimate D2E/DX2                !
 ! A10   A(4,6,7)              119.7488         estimate D2E/DX2                !
 ! A11   A(4,6,8)              120.5013         estimate D2E/DX2                !
 ! A12   A(7,6,8)              119.7498         estimate D2E/DX2                !
 ! A13   A(6,8,9)              120.2544         estimate D2E/DX2                !
 ! A14   A(6,8,10)             120.1284         estimate D2E/DX2                !
 ! A15   A(9,8,10)             119.6169         estimate D2E/DX2                !
 ! A16   A(1,10,8)             118.4594         estimate D2E/DX2                !
 ! A17   A(1,10,11)            120.7083         estimate D2E/DX2                !
 ! A18   A(8,10,11)            120.8308         estimate D2E/DX2                !
 ! A19   A(1,12,13)            108.1937         estimate D2E/DX2                !
 ! A20   A(1,12,14)            108.1943         estimate D2E/DX2                !
 ! A21   A(1,12,15)            108.6189         estimate D2E/DX2                !
 ! A22   A(13,12,14)           119.4742         estimate D2E/DX2                !
 ! A23   A(13,12,15)           105.9746         estimate D2E/DX2                !
 ! A24   A(14,12,15)           105.9733         estimate D2E/DX2                !
 ! A25   A(12,15,16)           111.5112         estimate D2E/DX2                !
 ! A26   A(12,15,17)           111.5101         estimate D2E/DX2                !
 ! A27   A(16,15,17)           110.3348         estimate D2E/DX2                !
 ! D1    D(10,1,2,3)           179.9185         estimate D2E/DX2                !
 ! D2    D(10,1,2,4)             0.3564         estimate D2E/DX2                !
 ! D3    D(12,1,2,3)            -2.5957         estimate D2E/DX2                !
 ! D4    D(12,1,2,4)           177.8423         estimate D2E/DX2                !
 ! D5    D(2,1,10,8)            -0.3564         estimate D2E/DX2                !
 ! D6    D(2,1,10,11)         -179.9189         estimate D2E/DX2                !
 ! D7    D(12,1,10,8)         -177.8422         estimate D2E/DX2                !
 ! D8    D(12,1,10,11)           2.5953         estimate D2E/DX2                !
 ! D9    D(2,1,12,13)           25.8178         estimate D2E/DX2                !
 ! D10   D(2,1,12,14)          156.6014         estimate D2E/DX2                !
 ! D11   D(2,1,12,15)          -88.791          estimate D2E/DX2                !
 ! D12   D(10,1,12,13)        -156.607          estimate D2E/DX2                !
 ! D13   D(10,1,12,14)         -25.8234         estimate D2E/DX2                !
 ! D14   D(10,1,12,15)          88.7842         estimate D2E/DX2                !
 ! D15   D(1,2,4,5)            179.6131         estimate D2E/DX2                !
 ! D16   D(1,2,4,6)             -0.182          estimate D2E/DX2                !
 ! D17   D(3,2,4,5)              0.0516         estimate D2E/DX2                !
 ! D18   D(3,2,4,6)           -179.7435         estimate D2E/DX2                !
 ! D19   D(2,4,6,7)            179.8948         estimate D2E/DX2                !
 ! D20   D(2,4,6,8)              0.0203         estimate D2E/DX2                !
 ! D21   D(5,4,6,7)              0.1011         estimate D2E/DX2                !
 ! D22   D(5,4,6,8)           -179.7735         estimate D2E/DX2                !
 ! D23   D(4,6,8,9)            179.7735         estimate D2E/DX2                !
 ! D24   D(4,6,8,10)            -0.0202         estimate D2E/DX2                !
 ! D25   D(7,6,8,9)             -0.1011         estimate D2E/DX2                !
 ! D26   D(7,6,8,10)          -179.8948         estimate D2E/DX2                !
 ! D27   D(6,8,10,1)             0.1819         estimate D2E/DX2                !
 ! D28   D(6,8,10,11)          179.7439         estimate D2E/DX2                !
 ! D29   D(9,8,10,1)          -179.6131         estimate D2E/DX2                !
 ! D30   D(9,8,10,11)           -0.0511         estimate D2E/DX2                !
 ! D31   D(1,12,15,16)          61.9103         estimate D2E/DX2                !
 ! D32   D(1,12,15,17)         -61.9258         estimate D2E/DX2                !
 ! D33   D(13,12,15,16)        -54.1395         estimate D2E/DX2                !
 ! D34   D(13,12,15,17)       -177.9756         estimate D2E/DX2                !
 ! D35   D(14,12,15,16)        177.9602         estimate D2E/DX2                !
 ! D36   D(14,12,15,17)         54.1241         estimate D2E/DX2                !
 --------------------------------------------------------------------------------
 Trust Radius=3.00D-01 FncErr=1.00D-07 GrdErr=1.00D-06 EigMax=2.50D+02 EigMin=1.00D-04
 Number of steps in this run=     90 maximum allowed number of steps=    102.
 GradGradGradGradGradGradGradGradGradGradGradGradGradGradGradGradGradGrad

                          Input orientation:                          
 ---------------------------------------------------------------------
 Center     Atomic      Atomic             Coordinates (Angstroms)
 Number     Number       Type             X           Y           Z
 ---------------------------------------------------------------------
      1          6           0       -1.204150    0.571149   -0.943736
      2          6           0       -2.325986    1.171250   -1.512934
      3          1           0       -3.167796    1.470472   -0.895985
      4          6           0       -2.345255    1.369277   -2.891803
      5          1           0       -3.212068    1.829164   -3.355585
      6          6           0       -1.257273    0.974149   -3.671542
      7          1           0       -1.279555    1.129874   -4.745882
      8          6           0       -0.141985    0.378013   -3.081167
      9          1           0        0.700352    0.068940   -3.691821
     10          6           0       -0.105954    0.172442   -1.703728
     11          1           0        0.754100   -0.294008   -1.233047
     12         16           0       -1.144507    0.366585    0.821183
     13          8           0       -2.518561    0.307044    1.320928
     14          8           0       -0.220413   -0.727043    1.123425
     15          7           0       -0.476400    1.724050    1.487611
     16          1           0       -1.042658    2.553411    1.295939
     17          1           0        0.483180    1.866702    1.164989
 ---------------------------------------------------------------------
                    Distance matrix (angstroms):
                    1          2          3          4          5
     1  C    0.000000
     2  C    1.393780   0.000000
     3  H    2.160316   1.085728   0.000000
     4  C    2.394596   1.393149   2.161042   0.000000
     5  H    3.381028   2.147872   2.486011   1.085337   0.000000
     6  C    2.757926   2.416730   3.405900   1.395645   2.156874
     7  H    3.843719   3.398335   4.301531   2.151892   2.481238
     8  C    2.394599   2.803291   3.888961   2.423399   3.406840
     9  H    3.381022   3.888619   4.974290   3.406850   4.303310
    10  C    1.393768   2.441836   3.422310   2.803285   3.888613
    11  H    2.160310   3.422316   4.313730   3.888957   4.974286
    12  S    1.777736   2.737057   2.874183   4.029076   4.884602
    13  O    2.631755   2.968959   2.586460   4.348043   4.966647
    14  O    2.631767   3.871349   4.194539   5.003156   5.962024
    15  N    2.787517   3.567889   3.604087   4.774699   5.563406
    16  H    2.995260   3.383352   3.239367   4.542699   5.183391
    17  H    2.995373   3.942885   4.211204   4.970416   5.838824
                    6          7          8          9         10
     6  C    0.000000
     7  H    1.085796   0.000000
     8  C    1.395632   2.151892   0.000000
     9  H    2.156875   2.481262   1.085337   0.000000
    10  C    2.416725   3.398340   1.393160   2.147872   0.000000
    11  H    3.405892   4.301535   2.161048   2.485999   1.085729
    12  S    4.535023   5.620771   4.029084   4.884599   2.737054
    13  O    5.192364   6.246469   5.003158   5.962026   3.871348
    14  O    5.192384   6.246495   4.348091   4.966688   2.969002
    15  N    5.271526   6.313046   4.774661   5.563331   3.567824
    16  H    5.216895   6.211777   4.970174   5.838529   3.942643
    17  H    5.217074   6.211968   4.542782   5.183408   3.383362
                   11         12         13         14         15
    11  H    0.000000
    12  S    2.874187   0.000000
    13  O    4.194563   1.463322   0.000000
    14  O    2.586533   1.463326   2.527810   0.000000
    15  N    3.603980   1.653241   2.491207   2.491189   0.000000
    16  H    4.210926   2.240084   2.687951   3.386330   1.022363
    17  H    3.239235   2.240072   3.386340   2.687804   1.022364
                   16         17
    16  H    0.000000
    17  H    1.678362   0.000000
 Stoichiometry    C6H7NO2S
 Framework group  C1[X(C6H7NO2S)]
 Deg. of freedom    45
 Full point group                 C1      NOp   1
 Largest Abelian subgroup         C1      NOp   1
 Largest concise Abelian subgroup C1      NOp   1
                         Standard orientation:                         
 ---------------------------------------------------------------------
 Center     Atomic      Atomic             Coordinates (Angstroms)
 Number     Number       Type             X           Y           Z
 ---------------------------------------------------------------------
      1          6           0        0.315099    0.000002   -0.089231
      2          6           0        0.986165    1.220921   -0.048626
      3          1           0        0.436972    2.156869   -0.083165
      4          6           0        2.377181    1.211692    0.027881
      5          1           0        2.919182    2.151639    0.054156
      6          6           0        3.068647   -0.000017    0.066111
      7          1           0        4.152898   -0.000013    0.124011
      8          6           0        2.377176   -1.211707    0.027854
      9          1           0        2.919148   -2.151671    0.054106
     10          6           0        0.986148   -1.220914   -0.048655
     11          1           0        0.436950   -2.156861   -0.083209
     12         16           0       -1.462208    0.000017   -0.128285
     13          8           0       -1.906266    1.263961   -0.716987
     14          8           0       -1.906300   -1.263849   -0.717138
     15          7           0       -2.024333   -0.000089    1.426457
     16          1           0       -1.730623    0.838991    1.931339
     17          1           0       -1.730838   -0.839371    1.931129
 ---------------------------------------------------------------------
 Rotational constants (GHZ):           2.5873446           0.8299404           0.7239424
 General basis read from cards:  (6D, 7F)
 There are   208 symmetry adapted cartesian basis functions of A   symmetry.
 There are   208 symmetry adapted basis functions of A   symmetry.
   208 basis functions,   372 primitive gaussians,   208 cartesian basis functions
    41 alpha electrons       41 beta electrons
       nuclear repulsion energy       633.0178801860 Hartrees.
 NAtoms=   17 NActive=   17 NUniq=   17 SFac= 1.00D+00 NAtFMM=   60 NAOKFM=F Big=F
 Integral buffers will be    131072 words long.
 Raffenetti 2 integral format.
 Two-electron integral symmetry is turned on.
 One-electron integrals computed using PRISM.
 NBasis=   208 RedAO= T EigKep=  3.76D-06  NBF=   208
 NBsUse=   208 1.00D-06 EigRej= -1.00D+00 NBFU=   208
 ExpMin= 4.05D-02 ExpMax= 2.19D+04 ExpMxC= 3.30D+03 IAcc=3 IRadAn=         5 AccDes= 0.00D+00
 Harris functional with IExCor= 1009 and IRadAn=       5 diagonalized for initial guess.
 HarFok:  IExCor= 1009 AccDes= 0.00D+00 IRadAn=         5 IDoV= 1 UseB2=F ITyADJ=14
 ICtDFT=  3500011 ScaDFX=  1.000000  1.000000  1.000000  1.000000
 FoFCou: FMM=F IPFlag=           0 FMFlag=      100000 FMFlg1=           0
         NFxFlg=           0 DoJE=T BraDBF=F KetDBF=T FulRan=T
         wScrn=  0.000000 ICntrl=       500 IOpCl=  0 I1Cent=   200000004 NGrid=           0
         NMat0=    1 NMatS0=      1 NMatT0=    0 NMatD0=    1 NMtDS0=    0 NMtDT0=    0
 Petite list used in FoFCou.
 Requested convergence on RMS density matrix=1.00D-08 within 128 cycles.
 Requested convergence on MAX density matrix=1.00D-06.
 Requested convergence on             energy=1.00D-06.
 No special actions if energy rises.
 SCF Done:  E(RM062X) =  -835.966541557     A.U. after   15 cycles
            NFock= 15  Conv=0.25D-08     -V/T= 2.0062

 **********************************************************************

            Population analysis using the SCF Density.

 **********************************************************************

 Orbital symmetries:
       Occupied  (A) (A) (A) (A) (A) (A) (A) (A) (A) (A) (A) (A)
                 (A) (A) (A) (A) (A) (A) (A) (A) (A) (A) (A) (A)
                 (A) (A) (A) (A) (A) (A) (A) (A) (A) (A) (A) (A)
                 (A) (A) (A) (A) (A)
       Virtual   (A) (A) (A) (A) (A) (A) (A) (A) (A) (A) (A) (A)
                 (A) (A) (A) (A) (A) (A) (A) (A) (A) (A) (A) (A)
                 (A) (A) (A) (A) (A) (A) (A) (A) (A) (A) (A) (A)
                 (A) (A) (A) (A) (A) (A) (A) (A) (A) (A) (A) (A)
                 (A) (A) (A) (A) (A) (A) (A) (A) (A) (A) (A) (A)
                 (A) (A) (A) (A) (A) (A) (A) (A) (A) (A) (A) (A)
                 (A) (A) (A) (A) (A) (A) (A) (A) (A) (A) (A) (A)
                 (A) (A) (A) (A) (A) (A) (A) (A) (A) (A) (A) (A)
                 (A) (A) (A) (A) (A) (A) (A) (A) (A) (A) (A) (A)
                 (A) (A) (A) (A) (A) (A) (A) (A) (A) (A) (A) (A)
                 (A) (A) (A) (A) (A) (A) (A) (A) (A) (A) (A) (A)
                 (A) (A) (A) (A) (A) (A) (A) (A) (A) (A) (A) (A)
                 (A) (A) (A) (A) (A) (A) (A) (A) (A) (A) (A) (A)
                 (A) (A) (A) (A) (A) (A) (A) (A) (A) (A) (A)
 The electronic state is 1-A.
 Alpha  occ. eigenvalues --  -90.16934 -19.64263 -19.64262 -14.81272 -10.60746
 Alpha  occ. eigenvalues --  -10.59192 -10.59190 -10.58789 -10.58622 -10.58605
 Alpha  occ. eigenvalues --   -8.47923  -6.40141  -6.40076  -6.39999  -1.24368
 Alpha  occ. eigenvalues --   -1.12554  -1.03742  -0.99750  -0.89083  -0.87836
 Alpha  occ. eigenvalues --   -0.77211  -0.72332  -0.69968  -0.64914  -0.62380
 Alpha  occ. eigenvalues --   -0.60097  -0.56737  -0.55597  -0.54312  -0.52279
 Alpha  occ. eigenvalues --   -0.51742  -0.47700  -0.45923  -0.43816  -0.41722
 Alpha  occ. eigenvalues --   -0.40542  -0.39818  -0.37871  -0.37690  -0.33898
 Alpha  occ. eigenvalues --   -0.33662
 Alpha virt. eigenvalues --   -0.02551  -0.01043  -0.00263   0.01567   0.02462
 Alpha virt. eigenvalues --    0.03606   0.04585   0.05380   0.06251   0.07071
 Alpha virt. eigenvalues --    0.07361   0.07820   0.08252   0.09660   0.10570
 Alpha virt. eigenvalues --    0.10690   0.11173   0.12410   0.13033   0.13369
 Alpha virt. eigenvalues --    0.13376   0.14677   0.15245   0.15968   0.16140
 Alpha virt. eigenvalues --    0.17010   0.17524   0.17866   0.18136   0.20089
 Alpha virt. eigenvalues --    0.21039   0.21159   0.21317   0.21981   0.22517
 Alpha virt. eigenvalues --    0.23089   0.24518   0.24856   0.25479   0.25514
 Alpha virt. eigenvalues --    0.28139   0.28183   0.28842   0.29122   0.29227
 Alpha virt. eigenvalues --    0.31443   0.32363   0.32950   0.33887   0.34362
 Alpha virt. eigenvalues --    0.35331   0.36929   0.37023   0.37715   0.38864
 Alpha virt. eigenvalues --    0.40566   0.45486   0.47481   0.55285   0.55393
 Alpha virt. eigenvalues --    0.57106   0.60421   0.65389   0.68245   0.68507
 Alpha virt. eigenvalues --    0.69527   0.70677   0.72224   0.74482   0.74953
 Alpha virt. eigenvalues --    0.76500   0.76619   0.78875   0.80234   0.81417
 Alpha virt. eigenvalues --    0.82488   0.88028   0.92357   0.94077   0.95627
 Alpha virt. eigenvalues --    0.97497   0.97997   0.99064   1.00277   1.01730
 Alpha virt. eigenvalues --    1.03366   1.05574   1.06958   1.08918   1.10183
 Alpha virt. eigenvalues --    1.10542   1.12534   1.13515   1.15196   1.15497
 Alpha virt. eigenvalues --    1.18753   1.19923   1.23733   1.27855   1.30888
 Alpha virt. eigenvalues --    1.33379   1.36569   1.37450   1.38174   1.39593
 Alpha virt. eigenvalues --    1.41248   1.41259   1.42013   1.47807   1.47862
 Alpha virt. eigenvalues --    1.49648   1.51561   1.52820   1.54783   1.60080
 Alpha virt. eigenvalues --    1.69161   1.71239   1.80262   1.80307   1.80964
 Alpha virt. eigenvalues --    1.83472   1.87873   1.88402   1.91314   1.92134
 Alpha virt. eigenvalues --    1.95392   1.98806   2.02605   2.02873   2.03792
 Alpha virt. eigenvalues --    2.10971   2.12649   2.14135   2.16617   2.16666
 Alpha virt. eigenvalues --    2.17828   2.18478   2.18578   2.24191   2.29969
 Alpha virt. eigenvalues --    2.30713   2.33364   2.35324   2.44149   2.48263
 Alpha virt. eigenvalues --    2.58349   2.62628   2.63767   2.67958   2.72446
 Alpha virt. eigenvalues --    2.76363   2.76580   2.83777   2.91681   2.94962
 Alpha virt. eigenvalues --    3.03227   3.36467   3.87883   4.07802   4.20603
 Alpha virt. eigenvalues --    4.24295   4.24661   4.26944   4.29810   4.39411
 Alpha virt. eigenvalues --    4.40340   4.68347
          Condensed to atoms (all electrons):
               1          2          3          4          5          6
     1  C   16.252999  -2.352236   0.069408  -1.387192   0.020899  -1.583083
     2  C   -2.352236  19.553659   0.188467  -2.147540   0.015077   0.381966
     3  H    0.069408   0.188467   0.441437  -0.004426  -0.003701   0.002352
     4  C   -1.387192  -2.147540  -0.004426  10.080703   0.280881   0.261848
     5  H    0.020899   0.015077  -0.003701   0.280881   0.477070   0.001267
     6  C   -1.583083   0.381966   0.002352   0.261848   0.001267   6.173736
     7  H    0.013865  -0.010478  -0.000110   0.023055  -0.003776   0.268663
     8  C   -1.386817  -1.835489  -0.010581   1.063480   0.001570   0.261734
     9  H    0.020903  -0.011231   0.000012   0.001570  -0.000124   0.001267
    10  C   -2.352818  -7.949991   0.057700  -1.835547  -0.011234   0.382196
    11  H    0.069439   0.057718  -0.000111  -0.010585   0.000012   0.002350
    12  S   -0.131942   0.276236   0.000269  -0.469253   0.000296   0.080004
    13  O    0.005929  -0.381006   0.000069  -0.068478   0.000136  -0.005936
    14  O    0.006066   0.217862   0.001127   0.083935   0.000020  -0.005938
    15  N   -0.663797   0.109737   0.001440   0.300095  -0.000024  -0.010433
    16  H    0.063668  -0.128219  -0.000031  -0.022851   0.000001  -0.000332
    17  H    0.063646   0.071455   0.000011  -0.006692   0.000000  -0.000330
               7          8          9         10         11         12
     1  C    0.013865  -1.386817   0.020903  -2.352818   0.069439  -0.131942
     2  C   -0.010478  -1.835489  -0.011231  -7.949991   0.057718   0.276236
     3  H   -0.000110  -0.010581   0.000012   0.057700  -0.000111   0.000269
     4  C    0.023055   1.063480   0.001570  -1.835547  -0.010585  -0.469253
     5  H   -0.003776   0.001570  -0.000124  -0.011234   0.000012   0.000296
     6  C    0.268663   0.261734   0.001267   0.382196   0.002350   0.080004
     7  H    0.480948   0.023052  -0.003776  -0.010476  -0.000110   0.000157
     8  C    0.023052  10.080860   0.280880  -2.147927  -0.004437  -0.469313
     9  H   -0.003776   0.280880   0.477070   0.015070  -0.003701   0.000296
    10  C   -0.010476  -2.147927   0.015070  19.554620   0.188429   0.276073
    11  H   -0.000110  -0.004437  -0.003701   0.188429   0.441443   0.000276
    12  S    0.000157  -0.469313   0.000296   0.276073   0.000276  15.161243
    13  O    0.000001   0.083926   0.000020   0.217817   0.001127   0.301290
    14  O    0.000001  -0.068503   0.000136  -0.381127   0.000069   0.301322
    15  N    0.000005   0.300120  -0.000024   0.109877   0.001440  -0.806543
    16  H   -0.000000  -0.006692   0.000000   0.071466   0.000011   0.073846
    17  H   -0.000000  -0.022850   0.000001  -0.128197  -0.000031   0.073845
              13         14         15         16         17
     1  C    0.005929   0.006066  -0.663797   0.063668   0.063646
     2  C   -0.381006   0.217862   0.109737  -0.128219   0.071455
     3  H    0.000069   0.001127   0.001440  -0.000031   0.000011
     4  C   -0.068478   0.083935   0.300095  -0.022851  -0.006692
     5  H    0.000136   0.000020  -0.000024   0.000001   0.000000
     6  C   -0.005936  -0.005938  -0.010433  -0.000332  -0.000330
     7  H    0.000001   0.000001   0.000005  -0.000000  -0.000000
     8  C    0.083926  -0.068503   0.300120  -0.006692  -0.022850
     9  H    0.000020   0.000136  -0.000024   0.000000   0.000001
    10  C    0.217817  -0.381127   0.109877   0.071466  -0.128197
    11  H    0.001127   0.000069   0.001440   0.000011  -0.000031
    12  S    0.301290   0.301322  -0.806543   0.073846   0.073845
    13  O    8.716474  -0.179455  -0.130545  -0.007533   0.009558
    14  O   -0.179455   8.716439  -0.130570   0.009557  -0.007530
    15  N   -0.130545  -0.130570   8.425529   0.207671   0.207682
    16  H   -0.007533   0.009557   0.207671   0.322129  -0.022292
    17  H    0.009558  -0.007530   0.207682  -0.022292   0.322125
 Mulliken charges:
               1
     1  C   -0.728938
     2  C   -0.055987
     3  H    0.256668
     4  C   -0.143004
     5  H    0.221631
     6  C   -0.211331
     7  H    0.218979
     8  C   -0.143012
     9  H    0.221631
    10  C   -0.055932
    11  H    0.256661
    12  S    1.331898
    13  O   -0.563394
    14  O   -0.563411
    15  N   -0.921660
    16  H    0.439601
    17  H    0.439600
 Sum of Mulliken charges =  -0.00000
 Mulliken charges with hydrogens summed into heavy atoms:
               1
     1  C   -0.728938
     2  C    0.200681
     4  C    0.078628
     6  C    0.007648
     8  C    0.078619
    10  C    0.200729
    12  S    1.331898
    13  O   -0.563394
    14  O   -0.563411
    15  N   -0.042459
 Electronic spatial extent (au):  <R**2>=           1609.7579
 Charge=             -0.0000 electrons
 Dipole moment (field-independent basis, Debye):
    X=              5.2924    Y=             -0.0004    Z=              4.1549  Tot=              6.7285
 Quadrupole moment (field-independent basis, Debye-Ang):
   XX=            -69.2636   YY=            -63.0679   ZZ=            -65.1985
   XY=              0.0011   XZ=             -6.7443   YZ=             -0.0007
 Traceless Quadrupole moment (field-independent basis, Debye-Ang):
   XX=             -3.4203   YY=              2.7754   ZZ=              0.6449
   XY=              0.0011   XZ=             -6.7443   YZ=             -0.0007
 Octapole moment (field-independent basis, Debye-Ang**2):
  XXX=             41.4128  YYY=             -0.0024  ZZZ=             12.3720  XYY=             12.3851
  XXY=             -0.0021  XXZ=              8.7411  XZZ=            -17.9203  YZZ=              0.0001
  YYZ=              8.6945  XYZ=              0.0024
 Hexadecapole moment (field-independent basis, Debye-Ang**3):
 XXXX=          -1444.3232 YYYY=           -412.6298 ZZZZ=           -181.2837 XXXY=              0.0057
 XXXZ=              6.3845 YYYX=              0.0044 YYYZ=             -0.0021 ZZZX=            -19.9576
 ZZZY=             -0.0010 XXYY=           -315.3341 XXZZ=           -304.1728 YYZZ=           -109.0499
 XXYZ=             -0.0046 YYXZ=            -15.9463 ZZXY=              0.0014
 N-N= 6.330178801860D+02 E-N=-3.230411816215D+03  KE= 8.308048350264D+02
 Calling FoFJK, ICntrl=      2127 FMM=F ISym2X=0 I1Cent= 0 IOpClX= 0 NMat=1 NMatS=1 NMatT=0.
 ***** Axes restored to original set *****
 -------------------------------------------------------------------
 Center     Atomic                   Forces (Hartrees/Bohr)
 Number     Number              X              Y              Z
 -------------------------------------------------------------------
      1        6           0.001431892    0.003212981   -0.000086505
      2        6           0.001348189    0.000231943   -0.002209805
      3        1           0.000275619   -0.001580154    0.001332280
      4        6           0.000740416   -0.000267191   -0.000208473
      5        1          -0.000025820   -0.000039306   -0.000363958
      6        6          -0.000022945   -0.000047643    0.000065261
      7        1          -0.000028590   -0.000051570   -0.000072513
      8        6          -0.000705669    0.000381794   -0.000073812
      9        1          -0.000064942   -0.000021493   -0.000361903
     10        6          -0.001016186    0.001297286   -0.002013798
     11        1          -0.001166984   -0.000931485    0.001455710
     12       16          -0.012690777   -0.031714188    0.018339819
     13        8           0.009687564    0.007488312   -0.008544109
     14        8          -0.001972790    0.012735230   -0.007542441
     15        7           0.005460738    0.013085213   -0.004993318
     16        1           0.000846950   -0.002552009    0.002513021
     17        1          -0.002096664   -0.001227720    0.002764545
 -------------------------------------------------------------------
 Cartesian Forces:  Max     0.031714188 RMS     0.006624901

 GradGradGradGradGradGradGradGradGradGradGradGradGradGradGradGradGradGrad
 Berny optimization.
 FormGI is forming the generalized inverse of G from B-inverse, IUseBI=4.
 Internal  Forces:  Max     0.012321384 RMS     0.002898766
 Search for a local minimum.
 Step number   1 out of a maximum of   90
 All quantities printed in internal units (Hartrees-Bohrs-Radians)
 Mixed Optimization -- RFO/linear search
 Second derivative matrix not updated -- first step.
 ITU=  0
     Eigenvalues ---    0.00665   0.01596   0.01915   0.02146   0.02153
     Eigenvalues ---    0.02161   0.02164   0.02171   0.02173   0.02175
     Eigenvalues ---    0.02176   0.04629   0.09470   0.10353   0.14291
     Eigenvalues ---    0.15999   0.16000   0.16000   0.16000   0.16000
     Eigenvalues ---    0.16000   0.16000   0.19803   0.22000   0.22000
     Eigenvalues ---    0.23493   0.24978   0.25000   0.27952   0.35303
     Eigenvalues ---    0.35311   0.35311   0.35357   0.35357   0.42162
     Eigenvalues ---    0.42236   0.42399   0.43963   0.43963   0.46422
     Eigenvalues ---    0.46513   0.46689   0.46774   0.90227   0.90229
 RFO step:  Lambda=-3.01221077D-03 EMin= 6.64812278D-03
 Linear search not attempted -- first point.
 Iteration  1 RMS(Cart)=  0.01592209 RMS(Int)=  0.00040436
 Iteration  2 RMS(Cart)=  0.00072267 RMS(Int)=  0.00020134
 Iteration  3 RMS(Cart)=  0.00000022 RMS(Int)=  0.00020134
 Variable       Old X    -DE/DX   Delta X   Delta X   Delta X     New X
                                 (Linear)    (Quad)   (Total)
    R1        2.63386  -0.00125   0.00000  -0.00279  -0.00278   2.63108
    R2        2.63384  -0.00124   0.00000  -0.00278  -0.00277   2.63107
    R3        3.35943   0.00275   0.00000   0.00972   0.00972   3.36915
    R4        2.05173   0.00011   0.00000   0.00030   0.00030   2.05203
    R5        2.63267   0.00050   0.00000   0.00107   0.00107   2.63374
    R6        2.05099   0.00016   0.00000   0.00045   0.00045   2.05144
    R7        2.63739  -0.00075   0.00000  -0.00148  -0.00149   2.63590
    R8        2.05186   0.00006   0.00000   0.00018   0.00018   2.05204
    R9        2.63736  -0.00074   0.00000  -0.00146  -0.00147   2.63589
   R10        2.05099   0.00016   0.00000   0.00045   0.00045   2.05144
   R11        2.63269   0.00050   0.00000   0.00106   0.00106   2.63375
   R12        2.05173   0.00011   0.00000   0.00030   0.00030   2.05203
   R13        2.76528  -0.01232   0.00000  -0.01361  -0.01361   2.75167
   R14        2.76529  -0.01232   0.00000  -0.01361  -0.01361   2.75168
   R15        3.12417   0.00946   0.00000   0.02227   0.02227   3.14644
   R16        1.93199  -0.00301   0.00000  -0.00680  -0.00680   1.92519
   R17        1.93199  -0.00301   0.00000  -0.00680  -0.00680   1.92518
    A1        2.13493  -0.00131   0.00000  -0.00551  -0.00555   2.12938
    A2        2.07372   0.00067   0.00000   0.00322   0.00311   2.07683
    A3        2.07373   0.00067   0.00000   0.00322   0.00310   2.07683
    A4        2.10675  -0.00229   0.00000  -0.01304  -0.01311   2.09364
    A5        2.06750   0.00100   0.00000   0.00402   0.00400   2.07150
    A6        2.10891   0.00128   0.00000   0.00889   0.00881   2.11771
    A7        2.08773   0.00035   0.00000   0.00205   0.00204   2.08976
    A8        2.09664  -0.00005   0.00000  -0.00012  -0.00012   2.09652
    A9        2.09881  -0.00030   0.00000  -0.00195  -0.00197   2.09684
   A10        2.09001   0.00029   0.00000   0.00110   0.00108   2.09109
   A11        2.10314  -0.00058   0.00000  -0.00221  -0.00222   2.10092
   A12        2.09003   0.00029   0.00000   0.00109   0.00107   2.09110
   A13        2.09884  -0.00030   0.00000  -0.00197  -0.00198   2.09685
   A14        2.09664  -0.00005   0.00000  -0.00012  -0.00012   2.09651
   A15        2.08771   0.00035   0.00000   0.00206   0.00205   2.08975
   A16        2.06751   0.00100   0.00000   0.00402   0.00399   2.07150
   A17        2.10676  -0.00229   0.00000  -0.01304  -0.01311   2.09365
   A18        2.10890   0.00129   0.00000   0.00889   0.00881   2.11770
   A19        1.88834  -0.00219   0.00000  -0.01565  -0.01613   1.87220
   A20        1.88835  -0.00219   0.00000  -0.01565  -0.01613   1.87221
   A21        1.89576  -0.00414   0.00000  -0.03657  -0.03729   1.85847
   A22        2.08522   0.00776   0.00000   0.07140   0.07151   2.15672
   A23        1.84960  -0.00009   0.00000  -0.00616  -0.00687   1.84274
   A24        1.84958  -0.00008   0.00000  -0.00615  -0.00686   1.84272
   A25        1.94624   0.00105   0.00000   0.01477   0.01444   1.96068
   A26        1.94622   0.00105   0.00000   0.01477   0.01444   1.96065
   A27        1.92571   0.00052   0.00000   0.01790   0.01735   1.94306
    D1        3.14017  -0.00078   0.00000  -0.03365  -0.03351   3.10666
    D2        0.00622  -0.00028   0.00000  -0.01380  -0.01381  -0.00759
    D3       -0.04530  -0.00028   0.00000  -0.00841  -0.00835  -0.05365
    D4        3.10393   0.00021   0.00000   0.01145   0.01135   3.11529
    D5       -0.00622   0.00028   0.00000   0.01379   0.01381   0.00759
    D6       -3.14018   0.00078   0.00000   0.03366   0.03352  -3.10666
    D7       -3.10393  -0.00021   0.00000  -0.01145  -0.01135  -3.11529
    D8        0.04530   0.00028   0.00000   0.00842   0.00836   0.05365
    D9        0.45061  -0.00359   0.00000  -0.04630  -0.04603   0.40458
   D10        2.73321   0.00316   0.00000   0.02219   0.02187   2.75508
   D11       -1.54969  -0.00021   0.00000  -0.01205  -0.01207  -1.56177
   D12       -2.73331  -0.00316   0.00000  -0.02218  -0.02185  -2.75516
   D13       -0.45070   0.00359   0.00000   0.04632   0.04604  -0.40466
   D14        1.54958   0.00022   0.00000   0.01207   0.01210   1.56168
   D15        3.13484  -0.00013   0.00000  -0.00467  -0.00469   3.13015
   D16       -0.00318   0.00007   0.00000   0.00380   0.00381   0.00064
   D17        0.00090   0.00038   0.00000   0.01532   0.01540   0.01630
   D18       -3.13712   0.00058   0.00000   0.02378   0.02390  -3.11322
   D19        3.13976  -0.00013   0.00000  -0.00548  -0.00548   3.13427
   D20        0.00035   0.00013   0.00000   0.00572   0.00577   0.00612
   D21        0.00176   0.00007   0.00000   0.00303   0.00304   0.00481
   D22       -3.13764   0.00033   0.00000   0.01424   0.01429  -3.12335
   D23        3.13764  -0.00033   0.00000  -0.01424  -0.01429   3.12335
   D24       -0.00035  -0.00013   0.00000  -0.00573  -0.00577  -0.00612
   D25       -0.00176  -0.00007   0.00000  -0.00303  -0.00304  -0.00481
   D26       -3.13976   0.00013   0.00000   0.00548   0.00548  -3.13427
   D27        0.00317  -0.00007   0.00000  -0.00380  -0.00381  -0.00064
   D28        3.13712  -0.00058   0.00000  -0.02379  -0.02390   3.11322
   D29       -3.13484   0.00013   0.00000   0.00467   0.00469  -3.13015
   D30       -0.00089  -0.00038   0.00000  -0.01532  -0.01541  -0.01630
   D31        1.08054   0.00111   0.00000   0.02260   0.02274   1.10328
   D32       -1.08081  -0.00111   0.00000  -0.02257  -0.02270  -1.10351
   D33       -0.94491   0.00569   0.00000   0.06161   0.06161  -0.88330
   D34       -3.10626   0.00347   0.00000   0.01644   0.01617  -3.09009
   D35        3.10599  -0.00347   0.00000  -0.01641  -0.01613   3.08986
   D36        0.94464  -0.00569   0.00000  -0.06158  -0.06157   0.88307
         Item               Value     Threshold  Converged?
 Maximum Force            0.012321     0.000450     NO 
 RMS     Force            0.002899     0.000300     NO 
 Maximum Displacement     0.056667     0.001800     NO 
 RMS     Displacement     0.016067     0.001200     NO 
 Predicted change in Energy=-1.538645D-03
 GradGradGradGradGradGradGradGradGradGradGradGradGradGradGradGradGradGrad

                          Input orientation:                          
 ---------------------------------------------------------------------
 Center     Atomic      Atomic             Coordinates (Angstroms)
 Number     Number       Type             X           Y           Z
 ---------------------------------------------------------------------
      1          6           0       -1.201726    0.575076   -0.936104
      2          6           0       -2.322957    1.169481   -1.508856
      3          1           0       -3.170532    1.440485   -0.886502
      4          6           0       -2.341342    1.373584   -2.887422
      5          1           0       -3.211369    1.825889   -3.353195
      6          6           0       -1.252048    0.984931   -3.667174
      7          1           0       -1.274578    1.140125   -4.741683
      8          6           0       -0.140715    0.383496   -3.076558
      9          1           0        0.697789    0.067111   -3.689160
     10          6           0       -0.108666    0.173246   -1.699161
     11          1           0        0.734927   -0.316626   -1.222159
     12         16           0       -1.152396    0.347079    0.831447
     13          8           0       -2.529616    0.332632    1.304040
     14          8           0       -0.196541   -0.717162    1.103529
     15          7           0       -0.475837    1.729184    1.467344
     16          1           0       -1.044458    2.555656    1.289880
     17          1           0        0.485138    1.867282    1.158578
 ---------------------------------------------------------------------
                    Distance matrix (angstroms):
                    1          2          3          4          5
     1  C    0.000000
     2  C    1.392308   0.000000
     3  H    2.151183   1.085888   0.000000
     4  C    2.396661   1.393714   2.166960   0.000000
     5  H    3.383123   2.149821   2.496954   1.085573   0.000000
     6  C    2.762111   2.416452   3.408849   1.394858   2.155164
     7  H    3.847990   3.398696   4.306656   2.151924   2.479785
     8  C    2.396662   2.799579   3.885018   2.420498   3.403813
     9  H    3.383121   3.885080   4.970408   3.403817   4.299731
    10  C    1.392302   2.435526   3.411941   2.799576   3.885077
    11  H    2.151182   3.411944   4.295662   3.885015   4.970406
    12  S    1.782878   2.742914   2.867012   4.036991   4.892594
    13  O    2.615400   2.942008   2.537043   4.322891   4.938060
    14  O    2.615412   3.860780   4.178551   4.989898   5.951359
    15  N    2.763231   3.547237   3.589613   4.750847   5.543472
    16  H    2.983695   3.374753   3.240437   4.530900   5.175539
    17  H    2.983790   3.935420   4.210514   4.960126   5.832835
                    6          7          8          9         10
     6  C    0.000000
     7  H    1.085893   0.000000
     8  C    1.394852   2.151924   0.000000
     9  H    2.155165   2.479797   1.085573   0.000000
    10  C    2.416450   3.398698   1.393719   2.149821   0.000000
    11  H    3.408844   4.306656   2.166960   2.496944   1.085888
    12  S    4.544709   5.630598   4.036995   4.892592   2.742912
    13  O    5.174036   6.227194   4.989897   5.951361   3.860780
    14  O    5.174053   6.227213   4.322925   4.938094   2.942043
    15  N    5.245922   6.287846   4.750813   5.543412   3.547184
    16  H    5.204100   6.199713   4.959920   5.832591   3.935219
    17  H    5.204253   6.199875   4.530970   5.175559   3.374765
                   11         12         13         14         15
    11  H    0.000000
    12  S    2.867017   0.000000
    13  O    4.178571   1.456121   0.000000
    14  O    2.537101   1.456124   2.566226   0.000000
    15  N    3.589528   1.665026   2.488983   2.488971   0.000000
    16  H    4.210291   2.258235   2.673524   3.386005   1.018764
    17  H    3.240333   2.258218   3.386008   2.673400   1.018764
                   16         17
    16  H    0.000000
    17  H    1.682487   0.000000
 Stoichiometry    C6H7NO2S
 Framework group  C1[X(C6H7NO2S)]
 Deg. of freedom    45
 Full point group                 C1      NOp   1
 Largest Abelian subgroup         C1      NOp   1
 Largest concise Abelian subgroup C1      NOp   1
                         Standard orientation:                         
 ---------------------------------------------------------------------
 Center     Atomic      Atomic             Coordinates (Angstroms)
 Number     Number       Type             X           Y           Z
 ---------------------------------------------------------------------
      1          6           0        0.306636    0.000003   -0.085823
      2          6           0        0.980713    1.217765   -0.051254
      3          1           0        0.423626    2.147834   -0.112712
      4          6           0        2.372074    1.210242    0.029370
      5          1           0        2.915492    2.149853    0.046591
      6          6           0        3.064169   -0.000013    0.073143
      7          1           0        4.148621   -0.000013    0.129057
      8          6           0        2.372065   -1.210256    0.029352
      9          1           0        2.915466   -2.149877    0.046558
     10          6           0        0.980700   -1.217761   -0.051272
     11          1           0        0.423609   -2.147828   -0.112744
     12         16           0       -1.475159    0.000014   -0.147949
     13          8           0       -1.888493    1.283157   -0.698394
     14          8           0       -1.888520   -1.283069   -0.698518
     15          7           0       -2.002913   -0.000069    1.431224
     16          1           0       -1.722864    0.841092    1.933122
     17          1           0       -1.723049   -0.841395    1.932948
 ---------------------------------------------------------------------
 Rotational constants (GHZ):           2.5771634           0.8353905           0.7263627
 Basis read from rwf:  (6D, 7F)
 There are   208 symmetry adapted cartesian basis functions of A   symmetry.
 There are   208 symmetry adapted basis functions of A   symmetry.
   208 basis functions,   372 primitive gaussians,   208 cartesian basis functions
    41 alpha electrons       41 beta electrons
       nuclear repulsion energy       633.6435284508 Hartrees.
 NAtoms=   17 NActive=   17 NUniq=   17 SFac= 1.00D+00 NAtFMM=   60 NAOKFM=F Big=F
 Integral buffers will be    131072 words long.
 Raffenetti 2 integral format.
 Two-electron integral symmetry is turned on.
 One-electron integrals computed using PRISM.
 NBasis=   208 RedAO= T EigKep=  3.68D-06  NBF=   208
 NBsUse=   208 1.00D-06 EigRej= -1.00D+00 NBFU=   208
 Initial guess from the checkpoint file:  "/jobfs/40735761.gadi-pbs/Gau-4169884.chk"
 B after Tr=    -0.000000    0.000000   -0.000000
         Rot=    1.000000    0.000005   -0.000236   -0.000000 Ang=   0.03 deg.
 ExpMin= 4.05D-02 ExpMax= 2.19D+04 ExpMxC= 3.30D+03 IAcc=3 IRadAn=         5 AccDes= 0.00D+00
 Harris functional with IExCor= 1009 and IRadAn=       5 diagonalized for initial guess.
 HarFok:  IExCor= 1009 AccDes= 0.00D+00 IRadAn=         5 IDoV= 1 UseB2=F ITyADJ=14
 ICtDFT=  3500011 ScaDFX=  1.000000  1.000000  1.000000  1.000000
 FoFCou: FMM=F IPFlag=           0 FMFlag=      100000 FMFlg1=           0
         NFxFlg=           0 DoJE=T BraDBF=F KetDBF=T FulRan=T
         wScrn=  0.000000 ICntrl=       500 IOpCl=  0 I1Cent=   200000004 NGrid=           0
         NMat0=    1 NMatS0=      1 NMatT0=    0 NMatD0=    1 NMtDS0=    0 NMtDT0=    0
 Petite list used in FoFCou.
 Requested convergence on RMS density matrix=1.00D-08 within 128 cycles.
 Requested convergence on MAX density matrix=1.00D-06.
 Requested convergence on             energy=1.00D-06.
 No special actions if energy rises.
 SCF Done:  E(RM062X) =  -835.968040251     A.U. after   13 cycles
            NFock= 13  Conv=0.35D-08     -V/T= 2.0062
 Calling FoFJK, ICntrl=      2127 FMM=F ISym2X=0 I1Cent= 0 IOpClX= 0 NMat=1 NMatS=1 NMatT=0.
 ***** Axes restored to original set *****
 -------------------------------------------------------------------
 Center     Atomic                   Forces (Hartrees/Bohr)
 Number     Number              X              Y              Z
 -------------------------------------------------------------------
      1        6          -0.000241786   -0.000392543   -0.000729337
      2        6          -0.000104809    0.000081566   -0.001398194
      3        1           0.000005881   -0.000145873    0.000243625
      4        6          -0.000168311    0.000111861    0.000401302
      5        1           0.000010078    0.000071056   -0.000019544
      6        6          -0.000056797   -0.000120040    0.000003843
      7        1           0.000035550    0.000072227    0.000030726
      8        6           0.000252733   -0.000078224    0.000369993
      9        1           0.000043144    0.000056281   -0.000023049
     10        6          -0.000067130    0.000064978   -0.001405464
     11        1          -0.000077929   -0.000108273    0.000251099
     12       16          -0.001678338   -0.003978093    0.001289063
     13        8           0.005533530   -0.000569380   -0.000700627
     14        8          -0.004138092    0.003782985    0.000130357
     15        7           0.001666400    0.003769094   -0.000360091
     16        1          -0.000340154   -0.001384415    0.000944210
     17        1          -0.000673970   -0.001233208    0.000972088
 -------------------------------------------------------------------
 Cartesian Forces:  Max     0.005533530 RMS     0.001478304

 GradGradGradGradGradGradGradGradGradGradGradGradGradGradGradGradGradGrad
 Berny optimization.
 Using GEDIIS/GDIIS optimizer.
 FormGI is forming the generalized inverse of G from B-inverse, IUseBI=4.
 Internal  Forces:  Max     0.005456818 RMS     0.001032826
 Search for a local minimum.
 Step number   2 out of a maximum of   90
 All quantities printed in internal units (Hartrees-Bohrs-Radians)
 Mixed Optimization -- RFO/linear search
 Update second derivatives using D2CorX and points    1    2
 DE= -1.50D-03 DEPred=-1.54D-03 R= 9.74D-01
 TightC=F SS=  1.41D+00  RLast= 1.72D-01 DXNew= 5.0454D-01 5.1451D-01
 Trust test= 9.74D-01 RLast= 1.72D-01 DXMaxT set to 5.05D-01
 ITU=  1  0
 Use linear search instead of GDIIS.
     Eigenvalues ---    0.00665   0.01600   0.01915   0.02146   0.02151
     Eigenvalues ---    0.02158   0.02161   0.02166   0.02171   0.02176
     Eigenvalues ---    0.02194   0.04190   0.10153   0.11351   0.14966
     Eigenvalues ---    0.15835   0.15993   0.15998   0.15999   0.15999
     Eigenvalues ---    0.16000   0.16477   0.19339   0.22000   0.22005
     Eigenvalues ---    0.23365   0.24996   0.25177   0.27733   0.35303
     Eigenvalues ---    0.35310   0.35311   0.35356   0.35357   0.40773
     Eigenvalues ---    0.42279   0.42377   0.43758   0.43963   0.46422
     Eigenvalues ---    0.46589   0.46690   0.46831   0.83600   0.90228
 RFO step:  Lambda=-2.24639562D-04 EMin= 6.64812277D-03
 Quartic linear search produced a step of -0.00611.
 Iteration  1 RMS(Cart)=  0.00868289 RMS(Int)=  0.00003016
 Iteration  2 RMS(Cart)=  0.00003182 RMS(Int)=  0.00001284
 Iteration  3 RMS(Cart)=  0.00000000 RMS(Int)=  0.00001284
 Variable       Old X    -DE/DX   Delta X   Delta X   Delta X     New X
                                 (Linear)    (Quad)   (Total)
    R1        2.63108   0.00047   0.00002   0.00080   0.00081   2.63189
    R2        2.63107   0.00047   0.00002   0.00080   0.00082   2.63189
    R3        3.36915   0.00222  -0.00006   0.00865   0.00859   3.37774
    R4        2.05203   0.00010  -0.00000   0.00030   0.00030   2.05233
    R5        2.63374  -0.00037  -0.00001  -0.00070  -0.00071   2.63303
    R6        2.05144   0.00003  -0.00000   0.00012   0.00012   2.05155
    R7        2.63590   0.00009   0.00001   0.00005   0.00006   2.63596
    R8        2.05204  -0.00002  -0.00000  -0.00004  -0.00005   2.05199
    R9        2.63589   0.00009   0.00001   0.00006   0.00007   2.63595
   R10        2.05144   0.00003  -0.00000   0.00012   0.00012   2.05155
   R11        2.63375  -0.00037  -0.00001  -0.00071  -0.00071   2.63303
   R12        2.05203   0.00010  -0.00000   0.00030   0.00030   2.05233
   R13        2.75167  -0.00546   0.00008  -0.00709  -0.00700   2.74467
   R14        2.75168  -0.00546   0.00008  -0.00709  -0.00701   2.74467
   R15        3.14644   0.00181  -0.00014   0.00604   0.00590   3.15234
   R16        1.92519  -0.00110   0.00004  -0.00302  -0.00298   1.92221
   R17        1.92518  -0.00110   0.00004  -0.00302  -0.00298   1.92221
    A1        2.12938  -0.00058   0.00003  -0.00276  -0.00273   2.12664
    A2        2.07683   0.00029  -0.00002   0.00137   0.00135   2.07818
    A3        2.07683   0.00029  -0.00002   0.00137   0.00135   2.07818
    A4        2.09364  -0.00042   0.00008  -0.00333  -0.00324   2.09040
    A5        2.07150   0.00032  -0.00002   0.00178   0.00175   2.07325
    A6        2.11771   0.00009  -0.00005   0.00159   0.00154   2.11925
    A7        2.08976   0.00005  -0.00001   0.00049   0.00047   2.09024
    A8        2.09652  -0.00007   0.00000  -0.00043  -0.00043   2.09609
    A9        2.09684   0.00002   0.00001  -0.00005  -0.00003   2.09681
   A10        2.09109  -0.00004  -0.00001   0.00001   0.00000   2.09109
   A11        2.10092   0.00007   0.00001   0.00001   0.00002   2.10094
   A12        2.09110  -0.00004  -0.00001   0.00000  -0.00000   2.09109
   A13        2.09685   0.00002   0.00001  -0.00005  -0.00004   2.09681
   A14        2.09651  -0.00007   0.00000  -0.00043  -0.00043   2.09609
   A15        2.08975   0.00005  -0.00001   0.00049   0.00048   2.09023
   A16        2.07150   0.00032  -0.00002   0.00178   0.00175   2.07325
   A17        2.09365  -0.00042   0.00008  -0.00333  -0.00325   2.09040
   A18        2.11770   0.00010  -0.00005   0.00159   0.00154   2.11924
   A19        1.87220   0.00051   0.00010   0.00351   0.00362   1.87582
   A20        1.87221   0.00051   0.00010   0.00351   0.00361   1.87583
   A21        1.85847   0.00186   0.00023   0.00744   0.00766   1.86613
   A22        2.15672  -0.00090  -0.00044  -0.00413  -0.00460   2.15212
   A23        1.84274  -0.00078   0.00004  -0.00435  -0.00433   1.83840
   A24        1.84272  -0.00078   0.00004  -0.00435  -0.00433   1.83839
   A25        1.96068  -0.00039  -0.00009   0.00236   0.00223   1.96291
   A26        1.96065  -0.00039  -0.00009   0.00237   0.00224   1.96289
   A27        1.94306   0.00111  -0.00011   0.01434   0.01417   1.95723
    D1        3.10666  -0.00005   0.00020  -0.00471  -0.00450   3.10216
    D2       -0.00759  -0.00013   0.00008  -0.00656  -0.00647  -0.01406
    D3       -0.05365  -0.00011   0.00005  -0.00641  -0.00636  -0.06001
    D4        3.11529  -0.00019  -0.00007  -0.00826  -0.00833   3.10696
    D5        0.00759   0.00013  -0.00008   0.00656   0.00647   0.01406
    D6       -3.10666   0.00005  -0.00020   0.00471   0.00450  -3.10215
    D7       -3.11529   0.00019   0.00007   0.00826   0.00833  -3.10696
    D8        0.05365   0.00011  -0.00005   0.00641   0.00636   0.06001
    D9        0.40458   0.00023   0.00028   0.00090   0.00119   0.40577
   D10        2.75508  -0.00017  -0.00013   0.00082   0.00068   2.75576
   D11       -1.56177   0.00003   0.00007   0.00086   0.00094  -1.56083
   D12       -2.75516   0.00017   0.00013  -0.00080  -0.00066  -2.75582
   D13       -0.40466  -0.00023  -0.00028  -0.00088  -0.00117  -0.40583
   D14        1.56168  -0.00003  -0.00007  -0.00084  -0.00091   1.56076
   D15        3.13015   0.00010   0.00003   0.00378   0.00382   3.13397
   D16        0.00064   0.00006  -0.00002   0.00270   0.00268   0.00332
   D17        0.01630   0.00002  -0.00009   0.00199   0.00189   0.01819
   D18       -3.11322  -0.00002  -0.00015   0.00091   0.00076  -3.11246
   D19        3.13427   0.00006   0.00003   0.00217   0.00220   3.13647
   D20        0.00612   0.00002  -0.00004   0.00098   0.00094   0.00706
   D21        0.00481   0.00002  -0.00002   0.00108   0.00106   0.00587
   D22       -3.12335  -0.00002  -0.00009  -0.00011  -0.00020  -3.12355
   D23        3.12335   0.00002   0.00009   0.00011   0.00020   3.12355
   D24       -0.00612  -0.00002   0.00004  -0.00098  -0.00094  -0.00706
   D25       -0.00481  -0.00002   0.00002  -0.00108  -0.00106  -0.00587
   D26       -3.13427  -0.00006  -0.00003  -0.00217  -0.00220  -3.13647
   D27       -0.00064  -0.00006   0.00002  -0.00270  -0.00269  -0.00332
   D28        3.11322   0.00002   0.00015  -0.00091  -0.00076   3.11246
   D29       -3.13015  -0.00010  -0.00003  -0.00378  -0.00382  -3.13397
   D30       -0.01630  -0.00002   0.00009  -0.00199  -0.00190  -0.01819
   D31        1.10328   0.00043  -0.00014   0.01165   0.01153   1.11481
   D32       -1.10351  -0.00043   0.00014  -0.01161  -0.01149  -1.11500
   D33       -0.88330  -0.00061  -0.00038   0.00639   0.00605  -0.87725
   D34       -3.09009  -0.00147  -0.00010  -0.01687  -0.01697  -3.10705
   D35        3.08986   0.00147   0.00010   0.01691   0.01700   3.10686
   D36        0.88307   0.00061   0.00038  -0.00635  -0.00601   0.87706
         Item               Value     Threshold  Converged?
 Maximum Force            0.005457     0.000450     NO 
 RMS     Force            0.001033     0.000300     NO 
 Maximum Displacement     0.035936     0.001800     NO 
 RMS     Displacement     0.008674     0.001200     NO 
 Predicted change in Energy=-1.125950D-04
 GradGradGradGradGradGradGradGradGradGradGradGradGradGradGradGradGradGrad

                          Input orientation:                          
 ---------------------------------------------------------------------
 Center     Atomic      Atomic             Coordinates (Angstroms)
 Number     Number       Type             X           Y           Z
 ---------------------------------------------------------------------
      1          6           0       -1.203567    0.571833   -0.940560
      2          6           0       -2.325183    1.164450   -1.515452
      3          1           0       -3.172902    1.432436   -0.891712
      4          6           0       -2.342554    1.372063   -2.893128
      5          1           0       -3.211747    1.826267   -3.358751
      6          6           0       -1.252230    0.985555   -3.672564
      7          1           0       -1.272697    1.145207   -4.746437
      8          6           0       -0.141868    0.381934   -3.082269
      9          1           0        0.697518    0.067417   -3.694735
     10          6           0       -0.111891    0.168650   -1.705675
     11          1           0        0.729741   -0.323436   -1.227132
     12         16           0       -1.150674    0.350724    0.832346
     13          8           0       -2.521785    0.336780    1.311271
     14          8           0       -0.197521   -0.709031    1.111509
     15          7           0       -0.473320    1.733497    1.474103
     16          1           0       -1.044421    2.558859    1.308896
     17          1           0        0.490172    1.868266    1.177135
 ---------------------------------------------------------------------
                    Distance matrix (angstroms):
                    1          2          3          4          5
     1  C    0.000000
     2  C    1.392738   0.000000
     3  H    2.149722   1.086046   0.000000
     4  C    2.397954   1.393340   2.167670   0.000000
     5  H    3.384382   2.149826   2.498579   1.085635   0.000000
     6  C    2.763581   2.415857   3.409080   1.394888   2.155222
     7  H    3.849446   3.398141   4.307225   2.151932   2.479804
     8  C    2.397954   2.798948   3.884490   2.420567   3.403924
     9  H    3.384381   3.884517   4.969946   3.403925   4.299859
    10  C    1.392736   2.434433   3.410203   2.798947   3.884516
    11  H    2.149723   3.410205   4.292578   3.884489   4.969945
    12  S    1.787423   2.748414   2.869127   4.042632   4.898015
    13  O    2.619864   2.951957   2.545103   4.333694   4.950124
    14  O    2.619872   3.864945   4.177520   4.996923   5.957896
    15  N    2.777286   3.562393   3.602147   4.764176   5.555544
    16  H    3.005603   3.400245   3.262198   4.555288   5.198166
    17  H    3.005682   3.958738   4.229444   4.983733   5.854933
                    6          7          8          9         10
     6  C    0.000000
     7  H    1.085869   0.000000
     8  C    1.394887   2.151932   0.000000
     9  H    2.155223   2.479810   1.085635   0.000000
    10  C    2.415856   3.398142   1.393342   2.149825   0.000000
    11  H    3.409077   4.307224   2.167668   2.498573   1.086047
    12  S    4.550554   5.636392   4.042632   4.898013   2.748412
    13  O    5.183752   6.237756   4.996923   5.957898   3.864947
    14  O    5.183762   6.237767   4.333715   4.950146   2.951980
    15  N    5.258736   6.299223   4.764148   5.555498   3.562354
    16  H    5.228137   6.222345   4.983567   5.854737   3.958579
    17  H    5.228263   6.222478   4.555347   5.198188   3.400260
                   11         12         13         14         15
    11  H    0.000000
    12  S    2.869129   0.000000
    13  O    4.177534   1.452415   0.000000
    14  O    2.545141   1.452416   2.556526   0.000000
    15  N    3.602082   1.668149   2.484661   2.484649   0.000000
    16  H    4.229268   2.261471   2.668379   3.381613   1.017188
    17  H    3.262124   2.261458   3.381616   2.668275   1.017188
                   16         17
    16  H    0.000000
    17  H    1.687973   0.000000
 Stoichiometry    C6H7NO2S
 Framework group  C1[X(C6H7NO2S)]
 Deg. of freedom    45
 Full point group                 C1      NOp   1
 Largest Abelian subgroup         C1      NOp   1
 Largest concise Abelian subgroup C1      NOp   1
                         Standard orientation:                         
 ---------------------------------------------------------------------
 Center     Atomic      Atomic             Coordinates (Angstroms)
 Number     Number       Type             X           Y           Z
 ---------------------------------------------------------------------
      1          6           0        0.310813    0.000004   -0.090329
      2          6           0        0.986788    1.217218   -0.056183
      3          1           0        0.428183    2.146292   -0.121602
      4          6           0        2.377366    1.210278    0.031232
      5          1           0        2.920739    2.149921    0.051746
      6          6           0        3.069204   -0.000010    0.078961
      7          1           0        4.153227   -0.000013    0.142254
      8          6           0        2.377357   -1.210289    0.031217
      9          1           0        2.920718   -2.149939    0.051719
     10          6           0        0.986777   -1.217215   -0.056199
     11          1           0        0.428169   -2.146286   -0.121631
     12         16           0       -1.475668    0.000011   -0.148364
     13          8           0       -1.894278    1.278296   -0.696326
     14          8           0       -1.894296   -1.278230   -0.696417
     15          7           0       -2.012765   -0.000053    1.430955
     16          1           0       -1.746034    0.843869    1.932275
     17          1           0       -1.746186   -0.844105    1.932136
 ---------------------------------------------------------------------
 Rotational constants (GHZ):           2.5836560           0.8315376           0.7238302
 Basis read from rwf:  (6D, 7F)
 There are   208 symmetry adapted cartesian basis functions of A   symmetry.
 There are   208 symmetry adapted basis functions of A   symmetry.
   208 basis functions,   372 primitive gaussians,   208 cartesian basis functions
    41 alpha electrons       41 beta electrons
       nuclear repulsion energy       633.3142753670 Hartrees.
 NAtoms=   17 NActive=   17 NUniq=   17 SFac= 1.00D+00 NAtFMM=   60 NAOKFM=F Big=F
 Integral buffers will be    131072 words long.
 Raffenetti 2 integral format.
 Two-electron integral symmetry is turned on.
 One-electron integrals computed using PRISM.
 NBasis=   208 RedAO= T EigKep=  3.73D-06  NBF=   208
 NBsUse=   208 1.00D-06 EigRej= -1.00D+00 NBFU=   208
 Initial guess from the checkpoint file:  "/jobfs/40735761.gadi-pbs/Gau-4169884.chk"
 B after Tr=    -0.000000   -0.000000    0.000000
         Rot=    1.000000    0.000004    0.000380   -0.000000 Ang=   0.04 deg.
 ExpMin= 4.05D-02 ExpMax= 2.19D+04 ExpMxC= 3.30D+03 IAcc=3 IRadAn=         5 AccDes= 0.00D+00
 Harris functional with IExCor= 1009 and IRadAn=       5 diagonalized for initial guess.
 HarFok:  IExCor= 1009 AccDes= 0.00D+00 IRadAn=         5 IDoV= 1 UseB2=F ITyADJ=14
 ICtDFT=  3500011 ScaDFX=  1.000000  1.000000  1.000000  1.000000
 FoFCou: FMM=F IPFlag=           0 FMFlag=      100000 FMFlg1=           0
         NFxFlg=           0 DoJE=T BraDBF=F KetDBF=T FulRan=T
         wScrn=  0.000000 ICntrl=       500 IOpCl=  0 I1Cent=   200000004 NGrid=           0
         NMat0=    1 NMatS0=      1 NMatT0=    0 NMatD0=    1 NMtDS0=    0 NMtDT0=    0
 Petite list used in FoFCou.
 Requested convergence on RMS density matrix=1.00D-08 within 128 cycles.
 Requested convergence on MAX density matrix=1.00D-06.
 Requested convergence on             energy=1.00D-06.
 No special actions if energy rises.
 SCF Done:  E(RM062X) =  -835.968156680     A.U. after   12 cycles
            NFock= 12  Conv=0.28D-08     -V/T= 2.0062
 Calling FoFJK, ICntrl=      2127 FMM=F ISym2X=0 I1Cent= 0 IOpClX= 0 NMat=1 NMatS=1 NMatT=0.
 ***** Axes restored to original set *****
 -------------------------------------------------------------------
 Center     Atomic                   Forces (Hartrees/Bohr)
 Number     Number              X              Y              Z
 -------------------------------------------------------------------
      1        6          -0.000112117   -0.000222950   -0.000128488
      2        6          -0.000041801    0.000140994    0.000045834
      3        1          -0.000050357    0.000095294    0.000030128
      4        6          -0.000144259   -0.000052575    0.000147340
      5        1           0.000002593   -0.000026907    0.000033778
      6        6           0.000010017    0.000020956    0.000019374
      7        1           0.000018879    0.000040087    0.000007934
      8        6           0.000076813   -0.000152302    0.000130099
      9        1          -0.000017031   -0.000018049    0.000035203
     10        6           0.000139678    0.000059398    0.000028550
     11        1           0.000107905    0.000024082    0.000016777
     12       16           0.000211718    0.000263138    0.001081920
     13        8           0.000720465   -0.000453734   -0.000561003
     14        8          -0.000888278    0.000269949   -0.000422582
     15        7           0.000106162    0.000438387   -0.001067937
     16        1          -0.000221265   -0.000145188    0.000314884
     17        1           0.000080880   -0.000280581    0.000288188
 -------------------------------------------------------------------
 Cartesian Forces:  Max     0.001081920 RMS     0.000322235

 GradGradGradGradGradGradGradGradGradGradGradGradGradGradGradGradGradGrad
 Berny optimization.
 Using GEDIIS/GDIIS optimizer.
 FormGI is forming the generalized inverse of G from B-inverse, IUseBI=4.
 Internal  Forces:  Max     0.000861200 RMS     0.000220328
 Search for a local minimum.
 Step number   3 out of a maximum of   90
 All quantities printed in internal units (Hartrees-Bohrs-Radians)
 Mixed Optimization -- En-DIIS/RFO-DIIS
 Update second derivatives using D2CorX and points    1    2    3
 DE= -1.16D-04 DEPred=-1.13D-04 R= 1.03D+00
 TightC=F SS=  1.41D+00  RLast= 4.42D-02 DXNew= 8.4853D-01 1.3265D-01
 Trust test= 1.03D+00 RLast= 4.42D-02 DXMaxT set to 5.05D-01
 ITU=  1  1  0
 Use linear search instead of GDIIS.
     Eigenvalues ---    0.00665   0.01598   0.01915   0.02141   0.02153
     Eigenvalues ---    0.02161   0.02166   0.02171   0.02176   0.02193
     Eigenvalues ---    0.02217   0.03542   0.10052   0.11684   0.15138
     Eigenvalues ---    0.15994   0.15996   0.15999   0.15999   0.16000
     Eigenvalues ---    0.16062   0.16831   0.19418   0.21988   0.22000
     Eigenvalues ---    0.23749   0.24995   0.25779   0.29567   0.35290
     Eigenvalues ---    0.35303   0.35311   0.35357   0.35360   0.41087
     Eigenvalues ---    0.42373   0.42440   0.43636   0.43963   0.46421
     Eigenvalues ---    0.46570   0.46690   0.46762   0.76418   0.90228
 RFO step:  Lambda=-2.28823509D-05 EMin= 6.64812257D-03
 Quartic linear search produced a step of  0.03723.
 Iteration  1 RMS(Cart)=  0.00211916 RMS(Int)=  0.00000682
 Iteration  2 RMS(Cart)=  0.00000532 RMS(Int)=  0.00000466
 Iteration  3 RMS(Cart)=  0.00000000 RMS(Int)=  0.00000466
 Variable       Old X    -DE/DX   Delta X   Delta X   Delta X     New X
                                 (Linear)    (Quad)   (Total)
    R1        2.63189  -0.00000   0.00003   0.00002   0.00005   2.63194
    R2        2.63189  -0.00000   0.00003   0.00002   0.00005   2.63194
    R3        3.37774  -0.00037   0.00032  -0.00076  -0.00044   3.37730
    R4        2.05233   0.00008   0.00001   0.00026   0.00027   2.05260
    R5        2.63303  -0.00020  -0.00003  -0.00047  -0.00050   2.63253
    R6        2.05155  -0.00003   0.00000  -0.00007  -0.00007   2.05149
    R7        2.63596   0.00014   0.00000   0.00031   0.00031   2.63627
    R8        2.05199  -0.00000  -0.00000  -0.00001  -0.00001   2.05198
    R9        2.63595   0.00014   0.00000   0.00031   0.00031   2.63627
   R10        2.05155  -0.00003   0.00000  -0.00007  -0.00007   2.05149
   R11        2.63303  -0.00020  -0.00003  -0.00048  -0.00050   2.63253
   R12        2.05233   0.00008   0.00001   0.00026   0.00027   2.05260
   R13        2.74467  -0.00086  -0.00026  -0.00155  -0.00181   2.74285
   R14        2.74467  -0.00086  -0.00026  -0.00155  -0.00181   2.74285
   R15        3.15234  -0.00018   0.00022   0.00012   0.00034   3.15269
   R16        1.92221  -0.00004  -0.00011  -0.00035  -0.00046   1.92174
   R17        1.92221  -0.00004  -0.00011  -0.00035  -0.00046   1.92174
    A1        2.12664   0.00030  -0.00010   0.00104   0.00094   2.12758
    A2        2.07818  -0.00015   0.00005  -0.00053  -0.00048   2.07770
    A3        2.07818  -0.00015   0.00005  -0.00053  -0.00048   2.07770
    A4        2.09040   0.00011  -0.00012   0.00023   0.00011   2.09051
    A5        2.07325  -0.00015   0.00007  -0.00054  -0.00048   2.07278
    A6        2.11925   0.00004   0.00006   0.00030   0.00035   2.11960
    A7        2.09024  -0.00000   0.00002  -0.00004  -0.00002   2.09021
    A8        2.09609  -0.00005  -0.00002  -0.00020  -0.00022   2.09587
    A9        2.09681   0.00005  -0.00000   0.00025   0.00025   2.09706
   A10        2.09109  -0.00005   0.00000  -0.00023  -0.00023   2.09085
   A11        2.10094   0.00010   0.00000   0.00048   0.00048   2.10142
   A12        2.09109  -0.00005  -0.00000  -0.00024  -0.00024   2.09086
   A13        2.09681   0.00005  -0.00000   0.00025   0.00025   2.09706
   A14        2.09609  -0.00005  -0.00002  -0.00020  -0.00022   2.09587
   A15        2.09023  -0.00000   0.00002  -0.00004  -0.00002   2.09021
   A16        2.07325  -0.00015   0.00007  -0.00054  -0.00048   2.07278
   A17        2.09040   0.00011  -0.00012   0.00023   0.00011   2.09051
   A18        2.11924   0.00004   0.00006   0.00030   0.00036   2.11960
   A19        1.87582  -0.00025   0.00013  -0.00216  -0.00203   1.87379
   A20        1.87583  -0.00025   0.00013  -0.00216  -0.00203   1.87380
   A21        1.86613  -0.00033   0.00029  -0.00050  -0.00022   1.86592
   A22        2.15212  -0.00028  -0.00017  -0.00200  -0.00219   2.14994
   A23        1.83840   0.00055  -0.00016   0.00363   0.00346   1.84186
   A24        1.83839   0.00056  -0.00016   0.00363   0.00346   1.84185
   A25        1.96291   0.00000   0.00008   0.00189   0.00195   1.96487
   A26        1.96289   0.00001   0.00008   0.00189   0.00196   1.96485
   A27        1.95723   0.00025   0.00053   0.00526   0.00577   1.96300
    D1        3.10216   0.00005  -0.00017   0.00224   0.00207   3.10423
    D2       -0.01406   0.00006  -0.00024   0.00270   0.00246  -0.01160
    D3       -0.06001   0.00003  -0.00024   0.00067   0.00043  -0.05958
    D4        3.10696   0.00004  -0.00031   0.00112   0.00081   3.10777
    D5        0.01406  -0.00006   0.00024  -0.00270  -0.00246   0.01160
    D6       -3.10215  -0.00005   0.00017  -0.00224  -0.00207  -3.10423
    D7       -3.10696  -0.00004   0.00031  -0.00112  -0.00081  -3.10777
    D8        0.06001  -0.00003   0.00024  -0.00067  -0.00043   0.05958
    D9        0.40577   0.00038   0.00004   0.00368   0.00372   0.40949
   D10        2.75576  -0.00036   0.00003  -0.00216  -0.00213   2.75363
   D11       -1.56083   0.00001   0.00003   0.00076   0.00080  -1.56003
   D12       -2.75582   0.00036  -0.00002   0.00217   0.00214  -2.75367
   D13       -0.40583  -0.00038  -0.00004  -0.00367  -0.00371  -0.40954
   D14        1.56076  -0.00001  -0.00003  -0.00075  -0.00078   1.55998
   D15        3.13397  -0.00002   0.00014  -0.00074  -0.00060   3.13337
   D16        0.00332  -0.00004   0.00010  -0.00167  -0.00157   0.00175
   D17        0.01819  -0.00001   0.00007  -0.00028  -0.00021   0.01798
   D18       -3.11246  -0.00003   0.00003  -0.00121  -0.00118  -3.11364
   D19        3.13647   0.00003   0.00008   0.00152   0.00160   3.13808
   D20        0.00706   0.00001   0.00004   0.00072   0.00075   0.00781
   D21        0.00587   0.00001   0.00004   0.00059   0.00063   0.00650
   D22       -3.12355  -0.00001  -0.00001  -0.00021  -0.00022  -3.12377
   D23        3.12355   0.00001   0.00001   0.00021   0.00022   3.12377
   D24       -0.00706  -0.00001  -0.00004  -0.00072  -0.00075  -0.00781
   D25       -0.00587  -0.00001  -0.00004  -0.00059  -0.00063  -0.00650
   D26       -3.13647  -0.00003  -0.00008  -0.00152  -0.00160  -3.13807
   D27       -0.00332   0.00004  -0.00010   0.00167   0.00157  -0.00175
   D28        3.11246   0.00003  -0.00003   0.00121   0.00118   3.11363
   D29       -3.13397   0.00002  -0.00014   0.00074   0.00060  -3.13337
   D30       -0.01819   0.00001  -0.00007   0.00028   0.00021  -0.01798
   D31        1.11481   0.00018   0.00043   0.00522   0.00566   1.12046
   D32       -1.11500  -0.00018  -0.00043  -0.00519  -0.00562  -1.12062
   D33       -0.87725   0.00035   0.00023   0.00624   0.00647  -0.87078
   D34       -3.10705  -0.00000  -0.00063  -0.00417  -0.00480  -3.11186
   D35        3.10686   0.00000   0.00063   0.00421   0.00484   3.11170
   D36        0.87706  -0.00035  -0.00022  -0.00620  -0.00644   0.87062
         Item               Value     Threshold  Converged?
 Maximum Force            0.000861     0.000450     NO 
 RMS     Force            0.000220     0.000300     YES
 Maximum Displacement     0.007400     0.001800     NO 
 RMS     Displacement     0.002118     0.001200     NO 
 Predicted change in Energy=-1.160700D-05
 GradGradGradGradGradGradGradGradGradGradGradGradGradGradGradGradGradGrad

                          Input orientation:                          
 ---------------------------------------------------------------------
 Center     Atomic      Atomic             Coordinates (Angstroms)
 Number     Number       Type             X           Y           Z
 ---------------------------------------------------------------------
      1          6           0       -1.203532    0.571996   -0.941035
      2          6           0       -2.325174    1.165261   -1.515272
      3          1           0       -3.172257    1.434448   -0.890938
      4          6           0       -2.343205    1.371325   -2.892904
      5          1           0       -3.212413    1.825443   -3.358505
      6          6           0       -1.252757    0.984316   -3.672210
      7          1           0       -1.273135    1.144156   -4.746051
      8          6           0       -0.141961    0.380935   -3.082095
      9          1           0        0.697368    0.066343   -3.694539
     10          6           0       -0.111268    0.169174   -1.705551
     11          1           0        0.730923   -0.321684   -1.226407
     12         16           0       -1.150284    0.351699    0.831725
     13          8           0       -2.521485    0.334269    1.307355
     14          8           0       -0.200126   -0.710226    1.107840
     15          7           0       -0.472755    1.735071    1.472476
     16          1           0       -1.045032    2.560342    1.312484
     17          1           0        0.492167    1.868602    1.180471
 ---------------------------------------------------------------------
                    Distance matrix (angstroms):
                    1          2          3          4          5
     1  C    0.000000
     2  C    1.392764   0.000000
     3  H    2.149933   1.086188   0.000000
     4  C    2.397410   1.393075   2.167760   0.000000
     5  H    3.383917   2.149545   2.498675   1.085600   0.000000
     6  C    2.762562   2.415616   3.409190   1.395053   2.155494
     7  H    3.848423   3.397818   4.307300   2.151932   2.479966
     8  C    2.397411   2.799379   3.885069   2.421187   3.404509
     9  H    3.383916   3.884918   4.970502   3.404509   4.300434
    10  C    1.392764   2.435113   3.410890   2.799378   3.884917
    11  H    2.149934   3.410891   4.293176   3.885068   4.970502
    12  S    1.787189   2.747843   2.868499   4.041727   4.897175
    13  O    2.617016   2.948950   2.542909   4.330063   4.946840
    14  O    2.617022   3.861864   4.174722   4.993155   5.954135
    15  N    2.777015   3.561288   3.600474   4.763134   5.554482
    16  H    3.009483   3.403118   3.263095   4.558980   5.201514
    17  H    3.009546   3.962212   4.231693   4.987886   5.859016
                    6          7          8          9         10
     6  C    0.000000
     7  H    1.085864   0.000000
     8  C    1.395052   2.151932   0.000000
     9  H    2.155495   2.479968   1.085600   0.000000
    10  C    2.415616   3.397818   1.393075   2.149544   0.000000
    11  H    3.409189   4.307299   2.167758   2.498673   1.086189
    12  S    4.549300   5.635128   4.041727   4.897174   2.747842
    13  O    5.179604   6.233620   4.993154   5.954136   3.861865
    14  O    5.179612   6.233628   4.330078   4.946858   2.948967
    15  N    5.257360   6.297608   4.763112   5.554448   3.561258
    16  H    5.232034   6.226031   4.987753   5.858862   3.962087
    17  H    5.232134   6.226136   4.559029   5.201535   3.403132
                   11         12         13         14         15
    11  H    0.000000
    12  S    2.868500   0.000000
    13  O    4.174732   1.451455   0.000000
    14  O    2.542937   1.451456   2.553328   0.000000
    15  N    3.600424   1.668330   2.487329   2.487320   0.000000
    16  H    4.231555   2.262810   2.671205   3.384133   1.016942
    17  H    3.263038   2.262799   3.384136   2.671122   1.016942
[...]
   zz         0.101760D+03      0.150793D+02      0.167780D+02

 ----------------------------------------------------------------------
 Unable to Open any file for archive entry.
 1\1\GINC-GADI-CPU-CLX-0238\Freq\RM062X\Gen\C6H7N1O2S1\YJ5695\20-May-20
 22\0\\#N Geom=AllCheck Guess=TCheck SCRF=Check GenChk RM062X/ChkBas Fr
 eq\\HA.1.a3.freq\\0,1\C,-1.2032885728,0.5725956939,-0.9414046639\C,-2.
 3249631584,1.1657320144,-1.5156062747\H,-3.1719241737,1.4356451073,-0.
 8915325697\C,-2.3432068636,1.371252584,-2.8934359799\H,-3.2124962448,1
 .8250252441,-3.3592188171\C,-1.2530792449,0.9837172995,-3.6728512234\H
 ,-1.2739259741,1.1425470816,-4.7468447263\C,-0.1420926486,0.3809000355
 ,-3.0826213537\H,0.6969988402,0.06601681,-3.6952397844\C,-0.1111029495
 ,0.1696446537,-1.7058876362\H,0.7315050698,-0.3206343666,-1.2270323583
 \S,-1.1502167266,0.3519633806,0.8310323231\O,-2.5211931975,0.335240855
 7,1.3081464695\O,-0.1994571914,-0.7094090916,1.1085931721\N,-0.4734221
 303,1.7339357435,1.470713965\H,-1.0459347466,2.5598530774,1.3161255743
 \H,0.492872913,1.8674438769,1.1839088837\\Version=ES64L-G16RevC.01\Sta
 te=1-A\HF=-835.9681699\RMSD=2.104e-09\RMSF=9.559e-06\ZeroPoint=0.12935
 38\Thermal=0.1381564\ETot=-835.8300135\HTot=-835.8290694\GTot=-835.873
 2075\Dipole=0.5401163,1.5464803,-1.8118159\DipoleDeriv=-0.165594,-0.04
 10186,0.0020989,-0.0404287,-0.243729,0.0343085,-0.0009786,0.027466,-0.
 302486,-0.0217597,-0.0279853,0.0701103,0.0152132,-0.0818186,-0.0719677
 ,-0.1463395,0.0325088,-0.1075276,0.061639,0.0308005,0.0311236,0.025776
 7,0.1161295,-0.0121938,0.0427998,-0.0155149,0.0840775,0.0294173,-0.070
 3405,0.0554918,-0.0786359,-0.0771963,-0.0248435,0.1426931,-0.0655663,-
 0.0711929,-0.00814,0.0731645,-0.0472136,0.0705362,0.1034554,0.0408043,
 -0.0445037,0.0339146,0.0228185,-0.0007962,-0.0521756,-0.0058324,-0.051
 7321,-0.0862817,-0.0288706,-0.0081527,-0.0340282,0.1064579,0.0865941,0
 .0231214,-0.0004289,0.0230294,0.1220643,0.0279948,0.0000524,0.0290648,
 -0.0753103,0.0128296,-0.0524041,-0.0708757,-0.0439985,-0.0974933,0.029
 6778,-0.1586533,0.0691195,-0.0343077,0.000822,0.0567653,0.068781,0.060
 1671,0.113685,-0.0108408,0.0620216,-0.0129515,0.0036267,-0.0476082,-0.
 0144081,-0.1100992,-0.058087,-0.0497146,0.0164124,0.1088602,-0.0824811
 ,-0.1137827,0.0549632,0.0325748,-0.0234656,0.0372625,0.1115147,0.01163
 89,-0.0333837,0.0188684,0.0953654,1.9602865,0.0816192,0.0972895,0.0971
 984,2.1151361,0.0841816,0.0157335,-0.0970741,2.6063908,-1.0301757,-0.1
 360547,0.3455173,-0.0004515,-0.5729423,0.0039714,0.2008428,0.0614356,-
 0.9397179,-0.7528606,0.3255971,-0.23127,0.1927288,-0.9237259,0.2361608
 ,-0.1009397,0.1468165,-0.8662515,-0.527248,-0.2231941,-0.2342636,-0.24
 06411,-0.8660247,-0.3951481,-0.1429271,-0.1921449,-1.0637483,0.1446838
 ,-0.0320367,-0.0554233,0.0019414,0.1747618,0.066847,-0.0335407,0.07314
 01,0.3406362,0.2029468,0.0259749,0.10846,-0.0098788,0.1421794,-0.00813
 28,0.0964154,0.0074268,0.3149519\Polar=96.1541692,-13.3912661,73.10530
 55,0.1946325,-3.693569,123.7610627\Quadrupole=1.7648609,-0.1932561,-1.
 5716048,-0.5377052,1.7229843,4.4842877\PG=C01 [X(C6H7N1O2S1)]\NImag=0\
 \0.61729095,-0.21558579,0.24419233,-0.03010045,-0.03385279,0.54387526,
 -0.26119406,0.10477998,-0.09373064,0.63812547,0.09395558,-0.11137104,0
 .05515516,-0.21085896,0.24039399,-0.03644375,0.02831325,-0.14968470,-0
 .06878778,-0.05077223,0.70442595,-0.01519068,0.00594233,0.01415732,-0.
 23447913,0.06515167,0.13028441,0.24484945,0.00998103,0.00007201,-0.007
 43740,0.06292085,-0.06088035,-0.03923160,-0.07261256,0.05200008,-0.009
 35185,0.00304554,0.01197419,0.13087372,-0.04033334,-0.15317218,-0.1398
 9587,0.04164439,0.15855511,0.03066347,-0.00755705,-0.02635756,-0.12055
 799,0.03018166,-0.03431876,0.00635827,-0.00386158,0.02409418,0.6425726
 6,0.00073296,0.00563263,0.01543958,0.02037593,-0.08233262,0.05555722,-
 0.00057892,0.00580184,-0.00833098,-0.22716994,0.25186616,-0.08147314,0
 .04166822,-0.01887765,0.03576615,0.02305876,-0.34692758,-0.00252718,0.
 00318766,-0.01067777,-0.00071903,-0.07736201,0.68999382,0.00267693,0.0
 0190292,0.00070507,0.00399151,-0.00025088,0.00169131,-0.00019919,-0.00
 174766,-0.00057733,-0.24270360,0.10480058,-0.09838407,0.25231446,0.002
 33280,0.00612680,0.00173089,0.00322186,0.00224230,0.00084429,-0.001657
 10,-0.00343613,-0.00065497,0.10441519,-0.09319395,0.05455475,-0.115611
 55,0.08651016,0.00095398,0.00119906,-0.00544993,-0.02601039,0.01330419
 ,-0.00872841,0.00000782,-0.00075685,0.00096929,-0.09855254,0.05455520,
 -0.11261259,0.10498687,-0.05932001,0.11525634,-0.06835574,0.02731996,0
 .00520455,0.03835414,-0.02572472,0.07429636,0.00224898,0.00262759,-0.0
 0073701,-0.25444527,0.07690064,0.06200194,-0.01406675,0.00628506,0.015
 48888,0.59118578,0.02729671,-0.01979214,-0.00332204,-0.01705842,0.0195
 5600,-0.02845139,0.00223304,0.00616056,0.00230685,0.06792853,-0.094343
 06,-0.00980016,0.00979513,0.00044753,-0.00812098,-0.20385321,0.2461879
 8,0.00532624,-0.00305143,-0.00315245,0.02283373,-0.00422093,-0.0327360
 0,-0.00085814,0.00190554,-0.00497739,0.13174289,-0.04148061,-0.1999393
 2,-0.01266082,0.00443514,0.01218898,-0.02735503,-0.07332070,0.75081731
 ,-0.00141179,0.00046033,0.00012003,-0.00263382,0.00410157,0.00313464,0
 .00019657,-0.00025879,0.00118131,0.00544756,-0.00399718,0.02519308,0.0
 0003725,-0.00179081,-0.00068876,-0.05726636,0.00847143,-0.00446575,0.0
 5367057,0.00046690,-0.00055026,-0.00021602,0.00396242,0.00561900,-0.00
 044545,-0.00009835,0.00000020,-0.00045739,-0.00027357,0.00571286,-0.00
 916897,-0.00183124,-0.00324347,-0.00033371,0.00845479,-0.05029152,0.04
 391328,-0.01295511,0.03959489,0.00008568,-0.00029235,0.00089804,0.0033
 9657,-0.00050316,-0.00004134,-0.00027321,0.00016949,-0.00060510,-0.002
 75190,0.00349953,-0.01210072,-0.00011735,-0.00061154,0.00062728,-0.004
 37865,0.04410687,-0.34253066,0.00417002,-0.04840789,0.36106538,0.03517
 268,-0.01475369,0.02032395,-0.01973975,0.01115922,-0.02970840,0.000031
 56,-0.00044030,-0.00084550,-0.04605192,0.02014512,0.03169344,-0.001232
 80,0.00334903,0.00352214,-0.25852692,0.10486038,-0.10312916,0.00463304
 ,-0.00028741,0.00202905,0.63187543,-0.02314571,0.01870163,-0.00368593,
 0.01043978,-0.01471980,0.02051099,-0.00030655,-0.00070754,0.00029040,0
 .02760829,-0.00200814,-0.02358117,0.00328376,0.00592487,-0.00037496,0.
 09595497,-0.11870684,0.06271599,0.00340424,0.00255383,0.00074377,-0.22
 448393,0.25161467,0.07597349,-0.02872795,-0.03645587,-0.03235227,0.022
 47011,-0.05419743,-0.00079687,0.00018943,-0.00081409,-0.01961835,0.000
 14712,0.07426768,0.00403867,-0.00069354,-0.00160054,-0.03373734,0.0302
 5952,-0.17149287,-0.02574865,0.01378406,-0.00812720,-0.06394672,-0.048
 73113,0.70094263,0.00251944,0.00240607,-0.00015346,-0.00010003,-0.0002
 5062,-0.00085400,-0.00016549,-0.00044243,0.00001424,-0.00131712,0.0045
 0973,-0.00294151,-0.00078034,0.00023810,0.00081936,-0.01397057,0.00629
 456,0.01588127,-0.00003136,-0.00190403,-0.00041138,-0.22919257,0.07307
 190,0.12762974,0.23812206,0.00204109,0.00606357,0.00214834,-0.00020464
 ,-0.00085871,0.00057794,-0.00037656,-0.00088381,-0.00018072,0.00443301
 ,0.00490259,0.00235716,0.00049537,-0.00011314,-0.00046929,0.00974623,0
 .00044577,-0.00870808,-0.00194692,-0.00312657,-0.00046317,0.07346330,-
 0.06772708,-0.04499835,-0.08183690,0.05899062,-0.00074213,0.00192505,-
 0.00522919,-0.00089883,0.00039900,-0.00069253,0.00003792,-0.00017445,0
 .00003701,-0.00236507,0.00217176,-0.00049397,-0.00068498,0.00022968,0.
 00045780,-0.01196271,0.00452754,0.01209454,0.00017286,-0.00071247,0.00
 057900,0.12776681,-0.04506861,-0.15159051,-0.13705517,0.04722845,0.156
 96828,-0.25169852,0.07186663,0.12283132,-0.04659988,0.02844072,-0.0208
 2842,-0.00139575,0.00407072,-0.00257148,-0.01784924,0.00081431,0.03313
 558,-0.00004464,-0.00051191,0.00076843,0.03483639,-0.00915970,-0.02858
 870,-0.00263956,0.00506274,-0.00192331,-0.12036704,0.03083839,-0.03687
 896,0.00507580,-0.00374907,0.02498785,0.62632906,0.08271042,-0.0934252
 0,-0.04168382,0.02067053,-0.00104128,-0.00092497,0.00378440,0.00423964
 ,0.00253670,0.00021300,-0.00584664,-0.00612725,-0.00049479,-0.00062181
 ,-0.00033231,-0.00044635,0.00534073,0.01687905,0.00493384,0.00475060,0
 .00181912,0.02101527,-0.08295436,0.05652477,-0.00031932,0.00519004,-0.
 00967762,-0.23498282,0.26449030,0.06544303,-0.01506729,-0.17712522,0.0
 3098451,-0.02490512,0.06860506,-0.00302930,0.00267127,-0.00098146,0.02
 987331,-0.00554254,-0.06496110,0.00087463,-0.00017556,-0.00098481,-0.0
 8029745,0.04056253,-0.01500297,-0.00171501,0.00164221,0.00083277,0.033
 29684,0.02422833,-0.34649787,-0.00248886,0.00328231,-0.01276042,0.0032
 7759,-0.08066729,0.69212604,-0.01484403,0.01049033,-0.01042467,-0.0010
 1553,0.00310716,0.00422044,-0.00060836,0.00056741,-0.00067079,0.000171
 54,-0.00057264,0.00049070,-0.00020331,-0.00044416,-0.00015060,0.002499
 05,0.00249846,0.00108851,0.00013054,-0.00012819,0.00019415,0.00531864,
 -0.00050370,0.00173768,-0.00040872,-0.00194589,-0.00050279,-0.23165827
 ,0.10899337,-0.09734195,0.24173326,0.00651441,-0.00048477,0.00390739,0
 .00281417,0.00503274,-0.00049732,0.00035918,0.00021995,0.00027383,-0.0
 0045176,-0.00061099,-0.00039431,-0.00037669,-0.00087533,-0.00009381,0.
 00204395,0.00625314,0.00107017,0.00002637,-0.00010131,-0.00006275,0.00
 267362,0.00303807,0.00074727,-0.00183351,-0.00322517,-0.00051163,0.111
 31585,-0.10295164,0.05891627,-0.12194002,0.09701889,0.01275601,-0.0073
 0581,0.01218429,0.00379741,-0.00028537,-0.00215479,0.00086496,-0.00043
 505,0.00072641,0.00060670,-0.00034553,-0.00105061,-0.00013531,-0.00010
 616,0.00006635,0.00128121,0.00136630,-0.00532003,-0.00122961,0.0006324
 8,-0.00043757,-0.02433234,0.01349142,-0.00687442,-0.00003190,-0.000867
 45,0.00096785,-0.09841080,0.05895194,-0.11392153,0.10400104,-0.0637325
 6,0.11665221,-0.07574783,0.00771344,-0.00142672,0.00774458,-0.00262340
 ,-0.01908078,-0.00360369,0.00182922,-0.00363473,-0.00412329,0.00475381
 ,-0.00366274,0.00030581,0.00043742,-0.00118585,-0.00386619,0.00135682,
 0.00046188,-0.00057050,-0.00018934,0.00004677,-0.00314488,0.00419720,0
 .00596455,0.00015478,-0.00021641,0.00141008,0.00920601,-0.00639905,0.0
 1736526,-0.00349299,-0.00009090,0.00312574,1.05917752,0.00808071,-0.06
 360313,0.01291394,-0.00171001,-0.00181661,0.01162444,0.00006016,-0.001
 94441,0.00017378,0.00455165,0.00410915,0.00277308,0.00008521,0.0003163
 2,0.00064408,0.00139009,-0.00139827,-0.00014910,-0.00017424,-0.0008714
 4,-0.00002694,0.00446100,0.00420222,-0.00158857,0.00018221,0.00059744,
 -0.00052641,-0.00709843,0.00201064,-0.00436730,0.00154960,-0.00177295,
 -0.00300026,-0.20586041,0.70884276,-0.00334986,0.00864002,-0.16329785,
 -0.01389868,0.00786513,-0.01575238,0.00182622,-0.00153039,0.00066104,-
 0.00038823,0.00084898,0.00507888,0.00052538,-0.00048270,0.00123232,0.0
 0028754,-0.00053642,0.00163791,-0.00003227,-0.00020258,0.00019573,0.00
 236767,-0.00038100,0.00400744,-0.00054407,0.00006052,0.00110224,0.0110
 6276,-0.00309785,-0.02104121,-0.00166205,0.00019985,0.00037894,-0.0738
 6614,-0.04303521,0.52401987,-0.00853205,0.00162881,-0.00371045,-0.0035
 4824,0.00236720,-0.00010654,0.00138007,-0.00189436,0.00097225,0.002234
 14,-0.00046119,0.00061800,0.00003375,-0.00012061,0.00047448,0.00029035
 ,-0.00020426,-0.00010606,0.00019607,-0.00019755,-0.00001826,-0.0007183
 4,0.00055661,-0.00016571,0.00004055,-0.00008891,0.00051026,0.00193816,
 -0.00157425,0.00500620,0.00062191,-0.00041611,-0.00078528,-0.54956955,
 0.00023616,0.16089313,0.59188475,-0.00325623,0.00990259,0.00126339,0.0
 0134177,-0.00025860,-0.00029628,-0.00113371,-0.00000964,-0.00015944,-0
 .00102892,0.00015202,0.00004057,0.00000242,-0.00001901,-0.00010248,0.0
 0019675,-0.00004893,0.00005462,-0.00005997,0.00007662,0.00005326,-0.00
 112218,-0.00008436,-0.00018247,-0.00006547,-0.00015774,0.00008766,0.00
 112779,0.00045104,0.00171982,-0.00021555,0.00009134,0.00047951,-0.0061
 3293,-0.08616379,0.00388606,0.01681845,0.06209991,0.03196316,0.0004188
 5,-0.00348319,0.00066701,0.00083672,-0.00175993,0.00119279,-0.00007565
 ,-0.00153058,0.00027251,-0.00084421,0.00032238,-0.00011635,0.00012816,
 -0.00024550,0.00083627,-0.00012440,-0.00049067,0.00008613,0.00009860,-
 0.00014932,0.00128682,-0.00175311,-0.00186570,-0.00009192,-0.00001022,
 -0.00090788,-0.00432143,0.00453448,-0.00514977,0.00045238,0.00027751,0
 .00014171,0.17210608,0.00452802,-0.14792836,-0.18457203,-0.00519090,0.
 13318390,0.00011540,0.00977020,0.00351936,0.00178661,0.00073567,-0.002
 96514,0.00073644,-0.00017816,0.00078323,-0.00042458,-0.00056654,-0.000
 27181,-0.00004394,-0.00008064,-0.00040086,0.00001537,0.00010641,0.0000
 4534,0.00025786,0.00001183,-0.00000563,0.00159995,-0.00140900,-0.00065
 303,0.00002582,0.00005468,-0.00042639,-0.00348888,0.00148459,0.0001920
 3,0.00179773,-0.00029818,-0.00126095,-0.31222837,0.24733386,-0.0638134
 4,-0.00921530,0.02868261,-0.00868444,0.30633753,0.01243485,-0.00257140
 ,-0.00367280,-0.00173699,0.00073128,0.00555853,-0.00042672,0.00005610,
 -0.00021250,0.00122209,-0.00069322,-0.00034759,-0.00005139,-0.00015069
 ,0.00049967,-0.00032453,0.00010149,0.00004193,-0.00013719,0.00000465,0
 .00005182,-0.00070039,0.00055904,0.00060877,-0.00006184,-0.00006736,0.
 00030868,0.00228708,-0.00029879,-0.00051415,-0.00107559,-0.00083851,0.
 00082420,0.25281674,-0.36190571,0.07355548,-0.00587842,0.01120758,0.00
 428311,-0.28347057,0.39013531,-0.02053101,0.02300401,0.00034357,0.0051
 6158,0.00007511,-0.00527850,-0.00020331,0.00054767,0.00006240,-0.00229
 912,-0.00005455,-0.00155052,-0.00007452,-0.00001550,-0.00083043,-0.000
 74040,0.00056892,-0.00036613,-0.00005015,0.00013953,-0.00013915,-0.001
 04495,-0.00014545,0.00054953,0.00013040,0.00000237,-0.00018922,0.00058
 569,0.00094685,-0.00177895,-0.00139396,0.00093486,-0.00111931,-0.07038
 918,0.08322013,-0.10952553,0.01252455,-0.00823026,0.01816054,0.0748748
 0,-0.08507450,0.09069373,0.00820090,-0.00657245,-0.00102212,-0.0003194
 5,0.00017543,-0.00010915,0.00008877,-0.00046972,0.00042925,0.00034557,
 0.00028542,0.00079482,-0.00008419,-0.00004264,-0.00001957,0.00079779,-
 0.00042822,-0.00029062,-0.00000678,-0.00011001,-0.00006699,0.00054362,
 0.00050085,-0.00118267,0.00004259,0.00010349,-0.00028740,-0.00186769,0
 .00035640,-0.00163349,-0.00001271,-0.00034607,-0.00022059,-0.12204331,
 -0.04017725,-0.02762746,-0.02553493,-0.03509881,-0.01044618,0.01071511
 ,0.02908486,0.00571885,0.72155677,-0.00471917,0.00056127,0.00103025,0.
 00094168,-0.00076081,-0.00235747,-0.00020696,-0.00061474,0.00018698,-0
 .00009036,0.00103732,-0.00075090,-0.00004491,0.00009153,-0.00033491,-0
 .00045811,0.00005463,-0.00030043,-0.00009793,-0.00014665,-0.00011800,0
 .00052404,0.00062387,0.00007833,0.00003988,-0.00003804,-0.00022660,-0.
 00052988,0.00013337,-0.00148510,-0.00044562,-0.00054249,0.00050380,-0.
 04270729,-0.18386064,-0.06622135,-0.00346015,0.00386469,-0.00412229,-0
 .00518345,-0.03157904,-0.01264921,-0.07236341,0.59878067,-0.01072408,-
 0.02053164,-0.00603930,0.00241941,-0.00258467,-0.00154480,-0.00048207,
 -0.00052859,-0.00039625,0.00100175,0.00160460,-0.00031909,-0.00009329,
 0.00016175,-0.00033867,-0.00013419,0.00004750,-0.00079309,-0.00013017,
 -0.00025844,-0.00011317,0.00045574,0.00182400,-0.00010345,0.00013122,0
 .00004326,-0.00033587,-0.00353369,0.00013818,-0.00089079,-0.00016325,-
 0.00067867,-0.00036703,-0.01437141,-0.03676184,-0.07633665,0.00946121,
 0.00814635,0.01094747,-0.00042329,0.00567637,0.01014022,-0.05583123,-0
 .00359070,0.12792335,-0.00096454,-0.00054972,-0.00011302,0.00055567,-0
 .00015709,-0.00048316,-0.00025070,-0.00010994,-0.00009455,-0.00015100,
 0.00013780,0.00006600,-0.00000283,0.00000982,-0.00006232,0.00002706,-0
 .00003729,-0.00004820,-0.00001669,0.00000490,0.00000652,-0.00008114,0.
 00004879,0.00001439,0.00000169,0.00001069,-0.00001824,-0.00025400,0.00
 016251,0.00004725,-0.00005941,-0.00006085,0.00002586,0.01405556,-0.008
 80809,0.00335447,-0.00269508,0.00124864,0.00028952,0.00109838,-0.00646
 204,-0.00141020,-0.18870548,0.16898049,-0.03046244,0.18949252,-0.00101
 320,0.00128322,0.00034401,-0.00001816,0.00020442,-0.00007808,-0.000126
 11,0.00002748,-0.00016136,-0.00011508,-0.00006752,-0.00025219,0.000037
 36,0.00000315,0.00002202,-0.00021634,0.00009601,0.00016412,-0.00000339
 ,0.00001925,0.00002517,-0.00000072,-0.00020969,0.00023298,-0.00001698,
 -0.00001681,0.00004734,0.00051669,0.00020455,0.00003452,-0.00003189,-0
 .00004176,0.00003904,0.01919194,-0.02060972,0.00801630,-0.00119196,0.0
 0410180,-0.00050635,-0.00156775,-0.00491332,-0.00264548,0.17752821,-0.
 31436195,0.03961063,-0.18519530,0.32498406,-0.00106323,0.00093359,-0.0
 0011853,0.00003282,0.00014055,-0.00027496,-0.00033702,-0.00015373,0.00
 004824,-0.00011277,0.00022426,-0.00040320,0.00001662,-0.00000221,-0.00
 002344,-0.00026226,0.00007235,0.00005978,-0.00001633,0.00000497,0.0000
 2510,0.00005306,-0.00017734,0.00025446,-0.00001960,-0.00001468,0.00002
 389,0.00045181,0.00000601,-0.00014600,0.00000927,0.00002751,0.00012397
 ,0.00384908,-0.01814314,-0.00313165,0.00177010,0.00105318,-0.00219247,
 0.00001839,-0.00342916,0.00275073,-0.04859361,0.07455454,-0.01766282,0
 .03739066,-0.04532324,0.02318652,0.00129948,0.00073770,0.00017749,-0.0
 0037009,0.00048978,0.00005871,0.00000288,0.00001867,0.00003091,-0.0001
 6920,-0.00010989,0.00021976,0.00000192,-0.00002987,0.00004893,0.000242
 89,-0.00010035,0.00012260,0.00000740,0.00001122,0.00001791,-0.00011956
 ,-0.00005590,-0.00027796,-0.00001653,0.00001744,0.00005792,0.00047806,
 -0.00010775,0.00014539,0.00003067,0.00006651,-0.00005216,-0.01225368,-
 0.00410222,0.00486504,0.00119375,-0.00130467,-0.00092033,0.00091487,0.
 00248004,-0.00085907,-0.40371658,-0.04017885,0.10287980,-0.01205002,-0
 .00777731,0.00681301,0.42452371,0.00117265,-0.00073813,-0.00006215,0.0
 0011819,0.00026010,0.00006814,-0.00000724,-0.00010125,0.00003224,-0.00
 000516,-0.00011845,0.00014435,0.00000636,-0.00000912,0.00001510,0.0001
 0323,-0.00006309,0.00005145,0.00002374,-0.00000068,0.00001678,0.000137
 63,-0.00010042,-0.00012035,-0.00001136,0.00002441,-0.00002737,-0.00030
 912,0.00032882,-0.00033290,0.00009692,-0.00020922,-0.00021050,-0.02807
 687,0.00386814,0.01241518,-0.00611945,-0.00520552,-0.00247831,0.004574
 43,0.00022258,-0.00062451,-0.05242608,-0.07324300,0.00768192,0.0307766
 7,0.00929684,-0.00977346,0.04994545,0.06578798,0.00127790,-0.00031830,
 -0.00036147,-0.00025432,0.00030010,-0.00008547,0.00003153,0.00000825,0
 .00012115,-0.00010801,-0.00008782,0.00025136,0.00000547,-0.00002248,0.
 00001596,0.00020828,-0.00014228,0.00000306,0.00001862,-0.00001223,0.00
 002094,0.00021154,0.00009381,-0.00040178,-0.00001438,0.00001162,-0.000
 03101,-0.00004425,0.00017401,-0.00032176,0.00011588,-0.00038359,0.0000
 0355,-0.01671187,-0.00827870,-0.00130072,-0.00276585,-0.00262258,0.002
 94737,-0.00052819,0.00184215,-0.00192299,0.14038815,0.01580306,-0.0437
 7005,-0.00850255,0.00043059,-0.00251962,-0.11332795,-0.00679559,0.0473
 5149\\0.00000662,0.00001540,-0.00000074,-0.00000266,-0.00000333,0.0000
 2384,0.00000161,0.00000454,-0.00000574,-0.00000087,-0.00000028,-0.0000
 0517,0.00000110,-0.00000165,-0.00000327,0.00000154,0.00000329,0.000002
 23,-0.00000113,-0.00000241,-0.00000071,-0.00000026,-0.00000059,-0.0000
 0499,-0.00000243,-0.00000006,-0.00000300,0.00000276,-0.00000570,0.0000
 2315,0.00000150,0.00000458,-0.00000571,-0.00001038,-0.00001677,-0.0000
 3278,0.00002230,-0.00000748,0.00000969,-0.00001859,0.00001097,0.000013
 17,0.00000288,0.00000830,-0.00000720,-0.00000721,-0.00000195,-0.000001
 06,0.00000321,-0.00000685,-0.00000172\\\@
 The archive entry for this job was punched.


 THERE IS NOTHING NOBLE IN BEING SUPERIOR TO SOME OTHER MAN.
 TRUE NOBILITY IS BEING SUPERIOR TO YOUR FORMER SELF.

                                                   -- HINDU PROVERB
 Job cpu time:       0 days  0 hours 40 minutes 43.8 seconds.
 Elapsed time:       0 days  0 hours  2 minutes 38.3 seconds.
 File lengths (MBytes):  RWF=     90 Int=      0 D2E=      0 Chk=      5 Scr=      1
 Normal termination of Gaussian 16 at Fri May 20 14:18:47 2022.
