 Entering Gaussian System, Link 0=g16
 AtFile(1): /home/561/yj5695/Basis/6-31pGd.gbs
 Initial command:
 /apps/gaussian/g16c01/g16/l1.exe "/jobfs/45190758.gadi-pbs/Gau-2476827.inp" -scrdir="/jobfs/45190758.gadi-pbs/"
 Entering Link 1 = /apps/gaussian/g16c01/g16/l1.exe PID=   2476846.
  
 Copyright (c) 1988-2019, Gaussian, Inc.  All Rights Reserved.
  
 This is part of the Gaussian(R) 16 program.  It is based on
 the Gaussian(R) 09 system (copyright 2009, Gaussian, Inc.),
 the Gaussian(R) 03 system (copyright 2003, Gaussian, Inc.),
 the Gaussian(R) 98 system (copyright 1998, Gaussian, Inc.),
 the Gaussian(R) 94 system (copyright 1995, Gaussian, Inc.),
 the Gaussian 92(TM) system (copyright 1992, Gaussian, Inc.),
 the Gaussian 90(TM) system (copyright 1990, Gaussian, Inc.),
 the Gaussian 88(TM) system (copyright 1988, Gaussian, Inc.),
 the Gaussian 86(TM) system (copyright 1986, Carnegie Mellon
 University), and the Gaussian 82(TM) system (copyright 1983,
 Carnegie Mellon University). Gaussian is a federally registered
 trademark of Gaussian, Inc.
  
 This software contains proprietary and confidential information,
 including trade secrets, belonging to Gaussian, Inc.
  
 This software is provided under written license and may be
 used, copied, transmitted, or stored only in accord with that
 written license.
  
 The following legend is applicable only to US Government
 contracts under FAR:
  
                    RESTRICTED RIGHTS LEGEND
  
 Use, reproduction and disclosure by the US Government is
 subject to restrictions as set forth in subparagraphs (a)
 and (c) of the Commercial Computer Software - Restricted
 Rights clause in FAR 52.227-19.
  
 Gaussian, Inc.
 340 Quinnipiac St., Bldg. 40, Wallingford CT 06492
  
  
 ---------------------------------------------------------------
 Warning -- This program may not be used in any manner that
 competes with the business of Gaussian, Inc. or will provide
 assistance to any competitor of Gaussian, Inc.  The licensee
 of this program is prohibited from giving any competitor of
 Gaussian, Inc. access to this program.  By using this program,
 the user acknowledges that Gaussian, Inc. is engaged in the
 business of creating and licensing software in the field of
 computational chemistry and represents and warrants to the
 licensee that it is not a competitor of Gaussian, Inc. and that
 it will not use this program in any manner prohibited above.
 ---------------------------------------------------------------
  

 Cite this work as:
 Gaussian 16, Revision C.01,
 M. J. Frisch, G. W. Trucks, H. B. Schlegel, G. E. Scuseria, 
 M. A. Robb, J. R. Cheeseman, G. Scalmani, V. Barone, 
 G. A. Petersson, H. Nakatsuji, X. Li, M. Caricato, A. V. Marenich, 
 J. Bloino, B. G. Janesko, R. Gomperts, B. Mennucci, H. P. Hratchian, 
 J. V. Ortiz, A. F. Izmaylov, J. L. Sonnenberg, D. Williams-Young, 
 F. Ding, F. Lipparini, F. Egidi, J. Goings, B. Peng, A. Petrone, 
 T. Henderson, D. Ranasinghe, V. G. Zakrzewski, J. Gao, N. Rega, 
 G. Zheng, W. Liang, M. Hada, M. Ehara, K. Toyota, R. Fukuda, 
 J. Hasegawa, M. Ishida, T. Nakajima, Y. Honda, O. Kitao, H. Nakai, 
 T. Vreven, K. Throssell, J. A. Montgomery, Jr., J. E. Peralta, 
 F. Ogliaro, M. J. Bearpark, J. J. Heyd, E. N. Brothers, K. N. Kudin, 
 V. N. Staroverov, T. A. Keith, R. Kobayashi, J. Normand, 
 K. Raghavachari, A. P. Rendell, J. C. Burant, S. S. Iyengar, 
 J. Tomasi, M. Cossi, J. M. Millam, M. Klene, C. Adamo, R. Cammi, 
 J. W. Ochterski, R. L. Martin, K. Morokuma, O. Farkas, 
 J. B. Foresman, and D. J. Fox, Gaussian, Inc., Wallingford CT, 2019.
 
 ******************************************
 Gaussian 16:  ES64L-G16RevC.01  3-Jul-2019
                23-Jun-2022 
 ******************************************
 %nproc=16
 Will use up to   16 processors via shared memory.
 %mem=20gb
 --------------------------------------------------
 #M062X/gen 6D INT(grid=ultrafine) OPT Freq=noraman
 --------------------------------------------------
 1/18=20,19=15,26=4,38=1/1,3;
 2/9=110,12=2,17=6,18=5,40=1/2;
 3/5=7,8=2,11=2,25=1,30=1,71=1,74=-55,75=-5/1,2,3;
 4//1;
 5/5=2,38=5/2;
 6/7=2,8=2,9=2,10=2,28=1/1;
 7//1,2,3,16;
 1/18=20,19=15,26=4/3(2);
 2/9=110/2;
 99//99;
 2/9=110/2;
 3/5=7,6=1,8=2,11=2,25=1,30=1,71=1,74=-55,75=-5,82=7/1,2,3;
 4/5=5,16=3,69=1/1;
 5/5=2,38=5/2;
 7//1,2,3,16;
 1/18=20,19=15,26=4/3(-5);
 2/9=110/2;
 6/7=2,8=2,9=2,10=2,19=2,28=1/1;
 99/9=1/99;
 ----------
 HA.23.freq
 ----------
 Symbolic Z-matrix:
 Charge =  0 Multiplicity = 1
 C                     1.12514   0.40532  -0.23535 
 C                    -1.15998   0.93203   0.03908 
 N                    -2.47425   1.00754   0.30439 
 S                    -0.12401  -0.27655   0.7592 
 S                     2.81158  -0.14959  -0.17195 
 O                     2.76135  -1.44948   0.48763 
 O                     3.36696  -0.00526  -1.50888 
 N                     3.65454   0.85279   0.80983 
 H                     3.31694   0.83473   1.77451 
 N                     0.75944   1.39439  -0.97562 
 N                    -0.54978   1.71096  -0.83672 
 H                    -2.84966   0.58652   1.14654 
 H                     3.71012   1.80684   0.44693 
 H                    -2.95912   1.83135  -0.03853 
 

 GradGradGradGradGradGradGradGradGradGradGradGradGradGradGradGradGradGrad
 Berny optimization.
 Initialization pass.
                           ----------------------------
                           !    Initial Parameters    !
                           ! (Angstroms and Degrees)  !
 --------------------------                            --------------------------
 ! Name  Definition              Value          Derivative Info.                !
 --------------------------------------------------------------------------------
 ! R1    R(1,4)                  1.7362         estimate D2E/DX2                !
 ! R2    R(1,5)                  1.7765         estimate D2E/DX2                !
 ! R3    R(1,10)                 1.2884         estimate D2E/DX2                !
 ! R4    R(2,3)                  1.3429         estimate D2E/DX2                !
 ! R5    R(2,4)                  1.7471         estimate D2E/DX2                !
 ! R6    R(2,11)                 1.3214         estimate D2E/DX2                !
 ! R7    R(3,12)                 1.0136         estimate D2E/DX2                !
 ! R8    R(3,14)                 1.0156         estimate D2E/DX2                !
 ! R9    R(5,6)                  1.4585         estimate D2E/DX2                !
 ! R10   R(5,7)                  1.4549         estimate D2E/DX2                !
 ! R11   R(5,8)                  1.6368         estimate D2E/DX2                !
 ! R12   R(8,9)                  1.0222         estimate D2E/DX2                !
 ! R13   R(8,13)                 1.0222         estimate D2E/DX2                !
 ! R14   R(10,11)                1.3541         estimate D2E/DX2                !
 ! A1    A(4,1,5)              122.6748         estimate D2E/DX2                !
 ! A2    A(4,1,10)             115.2388         estimate D2E/DX2                !
 ! A3    A(5,1,10)             121.9882         estimate D2E/DX2                !
 ! A4    A(3,2,4)              122.532          estimate D2E/DX2                !
 ! A5    A(3,2,11)             123.3486         estimate D2E/DX2                !
 ! A6    A(4,2,11)             114.0252         estimate D2E/DX2                !
 ! A7    A(2,3,12)             120.2161         estimate D2E/DX2                !
 ! A8    A(2,3,14)             116.4978         estimate D2E/DX2                !
 ! A9    A(12,3,14)            116.1454         estimate D2E/DX2                !
 ! A10   A(1,4,2)               85.3443         estimate D2E/DX2                !
 ! A11   A(1,5,6)              105.1787         estimate D2E/DX2                !
 ! A12   A(1,5,7)              107.3737         estimate D2E/DX2                !
 ! A13   A(1,5,8)              108.6025         estimate D2E/DX2                !
 ! A14   A(6,5,7)              121.1397         estimate D2E/DX2                !
 ! A15   A(6,5,8)              106.9941         estimate D2E/DX2                !
 ! A16   A(7,5,8)              107.0875         estimate D2E/DX2                !
 ! A17   A(5,8,9)              112.6521         estimate D2E/DX2                !
 ! A18   A(5,8,13)             112.7432         estimate D2E/DX2                !
 ! A19   A(9,8,13)             111.6832         estimate D2E/DX2                !
 ! A20   A(1,10,11)            113.2646         estimate D2E/DX2                !
 ! A21   A(2,11,10)            112.1262         estimate D2E/DX2                !
 ! D1    D(5,1,4,2)            176.594          estimate D2E/DX2                !
 ! D2    D(10,1,4,2)             0.1345         estimate D2E/DX2                !
 ! D3    D(4,1,5,6)             17.4027         estimate D2E/DX2                !
 ! D4    D(4,1,5,7)            147.667          estimate D2E/DX2                !
 ! D5    D(4,1,5,8)            -96.8553         estimate D2E/DX2                !
 ! D6    D(10,1,5,6)          -166.3734         estimate D2E/DX2                !
 ! D7    D(10,1,5,7)           -36.1091         estimate D2E/DX2                !
 ! D8    D(10,1,5,8)            79.3686         estimate D2E/DX2                !
 ! D9    D(4,1,10,11)           -0.2935         estimate D2E/DX2                !
 ! D10   D(5,1,10,11)         -176.7799         estimate D2E/DX2                !
 ! D11   D(4,2,3,12)            20.8559         estimate D2E/DX2                !
 ! D12   D(4,2,3,14)           170.1872         estimate D2E/DX2                !
 ! D13   D(11,2,3,12)         -162.886          estimate D2E/DX2                !
 ! D14   D(11,2,3,14)          -13.5547         estimate D2E/DX2                !
 ! D15   D(3,2,4,1)            176.6379         estimate D2E/DX2                !
 ! D16   D(11,2,4,1)             0.0597         estimate D2E/DX2                !
 ! D17   D(3,2,11,10)         -176.7753         estimate D2E/DX2                !
 ! D18   D(4,2,11,10)           -0.2289         estimate D2E/DX2                !
 ! D19   D(1,5,8,9)             62.9925         estimate D2E/DX2                !
 ! D20   D(1,5,8,13)           -64.5285         estimate D2E/DX2                !
 ! D21   D(6,5,8,9)            -50.0706         estimate D2E/DX2                !
 ! D22   D(6,5,8,13)          -177.5916         estimate D2E/DX2                !
 ! D23   D(7,5,8,9)            178.6557         estimate D2E/DX2                !
 ! D24   D(7,5,8,13)            51.1347         estimate D2E/DX2                !
 ! D25   D(1,10,11,2)            0.3326         estimate D2E/DX2                !
 --------------------------------------------------------------------------------
 Trust Radius=3.00D-01 FncErr=1.00D-07 GrdErr=1.00D-06 EigMax=2.50D+02 EigMin=1.00D-04
 Number of steps in this run=     70 maximum allowed number of steps=    100.
 GradGradGradGradGradGradGradGradGradGradGradGradGradGradGradGradGradGrad

                          Input orientation:                          
 ---------------------------------------------------------------------
 Center     Atomic      Atomic             Coordinates (Angstroms)
 Number     Number       Type             X           Y           Z
 ---------------------------------------------------------------------
      1          6           0        1.125143    0.405318   -0.235351
      2          6           0       -1.159976    0.932034    0.039078
      3          7           0       -2.474251    1.007538    0.304387
      4         16           0       -0.124009   -0.276550    0.759200
      5         16           0        2.811577   -0.149591   -0.171953
      6          8           0        2.761347   -1.449485    0.487633
      7          8           0        3.366962   -0.005263   -1.508885
      8          7           0        3.654541    0.852795    0.809831
      9          1           0        3.316935    0.834727    1.774509
     10          7           0        0.759435    1.394389   -0.975616
     11          7           0       -0.549782    1.710961   -0.836722
     12          1           0       -2.849664    0.586520    1.146539
     13          1           0        3.710119    1.806836    0.446935
     14          1           0       -2.959124    1.831348   -0.038529
 ---------------------------------------------------------------------
                    Distance matrix (angstroms):
                    1          2          3          4          5
     1  C    0.000000
     2  C    2.361039   0.000000
     3  N    3.689122   1.342911   0.000000
     4  S    1.736219   1.747134   2.716500   0.000000
     5  S    1.776515   4.121611   5.431926   3.082342   0.000000
     6  O    2.576851   4.609729   5.786365   3.126468   1.458526
     7  O    2.610789   4.875231   6.199475   4.171892   1.454878
     8  N    2.773175   4.876465   6.151545   3.944037   1.636846
     9  H    3.004644   4.802491   5.977371   3.755781   2.238969
    10  N    1.288408   2.219800   3.499255   2.565560   2.690917
    11  N    2.207198   1.321397   2.345318   2.584270   3.899014
    12  H    4.212071   2.049609   1.013613   2.885154   5.859175
    13  H    3.018588   4.964821   6.237438   4.374763   2.240091
    14  H    4.330535   2.012890   1.015557   3.621807   6.102697
                    6          7          8          9         10
     6  O    0.000000
     7  O    2.537445   0.000000
     8  N    2.490401   2.489058   0.000000
     9  H    2.679991   3.389507   1.022207   0.000000
    10  N    3.773110   3.007091   3.444239   3.797001   0.000000
    11  N    4.765071   4.328754   4.596076   4.747401   1.354089
    12  H    6.005240   6.785862   6.518355   6.203458   4.264010
    13  H    3.391968   2.688250   1.022241   1.691757   3.301560
    14  H    6.615474   6.749404   6.739276   6.608274   3.859630
                   11         12         13         14
    11  N    0.000000
    12  H    3.238387   0.000000
    13  H    4.450137   6.708902   0.000000
    14  H    2.540972   1.722198   6.686934   0.000000
 Stoichiometry    C2H4N4O2S2
 Framework group  C1[X(C2H4N4O2S2)]
 Deg. of freedom    36
 Full point group                 C1      NOp   1
 Largest Abelian subgroup         C1      NOp   1
 Largest concise Abelian subgroup C1      NOp   1
                         Standard orientation:                         
 ---------------------------------------------------------------------
 Center     Atomic      Atomic             Coordinates (Angstroms)
 Number     Number       Type             X           Y           Z
 ---------------------------------------------------------------------
      1          6           0        0.001415    0.211360   -0.103473
      2          6           0       -2.354487    0.135773    0.032620
      3          7           0       -3.667522   -0.145780    0.041358
      4         16           0       -1.127760   -1.106053   -0.041474
      5         16           0        1.760936   -0.033403   -0.116884
      6          8           0        1.949284   -1.430765   -0.489984
      7          8           0        2.343020    1.041128   -0.906335
      8          7           0        2.323022    0.133670    1.411321
      9          1           0        1.946662   -0.571484    2.048516
     10          7           0       -0.523849    1.387282   -0.067384
     11          7           0       -1.875756    1.367129    0.006771
     12          1           0       -3.990101   -1.065891    0.318397
     13          1           0        2.196717    1.079621    1.777655
     14          1           0       -4.295370    0.627239    0.240369
 ---------------------------------------------------------------------
 Rotational constants (GHZ):           2.5306230           0.6578346           0.5863386
 General basis read from cards:  (6D, 7F)
 There are   206 symmetry adapted cartesian basis functions of A   symmetry.
 There are   206 symmetry adapted basis functions of A   symmetry.
   206 basis functions,   384 primitive gaussians,   206 cartesian basis functions
    46 alpha electrons       46 beta electrons
       nuclear repulsion energy       763.9238503352 Hartrees.
 NAtoms=   14 NActive=   14 NUniq=   14 SFac= 1.00D+00 NAtFMM=   60 NAOKFM=F Big=F
 Integral buffers will be    131072 words long.
 Raffenetti 2 integral format.
 Two-electron integral symmetry is turned on.
 One-electron integrals computed using PRISM.
 NBasis=   206 RedAO= T EigKep=  2.70D-05  NBF=   206
 NBsUse=   206 1.00D-06 EigRej= -1.00D+00 NBFU=   206
 ExpMin= 4.05D-02 ExpMax= 2.19D+04 ExpMxC= 3.30D+03 IAcc=3 IRadAn=         5 AccDes= 0.00D+00
 Harris functional with IExCor= 1009 and IRadAn=       5 diagonalized for initial guess.
 HarFok:  IExCor= 1009 AccDes= 0.00D+00 IRadAn=         5 IDoV= 1 UseB2=F ITyADJ=14
 ICtDFT=  3500011 ScaDFX=  1.000000  1.000000  1.000000  1.000000
 FoFCou: FMM=F IPFlag=           0 FMFlag=      100000 FMFlg1=           0
         NFxFlg=           0 DoJE=T BraDBF=F KetDBF=T FulRan=T
         wScrn=  0.000000 ICntrl=       500 IOpCl=  0 I1Cent=   200000004 NGrid=           0
         NMat0=    1 NMatS0=      1 NMatT0=    0 NMatD0=    1 NMtDS0=    0 NMtDT0=    0
 Petite list used in FoFCou.
 Requested convergence on RMS density matrix=1.00D-08 within 128 cycles.
 Requested convergence on MAX density matrix=1.00D-06.
 Requested convergence on             energy=1.00D-06.
 No special actions if energy rises.
 SCF Done:  E(RM062X) =  -1244.11250310     A.U. after   15 cycles
            NFock= 15  Conv=0.51D-08     -V/T= 2.0050

 **********************************************************************

            Population analysis using the SCF Density.

 **********************************************************************

 Orbital symmetries:
       Occupied  (A) (A) (A) (A) (A) (A) (A) (A) (A) (A) (A) (A)
                 (A) (A) (A) (A) (A) (A) (A) (A) (A) (A) (A) (A)
                 (A) (A) (A) (A) (A) (A) (A) (A) (A) (A) (A) (A)
                 (A) (A) (A) (A) (A) (A) (A) (A) (A) (A)
       Virtual   (A) (A) (A) (A) (A) (A) (A) (A) (A) (A) (A) (A)
                 (A) (A) (A) (A) (A) (A) (A) (A) (A) (A) (A) (A)
                 (A) (A) (A) (A) (A) (A) (A) (A) (A) (A) (A) (A)
                 (A) (A) (A) (A) (A) (A) (A) (A) (A) (A) (A) (A)
                 (A) (A) (A) (A) (A) (A) (A) (A) (A) (A) (A) (A)
                 (A) (A) (A) (A) (A) (A) (A) (A) (A) (A) (A) (A)
                 (A) (A) (A) (A) (A) (A) (A) (A) (A) (A) (A) (A)
                 (A) (A) (A) (A) (A) (A) (A) (A) (A) (A) (A) (A)
                 (A) (A) (A) (A) (A) (A) (A) (A) (A) (A) (A) (A)
                 (A) (A) (A) (A) (A) (A) (A) (A) (A) (A) (A) (A)
                 (A) (A) (A) (A) (A) (A) (A) (A) (A) (A) (A) (A)
                 (A) (A) (A) (A) (A) (A) (A) (A) (A) (A) (A) (A)
                 (A) (A) (A) (A) (A) (A) (A) (A) (A) (A) (A) (A)
                 (A) (A) (A) (A)
 The electronic state is 1-A.
 Alpha  occ. eigenvalues --  -90.18701 -90.00279 -19.65647 -19.65382 -14.83382
 Alpha  occ. eigenvalues --  -14.83119 -14.82383 -14.81116 -10.69311 -10.65394
 Alpha  occ. eigenvalues --   -8.49578  -8.34821  -6.41793  -6.41724  -6.41710
 Alpha  occ. eigenvalues --   -6.26806  -6.26614  -6.26315  -1.26014  -1.18340
 Alpha  occ. eigenvalues --   -1.14096  -1.08750  -1.05047  -0.95090  -0.92262
 Alpha  occ. eigenvalues --   -0.79762  -0.72834  -0.70743  -0.66119  -0.63718
 Alpha  occ. eigenvalues --   -0.63223  -0.59308  -0.56554  -0.55393  -0.53282
 Alpha  occ. eigenvalues --   -0.52083  -0.46250  -0.43510  -0.42527  -0.41315
 Alpha  occ. eigenvalues --   -0.40789  -0.39214  -0.38211  -0.37714  -0.35935
 Alpha  occ. eigenvalues --   -0.31511
 Alpha virt. eigenvalues --   -0.03262  -0.01866  -0.00450   0.01392   0.03331
 Alpha virt. eigenvalues --    0.03486   0.04324   0.05034   0.06274   0.06368
 Alpha virt. eigenvalues --    0.06757   0.07253   0.08202   0.09121   0.09988
 Alpha virt. eigenvalues --    0.10359   0.10691   0.11681   0.12025   0.13287
 Alpha virt. eigenvalues --    0.14185   0.14566   0.15933   0.16357   0.16573
 Alpha virt. eigenvalues --    0.17672   0.18365   0.19356   0.19880   0.20425
 Alpha virt. eigenvalues --    0.21287   0.22028   0.22559   0.23077   0.23907
 Alpha virt. eigenvalues --    0.25413   0.25688   0.26655   0.27513   0.27994
 Alpha virt. eigenvalues --    0.28855   0.30297   0.31461   0.32095   0.32872
 Alpha virt. eigenvalues --    0.33631   0.34706   0.34893   0.35533   0.36788
 Alpha virt. eigenvalues --    0.37663   0.39983   0.41817   0.43118   0.44293
 Alpha virt. eigenvalues --    0.48952   0.50581   0.51522   0.53082   0.56321
 Alpha virt. eigenvalues --    0.57192   0.59582   0.62814   0.64617   0.67488
 Alpha virt. eigenvalues --    0.68127   0.70324   0.73728   0.76671   0.84740
 Alpha virt. eigenvalues --    0.85242   0.89202   0.90779   0.91420   0.94315
 Alpha virt. eigenvalues --    0.96468   0.97142   0.98692   0.98791   1.00419
 Alpha virt. eigenvalues --    1.02044   1.03238   1.04401   1.05720   1.06793
 Alpha virt. eigenvalues --    1.07326   1.09357   1.09871   1.11153   1.11334
 Alpha virt. eigenvalues --    1.12175   1.13912   1.15745   1.17444   1.19243
 Alpha virt. eigenvalues --    1.22838   1.26288   1.29544   1.32533   1.35138
 Alpha virt. eigenvalues --    1.36978   1.38167   1.38577   1.39505   1.40119
 Alpha virt. eigenvalues --    1.43550   1.45321   1.47768   1.55855   1.57748
 Alpha virt. eigenvalues --    1.61386   1.62687   1.68033   1.72699   1.75426
 Alpha virt. eigenvalues --    1.76837   1.78257   1.82327   1.83651   1.86460
 Alpha virt. eigenvalues --    1.88074   1.90120   1.93599   1.98379   2.00701
 Alpha virt. eigenvalues --    2.02345   2.10081   2.11978   2.13748   2.15647
 Alpha virt. eigenvalues --    2.17490   2.24976   2.26681   2.32590   2.34002
 Alpha virt. eigenvalues --    2.36547   2.39348   2.43117   2.44825   2.48467
 Alpha virt. eigenvalues --    2.50140   2.54183   2.58798   2.72922   2.81517
 Alpha virt. eigenvalues --    2.86207   2.90311   2.94234   3.06833   3.10493
 Alpha virt. eigenvalues --    3.85634   3.95166   3.98858   4.04948   4.09511
 Alpha virt. eigenvalues --    4.15390   4.20248   4.30885   4.37093   4.40275
          Condensed to atoms (all electrons):
               1          2          3          4          5          6
     1  C    8.490621  -0.580966   0.073173  -0.851604  -0.425023  -0.014009
     2  C   -0.580966   6.885477   0.164666  -0.357238  -0.216703   0.005091
     3  N    0.073173   0.164666   7.217160  -0.176968   0.027571  -0.000026
     4  S   -0.851604  -0.357238  -0.176968  17.247086  -0.543009   0.056074
     5  S   -0.425023  -0.216703   0.027571  -0.543009  15.531212   0.146424
     6  O   -0.014009   0.005091  -0.000026   0.056074   0.146424   8.728392
     7  O   -0.102789   0.000833  -0.000046   0.005504   0.333555  -0.196803
     8  N   -0.114626  -0.020037  -0.000012   0.124057  -0.373027  -0.146614
     9  H   -0.002219  -0.002701  -0.000004  -0.015006   0.058848  -0.005049
    10  N   -0.109132   0.552670  -0.071521  -0.013462  -0.161569   0.011810
    11  N    0.434923  -0.238939  -0.118641  -0.132124   0.097738  -0.012172
    12  H    0.002624   0.001432   0.293772  -0.009762  -0.000323   0.000002
    13  H   -0.016753   0.002029  -0.000019  -0.000387   0.043914   0.009642
    14  H   -0.003724  -0.019686   0.293138   0.013316  -0.000208   0.000001
               7          8          9         10         11         12
     1  C   -0.102789  -0.114626  -0.002219  -0.109132   0.434923   0.002624
     2  C    0.000833  -0.020037  -0.002701   0.552670  -0.238939   0.001432
     3  N   -0.000046  -0.000012  -0.000004  -0.071521  -0.118641   0.293772
     4  S    0.005504   0.124057  -0.015006  -0.013462  -0.132124  -0.009762
     5  S    0.333555  -0.373027   0.058848  -0.161569   0.097738  -0.000323
     6  O   -0.196803  -0.146614  -0.005049   0.011810  -0.012172   0.000002
     7  O    8.663105  -0.173613   0.009204   0.007478  -0.038081   0.000001
     8  N   -0.173613   8.163260   0.226092  -0.086331   0.092705   0.000001
     9  H    0.009204   0.226092   0.316355  -0.000828  -0.002727  -0.000000
    10  N    0.007478  -0.086331  -0.000828   7.555612  -0.588641   0.002565
    11  N   -0.038081   0.092705  -0.002727  -0.588641   7.601418   0.005950
    12  H    0.000001   0.000001  -0.000000   0.002565   0.005950   0.307776
    13  H   -0.002038   0.223013  -0.021093   0.004205  -0.003406   0.000000
    14  H   -0.000001   0.000001   0.000000   0.003486   0.006421  -0.016428
              13         14
     1  C   -0.016753  -0.003724
     2  C    0.002029  -0.019686
     3  N   -0.000019   0.293138
     4  S   -0.000387   0.013316
     5  S    0.043914  -0.000208
     6  O    0.009642   0.000001
     7  O   -0.002038  -0.000001
     8  N    0.223013   0.000001
     9  H   -0.021093   0.000000
    10  N    0.004205   0.003486
    11  N   -0.003406   0.006421
    12  H    0.000000  -0.016428
    13  H    0.307602  -0.000000
    14  H   -0.000000   0.289248
 Mulliken charges:
               1
     1  C   -0.780495
     2  C   -0.175928
     3  N   -0.702244
     4  S    0.653522
     5  S    1.480601
     6  O   -0.582763
     7  O   -0.506310
     8  N   -0.914868
     9  H    0.439126
    10  N   -0.106341
    11  N   -0.104423
    12  H    0.412390
    13  H    0.453294
    14  H    0.434437
 Sum of Mulliken charges =  -0.00000
 Mulliken charges with hydrogens summed into heavy atoms:
               1
     1  C   -0.780495
     2  C   -0.175928
     3  N    0.144583
     4  S    0.653522
     5  S    1.480601
     6  O   -0.582763
     7  O   -0.506310
     8  N   -0.022448
    10  N   -0.106341
    11  N   -0.104423
 Electronic spatial extent (au):  <R**2>=           1885.0941
 Charge=             -0.0000 electrons
 Dipole moment (field-independent basis, Debye):
    X=             -6.0043    Y=             -2.3990    Z=              4.9619  Tot=              8.1504
 Quadrupole moment (field-independent basis, Debye-Ang):
   XX=            -62.3485   YY=            -79.0991   ZZ=            -68.4146
   XY=              7.4906   XZ=              4.7995   YZ=              0.8680
 Traceless Quadrupole moment (field-independent basis, Debye-Ang):
   XX=              7.6056   YY=             -9.1450   ZZ=              1.5394
   XY=              7.4906   XZ=              4.7995   YZ=              0.8680
 Octapole moment (field-independent basis, Debye-Ang**2):
  XXX=           -111.6289  YYY=            -12.6101  ZZZ=             13.9028  XYY=             -5.6617
  XXY=            -10.3180  XXZ=             29.6496  XZZ=             13.7145  YZZ=             -0.6109
  YYZ=              9.0990  XYZ=              5.6217
 Hexadecapole moment (field-independent basis, Debye-Ang**3):
 XXXX=          -1469.2123 YYYY=           -448.3236 ZZZZ=           -178.5661 XXXY=             32.9519
 XXXZ=            -59.7258 YYYX=             41.7782 YYYZ=              2.0791 ZZZX=             24.2331
 ZZZY=              1.1590 XXYY=           -362.5931 XXZZ=           -342.0950 YYZZ=            -99.9946
 XXYZ=              4.6955 YYXZ=             13.5132 ZZXY=              1.8055
 N-N= 7.639238503352D+02 E-N=-4.464408719139D+03  KE= 1.237907556533D+03
 Calling FoFJK, ICntrl=      2127 FMM=F ISym2X=0 I1Cent= 0 IOpClX= 0 NMat=1 NMatS=1 NMatT=0.
 ***** Axes restored to original set *****
 -------------------------------------------------------------------
 Center     Atomic                   Forces (Hartrees/Bohr)
 Number     Number              X              Y              Z
 -------------------------------------------------------------------
      1        6           0.000365147    0.005187059   -0.001056841
      2        6           0.019674602    0.002675738   -0.007904032
      3        7          -0.016470890    0.001743508    0.004917967
      4       16          -0.002202357   -0.002288748    0.001219990
      5       16           0.007847898   -0.026530321   -0.025140005
      6        8          -0.002711322    0.010687752    0.002624930
      7        8          -0.005302456    0.003988955    0.013388774
      8        7          -0.000661807    0.012871239    0.010504316
      9        1           0.002583191   -0.001153098   -0.002991869
     10        7          -0.002353997    0.000435332    0.002567618
     11        7          -0.005262070   -0.003920533    0.005451482
     12        1           0.001768709    0.002117119   -0.003286767
     13        1           0.000787310   -0.003494167   -0.000399132
     14        1           0.001938043   -0.002319834    0.000103569
 -------------------------------------------------------------------
 Cartesian Forces:  Max     0.026530321 RMS     0.008399617

 GradGradGradGradGradGradGradGradGradGradGradGradGradGradGradGradGradGrad
 Berny optimization.
 FormGI is forming the generalized inverse of G from B-inverse, IUseBI=4.
 Internal  Forces:  Max     0.013933026 RMS     0.003902348
 Search for a local minimum.
 Step number   1 out of a maximum of   70
 All quantities printed in internal units (Hartrees-Bohrs-Radians)
 Mixed Optimization -- RFO/linear search
 Second derivative matrix not updated -- first step.
 ITU=  0
     Eigenvalues ---    0.00681   0.01256   0.01822   0.02132   0.02157
     Eigenvalues ---    0.02447   0.02542   0.03419   0.04442   0.09640
     Eigenvalues ---    0.10708   0.14156   0.16000   0.16000   0.16000
     Eigenvalues ---    0.16000   0.19781   0.24965   0.24967   0.24985
     Eigenvalues ---    0.24993   0.25000   0.28058   0.30291   0.31330
     Eigenvalues ---    0.43982   0.43988   0.44706   0.45054   0.45373
     Eigenvalues ---    0.52411   0.56558   0.58291   0.67802   0.92231
     Eigenvalues ---    0.93794
 RFO step:  Lambda=-3.41783048D-03 EMin= 6.80967355D-03
 Linear search not attempted -- first point.
 Iteration  1 RMS(Cart)=  0.04821832 RMS(Int)=  0.00152253
 Iteration  2 RMS(Cart)=  0.00169327 RMS(Int)=  0.00018914
 Iteration  3 RMS(Cart)=  0.00000248 RMS(Int)=  0.00018914
 Iteration  4 RMS(Cart)=  0.00000000 RMS(Int)=  0.00018914
 Variable       Old X    -DE/DX   Delta X   Delta X   Delta X     New X
                                 (Linear)    (Quad)   (Total)
    R1        3.28098   0.00213   0.00000   0.00794   0.00794   3.28892
    R2        3.35713   0.00348   0.00000   0.01224   0.01224   3.36937
    R3        2.43474  -0.00068   0.00000  -0.00051  -0.00052   2.43422
    R4        2.53773   0.01292   0.00000   0.02271   0.02271   2.56044
    R5        3.30161   0.00002   0.00000  -0.00053  -0.00053   3.30108
    R6        2.49708  -0.00880   0.00000  -0.01495  -0.01494   2.48213
    R7        1.91545  -0.00427   0.00000  -0.00934  -0.00934   1.90612
    R8        1.91913  -0.00284   0.00000  -0.00626  -0.00626   1.91287
    R9        2.75621  -0.00824   0.00000  -0.00891  -0.00891   2.74731
   R10        2.74932  -0.01393   0.00000  -0.01480  -0.01480   2.73452
   R11        3.09319   0.01070   0.00000   0.02375   0.02375   3.11694
   R12        1.93169  -0.00365   0.00000  -0.00824  -0.00824   1.92345
   R13        1.93176  -0.00308   0.00000  -0.00695  -0.00695   1.92481
   R14        2.55886  -0.00085   0.00000  -0.00187  -0.00188   2.55698
    A1        2.14108  -0.00154   0.00000  -0.00744  -0.00744   2.13364
    A2        2.01130  -0.00159   0.00000  -0.00367  -0.00368   2.00762
    A3        2.12910   0.00313   0.00000   0.01104   0.01105   2.14014
    A4        2.13859   0.00091   0.00000   0.00475   0.00474   2.14333
    A5        2.15284  -0.00356   0.00000  -0.01293  -0.01293   2.13991
    A6        1.99011   0.00265   0.00000   0.00829   0.00830   1.99841
    A7        2.09817   0.00028   0.00000   0.00140   0.00140   2.09957
    A8        2.03327  -0.00105   0.00000  -0.00674  -0.00674   2.02653
    A9        2.02712   0.00062   0.00000   0.00341   0.00341   2.03053
   A10        1.48954  -0.00180   0.00000  -0.00503  -0.00502   1.48452
   A11        1.83572  -0.00111   0.00000  -0.01104  -0.01183   1.82388
   A12        1.87402   0.00201   0.00000   0.00905   0.00855   1.88257
   A13        1.89547  -0.00600   0.00000  -0.04030  -0.04086   1.85461
   A14        2.11429   0.00578   0.00000   0.05669   0.05669   2.17098
   A15        1.86740  -0.00073   0.00000  -0.01333  -0.01396   1.85344
   A16        1.86903  -0.00130   0.00000  -0.01115  -0.01127   1.85776
   A17        1.96615   0.00115   0.00000   0.01303   0.01290   1.97905
   A18        1.96774  -0.00099   0.00000  -0.00004  -0.00016   1.96758
   A19        1.94924   0.00106   0.00000   0.01621   0.01601   1.96525
   A20        1.97684   0.00055   0.00000   0.00302   0.00300   1.97984
   A21        1.95697   0.00019   0.00000  -0.00263  -0.00264   1.95434
    D1        3.08215   0.00023   0.00000   0.00526   0.00526   3.08740
    D2        0.00235   0.00011   0.00000   0.00605   0.00603   0.00838
    D3        0.30373  -0.00480   0.00000  -0.12677  -0.12659   0.17714
    D4        2.57728   0.00278   0.00000  -0.05918  -0.05914   2.51814
    D5       -1.69044  -0.00073   0.00000  -0.08794  -0.08816  -1.77861
    D6       -2.90376  -0.00485   0.00000  -0.12818  -0.12801  -3.03177
    D7       -0.63022   0.00273   0.00000  -0.06059  -0.06055  -0.69077
    D8        1.38524  -0.00078   0.00000  -0.08936  -0.08957   1.29567
    D9       -0.00512  -0.00013   0.00000  -0.00638  -0.00639  -0.01151
   D10       -3.08539  -0.00007   0.00000  -0.00488  -0.00489  -3.09028
   D11        0.36400   0.00045   0.00000   0.01649   0.01649   0.38050
   D12        2.97033   0.00034   0.00000   0.01364   0.01365   2.98397
   D13       -2.84290   0.00057   0.00000   0.01897   0.01897  -2.82392
   D14       -0.23657   0.00046   0.00000   0.01612   0.01612  -0.22045
   D15        3.08291  -0.00015   0.00000  -0.00282  -0.00281   3.08011
   D16        0.00104  -0.00005   0.00000  -0.00435  -0.00437  -0.00333
   D17       -3.08531  -0.00008   0.00000  -0.00029  -0.00028  -3.08559
   D18       -0.00399  -0.00001   0.00000   0.00196   0.00197  -0.00202
   D19        1.09943  -0.00019   0.00000   0.01146   0.01156   1.11099
   D20       -1.12623  -0.00179   0.00000  -0.02189  -0.02188  -1.14812
   D21       -0.87390   0.00430   0.00000   0.05001   0.04977  -0.82413
   D22       -3.09956   0.00271   0.00000   0.01666   0.01632  -3.08324
   D23        3.11813  -0.00153   0.00000  -0.00403  -0.00374   3.11439
   D24        0.89247  -0.00313   0.00000  -0.03738  -0.03719   0.85528
   D25        0.00580   0.00009   0.00000   0.00278   0.00280   0.00860
         Item               Value     Threshold  Converged?
 Maximum Force            0.013933     0.000450     NO 
 RMS     Force            0.003902     0.000300     NO 
 Maximum Displacement     0.133344     0.001800     NO 
 RMS     Displacement     0.048385     0.001200     NO 
 Predicted change in Energy=-1.819720D-03
 GradGradGradGradGradGradGradGradGradGradGradGradGradGradGradGradGradGrad

                          Input orientation:                          
 ---------------------------------------------------------------------
 Center     Atomic      Atomic             Coordinates (Angstroms)
 Number     Number       Type             X           Y           Z
 ---------------------------------------------------------------------
      1          6           0        1.132204    0.402313   -0.232780
      2          6           0       -1.149055    0.926881    0.045194
      3          7           0       -2.479140    1.003854    0.291717
      4         16           0       -0.135341   -0.332758    0.706402
      5         16           0        2.815804   -0.182406   -0.181249
      6          8           0        2.743534   -1.435944    0.551548
      7          8           0        3.375037   -0.042697   -1.508533
      8          7           0        3.640453    0.868903    0.785847
      9          1           0        3.311423    0.874960    1.749025
     10          7           0        0.777997    1.440374   -0.908246
     11          7           0       -0.530522    1.754151   -0.766159
     12          1           0       -2.873261    0.552264    1.102986
     13          1           0        3.702453    1.804286    0.387486
     14          1           0       -2.942332    1.847396   -0.022181
 ---------------------------------------------------------------------
                    Distance matrix (angstroms):
                    1          2          3          4          5
     1  C    0.000000
     2  C    2.357240   0.000000
     3  N    3.698480   1.354927   0.000000
     4  S    1.740420   1.746855   2.729815   0.000000
     5  S    1.782992   4.123336   5.446774   3.085415   0.000000
     6  O    2.567244   4.581657   5.770308   3.086895   1.453813
     7  O    2.618373   4.880733   6.213498   4.160868   1.447046
     8  N    2.747111   4.846784   6.140994   3.963196   1.649415
     9  H    2.983276   4.775102   5.972519   3.798134   2.256018
    10  N    1.288134   2.210487   3.498487   2.566179   2.704551
    11  N    2.208307   1.313489   2.340761   2.584530   3.910278
    12  H    4.224986   2.057219   1.008673   2.904609   5.878304
    13  H    2.992730   4.942077   6.233936   4.404239   2.248677
    14  H    4.328332   2.016862   1.012246   3.628099   6.107498
                    6          7          8          9         10
     6  O    0.000000
     7  O    2.565905   0.000000
     8  N    2.484287   2.483070   0.000000
     9  H    2.663968   3.384940   1.017846   0.000000
    10  N    3.777240   3.050321   3.374935   3.714704   0.000000
    11  N    4.757363   4.362703   4.537557   4.675433   1.353096
    12  H    5.983765   6.798179   6.529113   6.226702   4.262098
    13  H    3.383125   2.667102   1.018566   1.694208   3.219285
    14  H    6.590793   6.759500   6.703985   6.572081   3.845988
                   11         12         13         14
    11  N    0.000000
    12  H    3.229034   0.000000
    13  H    4.387652   6.731977   0.000000
    14  H    2.525673   1.717014   6.657541   0.000000
 Stoichiometry    C2H4N4O2S2
 Framework group  C1[X(C2H4N4O2S2)]
 Deg. of freedom    36
 Full point group                 C1      NOp   1
 Largest Abelian subgroup         C1      NOp   1
 Largest concise Abelian subgroup C1      NOp   1
                         Standard orientation:                         
 ---------------------------------------------------------------------
 Center     Atomic      Atomic             Coordinates (Angstroms)
 Number     Number       Type             X           Y           Z
 ---------------------------------------------------------------------
      1          6           0        0.006474    0.209929   -0.111288
      2          6           0       -2.345532    0.138517    0.028536
      3          7           0       -3.673148   -0.131994    0.037802
      4         16           0       -1.125775   -1.109997   -0.041503
      5         16           0        1.770304   -0.049803   -0.133724
      6          8           0        1.924903   -1.481790   -0.331430
      7          8           0        2.357011    0.961066   -0.986870
      8          7           0        2.302780    0.263560    1.395604
      9          1           0        1.929360   -0.377199    2.092737
     10          7           0       -0.522099    1.383975   -0.072359
     11          7           0       -1.872994    1.363777    0.002097
     12          1           0       -4.005717   -1.038518    0.329407
     13          1           0        2.187444    1.240389    1.660139
     14          1           0       -4.286283    0.652026    0.222249
 ---------------------------------------------------------------------
 Rotational constants (GHZ):           2.5257417           0.6589873           0.5865398
 Basis read from rwf:  (6D, 7F)
 There are   206 symmetry adapted cartesian basis functions of A   symmetry.
 There are   206 symmetry adapted basis functions of A   symmetry.
   206 basis functions,   384 primitive gaussians,   206 cartesian basis functions
    46 alpha electrons       46 beta electrons
       nuclear repulsion energy       763.9920850353 Hartrees.
 NAtoms=   14 NActive=   14 NUniq=   14 SFac= 1.00D+00 NAtFMM=   60 NAOKFM=F Big=F
 Integral buffers will be    131072 words long.
 Raffenetti 2 integral format.
 Two-electron integral symmetry is turned on.
 One-electron integrals computed using PRISM.
 NBasis=   206 RedAO= T EigKep=  2.67D-05  NBF=   206
 NBsUse=   206 1.00D-06 EigRej= -1.00D+00 NBFU=   206
 Initial guess from the checkpoint file:  "/jobfs/45190758.gadi-pbs/Gau-2476846.chk"
 B after Tr=    -0.000000    0.000000    0.000000
         Rot=    0.999648    0.026502    0.000743    0.000902 Ang=   3.04 deg.
 ExpMin= 4.05D-02 ExpMax= 2.19D+04 ExpMxC= 3.30D+03 IAcc=3 IRadAn=         5 AccDes= 0.00D+00
 Harris functional with IExCor= 1009 and IRadAn=       5 diagonalized for initial guess.
 HarFok:  IExCor= 1009 AccDes= 0.00D+00 IRadAn=         5 IDoV= 1 UseB2=F ITyADJ=14
 ICtDFT=  3500011 ScaDFX=  1.000000  1.000000  1.000000  1.000000
 FoFCou: FMM=F IPFlag=           0 FMFlag=      100000 FMFlg1=           0
         NFxFlg=           0 DoJE=T BraDBF=F KetDBF=T FulRan=T
         wScrn=  0.000000 ICntrl=       500 IOpCl=  0 I1Cent=   200000004 NGrid=           0
         NMat0=    1 NMatS0=      1 NMatT0=    0 NMatD0=    1 NMtDS0=    0 NMtDT0=    0
 Petite list used in FoFCou.
 Requested convergence on RMS density matrix=1.00D-08 within 128 cycles.
 Requested convergence on MAX density matrix=1.00D-06.
 Requested convergence on             energy=1.00D-06.
 No special actions if energy rises.
 SCF Done:  E(RM062X) =  -1244.11451731     A.U. after   14 cycles
            NFock= 14  Conv=0.41D-08     -V/T= 2.0050
 Calling FoFJK, ICntrl=      2127 FMM=F ISym2X=0 I1Cent= 0 IOpClX= 0 NMat=1 NMatS=1 NMatT=0.
 ***** Axes restored to original set *****
 -------------------------------------------------------------------
 Center     Atomic                   Forces (Hartrees/Bohr)
 Number     Number              X              Y              Z
 -------------------------------------------------------------------
      1        6          -0.001269840    0.002692509   -0.002128005
      2        6           0.004298713    0.000985396   -0.001391419
      3        7          -0.003930883   -0.000754404    0.000261749
      4       16          -0.001591710   -0.001014979   -0.000362242
      5       16           0.002202110   -0.003574721   -0.003203026
      6        8          -0.000052174    0.002613242   -0.002384101
      7        8          -0.002326150   -0.001946315    0.005321597
      8        7           0.001185400    0.004528930    0.002261047
      9        1           0.000398793   -0.001069948   -0.000841542
     10        7           0.001412912   -0.001148315    0.000622253
     11        7          -0.001812973   -0.000796443    0.002212109
     12        1           0.000442392    0.000286296    0.000467140
     13        1           0.000291138   -0.000926749   -0.000497159
     14        1           0.000752271    0.000125502   -0.000338403
 -------------------------------------------------------------------
 Cartesian Forces:  Max     0.005321597 RMS     0.002049522

 GradGradGradGradGradGradGradGradGradGradGradGradGradGradGradGradGradGrad
 Berny optimization.
 Using GEDIIS/GDIIS optimizer.
 FormGI is forming the generalized inverse of G from B-inverse, IUseBI=4.
 Internal  Forces:  Max     0.005968087 RMS     0.001248107
 Search for a local minimum.
 Step number   2 out of a maximum of   70
 All quantities printed in internal units (Hartrees-Bohrs-Radians)
 Mixed Optimization -- RFO/linear search
 Update second derivatives using D2CorX and points    1    2
 DE= -2.01D-03 DEPred=-1.82D-03 R= 1.11D+00
 TightC=F SS=  1.41D+00  RLast= 2.64D-01 DXNew= 5.0454D-01 7.9271D-01
 Trust test= 1.11D+00 RLast= 2.64D-01 DXMaxT set to 5.05D-01
 ITU=  1  0
 Use linear search instead of GDIIS.
     Eigenvalues ---    0.00589   0.01259   0.01829   0.02131   0.02149
     Eigenvalues ---    0.02424   0.02551   0.03431   0.04250   0.10251
     Eigenvalues ---    0.12822   0.13862   0.15902   0.16000   0.16000
     Eigenvalues ---    0.16232   0.19189   0.24617   0.24974   0.24982
     Eigenvalues ---    0.24997   0.25296   0.27743   0.30257   0.31145
     Eigenvalues ---    0.42390   0.43986   0.44119   0.45079   0.45521
     Eigenvalues ---    0.52545   0.54870   0.58030   0.67679   0.88933
     Eigenvalues ---    0.92755
 RFO step:  Lambda=-6.87582298D-04 EMin= 5.88887124D-03
 Quartic linear search produced a step of  0.20317.
 Iteration  1 RMS(Cart)=  0.05909129 RMS(Int)=  0.00215179
 Iteration  2 RMS(Cart)=  0.00208136 RMS(Int)=  0.00004992
 Iteration  3 RMS(Cart)=  0.00000548 RMS(Int)=  0.00004986
 Iteration  4 RMS(Cart)=  0.00000000 RMS(Int)=  0.00004986
 Variable       Old X    -DE/DX   Delta X   Delta X   Delta X     New X
                                 (Linear)    (Quad)   (Total)
    R1        3.28892   0.00127   0.00161   0.00453   0.00614   3.29505
    R2        3.36937   0.00175   0.00249   0.00684   0.00933   3.37870
    R3        2.43422  -0.00160  -0.00011  -0.00263  -0.00274   2.43148
    R4        2.56044   0.00274   0.00461   0.00474   0.00936   2.56980
    R5        3.30108  -0.00084  -0.00011  -0.00328  -0.00337   3.29771
    R6        2.48213  -0.00194  -0.00304  -0.00317  -0.00619   2.47594
    R7        1.90612   0.00007  -0.00190   0.00061  -0.00129   1.90483
    R8        1.91287  -0.00013  -0.00127  -0.00007  -0.00134   1.91153
    R9        2.74731  -0.00345  -0.00181  -0.00406  -0.00587   2.74144
   R10        2.73452  -0.00597  -0.00301  -0.00692  -0.00993   2.72459
   R11        3.11694   0.00309   0.00483   0.00715   0.01198   3.12892
   R12        1.92345  -0.00093  -0.00167  -0.00214  -0.00381   1.91964
   R13        1.92481  -0.00064  -0.00141  -0.00143  -0.00284   1.92197
   R14        2.55698   0.00106  -0.00038   0.00236   0.00197   2.55895
    A1        2.13364  -0.00085  -0.00151  -0.00375  -0.00525   2.12840
    A2        2.00762   0.00006  -0.00075   0.00083   0.00003   2.00765
    A3        2.14014   0.00079   0.00224   0.00314   0.00541   2.14555
    A4        2.14333  -0.00009   0.00096  -0.00054   0.00043   2.14376
    A5        2.13991  -0.00021  -0.00263  -0.00032  -0.00294   2.13697
    A6        1.99841   0.00030   0.00169   0.00081   0.00249   2.00090
    A7        2.09957  -0.00021   0.00028  -0.00436  -0.00419   2.09538
    A8        2.02653  -0.00095  -0.00137  -0.00953  -0.01102   2.01551
    A9        2.03053   0.00071   0.00069   0.00187   0.00243   2.03296
   A10        1.48452  -0.00029  -0.00102  -0.00085  -0.00191   1.48261
   A11        1.82388  -0.00060  -0.00240  -0.00320  -0.00576   1.81812
   A12        1.88257   0.00015   0.00174  -0.00028   0.00136   1.88393
   A13        1.85461   0.00055  -0.00830   0.00731  -0.00110   1.85350
   A14        2.17098  -0.00087   0.01152  -0.01238  -0.00087   2.17010
   A15        1.85344   0.00107  -0.00284   0.00975   0.00678   1.86022
   A16        1.85776  -0.00008  -0.00229   0.00179  -0.00052   1.85724
   A17        1.97905  -0.00065   0.00262  -0.00341  -0.00083   1.97822
   A18        1.96758  -0.00039  -0.00003  -0.00078  -0.00085   1.96672
   A19        1.96525   0.00098   0.00325   0.00981   0.01300   1.97826
   A20        1.97984  -0.00055   0.00061  -0.00268  -0.00213   1.97771
   A21        1.95434   0.00050  -0.00054   0.00211   0.00155   1.95588
    D1        3.08740  -0.00021   0.00107  -0.01210  -0.01105   3.07635
    D2        0.00838  -0.00027   0.00123  -0.01599  -0.01478  -0.00640
    D3        0.17714   0.00013  -0.02572  -0.08970  -0.11538   0.06176
    D4        2.51814  -0.00128  -0.01201  -0.10757  -0.11958   2.39856
    D5       -1.77861  -0.00103  -0.01791  -0.10213  -0.12008  -1.89869
    D6       -3.03177   0.00017  -0.02601  -0.08561  -0.11158   3.13983
    D7       -0.69077  -0.00124  -0.01230  -0.10349  -0.11578  -0.80655
    D8        1.29567  -0.00099  -0.01820  -0.09804  -0.11629   1.17938
    D9       -0.01151   0.00038  -0.00130   0.02040   0.01909   0.00758
   D10       -3.09028   0.00039  -0.00099   0.01677   0.01575  -3.07453
   D11        0.38050   0.00061   0.00335   0.02351   0.02683   0.40733
   D12        2.98397  -0.00007   0.00277   0.00058   0.00338   2.98735
   D13       -2.82392   0.00061   0.00385   0.02254   0.02637  -2.79756
   D14       -0.22045  -0.00007   0.00328  -0.00039   0.00292  -0.21753
   D15        3.08011   0.00009  -0.00057   0.00709   0.00652   3.08663
   D16       -0.00333   0.00011  -0.00089   0.00802   0.00712   0.00379
   D17       -3.08559   0.00009  -0.00006   0.00192   0.00187  -3.08372
   D18       -0.00202   0.00007   0.00040   0.00099   0.00139  -0.00063
   D19        1.11099   0.00014   0.00235   0.00691   0.00928   1.12026
   D20       -1.14812  -0.00031  -0.00445  -0.00317  -0.00763  -1.15575
   D21       -0.82413   0.00013   0.01011   0.00329   0.01336  -0.81077
   D22       -3.08324  -0.00033   0.00332  -0.00679  -0.00354  -3.08678
   D23        3.11439   0.00053  -0.00076   0.01077   0.01007   3.12446
   D24        0.85528   0.00008  -0.00756   0.00069  -0.00683   0.84845
   D25        0.00860  -0.00029   0.00057  -0.01357  -0.01302  -0.00442
         Item               Value     Threshold  Converged?
 Maximum Force            0.005968     0.000450     NO 
 RMS     Force            0.001248     0.000300     NO 
 Maximum Displacement     0.163659     0.001800     NO 
 RMS     Displacement     0.059238     0.001200     NO 
 Predicted change in Energy=-4.386369D-04
 GradGradGradGradGradGradGradGradGradGradGradGradGradGradGradGradGradGrad

                          Input orientation:                          
 ---------------------------------------------------------------------
 Center     Atomic      Atomic             Coordinates (Angstroms)
 Number     Number       Type             X           Y           Z
 ---------------------------------------------------------------------
      1          6           0        1.129262    0.404987   -0.225226
      2          6           0       -1.153542    0.921341    0.042833
      3          7           0       -2.492468    0.994764    0.269009
      4         16           0       -0.167572   -0.397842    0.619798
      5         16           0        2.812398   -0.195058   -0.164454
      6          8           0        2.725342   -1.419100    0.609297
      7          8           0        3.362118   -0.111163   -1.494691
      8          7           0        3.656195    0.889153    0.759674
      9          1           0        3.340085    0.927679    1.724296
     10          7           0        0.794613    1.489020   -0.832214
     11          7           0       -0.514537    1.802819   -0.686087
     12          1           0       -2.900711    0.501817    1.047717
     13          1           0        3.728566    1.804558    0.322394
     14          1           0       -2.930494    1.868600    0.008711
 ---------------------------------------------------------------------
                    Distance matrix (angstroms):
                    1          2          3          4          5
     1  C    0.000000
     2  C    2.355774   0.000000
     3  N    3.702571   1.359878   0.000000
     4  S    1.743668   1.745070   2.732682   0.000000
     5  S    1.787930   4.125287   5.453913   3.088104   0.000000
     6  O    2.563434   4.565555   5.759174   3.067903   1.450706
     7  O    2.619847   4.880701   6.213686   4.124556   1.441791
     8  N    2.754965   4.862969   6.169113   4.036968   1.655753
     9  H    2.993590   4.797920   6.011741   3.909037   2.259728
    10  N    1.286682   2.209814   3.501698   2.567953   2.711729
    11  N    2.206445   1.310212   2.340379   2.582369   3.915623
    12  H    4.227345   2.058735   1.007991   2.909046   5.881718
    13  H    3.002511   4.969226   6.273746   4.485410   2.252743
    14  H    4.321864   2.013956   1.011538   3.625455   6.104873
                    6          7          8          9         10
     6  O    0.000000
     7  O    2.557919   0.000000
     8  N    2.493417   2.483802   0.000000
     9  H    2.669925   3.382536   1.015827   0.000000
    10  N    3.776616   3.097022   3.329053   3.651064   0.000000
    11  N    4.749273   4.398366   4.507772   4.629678   1.354141
    12  H    5.961091   6.786944   6.574649   6.291792   4.261940
    13  H    3.388324   2.665721   1.017063   1.698576   3.168717
    14  H    6.569486   6.765844   6.701323   6.568769   3.837663
                   11         12         13         14
    11  N    0.000000
    12  H    3.223742   0.000000
    13  H    4.361303   6.794891   0.000000
    14  H    2.514741   1.717125   6.666752   0.000000
 Stoichiometry    C2H4N4O2S2
 Framework group  C1[X(C2H4N4O2S2)]
 Deg. of freedom    36
 Full point group                 C1      NOp   1
 Largest Abelian subgroup         C1      NOp   1
 Largest concise Abelian subgroup C1      NOp   1
                         Standard orientation:                         
 ---------------------------------------------------------------------
 Center     Atomic      Atomic             Coordinates (Angstroms)
 Number     Number       Type             X           Y           Z
 ---------------------------------------------------------------------
      1          6           0        0.005869    0.206134   -0.117734
      2          6           0       -2.344560    0.142503    0.027535
      3          7           0       -3.678471   -0.121168    0.048214
      4         16           0       -1.133227   -1.111793   -0.040906
      5         16           0        1.772407   -0.069486   -0.126204
      6          8           0        1.906404   -1.513857   -0.145845
      7          8           0        2.355181    0.814724   -1.104624
      8          7           0        2.325890    0.436410    1.350023
      9          1           0        1.963120   -0.110937    2.125080
     10          7           0       -0.518700    1.380876   -0.098730
     11          7           0       -1.869966    1.363086   -0.012355
     12          1           0       -4.011267   -1.015954    0.371713
     13          1           0        2.226042    1.439710    1.483577
     14          1           0       -4.276588    0.674473    0.228270
 ---------------------------------------------------------------------
 Rotational constants (GHZ):           2.5271983           0.6573035           0.5858310
 Basis read from rwf:  (6D, 7F)
 There are   206 symmetry adapted cartesian basis functions of A   symmetry.
 There are   206 symmetry adapted basis functions of A   symmetry.
   206 basis functions,   384 primitive gaussians,   206 cartesian basis functions
    46 alpha electrons       46 beta electrons
       nuclear repulsion energy       763.7304142462 Hartrees.
 NAtoms=   14 NActive=   14 NUniq=   14 SFac= 1.00D+00 NAtFMM=   60 NAOKFM=F Big=F
 Integral buffers will be    131072 words long.
 Raffenetti 2 integral format.
 Two-electron integral symmetry is turned on.
 One-electron integrals computed using PRISM.
 NBasis=   206 RedAO= T EigKep=  2.62D-05  NBF=   206
 NBsUse=   206 1.00D-06 EigRej= -1.00D+00 NBFU=   206
 Initial guess from the checkpoint file:  "/jobfs/45190758.gadi-pbs/Gau-2476846.chk"
 B after Tr=     0.000000   -0.000000    0.000000
         Rot=    0.999315    0.036979   -0.000985    0.001141 Ang=   4.24 deg.
 ExpMin= 4.05D-02 ExpMax= 2.19D+04 ExpMxC= 3.30D+03 IAcc=3 IRadAn=         5 AccDes= 0.00D+00
 Harris functional with IExCor= 1009 and IRadAn=       5 diagonalized for initial guess.
 HarFok:  IExCor= 1009 AccDes= 0.00D+00 IRadAn=         5 IDoV= 1 UseB2=F ITyADJ=14
 ICtDFT=  3500011 ScaDFX=  1.000000  1.000000  1.000000  1.000000
 FoFCou: FMM=F IPFlag=           0 FMFlag=      100000 FMFlg1=           0
         NFxFlg=           0 DoJE=T BraDBF=F KetDBF=T FulRan=T
         wScrn=  0.000000 ICntrl=       500 IOpCl=  0 I1Cent=   200000004 NGrid=           0
         NMat0=    1 NMatS0=      1 NMatT0=    0 NMatD0=    1 NMtDS0=    0 NMtDT0=    0
 Petite list used in FoFCou.
 Requested convergence on RMS density matrix=1.00D-08 within 128 cycles.
 Requested convergence on MAX density matrix=1.00D-06.
 Requested convergence on             energy=1.00D-06.
 No special actions if energy rises.
 SCF Done:  E(RM062X) =  -1244.11508185     A.U. after   13 cycles
            NFock= 13  Conv=0.95D-08     -V/T= 2.0050
 Calling FoFJK, ICntrl=      2127 FMM=F ISym2X=0 I1Cent= 0 IOpClX= 0 NMat=1 NMatS=1 NMatT=0.
 ***** Axes restored to original set *****
 -------------------------------------------------------------------
 Center     Atomic                   Forces (Hartrees/Bohr)
 Number     Number              X              Y              Z
 -------------------------------------------------------------------
      1        6          -0.000787421    0.000045333   -0.000630385
      2        6          -0.000631885   -0.000509436    0.000239297
      3        7           0.000462609   -0.001312134   -0.001466720
      4       16           0.000127422    0.000127538   -0.000039007
      5       16          -0.000679710    0.002488582    0.002709928
      6        8           0.000633413   -0.000493204   -0.000456023
      7        8           0.000798835   -0.001373532   -0.001278566
      8        7          -0.000209175   -0.001149895   -0.001591424
      9        1          -0.000359960   -0.000137182    0.000492946
     10        7           0.001541582    0.000118234    0.001801674
     11        7          -0.000723604    0.001019102   -0.000541664
     12        1           0.000047258    0.000204411    0.001143415
     13        1          -0.000105312    0.000360171   -0.000299645
     14        1          -0.000114051    0.000612012   -0.000083826
 -------------------------------------------------------------------
 Cartesian Forces:  Max     0.002709928 RMS     0.000958991

 GradGradGradGradGradGradGradGradGradGradGradGradGradGradGradGradGradGrad
 Berny optimization.
 Using GEDIIS/GDIIS optimizer.
 FormGI is forming the generalized inverse of G from B-inverse, IUseBI=4.
 Internal  Forces:  Max     0.001734048 RMS     0.000551032
 Search for a local minimum.
 Step number   3 out of a maximum of   70
 All quantities printed in internal units (Hartrees-Bohrs-Radians)
 Mixed Optimization -- En-DIIS/RFO-DIIS
 Update second derivatives using D2CorX and points    1    2    3
 DE= -5.65D-04 DEPred=-4.39D-04 R= 1.29D+00
 TightC=F SS=  1.41D+00  RLast= 2.93D-01 DXNew= 8.4853D-01 8.7776D-01
 Trust test= 1.29D+00 RLast= 2.93D-01 DXMaxT set to 8.49D-01
 ITU=  1  1  0
 Use linear search instead of GDIIS.
     Eigenvalues ---    0.00256   0.01263   0.01985   0.02131   0.02152
     Eigenvalues ---    0.02380   0.02864   0.03463   0.04342   0.10264
     Eigenvalues ---    0.13501   0.13879   0.15840   0.16000   0.16039
     Eigenvalues ---    0.16122   0.19220   0.24683   0.24975   0.24992
     Eigenvalues ---    0.25174   0.25413   0.27997   0.30354   0.31534
     Eigenvalues ---    0.43985   0.44066   0.45041   0.45388   0.47796
     Eigenvalues ---    0.52415   0.56965   0.59799   0.67615   0.92031
     Eigenvalues ---    0.97627
 RFO step:  Lambda=-5.88017908D-04 EMin= 2.55600714D-03
 Quartic linear search produced a step of  0.58347.
 Iteration  1 RMS(Cart)=  0.10158097 RMS(Int)=  0.00483217
 Iteration  2 RMS(Cart)=  0.00641547 RMS(Int)=  0.00013848
 Iteration  3 RMS(Cart)=  0.00002774 RMS(Int)=  0.00013798
 Iteration  4 RMS(Cart)=  0.00000000 RMS(Int)=  0.00013798
 Variable       Old X    -DE/DX   Delta X   Delta X   Delta X     New X
                                 (Linear)    (Quad)   (Total)
    R1        3.29505  -0.00024   0.00358   0.00041   0.00396   3.29901
    R2        3.37870   0.00016   0.00544   0.00356   0.00900   3.38770
    R3        2.43148  -0.00050  -0.00160  -0.00142  -0.00304   2.42844
    R4        2.56980  -0.00048   0.00546   0.00315   0.00861   2.57841
    R5        3.29771  -0.00008  -0.00197  -0.00066  -0.00263   3.29508
    R6        2.47594   0.00073  -0.00361  -0.00103  -0.00462   2.47132
    R7        1.90483   0.00076  -0.00075   0.00083   0.00008   1.90490
    R8        1.91153   0.00060  -0.00078   0.00081   0.00002   1.91156
    R9        2.74144   0.00013  -0.00343  -0.00171  -0.00513   2.73630
   R10        2.72459   0.00141  -0.00579  -0.00106  -0.00686   2.71773
   R11        3.12892  -0.00173   0.00699  -0.00076   0.00623   3.13515
   R12        1.91964   0.00058  -0.00223   0.00024  -0.00198   1.91765
   R13        1.92197   0.00044  -0.00166   0.00010  -0.00156   1.92041
   R14        2.55895   0.00096   0.00115   0.00251   0.00368   2.56264
    A1        2.12840   0.00006  -0.00306  -0.00110  -0.00408   2.12432
    A2        2.00765   0.00024   0.00002   0.00025   0.00010   2.00775
    A3        2.14555  -0.00030   0.00316   0.00079   0.00403   2.14958
    A4        2.14376  -0.00031   0.00025  -0.00102  -0.00073   2.14303
    A5        2.13697   0.00022  -0.00172  -0.00110  -0.00278   2.13419
    A6        2.00090   0.00009   0.00145   0.00261   0.00395   2.00485
    A7        2.09538  -0.00041  -0.00244  -0.00797  -0.01091   2.08447
    A8        2.01551  -0.00018  -0.00643  -0.00782  -0.01475   2.00076
    A9        2.03296   0.00011   0.00142  -0.00324  -0.00243   2.03053
   A10        1.48261   0.00011  -0.00111  -0.00088  -0.00224   1.48037
   A11        1.81812   0.00049  -0.00336   0.00201  -0.00134   1.81678
   A12        1.88393   0.00053   0.00079   0.00575   0.00654   1.89047
   A13        1.85350  -0.00038  -0.00064  -0.00537  -0.00600   1.84750
   A14        2.17010  -0.00116  -0.00051  -0.00441  -0.00493   2.16518
   A15        1.86022   0.00038   0.00396   0.00169   0.00565   1.86587
   A16        1.85724   0.00019  -0.00031  -0.00034  -0.00064   1.85660
   A17        1.97822  -0.00033  -0.00048  -0.00201  -0.00250   1.97572
   A18        1.96672  -0.00018  -0.00050  -0.00263  -0.00313   1.96359
   A19        1.97826   0.00023   0.00759   0.00412   0.01170   1.98996
   A20        1.97771   0.00015  -0.00124   0.00115  -0.00028   1.97742
   A21        1.95588  -0.00059   0.00090  -0.00280  -0.00203   1.95385
    D1        3.07635   0.00060  -0.00645   0.04120   0.03472   3.11107
    D2       -0.00640   0.00060  -0.00863   0.04238   0.03372   0.02731
    D3        0.06176  -0.00012  -0.06732  -0.11441  -0.18173  -0.11997
    D4        2.39856  -0.00087  -0.06977  -0.11469  -0.18446   2.21411
    D5       -1.89869  -0.00060  -0.07007  -0.11503  -0.18510  -2.08379
    D6        3.13983  -0.00010  -0.06511  -0.11570  -0.18081   2.95902
    D7       -0.80655  -0.00086  -0.06755  -0.11599  -0.18354  -0.99009
    D8        1.17938  -0.00058  -0.06785  -0.11632  -0.18418   0.99520
    D9        0.00758  -0.00064   0.01114  -0.04107  -0.02993  -0.02235
   D10       -3.07453  -0.00065   0.00919  -0.03981  -0.03065  -3.10517
   D11        0.40733   0.00065   0.01565   0.03281   0.04831   0.45563
   D12        2.98735  -0.00020   0.00197  -0.00305  -0.00092   2.98643
   D13       -2.79756   0.00078   0.01538   0.04290   0.05813  -2.73943
   D14       -0.21753  -0.00007   0.00170   0.00705   0.00890  -0.20863
   D15        3.08663  -0.00030   0.00380  -0.02533  -0.02152   3.06510
   D16        0.00379  -0.00043   0.00415  -0.03459  -0.03046  -0.02667
   D17       -3.08372   0.00008   0.00109   0.01141   0.01250  -3.07121
   D18       -0.00063   0.00019   0.00081   0.02063   0.02147   0.02084
   D19        1.12026  -0.00005   0.00541   0.00111   0.00652   1.12678
   D20       -1.15575   0.00010  -0.00445  -0.00049  -0.00495  -1.16070
   D21       -0.81077  -0.00060   0.00780   0.00043   0.00824  -0.80253
   D22       -3.08678  -0.00045  -0.00207  -0.00117  -0.00323  -3.09001
   D23        3.12446   0.00047   0.00588   0.00503   0.01091   3.13537
   D24        0.84845   0.00061  -0.00399   0.00343  -0.00056   0.84789
   D25       -0.00442   0.00029  -0.00760   0.01295   0.00538   0.00096
         Item               Value     Threshold  Converged?
 Maximum Force            0.001734     0.000450     NO 
 RMS     Force            0.000551     0.000300     NO 
 Maximum Displacement     0.342269     0.001800     NO 
 RMS     Displacement     0.101910     0.001200     NO 
 Predicted change in Energy=-4.318795D-04
 GradGradGradGradGradGradGradGradGradGradGradGradGradGradGradGradGradGrad

                          Input orientation:                          
 ---------------------------------------------------------------------
 Center     Atomic      Atomic             Coordinates (Angstroms)
 Number     Number       Type             X           Y           Z
 ---------------------------------------------------------------------
      1          6           0        1.126407    0.426857   -0.172367
      2          6           0       -1.163977    0.920891    0.047669
      3          7           0       -2.518974    0.967828    0.200851
      4         16           0       -0.205290   -0.450678    0.537705
      5         16           0        2.800565   -0.213418   -0.140802
      6          8           0        2.711156   -1.393278    0.693829
      7          8           0        3.309202   -0.215175   -1.486015
      8          7           0        3.697161    0.903264    0.696806
      9          1           0        3.417471    0.993195    1.668124
     10          7           0        0.823901    1.580429   -0.651093
     11          7           0       -0.493089    1.881471   -0.533237
     12          1           0       -2.954557    0.421306    0.927288
     13          1           0        3.773437    1.789097    0.204646
     14          1           0       -2.934160    1.869788    0.007654
 ---------------------------------------------------------------------
                    Distance matrix (angstroms):
                    1          2          3          4          5
     1  C    0.000000
     2  C    2.353369   0.000000
     3  N    3.704153   1.364436   0.000000
     4  S    1.745763   1.743680   2.734733   0.000000
     5  S    1.792694   4.127926   5.459814   3.090603   0.000000
     6  O    2.564101   4.559557   5.759523   3.068962   1.447989
     7  O    2.627254   4.863348   6.181638   4.062334   1.438162
     8  N    2.755213   4.904320   6.236223   4.133714   1.659051
     9  H    2.992845   4.860120   6.115138   4.060421   2.260244
    10  N    1.285074   2.207921   3.503699   2.568632   2.717625
    11  N    2.206557   1.307768   2.340479   2.582376   3.923101
    12  H    4.226528   2.056572   1.008032   2.910430   5.887709
    13  H    3.000767   5.015624   6.345781   4.577968   2.252972
    14  H    4.313081   2.008869   1.011551   3.621084   6.103185
                    6          7          8          9         10
     6  O    0.000000
     7  O    2.548981   0.000000
     8  N    2.499264   2.483168   0.000000
     9  H    2.672712   3.379419   1.014778   0.000000
    10  N    3.770077   3.177736   3.245151   3.528487   0.000000
    11  N    4.743085   4.445348   4.475275   4.574659   1.356089
    12  H    5.953782   6.742685   6.673137   6.440391   4.255772
    13  H    3.390464   2.662884   1.016238   1.703509   3.078246
    14  H    6.556526   6.749643   6.736729   6.623352   3.826317
                   11         12         13         14
    11  N    0.000000
    12  H    3.213104   0.000000
    13  H    4.330848   6.903547   0.000000
    14  H    2.500306   1.715879   6.710975   0.000000
 Stoichiometry    C2H4N4O2S2
 Framework group  C1[X(C2H4N4O2S2)]
 Deg. of freedom    36
 Full point group                 C1      NOp   1
 Largest Abelian subgroup         C1      NOp   1
 Largest concise Abelian subgroup C1      NOp   1
                         Standard orientation:                         
 ---------------------------------------------------------------------
 Center     Atomic      Atomic             Coordinates (Angstroms)
 Number     Number       Type             X           Y           Z
 ---------------------------------------------------------------------
      1          6           0        0.003729    0.198089   -0.095538
      2          6           0       -2.346423    0.147492    0.016597
      3          7           0       -3.686456   -0.108850   -0.000282
      4         16           0       -1.143359   -1.114543   -0.001324
      5         16           0        1.771960   -0.095765   -0.123123
      6          8           0        1.896674   -1.518674    0.114463
      7          8           0        2.324915    0.581612   -1.264925
      8          7           0        2.379953    0.672083    1.215983
      9          1           0        2.047722    0.276021    2.089214
     10          7           0       -0.513127    1.374470   -0.075430
     11          7           0       -1.867671    1.364153   -0.011542
     12          1           0       -4.027859   -0.984609    0.363884
     13          1           0        2.289696    1.682721    1.159383
     14          1           0       -4.272626    0.700816    0.154906
 ---------------------------------------------------------------------
 Rotational constants (GHZ):           2.5348552           0.6549887           0.5841883
 Basis read from rwf:  (6D, 7F)
 There are   206 symmetry adapted cartesian basis functions of A   symmetry.
 There are   206 symmetry adapted basis functions of A   symmetry.
   206 basis functions,   384 primitive gaussians,   206 cartesian basis functions
    46 alpha electrons       46 beta electrons
       nuclear repulsion energy       763.3701061689 Hartrees.
 NAtoms=   14 NActive=   14 NUniq=   14 SFac= 1.00D+00 NAtFMM=   60 NAOKFM=F Big=F
 Integral buffers will be    131072 words long.
 Raffenetti 2 integral format.
 Two-electron integral symmetry is turned on.
 One-electron integrals computed using PRISM.
 NBasis=   206 RedAO= T EigKep=  2.37D-05  NBF=   206
 NBsUse=   206 1.00D-06 EigRej= -1.00D+00 NBFU=   206
 Initial guess from the checkpoint file:  "/jobfs/45190758.gadi-pbs/Gau-2476846.chk"
 B after Tr=     0.000000   -0.000000   -0.000000
         Rot=    0.998587    0.053071   -0.002525    0.001195 Ang=   6.09 deg.
 ExpMin= 4.05D-02 ExpMax= 2.19D+04 ExpMxC= 3.30D+03 IAcc=3 IRadAn=         5 AccDes= 0.00D+00
 Harris functional with IExCor= 1009 and IRadAn=       5 diagonalized for initial guess.
 HarFok:  IExCor= 1009 AccDes= 0.00D+00 IRadAn=         5 IDoV= 1 UseB2=F ITyADJ=14
 ICtDFT=  3500011 ScaDFX=  1.000000  1.000000  1.000000  1.000000
 FoFCou: FMM=F IPFlag=           0 FMFlag=      100000 FMFlg1=           0
         NFxFlg=           0 DoJE=T BraDBF=F KetDBF=T FulRan=T
         wScrn=  0.000000 ICntrl=       500 IOpCl=  0 I1Cent=   200000004 NGrid=           0
         NMat0=    1 NMatS0=      1 NMatT0=    0 NMatD0=    1 NMtDS0=    0 NMtDT0=    0
 Petite list used in FoFCou.
 Requested convergence on RMS density matrix=1.00D-08 within 128 cycles.
 Requested convergence on MAX density matrix=1.00D-06.
 Requested convergence on             energy=1.00D-06.
 No special actions if energy rises.
 SCF Done:  E(RM062X) =  -1244.11554313     A.U. after   14 cycles
            NFock= 14  Conv=0.48D-08     -V/T= 2.0050
 Calling FoFJK, ICntrl=      2127 FMM=F ISym2X=0 I1Cent= 0 IOpClX= 0 NMat=1 NMatS=1 NMatT=0.
 ***** Axes restored to original set *****
 -------------------------------------------------------------------
 Center     Atomic                   Forces (Hartrees/Bohr)
 Number     Number              X              Y              Z
 -------------------------------------------------------------------
      1        6           0.000105828   -0.001340443    0.002864877
      2        6          -0.004261757   -0.000363662    0.002713490
      3        7           0.003687801   -0.001386632   -0.002246448
      4       16           0.000769253   -0.000391496   -0.002547186
      5       16          -0.000899947    0.008577750    0.008512302
      6        8           0.000296379   -0.003306604    0.000946636
      7        8           0.001939911   -0.001460355   -0.006744290
      8        7          -0.001094751   -0.005282121   -0.003924656
      9        1          -0.000799719    0.000990502    0.000990170
     10        7           0.000808121   -0.000088808   -0.001169003
     11        7           0.001198089    0.001772882   -0.001493462
     12        1          -0.000600902    0.000086298    0.001289015
     13        1          -0.000395012    0.001364643    0.000257367
     14        1          -0.000753293    0.000828044    0.000551188
 -------------------------------------------------------------------
 Cartesian Forces:  Max     0.008577750 RMS     0.002825196

 GradGradGradGradGradGradGradGradGradGradGradGradGradGradGradGradGradGrad
 Berny optimization.
 Using GEDIIS/GDIIS optimizer.
 FormGI is forming the generalized inverse of G from B-inverse, IUseBI=4.
 Internal  Forces:  Max     0.006997687 RMS     0.001411819
 Search for a local minimum.
 Step number   4 out of a maximum of   70
 All quantities printed in internal units (Hartrees-Bohrs-Radians)
 Mixed Optimization -- RFO/linear search
 Update second derivatives using D2CorX and points    3    4
 DE= -4.61D-04 DEPred=-4.32D-04 R= 1.07D+00
 TightC=F SS=  1.41D+00  RLast= 4.64D-01 DXNew= 1.4270D+00 1.3908D+00
 Trust test= 1.07D+00 RLast= 4.64D-01 DXMaxT set to 1.39D+00
 ITU=  1  1  1  0
 Use linear search instead of GDIIS.
     Eigenvalues ---    0.00116   0.01333   0.02112   0.02131   0.02315
     Eigenvalues ---    0.02407   0.03615   0.03989   0.04413   0.10331
     Eigenvalues ---    0.13220   0.14117   0.15998   0.16033   0.16072
     Eigenvalues ---    0.16218   0.19277   0.24835   0.24982   0.25036
     Eigenvalues ---    0.25336   0.25425   0.28197   0.30399   0.31616
     Eigenvalues ---    0.43986   0.44063   0.45058   0.45434   0.47928
     Eigenvalues ---    0.52334   0.57111   0.60205   0.67935   0.92360
     Eigenvalues ---    1.04861
 RFO step:  Lambda=-7.76209530D-04 EMin= 1.16380895D-03
 Quartic linear search produced a step of  0.31442.
 Iteration  1 RMS(Cart)=  0.09720424 RMS(Int)=  0.01133324
 Iteration  2 RMS(Cart)=  0.01803395 RMS(Int)=  0.00030114
 Iteration  3 RMS(Cart)=  0.00027658 RMS(Int)=  0.00025162
 Iteration  4 RMS(Cart)=  0.00000005 RMS(Int)=  0.00025162
 Variable       Old X    -DE/DX   Delta X   Delta X   Delta X     New X
                                 (Linear)    (Quad)   (Total)
    R1        3.29901  -0.00116   0.00125  -0.00174  -0.00046   3.29855
    R2        3.38770  -0.00120   0.00283   0.00132   0.00415   3.39185
    R3        2.42844   0.00054  -0.00096  -0.00114  -0.00205   2.42639
    R4        2.57841  -0.00238   0.00271   0.00190   0.00461   2.58302
    R5        3.29508   0.00044  -0.00083   0.00035  -0.00051   3.29456
    R6        2.47132   0.00256  -0.00145   0.00118  -0.00032   2.47100
    R7        1.90490   0.00114   0.00002   0.00213   0.00216   1.90706
    R8        1.91156   0.00094   0.00001   0.00186   0.00187   1.91342
    R9        2.73630   0.00322  -0.00161   0.00026  -0.00136   2.73495
   R10        2.71773   0.00700  -0.00216   0.00321   0.00105   2.71879
   R11        3.13515  -0.00456   0.00196  -0.00594  -0.00398   3.13117
   R12        1.91765   0.00125  -0.00062   0.00142   0.00079   1.91845
   R13        1.92041   0.00104  -0.00049   0.00120   0.00071   1.92112
   R14        2.56264   0.00046   0.00116   0.00302   0.00418   2.56682
    A1        2.12432   0.00100  -0.00128   0.00284   0.00113   2.12545
    A2        2.00775   0.00045   0.00003   0.00165   0.00129   2.00904
    A3        2.14958  -0.00142   0.00127  -0.00174  -0.00090   2.14868
    A4        2.14303  -0.00024  -0.00023  -0.00203  -0.00223   2.14080
    A5        2.13419   0.00085  -0.00087   0.00030  -0.00054   2.13365
    A6        2.00485  -0.00062   0.00124   0.00102   0.00211   2.00696
    A7        2.08447  -0.00014  -0.00343  -0.01074  -0.01504   2.06942
    A8        2.00076   0.00038  -0.00464  -0.00994  -0.01547   1.98528
    A9        2.03053  -0.00067  -0.00076  -0.01007  -0.01196   2.01856
   A10        1.48037   0.00056  -0.00070   0.00023  -0.00056   1.47981
   A11        1.81678   0.00053  -0.00042   0.00192   0.00152   1.81830
   A12        1.89047  -0.00048   0.00206   0.00063   0.00270   1.89316
   A13        1.84750  -0.00010  -0.00189  -0.00398  -0.00586   1.84164
   A14        2.16518  -0.00125  -0.00155  -0.01004  -0.01160   2.15358
   A15        1.86587   0.00060   0.00178   0.00785   0.00962   1.87549
   A16        1.85660   0.00082  -0.00020   0.00386   0.00366   1.86026
   A17        1.97572  -0.00000  -0.00079  -0.00372  -0.00452   1.97120
   A18        1.96359   0.00040  -0.00099  -0.00233  -0.00333   1.96026
   A19        1.98996  -0.00078   0.00368  -0.00252   0.00114   1.99110
   A20        1.97742   0.00009  -0.00009   0.00024   0.00015   1.97758
   A21        1.95385  -0.00044  -0.00064  -0.00173  -0.00248   1.95137
    D1        3.11107  -0.00037   0.01092   0.01313   0.02409   3.13516
    D2        0.02731  -0.00093   0.01060  -0.03817  -0.02758  -0.00026
    D3       -0.11997   0.00006  -0.05714  -0.18283  -0.23997  -0.35994
    D4        2.21411  -0.00146  -0.05800  -0.19357  -0.25155   1.96255
    D5       -2.08379  -0.00079  -0.05820  -0.19079  -0.24898  -2.33278
    D6        2.95902   0.00074  -0.05685  -0.12718  -0.18403   2.77499
    D7       -0.99009  -0.00078  -0.05771  -0.13791  -0.19562  -1.18571
    D8        0.99520  -0.00011  -0.05791  -0.13513  -0.19305   0.80215
    D9       -0.02235   0.00086  -0.00941   0.03489   0.02548   0.00313
   D10       -3.10517   0.00020  -0.00964  -0.01742  -0.02703  -3.13221
   D11        0.45563   0.00074   0.01519   0.05501   0.06988   0.52552
   D12        2.98643  -0.00017  -0.00029   0.00160   0.00162   2.98805
   D13       -2.73943   0.00029   0.01828   0.03818   0.05614  -2.68328
   D14       -0.20863  -0.00063   0.00280  -0.01523  -0.01212  -0.22075
   D15        3.06510   0.00044  -0.00677   0.01773   0.01097   3.07608
   D16       -0.02667   0.00083  -0.00958   0.03343   0.02386  -0.00281
   D17       -3.07121  -0.00015   0.00393  -0.00682  -0.00287  -3.07408
   D18        0.02084  -0.00056   0.00675  -0.02250  -0.01575   0.00509
   D19        1.12678  -0.00005   0.00205  -0.00300  -0.00095   1.12583
   D20       -1.16070   0.00068  -0.00156   0.00619   0.00463  -1.15607
   D21       -0.80253  -0.00085   0.00259  -0.00672  -0.00412  -0.80665
   D22       -3.09001  -0.00012  -0.00102   0.00247   0.00146  -3.08855
   D23        3.13537  -0.00027   0.00343  -0.00236   0.00107   3.13644
   D24        0.84789   0.00046  -0.00018   0.00683   0.00665   0.85454
   D25        0.00096  -0.00020   0.00169  -0.00790  -0.00619  -0.00522
         Item               Value     Threshold  Converged?
 Maximum Force            0.006998     0.000450     NO 
 RMS     Force            0.001412     0.000300     NO 
 Maximum Displacement     0.374736     0.001800     NO 
 RMS     Displacement     0.112169     0.001200     NO 
 Predicted change in Energy=-4.700783D-04
 GradGradGradGradGradGradGradGradGradGradGradGradGradGradGradGradGradGrad

                          Input orientation:                          
 ---------------------------------------------------------------------
 Center     Atomic      Atomic             Coordinates (Angstroms)
 Number     Number       Type             X           Y           Z
 ---------------------------------------------------------------------
      1          6           0        1.124993    0.437696   -0.105796
      2          6           0       -1.172792    0.918477    0.043644
      3          7           0       -2.536326    0.957914    0.130652
      4         16           0       -0.249928   -0.522056    0.379288
[...]
 ! D2    D(10,1,4,2)            -0.8695         -DE/DX =    0.0                 !
 ! D3    D(4,1,5,6)            -83.0067         -DE/DX =    0.0                 !
 ! D4    D(4,1,5,7)             49.1096         -DE/DX =    0.0                 !
 ! D5    D(4,1,5,8)            163.0918         -DE/DX =    0.0                 !
 ! D6    D(10,1,5,6)            93.8688         -DE/DX =    0.0                 !
 ! D7    D(10,1,5,7)          -134.0149         -DE/DX =    0.0                 !
 ! D8    D(10,1,5,8)           -20.0327         -DE/DX =    0.0                 !
 ! D9    D(4,1,10,11)            0.7434         -DE/DX =    0.0                 !
 ! D10   D(5,1,10,11)         -176.366          -DE/DX =    0.0                 !
 ! D11   D(4,2,3,12)            34.0349         -DE/DX =    0.0                 !
 ! D12   D(4,2,3,14)           171.2773         -DE/DX =    0.0                 !
 ! D13   D(11,2,3,12)         -150.7308         -DE/DX =    0.0                 !
 ! D14   D(11,2,3,14)          -13.4883         -DE/DX =    0.0                 !
 ! D15   D(3,2,4,1)            176.4194         -DE/DX =    0.0                 !
 ! D16   D(11,2,4,1)             0.8149         -DE/DX =    0.0                 !
 ! D17   D(3,2,11,10)         -176.1694         -DE/DX =    0.0                 !
 ! D18   D(4,2,11,10)           -0.602          -DE/DX =    0.0                 !
 ! D19   D(1,5,8,9)             62.3696         -DE/DX =    0.0                 !
 ! D20   D(1,5,8,13)           -64.9831         -DE/DX =    0.0                 !
 ! D21   D(6,5,8,9)            -51.2715         -DE/DX =    0.0                 !
 ! D22   D(6,5,8,13)          -178.6241         -DE/DX =    0.0                 !
 ! D23   D(7,5,8,9)            175.0587         -DE/DX =    0.0                 !
 ! D24   D(7,5,8,13)            47.7061         -DE/DX =    0.0                 !
 ! D25   D(1,10,11,2)           -0.086          -DE/DX =    0.0                 !
 --------------------------------------------------------------------------------
 GradGradGradGradGradGradGradGradGradGradGradGradGradGradGradGradGradGrad


 ----------------------------------------------------------------------

 Electric dipole moment (input orientation):
 (Debye = 10**-18 statcoulomb cm , SI units = C m)
                  (au)            (Debye)         (10**-30 SI)
   Tot        0.208868D+01      0.530890D+01      0.177086D+02
   x         -0.192155D+01     -0.488410D+01     -0.162916D+02
   y          0.816005D+00      0.207408D+01      0.691838D+01
   z         -0.659769D-01     -0.167696D+00     -0.559375D+00

 Dipole polarizability, Alpha (input orientation).
 (esu units = cm**3 , SI units = C**2 m**2 J**-1)
 Alpha(0;0):
               (au)            (10**-24 esu)      (10**-40 SI)
   iso        0.944219D+02      0.139919D+02      0.155681D+02
   aniso      0.518729D+02      0.768676D+01      0.855268D+01
   xx         0.124419D+03      0.184370D+02      0.205139D+02
   yx        -0.714627D+01     -0.105897D+01     -0.117826D+01
   yy         0.883008D+02      0.130848D+02      0.145588D+02
   zx         0.396934D+01      0.588195D+00      0.654455D+00
   zy         0.874248D+01      0.129550D+01      0.144144D+01
   zz         0.705459D+02      0.104538D+02      0.116314D+02

 ----------------------------------------------------------------------

 Dipole orientation:
     6          0.72566396          1.36676231         -1.65820393
     6          0.50508068          0.65002654          2.73162263
     7         -0.05785368          0.03812580          5.17545562
    16         -1.18706185         -0.57508441          0.17377827
    16          0.61270678          1.41102690         -5.04217139
     8          2.16041146         -0.66152963         -5.92864495
     8         -2.03059787          1.65020475         -5.71363207
     7          2.04618146          4.05599813         -5.83044844
     1          3.88683152          4.08466339         -5.27028867
     7          2.32777641          2.71023100         -0.41170597
     7          2.22348210          2.31494991          2.12440030
     1         -0.69697878         -1.72763243          5.52722747
     1          1.08948660          5.61423169         -5.23561723
     1          1.23602973          0.67224714          6.43837863

 Electric dipole moment (dipole orientation):
 (Debye = 10**-18 statcoulomb cm , SI units = C m)
                  (au)            (Debye)         (10**-30 SI)
   Tot        0.208868D+01      0.530890D+01      0.177086D+02
   x          0.000000D+00      0.000000D+00      0.000000D+00
   y          0.000000D+00      0.000000D+00      0.000000D+00
   z          0.208868D+01      0.530890D+01      0.177086D+02

 Dipole polarizability, Alpha (dipole orientation).
 (esu units = cm**3 , SI units = C**2 m**2 J**-1)
 Alpha(0;0):
               (au)            (10**-24 esu)      (10**-40 SI)
   iso        0.944219D+02      0.139919D+02      0.155681D+02
   aniso      0.518729D+02      0.768676D+01      0.855268D+01
   xx         0.800692D+02      0.118650D+02      0.132016D+02
   yx         0.129953D+02      0.192570D+01      0.214263D+01
   yy         0.791920D+02      0.117350D+02      0.130570D+02
   zx        -0.191887D+01     -0.284348D+00     -0.316380D+00
   zy        -0.823629D+01     -0.122049D+01     -0.135798D+01
   zz         0.124004D+03      0.183755D+02      0.204456D+02

 ----------------------------------------------------------------------
 Unable to Open any file for archive entry.
 1\1\GINC-GADI-CPU-CLX-1870\Freq\RM062X\Gen\C2H4N4O2S2\YJ5695\23-Jun-20
 22\0\\#N Geom=AllCheck Guess=TCheck SCRF=Check GenChk RM062X/ChkBas Fr
 eq\\HA.23.freq\\0,1\C,1.1240968321,0.4089728597,0.0984336094\C,-1.1685
 011745,0.953695193,0.0658446542\N,-2.5159625529,1.0756001594,-0.122557
 8593\S,-0.2767103559,-0.4535703419,-0.4619156967\S,2.7726909823,-0.293
 0771102,0.0908557865\O,2.90041917,-1.0962678422,1.2876280292\O,2.97028
 049,-0.8444206032,-1.2342206199\N,3.7715198689,1.0045499906,0.25507974
 9\H,3.6271929087,1.4946391848,1.1358828107\N,0.8879568011,1.5802111784
 ,0.5798149285\N,-0.4312966709,1.9078330802,0.5683683204\H,-3.076634525
 6,0.2356714061,-0.0745356883\H,3.7241731788,1.6342496158,-0.5427628508
 \H,-2.9199699519,1.8734892294,0.3551418271\\Version=ES64L-G16RevC.01\S
 tate=1-A\HF=-1244.1171579\RMSD=3.632e-09\RMSF=1.748e-05\ZeroPoint=0.08
 86311\Thermal=0.0984507\ETot=-1244.0187072\HTot=-1244.017763\GTot=-124
 4.0649851\Dipole=-1.9215546,0.8160051,-0.0659769\DipoleDeriv=-0.104833
 ,0.3054723,0.1674825,0.3691228,0.0507495,0.1490286,0.2448358,0.1244976
 ,-0.11383,1.8324667,-0.345442,0.1239819,0.0177243,0.5529969,0.2223402,
 0.2876378,0.1679377,0.2528878,-1.5918,0.1905458,-0.1441084,0.3045506,-
 0.2904263,0.0650605,-0.4477036,0.092739,-0.5231763,-0.230576,-0.025493
 6,-0.0624266,0.2504879,-0.1616763,-0.1082215,0.0467252,-0.1479909,0.14
 09302,2.7135463,-0.1980193,-0.0038734,-0.1879562,2.094347,-0.0611556,-
 0.0255036,-0.0436992,2.0753554,-0.8324133,0.1317173,-0.05428,0.258083,
 -0.8145432,0.2266492,-0.2249167,0.3765506,-0.9221073,-0.8273737,0.1347
 179,0.0952201,0.2107479,-0.7030857,-0.1436436,0.2677138,-0.2976975,-1.
 0051101,-1.1475816,-0.2101892,-0.0529471,-0.4084878,-0.7627097,-0.0357
 674,-0.0760579,-0.0271192,-0.4633828,0.345466,0.0192679,0.0796527,-0.0
 240316,0.1694557,-0.0032338,0.1168613,0.0514068,0.2299808,0.0561831,-0
 .268905,-0.0928246,-0.2632964,-0.3110661,-0.0970656,-0.1085187,-0.1125
 96,-0.1907621,-1.057494,0.2505192,-0.0147497,-0.4429175,-0.3948078,-0.
 1584082,-0.2507705,-0.0526509,-0.270718,0.277057,0.045194,0.0216109,0.
 0429077,0.1492824,-0.0091812,0.2023384,-0.0049866,0.318347,0.3507699,0
 .0284164,-0.0540462,-0.0033957,0.1702993,-0.0004596,-0.1067812,-0.0500
 071,0.192853,0.2165827,-0.0578017,-0.0086921,-0.1235389,0.2511844,-0.0
 459422,0.0741398,-0.0763844,0.2787324\Polar=124.4188906,-7.1462687,88.
 3007889,3.9693383,8.7424831,70.5459096\Quadrupole=10.6116466,-5.031212
 4,-5.5804342,8.5715568,-0.7047894,-0.0013409\PG=C01 [X(C2H4N4O2S2)]\NI
 mag=0\\0.50775649,-0.12301923,0.59833113,0.00718135,0.19510185,0.19578
 003,-0.03562885,-0.00098406,-0.00713039,0.80856270,0.04776731,0.003336
 96,-0.00127771,0.06053268,0.49107669,0.01677769,-0.00119371,0.01022782
 ,0.10703496,0.15398096,0.21150994,-0.01521840,-0.00920975,-0.00465717,
 -0.36546218,0.03342827,-0.04950725,0.73962927,0.00080609,-0.00583691,-
 0.00165145,0.02733761,-0.11796594,-0.01792486,0.05066729,0.75532366,-0
 .00684244,-0.00698846,-0.00232524,-0.00245147,-0.01832841,-0.04361933,
 -0.07193827,0.18686843,0.14972533,-0.12351192,-0.05420867,-0.03567352,
 -0.07530222,0.04372983,0.01368040,-0.01199995,0.02861317,0.01235739,0.
 24205994,-0.03817579,-0.05859865,-0.01521399,0.03044624,-0.10815987,-0
 .02673768,0.01625033,-0.00359778,0.00355438,0.01175633,0.27211473,-0.0
 2931976,-0.01762222,-0.04702655,0.01083568,-0.02468878,-0.05327965,0.0
 0401468,0.00095506,0.00560840,0.03229499,0.10757166,0.08720980,-0.1639
 6531,0.02695099,-0.01066576,-0.01178567,-0.01165594,-0.00724182,0.0113
 7764,-0.00127621,0.00454113,-0.01201160,0.00020411,-0.00224723,0.47924
 610,0.03588036,-0.06671868,0.00049492,-0.00355615,0.00122351,0.0000058
 1,-0.00427880,0.00144285,-0.00122966,-0.01620487,0.00698735,0.00029231
 ,0.00141380,0.69951400,-0.00476298,-0.00010489,-0.04983374,-0.00124680
 ,0.00088341,-0.00074728,-0.00138194,0.00025518,-0.00011911,-0.00875788
 ,0.00222610,0.00196125,-0.01350587,-0.04501930,1.13910720,0.00259148,0
 .01913811,-0.01592544,0.00365179,0.00381668,0.00255497,-0.00322062,0.0
 0023062,-0.00126385,0.00054886,0.00054345,0.00025265,-0.08821187,0.034
 96973,-0.05205178,0.06356362,0.00226425,-0.00348752,0.01365004,-0.0012
 9757,-0.00281168,-0.00200035,0.00285902,-0.00026121,0.00077101,0.00191
 283,-0.00227415,0.00078114,0.02324597,-0.24936487,0.25417663,-0.030199
 36,0.25664235,0.00476458,0.00537814,-0.00070460,0.00156237,0.00152128,
 0.00128806,-0.00179983,0.00031022,-0.00035080,-0.00039022,0.00114353,-
 0.00049296,-0.03728416,0.24131265,-0.45913615,0.04552115,-0.28403109,0
 .47434184,0.00451430,0.01593431,0.02368241,0.00358500,0.00185287,0.002
 07133,-0.00251671,0.00024681,-0.00088100,0.00141661,0.00040396,-0.0004
 9859,-0.09836450,0.03346973,0.07990930,0.01954545,0.00043478,-0.005398
 81,0.07231064,0.00140105,-0.00050662,-0.01762614,-0.00089437,-0.004313
 91,-0.00151714,0.00202764,0.00031442,0.00096032,0.00164343,-0.00059829
 ,-0.00026263,0.02655942,-0.16039444,-0.18841642,-0.00194690,0.01561269
 ,0.02484427,-0.03438415,0.15493447,-0.00663349,-0.00662416,-0.00619114
 ,-0.00097765,-0.00380037,-0.00110173,0.00217544,0.00014254,0.00105361,
 0.00199214,-0.00010483,-0.00116632,0.06567661,-0.17629307,-0.53118474,
 0.00730645,-0.01834718,-0.01641472,-0.07835529,0.21525915,0.56184292,-
 0.01304269,-0.02296247,-0.00388960,-0.00001221,-0.00081338,0.00010490,
 -0.00289671,0.00144443,-0.00078605,-0.00301780,0.00425367,0.00267000,-
 0.11859400,-0.06652025,-0.00663235,0.00730511,-0.00002152,-0.00135661,
 0.00970151,0.00327576,0.00269075,0.15865963,0.00074991,-0.00117417,-0.
 00134442,0.00168869,0.00006962,0.00021414,-0.00079877,0.00057262,-0.00
 000885,0.00107844,0.00157723,0.00072042,-0.10554122,-0.18642866,-0.012
 94463,-0.01809580,-0.01613415,0.00441768,-0.01336570,-0.00786828,-0.00
 641724,0.08451654,0.56925265,-0.00110550,-0.00216239,0.00835426,0.0004
 8894,-0.00000954,0.00012821,-0.00021465,0.00008512,-0.00012165,0.00031
 245,-0.00013900,0.00030383,-0.00860609,-0.00956728,-0.10639087,0.01843
 247,0.03438433,0.00075048,-0.02140304,-0.03473877,-0.00821872,-0.02622
 483,-0.01300671,0.74869242,-0.00117922,-0.00090898,0.00035554,0.000018
 60,0.00025249,-0.00002310,0.00064736,-0.00002817,0.00018648,0.00065153
 ,0.00001381,0.00011366,-0.00129273,-0.01627138,-0.02105912,-0.00164780
 ,0.00253373,0.00012579,-0.00032217,-0.00544675,-0.00245925,-0.02230811
 ,0.02856018,0.07888591,0.02891561,0.00020578,0.00052117,0.00084259,0.0
 0000376,-0.00016953,-0.00006491,0.00018954,-0.00008366,0.00004864,-0.0
 0001345,-0.00040845,-0.00025724,0.00876705,-0.00958073,-0.02679199,0.0
 0043100,0.00197470,0.00384994,-0.00448542,-0.00384267,-0.00185167,0.00
 708854,-0.15233146,-0.16767476,-0.01048096,0.14800984,-0.00006622,0.00
 084675,0.00015712,-0.00004097,-0.00001996,0.00005318,0.00045986,-0.000
 10921,0.00009573,0.00031512,-0.00036067,-0.00005612,-0.00298348,-0.006
 84095,0.00053137,0.00009096,0.00224192,-0.00169179,0.00128505,0.001715
 21,0.00283080,0.04838782,-0.14795346,-0.34466893,-0.05351216,0.1680021
 0,0.36087734,-0.08761863,0.07095932,0.02043851,-0.09559956,-0.06457506
 ,-0.03971180,0.00145564,0.00037056,0.00275796,-0.01619383,0.01170441,0
 .00107118,-0.01798079,0.02611112,0.01194861,0.00221392,-0.00127473,-0.
 00256328,-0.00318052,0.00072588,0.00456324,-0.00042251,0.00347261,0.00
 001265,-0.00042405,-0.00034357,0.00082262,0.45723951,0.04504167,-0.414
 06041,-0.14980282,-0.01435161,0.00306965,-0.00320534,0.00637304,-0.001
 08670,-0.00018392,-0.04849242,-0.05757132,-0.04060491,0.02354537,-0.01
 594208,-0.00035277,-0.00220484,0.00109521,0.00088825,-0.00314820,0.002
 12538,-0.00059241,-0.00022741,-0.00047287,-0.00022923,-0.00046000,0.00
 003278,-0.00033616,-0.07412769,0.55858225,0.01434311,-0.15005860,-0.11
 258644,-0.01811280,-0.00551167,-0.00404402,0.00357492,-0.00542361,0.00
 825413,-0.02553957,-0.03414866,0.00322492,0.01050122,0.00258579,-0.010
 63113,-0.00496739,0.00240293,-0.00053344,0.00115856,-0.00227126,0.0005
 5136,-0.00057020,-0.00070264,0.00101947,0.00029825,0.00022062,-0.00081
 219,0.01459301,0.19464507,0.18065174,-0.07365564,0.07956549,0.02892712
 ,-0.19568708,-0.11497606,-0.06592932,-0.04544738,-0.04453241,-0.027985
 28,0.00068010,-0.03663794,-0.01864433,0.02782000,-0.00512343,0.0002150
 2,-0.00729274,0.00497262,-0.00420265,-0.00556943,0.00443108,0.00371853
 ,-0.00347187,-0.00237531,-0.00046859,-0.00000098,0.00035311,0.00061040
 ,-0.23797245,0.06801198,0.00654249,0.54041364,0.02687302,-0.05199213,-
 0.02141983,-0.11480988,-0.27744133,-0.10386179,-0.02166292,0.01065372,
 -0.00798901,0.02962231,-0.05080303,-0.02670934,0.00092647,-0.00659528,
 -0.00840030,-0.00189532,0.00295735,0.00001503,0.00232905,0.00159321,0.
 00154161,-0.00159160,0.00228853,0.00084044,0.00114822,0.00008058,0.000
 52243,0.02644281,-0.07571324,-0.00319634,0.04755626,0.44682497,0.00317
 485,-0.01768313,0.00363128,-0.06549638,-0.10665701,-0.11358913,-0.0173
 1040,-0.00390598,-0.00421898,0.01051926,-0.03469706,0.00334270,0.00165
 898,-0.00731883,0.00771266,0.00140195,0.00001318,0.00029823,-0.0020811
 6,0.00341113,0.00089049,-0.00084652,0.00016528,-0.00076307,0.00047745,
 0.00006678,0.00020513,-0.01180856,0.00184495,-0.06519816,0.07743641,0.
 16457396,0.16638862,-0.00034359,-0.00139964,-0.00119299,-0.01749615,-0
 .03246472,0.00052343,-0.18171119,-0.17568523,0.01690776,-0.00011137,0.
 00045197,0.00059318,-0.00073070,0.00048354,-0.00003908,0.00018174,-0.0
 0011742,0.00011755,0.00018719,-0.00007760,-0.00009058,0.00041175,0.000
 12242,0.00005305,-0.00003438,-0.00001517,-0.00003269,-0.00069525,0.000
 18033,-0.00096976,-0.00409185,0.00299569,0.00208041,0.19163136,0.00104
 508,0.00025265,0.00018207,0.00503571,0.01097755,0.00169629,-0.18304475
 ,-0.34625410,-0.00306835,0.00092695,-0.00031540,-0.00034518,-0.0005645
 0,0.00042050,0.00002275,0.00014964,-0.00019728,0.00012470,0.00011829,-
 0.00015865,-0.00013603,0.00016846,-0.00001238,0.00003536,-0.00004023,-
 0.00000129,-0.00002578,0.00090796,0.00052778,-0.00052787,0.00186315,-0
 .00055183,0.00118523,0.19066110,0.35083469,0.00291616,0.00166731,0.000
 08673,-0.01449945,-0.00507169,-0.00979611,0.04280649,0.02426970,-0.004
 29216,0.00022928,-0.00240858,0.00022594,-0.00162337,0.00074564,-0.0002
 3826,0.00032433,-0.00014055,0.00000258,0.00037900,-0.00040907,-0.00037
 072,0.00034289,0.00012482,0.00008307,-0.00004829,-0.00002832,-0.000027
 15,-0.00205733,-0.00250663,0.00173128,-0.00047212,0.00293984,0.0019608
 1,-0.01545997,-0.00617923,0.01121693,-0.00073038,-0.00071652,-0.001675
 58,-0.00035519,-0.00025178,-0.00020435,0.00064417,-0.00004693,0.000338
 25,0.00026505,0.00010653,-0.00008739,-0.00502204,-0.02023752,0.0174555
 4,0.00057839,-0.00522130,0.00083968,-0.00148675,0.00284730,0.00055656,
 -0.01226138,0.02003373,-0.04017348,-0.00297645,-0.00170899,0.00466708,
 -0.00045617,0.00054057,-0.00027094,0.00040572,0.00085029,0.00030686,-0
 .00005890,-0.00004873,-0.00009283,0.02151128,0.00056697,0.00091564,-0.
 00113980,-0.00009791,0.00000114,-0.00009536,0.00025023,-0.00010614,0.0
 0008264,0.00000418,-0.00026079,-0.00021991,0.00625352,-0.01444840,0.02
 506216,-0.00449081,-0.00409623,0.00041633,0.00080576,0.00300071,-0.002
 99334,-0.00828234,-0.20916894,0.19214419,0.00106019,0.01576197,-0.0177
 3087,-0.00025988,0.00011852,0.00034919,0.00040539,-0.00008829,0.000230
 90,-0.00002429,-0.00000989,-0.00003978,0.00380454,0.20835208,-0.000226
 00,-0.00042118,-0.00035360,0.00013080,0.00001305,0.00010116,-0.0004257
 5,0.00010672,-0.00019789,-0.00042335,0.00010364,0.00010077,0.00227717,
 0.00120201,0.00788816,-0.00197312,-0.00367525,0.00264587,0.00012783,-0
 .00103175,-0.00238675,-0.01377946,0.17669969,-0.29900762,-0.00330045,0
 .02364622,-0.01750649,-0.00031714,-0.00010636,0.00018698,-0.00046510,-
 0.00043272,-0.00006532,0.00003523,0.00002097,0.00005143,0.01832336,-0.
 19607622,0.30851328,0.00003235,0.00086112,0.00022551,-0.01848900,0.033
 35681,0.01986997,-0.12528094,0.11185237,0.07505939,-0.00347340,-0.0013
 2106,-0.00104874,-0.00048452,-0.00013587,-0.00009069,0.00019266,-0.000
 09130,0.00006443,0.00017937,-0.00016179,-0.00016347,-0.00005073,-0.000
 04571,0.00001072,-0.00004719,0.00000878,-0.00000338,-0.00036531,-0.000
 68081,-0.00058090,0.00386994,0.00121559,0.00048684,0.01286134,-0.01717
 813,-0.01274479,-0.00005736,0.00000443,0.00001597,0.13111280,-0.001406
 48,-0.00098245,-0.00079532,0.01094686,0.00110716,0.00070396,0.10694963
 ,-0.29311483,-0.15448875,-0.00036805,0.00190843,0.00038962,0.00117117,
 -0.00011507,-0.00059593,-0.00044617,0.00034480,-0.00019093,-0.00021210
 ,0.00010198,0.00021700,-0.00032843,-0.00016975,0.00003823,0.00006786,0
 .00003675,0.00004866,-0.00011374,-0.00070493,0.00163706,-0.00351394,-0
 .00121322,-0.00122942,0.01488903,-0.01551233,-0.01296346,0.00004879,0.
 00002864,-0.00004881,-0.12768444,0.30828482,-0.00020136,-0.00013532,0.
 00078408,-0.01009684,0.00896643,0.00286885,0.09420386,-0.18397786,-0.1
 0949206,-0.00091650,-0.00078884,0.00004398,-0.00049736,-0.00037003,0.0
 0108063,0.00029665,-0.00022676,-0.00000261,0.00000441,0.00008309,-0.00
 013432,-0.00011073,0.00003592,-0.00016088,-0.00004072,-0.00000799,0.00
 001198,0.00025034,0.00054229,-0.00181449,0.00071742,0.00157602,-0.0005
 9524,-0.00252552,0.00701508,-0.00063438,0.00001723,0.00000988,0.000030
 00,-0.08110088,0.16727810,0.10801444\\0.00002318,0.00001190,0.00000719
 ,-0.00000216,-0.00000161,-0.00000559,-0.00000449,0.00000032,0.00001356
 ,-0.00000215,-0.00000661,0.00000206,-0.00001948,-0.00002611,0.00006964
 ,0.00000187,0.00000870,-0.00003270,-0.00000628,-0.00000344,-0.00004784
 ,0.00001583,0.00003433,0.00001645,-0.00000651,0.00000757,-0.00000362,-
 0.00000043,-0.00001548,-0.00000536,-0.00000616,0.00000519,-0.00000014,
 0.00000213,-0.00000182,-0.00000593,0.00000387,-0.00001072,-0.00000908,
 0.00000077,-0.00000223,0.00000137\\\@
 The archive entry for this job was punched.


 THE UNDERLYING PHYSICAL LAWS NECESSARY FOR THE 
 MATHEMATICAL THEORY OF A LARGE PART OF PHYSICS AND THE
 WHOLE OF CHEMISTRY ARE THUS COMPLETELY KNOWN, AND THE
 DIFFICULTY IS ONLY THAT THE EXACT APPLICATION OF THESE
 LAWS LEADS TO EQUATIONS MUCH TOO COMPLICATED 
 TO BE SOLUBLE.

                                        -- P. A. M. DIRAC, 1929
 Job cpu time:       0 days  0 hours 32 minutes  8.3 seconds.
 Elapsed time:       0 days  0 hours  2 minutes 11.4 seconds.
 File lengths (MBytes):  RWF=     82 Int=      0 D2E=      0 Chk=      5 Scr=      1
 Normal termination of Gaussian 16 at Thu Jun 23 15:06:30 2022.
