 Entering Gaussian System, Link 0=g16
 AtFile(1): /home/561/yj5695/Basis/6-31pGd.gbs
 Initial command:
 /apps/gaussian/g16c01/g16/l1.exe "/jobfs/45202644.gadi-pbs/Gau-4133478.inp" -scrdir="/jobfs/45202644.gadi-pbs/"
 Entering Link 1 = /apps/gaussian/g16c01/g16/l1.exe PID=   4133479.
  
 Copyright (c) 1988-2019, Gaussian, Inc.  All Rights Reserved.
  
 This is part of the Gaussian(R) 16 program.  It is based on
 the Gaussian(R) 09 system (copyright 2009, Gaussian, Inc.),
 the Gaussian(R) 03 system (copyright 2003, Gaussian, Inc.),
 the Gaussian(R) 98 system (copyright 1998, Gaussian, Inc.),
 the Gaussian(R) 94 system (copyright 1995, Gaussian, Inc.),
 the Gaussian 92(TM) system (copyright 1992, Gaussian, Inc.),
 the Gaussian 90(TM) system (copyright 1990, Gaussian, Inc.),
 the Gaussian 88(TM) system (copyright 1988, Gaussian, Inc.),
 the Gaussian 86(TM) system (copyright 1986, Carnegie Mellon
 University), and the Gaussian 82(TM) system (copyright 1983,
 Carnegie Mellon University). Gaussian is a federally registered
 trademark of Gaussian, Inc.
  
 This software contains proprietary and confidential information,
 including trade secrets, belonging to Gaussian, Inc.
  
 This software is provided under written license and may be
 used, copied, transmitted, or stored only in accord with that
 written license.
  
 The following legend is applicable only to US Government
 contracts under FAR:
  
                    RESTRICTED RIGHTS LEGEND
  
 Use, reproduction and disclosure by the US Government is
 subject to restrictions as set forth in subparagraphs (a)
 and (c) of the Commercial Computer Software - Restricted
 Rights clause in FAR 52.227-19.
  
 Gaussian, Inc.
 340 Quinnipiac St., Bldg. 40, Wallingford CT 06492
  
  
 ---------------------------------------------------------------
 Warning -- This program may not be used in any manner that
 competes with the business of Gaussian, Inc. or will provide
 assistance to any competitor of Gaussian, Inc.  The licensee
 of this program is prohibited from giving any competitor of
 Gaussian, Inc. access to this program.  By using this program,
 the user acknowledges that Gaussian, Inc. is engaged in the
 business of creating and licensing software in the field of
 computational chemistry and represents and warrants to the
 licensee that it is not a competitor of Gaussian, Inc. and that
 it will not use this program in any manner prohibited above.
 ---------------------------------------------------------------
  

 Cite this work as:
 Gaussian 16, Revision C.01,
 M. J. Frisch, G. W. Trucks, H. B. Schlegel, G. E. Scuseria, 
 M. A. Robb, J. R. Cheeseman, G. Scalmani, V. Barone, 
 G. A. Petersson, H. Nakatsuji, X. Li, M. Caricato, A. V. Marenich, 
 J. Bloino, B. G. Janesko, R. Gomperts, B. Mennucci, H. P. Hratchian, 
 J. V. Ortiz, A. F. Izmaylov, J. L. Sonnenberg, D. Williams-Young, 
 F. Ding, F. Lipparini, F. Egidi, J. Goings, B. Peng, A. Petrone, 
 T. Henderson, D. Ranasinghe, V. G. Zakrzewski, J. Gao, N. Rega, 
 G. Zheng, W. Liang, M. Hada, M. Ehara, K. Toyota, R. Fukuda, 
 J. Hasegawa, M. Ishida, T. Nakajima, Y. Honda, O. Kitao, H. Nakai, 
 T. Vreven, K. Throssell, J. A. Montgomery, Jr., J. E. Peralta, 
 F. Ogliaro, M. J. Bearpark, J. J. Heyd, E. N. Brothers, K. N. Kudin, 
 V. N. Staroverov, T. A. Keith, R. Kobayashi, J. Normand, 
 K. Raghavachari, A. P. Rendell, J. C. Burant, S. S. Iyengar, 
 J. Tomasi, M. Cossi, J. M. Millam, M. Klene, C. Adamo, R. Cammi, 
 J. W. Ochterski, R. L. Martin, K. Morokuma, O. Farkas, 
 J. B. Foresman, and D. J. Fox, Gaussian, Inc., Wallingford CT, 2019.
 
 ******************************************
 Gaussian 16:  ES64L-G16RevC.01  3-Jul-2019
                23-Jun-2022 
 ******************************************
 %nproc=16
 Will use up to   16 processors via shared memory.
 %mem=50gb
 --------------------------------------------------
 #M062X/gen 6D INT(grid=ultrafine) OPT Freq=noraman
 --------------------------------------------------
 1/18=20,19=15,26=4,38=1/1,3;
 2/9=110,12=2,17=6,18=5,40=1/2;
 3/5=7,8=2,11=2,25=1,30=1,71=1,74=-55,75=-5/1,2,3;
 4//1;
 5/5=2,38=5/2;
 6/7=2,8=2,9=2,10=2,28=1/1;
 7//1,2,3,16;
 1/18=20,19=15,26=4/3(2);
 2/9=110/2;
 99//99;
 2/9=110/2;
 3/5=7,6=1,8=2,11=2,25=1,30=1,71=1,74=-55,75=-5,82=7/1,2,3;
 4/5=5,16=3,69=1/1;
 5/5=2,38=5/2;
 7//1,2,3,16;
 1/18=20,19=15,26=4/3(-5);
 2/9=110/2;
 6/7=2,8=2,9=2,10=2,19=2,28=1/1;
 99/9=1/99;
 ----------
 HA.24.freq
 ----------
 Symbolic Z-matrix:
 Charge =  0 Multiplicity = 1
 C                     1.10924   0.51169  -0.14554 
 C                    -1.26661   0.5938    0.22642 
 S                    -0.07205  -0.66885   0.34008 
 S                     2.8342    0.05395  -0.281 
 O                     2.87779  -1.37656   0.00055 
 O                     3.33203   0.57821  -1.54511 
 N                     3.65466   0.81531   0.9121 
 H                     3.34484   0.53828   1.84612 
 N                     0.71716   1.71382  -0.37297 
 C                    -0.65288   1.80026  -0.16907 
 C                    -2.64235   0.51786   0.46724 
 C                    -3.38583   1.67759   0.30685 
 C                    -2.78213   2.88878  -0.08581 
 C                    -1.42134   2.96262  -0.32687 
 H                     3.66403   1.83177   0.80155 
 H                    -3.11135  -0.41274   0.76991 
 H                    -4.45575   1.6498    0.48849 
 H                    -3.39662   3.77609  -0.2007 
 H                    -0.94361   3.88885  -0.63066 
 

 GradGradGradGradGradGradGradGradGradGradGradGradGradGradGradGradGradGrad
 Berny optimization.
 Initialization pass.
                           ----------------------------
                           !    Initial Parameters    !
                           ! (Angstroms and Degrees)  !
 --------------------------                            --------------------------
 ! Name  Definition              Value          Derivative Info.                !
 --------------------------------------------------------------------------------
 ! R1    R(1,3)                  1.7392         estimate D2E/DX2                !
 ! R2    R(1,4)                  1.7898         estimate D2E/DX2                !
 ! R3    R(1,9)                  1.2848         estimate D2E/DX2                !
 ! R4    R(2,3)                  1.7419         estimate D2E/DX2                !
 ! R5    R(2,10)                 1.4102         estimate D2E/DX2                !
 ! R6    R(2,11)                 1.3987         estimate D2E/DX2                !
 ! R7    R(4,5)                  1.4586         estimate D2E/DX2                !
 ! R8    R(4,6)                  1.4563         estimate D2E/DX2                !
 ! R9    R(4,7)                  1.6359         estimate D2E/DX2                !
 ! R10   R(7,8)                  1.0223         estimate D2E/DX2                !
 ! R11   R(7,15)                 1.0225         estimate D2E/DX2                !
 ! R12   R(9,10)                 1.3878         estimate D2E/DX2                !
 ! R13   R(10,14)                1.4023         estimate D2E/DX2                !
 ! R14   R(11,12)                1.3869         estimate D2E/DX2                !
 ! R15   R(11,16)                1.0852         estimate D2E/DX2                !
 ! R16   R(12,13)                1.4091         estimate D2E/DX2                !
 ! R17   R(12,17)                1.0856         estimate D2E/DX2                !
 ! R18   R(13,14)                1.3839         estimate D2E/DX2                !
 ! R19   R(13,18)                1.0854         estimate D2E/DX2                !
 ! R20   R(14,19)                1.0856         estimate D2E/DX2                !
 ! A1    A(3,1,4)              120.1412         estimate D2E/DX2                !
 ! A2    A(3,1,9)              118.5074         estimate D2E/DX2                !
 ! A3    A(4,1,9)              121.3344         estimate D2E/DX2                !
 ! A4    A(3,2,10)             109.8763         estimate D2E/DX2                !
 ! A5    A(3,2,11)             128.6037         estimate D2E/DX2                !
 ! A6    A(10,2,11)            121.5199         estimate D2E/DX2                !
 ! A7    A(1,3,2)               87.452          estimate D2E/DX2                !
 ! A8    A(1,4,5)              105.3678         estimate D2E/DX2                !
 ! A9    A(1,4,6)              107.6439         estimate D2E/DX2                !
 ! A10   A(1,4,7)              108.0067         estimate D2E/DX2                !
 ! A11   A(5,4,6)              120.6918         estimate D2E/DX2                !
 ! A12   A(5,4,7)              107.498          estimate D2E/DX2                !
 ! A13   A(6,4,7)              107.1025         estimate D2E/DX2                !
 ! A14   A(4,7,8)              112.843          estimate D2E/DX2                !
 ! A15   A(4,7,15)             112.8543         estimate D2E/DX2                !
 ! A16   A(8,7,15)             111.7737         estimate D2E/DX2                !
 ! A17   A(1,9,10)             109.4837         estimate D2E/DX2                !
 ! A18   A(2,10,9)             114.6803         estimate D2E/DX2                !
 ! A19   A(2,10,14)            120.1455         estimate D2E/DX2                !
 ! A20   A(9,10,14)            125.1742         estimate D2E/DX2                !
 ! A21   A(2,11,12)            117.5138         estimate D2E/DX2                !
 ! A22   A(2,11,16)            121.3101         estimate D2E/DX2                !
 ! A23   A(12,11,16)           121.1761         estimate D2E/DX2                !
 ! A24   A(11,12,13)           121.42           estimate D2E/DX2                !
 ! A25   A(11,12,17)           119.182          estimate D2E/DX2                !
 ! A26   A(13,12,17)           119.3979         estimate D2E/DX2                !
 ! A27   A(12,13,14)           121.0412         estimate D2E/DX2                !
 ! A28   A(12,13,18)           119.3145         estimate D2E/DX2                !
 ! A29   A(14,13,18)           119.6443         estimate D2E/DX2                !
 ! A30   A(10,14,13)           118.3594         estimate D2E/DX2                !
 ! A31   A(10,14,19)           119.8386         estimate D2E/DX2                !
 ! A32   A(13,14,19)           121.802          estimate D2E/DX2                !
 ! D1    D(4,1,3,2)            178.7018         estimate D2E/DX2                !
 ! D2    D(9,1,3,2)              0.1846         estimate D2E/DX2                !
 ! D3    D(3,1,4,5)              3.4394         estimate D2E/DX2                !
 ! D4    D(3,1,4,6)            133.4473         estimate D2E/DX2                !
 ! D5    D(3,1,4,7)           -111.2197         estimate D2E/DX2                !
 ! D6    D(9,1,4,5)           -178.0861         estimate D2E/DX2                !
 ! D7    D(9,1,4,6)            -48.0782         estimate D2E/DX2                !
 ! D8    D(9,1,4,7)             67.2548         estimate D2E/DX2                !
 ! D9    D(3,1,9,10)            -0.1862         estimate D2E/DX2                !
 ! D10   D(4,1,9,10)          -178.6849         estimate D2E/DX2                !
 ! D11   D(10,2,3,1)            -0.117          estimate D2E/DX2                !
 ! D12   D(11,2,3,1)           179.7509         estimate D2E/DX2                !
 ! D13   D(3,2,10,9)             0.0481         estimate D2E/DX2                !
 ! D14   D(3,2,10,14)         -179.9558         estimate D2E/DX2                !
 ! D15   D(11,2,10,9)         -179.8308         estimate D2E/DX2                !
 ! D16   D(11,2,10,14)           0.1653         estimate D2E/DX2                !
 ! D17   D(3,2,11,12)          179.9469         estimate D2E/DX2                !
 ! D18   D(3,2,11,16)            0.046          estimate D2E/DX2                !
 ! D19   D(10,2,11,12)          -0.1988         estimate D2E/DX2                !
 ! D20   D(10,2,11,16)         179.9003         estimate D2E/DX2                !
 ! D21   D(1,4,7,8)             61.9645         estimate D2E/DX2                !
 ! D22   D(1,4,7,15)           -65.9398         estimate D2E/DX2                !
 ! D23   D(5,4,7,8)            -51.2801         estimate D2E/DX2                !
 ! D24   D(5,4,7,15)          -179.1844         estimate D2E/DX2                !
 ! D25   D(6,4,7,8)            177.6525         estimate D2E/DX2                !
 ! D26   D(6,4,7,15)            49.7482         estimate D2E/DX2                !
 ! D27   D(1,9,10,2)             0.0822         estimate D2E/DX2                !
 ! D28   D(1,9,10,14)         -179.9137         estimate D2E/DX2                !
 ! D29   D(2,10,14,13)          -0.0173         estimate D2E/DX2                !
 ! D30   D(2,10,14,19)         179.9467         estimate D2E/DX2                !
 ! D31   D(9,10,14,13)         179.9784         estimate D2E/DX2                !
 ! D32   D(9,10,14,19)          -0.0576         estimate D2E/DX2                !
 ! D33   D(2,11,12,13)           0.0915         estimate D2E/DX2                !
 ! D34   D(2,11,12,17)        -179.8888         estimate D2E/DX2                !
 ! D35   D(16,11,12,13)        179.9925         estimate D2E/DX2                !
 ! D36   D(16,11,12,17)          0.0122         estimate D2E/DX2                !
 ! D37   D(11,12,13,14)          0.052          estimate D2E/DX2                !
 ! D38   D(11,12,13,18)       -179.978          estimate D2E/DX2                !
 ! D39   D(17,12,13,14)       -179.9677         estimate D2E/DX2                !
 ! D40   D(17,12,13,18)          0.0023         estimate D2E/DX2                !
 ! D41   D(12,13,14,10)         -0.0888         estimate D2E/DX2                !
 ! D42   D(12,13,14,19)        179.948          estimate D2E/DX2                !
 ! D43   D(18,13,14,10)        179.9413         estimate D2E/DX2                !
 ! D44   D(18,13,14,19)         -0.0219         estimate D2E/DX2                !
 --------------------------------------------------------------------------------
 Trust Radius=3.00D-01 FncErr=1.00D-07 GrdErr=1.00D-06 EigMax=2.50D+02 EigMin=1.00D-04
 Number of steps in this run=    106 maximum allowed number of steps=    114.
 GradGradGradGradGradGradGradGradGradGradGradGradGradGradGradGradGradGrad

                          Input orientation:                          
 ---------------------------------------------------------------------
 Center     Atomic      Atomic             Coordinates (Angstroms)
 Number     Number       Type             X           Y           Z
 ---------------------------------------------------------------------
      1          6           0        1.109243    0.511688   -0.145535
      2          6           0       -1.266613    0.593799    0.226417
      3         16           0       -0.072047   -0.668854    0.340081
      4         16           0        2.834202    0.053945   -0.281000
      5          8           0        2.877785   -1.376555    0.000545
      6          8           0        3.332032    0.578213   -1.545114
      7          7           0        3.654663    0.815306    0.912101
      8          1           0        3.344836    0.538280    1.846115
      9          7           0        0.717163    1.713824   -0.372968
     10          6           0       -0.652880    1.800262   -0.169073
     11          6           0       -2.642352    0.517864    0.467238
     12          6           0       -3.385829    1.677591    0.306853
     13          6           0       -2.782125    2.888780   -0.085814
     14          6           0       -1.421344    2.962618   -0.326871
     15          1           0        3.664032    1.831771    0.801546
     16          1           0       -3.111354   -0.412738    0.769906
     17          1           0       -4.455747    1.649801    0.488491
     18          1           0       -3.396623    3.776094   -0.200698
     19          1           0       -0.943612    3.888852   -0.630662
 ---------------------------------------------------------------------
                    Distance matrix (angstroms):
                    1          2          3          4          5
     1  C    0.000000
     2  C    2.406197   0.000000
     3  S    1.739238   1.741896   0.000000
     4  S    1.789794   4.167205   3.058507   0.000000
     5  O    2.591243   4.594491   3.052480   1.458594   0.000000
     6  O    2.627554   4.928093   4.086183   1.456254   2.533085
     7  N    2.773074   4.973750   4.051951   1.635945   2.497745
     8  H    2.994203   4.887941   3.924334   2.240524   2.700159
     9  N    1.284750   2.355650   2.609300   2.691749   3.789227
    10  C    2.183130   1.410189   2.587110   3.901524   4.752529
    11  C    3.801315   1.398720   2.833891   5.546866   5.854788
    12  C    4.665797   2.381628   4.060549   6.455276   6.975277
    13  C    4.560359   2.767888   4.492513   6.294245   7.087674
    14  C    3.527579   2.437493   3.931032   5.154819   6.117036
    15  H    3.027628   5.116113   4.519332   2.240801   3.398991
    16  H    4.416564   2.170614   3.080216   6.055727   6.114789
    17  H    5.715453   3.369629   4.961352   7.502148   7.948435
    18  H    5.564370   3.853099   5.576989   7.258376   8.121483
    19  H    3.981808   3.419984   4.740744   5.394502   6.536513
                    6          7          8          9         10
     6  O    0.000000
     7  N    2.489620   0.000000
     8  H    3.391488   1.022310   0.000000
     9  N    3.082382   3.329811   3.634680   0.000000
    10  C    4.389353   4.549066   4.651378   1.387827   0.000000
    11  C    6.304480   6.319713   6.143951   3.663688   2.451007
    12  C    7.054649   7.118875   6.997800   4.159088   2.776790
    13  C    6.697103   6.835742   6.840822   3.702431   2.392799
    14  C    5.455647   5.649057   5.771980   2.476858   1.402323
    15  H    2.681128   1.022502   1.692965   3.174497   4.424796
    16  H    6.917986   6.878030   6.614004   4.526143   3.438480
    17  H    8.119935   8.164225   7.995481   5.244541   3.862231
    18  H    7.570251   7.728209   7.753719   4.604983   3.381278
    19  H    5.484313   5.742032   5.979259   2.748695   2.158656
                   11         12         13         14         15
    11  C    0.000000
    12  C    1.386884   0.000000
    13  C    2.438575   1.409122   0.000000
    14  C    2.845750   2.431481   1.383938   0.000000
    15  H    6.450472   7.068878   6.592239   5.330402   0.000000
    16  H    1.085169   2.158525   3.426466   3.930914   7.137554
    17  H    2.137787   1.085582   2.160071   3.405276   8.127849
    18  H    3.410444   2.159037   1.085418   2.139951   7.391734
    19  H    3.931242   3.425352   2.162668   1.085553   5.245301
                   16         17         18         19
    16  H    0.000000
    17  H    2.478034   0.000000
    18  H    4.309265   2.473428   0.000000
    19  H    5.016410   4.312881   2.492959   0.000000
 Stoichiometry    C7H6N2O2S2
 Framework group  C1[X(C7H6N2O2S2)]
 Deg. of freedom    51
 Full point group                 C1      NOp   1
 Largest Abelian subgroup         C1      NOp   1
 Largest concise Abelian subgroup C1      NOp   1
                         Standard orientation:                         
 ---------------------------------------------------------------------
 Center     Atomic      Atomic             Coordinates (Angstroms)
 Number     Number       Type             X           Y           Z
 ---------------------------------------------------------------------
      1          6           0       -0.661330   -0.022283   -0.083120
      2          6           0        1.639456    0.676637    0.004482
      3         16           0        0.120904    1.529712   -0.017022
      4         16           0       -2.447873   -0.128084   -0.103976
      5          8           0       -2.916468    1.252704   -0.140596
      6          8           0       -2.822173   -1.068072   -1.151353
      7          7           0       -2.932833   -0.774540    1.318425
      8          1           0       -2.677338   -0.198810    2.123643
      9          7           0        0.070572   -1.078165   -0.086927
     10          6           0        1.408854   -0.713918   -0.038071
     11          6           0        2.934907    1.201900    0.052690
     12          6           0        3.990877    0.302846    0.061496
     13          6           0        3.771401   -1.088504    0.021488
     14          6           0        2.489500   -1.607582   -0.029238
     15          1           0       -2.633714   -1.745217    1.436001
     16          1           0        3.108483    2.272647    0.083736
     17          1           0        5.007717    0.681017    0.100391
     18          1           0        4.623093   -1.761316    0.030219
     19          1           0        2.306228   -2.677074   -0.061263
 ---------------------------------------------------------------------
 Rotational constants (GHZ):           1.7381130           0.3870761           0.3390917
 General basis read from cards:  (6D, 7F)
 There are   267 symmetry adapted cartesian basis functions of A   symmetry.
 There are   267 symmetry adapted basis functions of A   symmetry.
   267 basis functions,   488 primitive gaussians,   267 cartesian basis functions
    55 alpha electrons       55 beta electrons
       nuclear repulsion energy      1011.1466829196 Hartrees.
 NAtoms=   19 NActive=   19 NUniq=   19 SFac= 1.00D+00 NAtFMM=   60 NAOKFM=F Big=F
 Integral buffers will be    131072 words long.
 Raffenetti 2 integral format.
 Two-electron integral symmetry is turned on.
 One-electron integrals computed using PRISM.
 NBasis=   267 RedAO= T EigKep=  1.81D-06  NBF=   267
 NBsUse=   267 1.00D-06 EigRej= -1.00D+00 NBFU=   267
 ExpMin= 4.05D-02 ExpMax= 2.19D+04 ExpMxC= 3.30D+03 IAcc=3 IRadAn=         5 AccDes= 0.00D+00
 Harris functional with IExCor= 1009 and IRadAn=       5 diagonalized for initial guess.
 HarFok:  IExCor= 1009 AccDes= 0.00D+00 IRadAn=         5 IDoV= 1 UseB2=F ITyADJ=14
 ICtDFT=  3500011 ScaDFX=  1.000000  1.000000  1.000000  1.000000
 FoFCou: FMM=F IPFlag=           0 FMFlag=      100000 FMFlg1=           0
         NFxFlg=           0 DoJE=T BraDBF=F KetDBF=T FulRan=T
         wScrn=  0.000000 ICntrl=       500 IOpCl=  0 I1Cent=   200000004 NGrid=           0
         NMat0=    1 NMatS0=      1 NMatT0=    0 NMatD0=    1 NMtDS0=    0 NMtDT0=    0
 Petite list used in FoFCou.
 Requested convergence on RMS density matrix=1.00D-08 within 128 cycles.
 Requested convergence on MAX density matrix=1.00D-06.
 Requested convergence on             energy=1.00D-06.
 No special actions if energy rises.
 SCF Done:  E(RM062X) =  -1326.35285683     A.U. after   16 cycles
            NFock= 16  Conv=0.99D-08     -V/T= 2.0053

 **********************************************************************

            Population analysis using the SCF Density.

 **********************************************************************

 Orbital symmetries:
       Occupied  (A) (A) (A) (A) (A) (A) (A) (A) (A) (A) (A) (A)
                 (A) (A) (A) (A) (A) (A) (A) (A) (A) (A) (A) (A)
                 (A) (A) (A) (A) (A) (A) (A) (A) (A) (A) (A) (A)
                 (A) (A) (A) (A) (A) (A) (A) (A) (A) (A) (A) (A)
                 (A) (A) (A) (A) (A) (A) (A)
       Virtual   (A) (A) (A) (A) (A) (A) (A) (A) (A) (A) (A) (A)
                 (A) (A) (A) (A) (A) (A) (A) (A) (A) (A) (A) (A)
                 (A) (A) (A) (A) (A) (A) (A) (A) (A) (A) (A) (A)
                 (A) (A) (A) (A) (A) (A) (A) (A) (A) (A) (A) (A)
                 (A) (A) (A) (A) (A) (A) (A) (A) (A) (A) (A) (A)
                 (A) (A) (A) (A) (A) (A) (A) (A) (A) (A) (A) (A)
                 (A) (A) (A) (A) (A) (A) (A) (A) (A) (A) (A) (A)
                 (A) (A) (A) (A) (A) (A) (A) (A) (A) (A) (A) (A)
                 (A) (A) (A) (A) (A) (A) (A) (A) (A) (A) (A) (A)
                 (A) (A) (A) (A) (A) (A) (A) (A) (A) (A) (A) (A)
                 (A) (A) (A) (A) (A) (A) (A) (A) (A) (A) (A) (A)
                 (A) (A) (A) (A) (A) (A) (A) (A) (A) (A) (A) (A)
                 (A) (A) (A) (A) (A) (A) (A) (A) (A) (A) (A) (A)
                 (A) (A) (A) (A) (A) (A) (A) (A) (A) (A) (A) (A)
                 (A) (A) (A) (A) (A) (A) (A) (A) (A) (A) (A) (A)
                 (A) (A) (A) (A) (A) (A) (A) (A) (A) (A) (A) (A)
                 (A) (A) (A) (A) (A) (A) (A) (A) (A) (A) (A) (A)
                 (A) (A) (A) (A) (A) (A) (A) (A)
 The electronic state is 1-A.
 Alpha  occ. eigenvalues --  -90.18480 -89.99293 -19.65631 -19.65396 -14.82372
 Alpha  occ. eigenvalues --  -14.80937 -10.66406 -10.61916 -10.61764 -10.59133
 Alpha  occ. eigenvalues --  -10.58509 -10.58417 -10.58136  -8.49402  -8.33709
 Alpha  occ. eigenvalues --   -6.41618  -6.41546  -6.41517  -6.25701  -6.25486
 Alpha  occ. eigenvalues --   -6.25218  -1.25918  -1.14023  -1.11735  -1.05006
 Alpha  occ. eigenvalues --   -0.98547  -0.93127  -0.87638  -0.85869  -0.79103
 Alpha  occ. eigenvalues --   -0.72133  -0.70900  -0.69101  -0.63692  -0.62839
 Alpha  occ. eigenvalues --   -0.59424  -0.58503  -0.58400  -0.53838  -0.53345
 Alpha  occ. eigenvalues --   -0.53193  -0.52478  -0.48839  -0.45569  -0.44835
 Alpha  occ. eigenvalues --   -0.43269  -0.42876  -0.40941  -0.40906  -0.40450
 Alpha  occ. eigenvalues --   -0.39124  -0.38925  -0.37055  -0.32034  -0.31160
 Alpha virt. eigenvalues --   -0.04697  -0.00829  -0.00322   0.00320   0.01781
 Alpha virt. eigenvalues --    0.02429   0.02625   0.03413   0.04111   0.04448
 Alpha virt. eigenvalues --    0.05146   0.06148   0.06478   0.06875   0.07274
 Alpha virt. eigenvalues --    0.07727   0.08260   0.09218   0.09571   0.10209
 Alpha virt. eigenvalues --    0.10792   0.10854   0.11798   0.12111   0.13053
 Alpha virt. eigenvalues --    0.13331   0.13771   0.14417   0.15010   0.15703
 Alpha virt. eigenvalues --    0.15949   0.16996   0.17416   0.17774   0.18458
 Alpha virt. eigenvalues --    0.18554   0.18679   0.19387   0.19976   0.20372
 Alpha virt. eigenvalues --    0.20865   0.21270   0.21840   0.22685   0.22841
 Alpha virt. eigenvalues --    0.23658   0.24000   0.24615   0.25260   0.25937
 Alpha virt. eigenvalues --    0.26345   0.26814   0.27442   0.28148   0.29389
 Alpha virt. eigenvalues --    0.29779   0.30664   0.31146   0.31655   0.32395
 Alpha virt. eigenvalues --    0.32488   0.33465   0.34405   0.35045   0.35590
 Alpha virt. eigenvalues --    0.36457   0.36928   0.38428   0.38801   0.42072
 Alpha virt. eigenvalues --    0.42486   0.44738   0.45617   0.47007   0.51572
 Alpha virt. eigenvalues --    0.51962   0.56849   0.59045   0.59796   0.60769
 Alpha virt. eigenvalues --    0.64861   0.66141   0.66602   0.67939   0.69199
 Alpha virt. eigenvalues --    0.69937   0.70768   0.71470   0.72223   0.74345
 Alpha virt. eigenvalues --    0.75209   0.75436   0.76742   0.77372   0.77883
 Alpha virt. eigenvalues --    0.80180   0.82480   0.82926   0.88050   0.91464
 Alpha virt. eigenvalues --    0.92612   0.93369   0.94393   0.94771   0.96911
 Alpha virt. eigenvalues --    0.98297   0.98672   1.00271   1.02110   1.03006
 Alpha virt. eigenvalues --    1.04085   1.05522   1.07233   1.08106   1.09993
 Alpha virt. eigenvalues --    1.10957   1.11648   1.12221   1.13748   1.14257
 Alpha virt. eigenvalues --    1.15280   1.16724   1.17078   1.18783   1.22150
 Alpha virt. eigenvalues --    1.22873   1.25819   1.27284   1.28645   1.30093
 Alpha virt. eigenvalues --    1.32630   1.35117   1.36368   1.37305   1.38762
 Alpha virt. eigenvalues --    1.40306   1.40974   1.41594   1.43699   1.45552
 Alpha virt. eigenvalues --    1.47030   1.47478   1.50287   1.51872   1.53925
 Alpha virt. eigenvalues --    1.57007   1.59316   1.64650   1.69725   1.72658
 Alpha virt. eigenvalues --    1.74887   1.77290   1.80905   1.82471   1.84644
 Alpha virt. eigenvalues --    1.86414   1.87677   1.89815   1.91864   1.93030
 Alpha virt. eigenvalues --    1.93690   1.98524   2.00689   2.01416   2.02889
 Alpha virt. eigenvalues --    2.04234   2.10627   2.12842   2.14588   2.15403
 Alpha virt. eigenvalues --    2.15905   2.17052   2.17169   2.23770   2.25275
 Alpha virt. eigenvalues --    2.26682   2.27046   2.30223   2.32511   2.38627
 Alpha virt. eigenvalues --    2.43343   2.44389   2.47610   2.49104   2.50465
 Alpha virt. eigenvalues --    2.54086   2.62837   2.64846   2.67606   2.73239
 Alpha virt. eigenvalues --    2.74716   2.79790   2.86838   2.89741   2.91273
 Alpha virt. eigenvalues --    2.96538   3.01898   3.15839   3.38156   3.87033
 Alpha virt. eigenvalues --    3.98929   4.05956   4.18266   4.22853   4.25412
 Alpha virt. eigenvalues --    4.28108   4.30648   4.33615   4.36379   4.43976
 Alpha virt. eigenvalues --    4.50592   4.72313
          Condensed to atoms (all electrons):
               1          2          3          4          5          6
     1  C   12.369016   1.290905  -1.135423  -0.082049   0.055948  -0.140781
     2  C    1.290905  17.876045  -0.274423  -0.909744   0.024273  -0.163187
     3  S   -1.135423  -0.274423  16.681346  -0.937489   0.064860  -0.027256
     4  S   -0.082049  -0.909744  -0.937489  17.555438   0.132796   0.505906
     5  O    0.055948   0.024273   0.064860   0.132796   8.723315  -0.201332
     6  O   -0.140781  -0.163187  -0.027256   0.505906  -0.201332   8.648383
     7  N    0.018555   0.306897   0.176494  -0.823215  -0.163322  -0.193569
     8  H   -0.034833  -0.020271  -0.023333   0.115397  -0.003659   0.010133
     9  N    0.067440   0.715358  -0.075617  -0.146680  -0.016801  -0.024662
    10  C   -0.577829  -1.398075  -0.471053  -0.238209  -0.075470   0.084525
    11  C   -3.136227  -9.250188   1.108008  -0.802481  -0.001527  -0.049904
    12  C   -0.224610  -0.237048   0.029229  -0.027495   0.002567   0.001029
    13  C   -0.392794  -1.290469   0.089613  -0.064693  -0.001020  -0.003878
    14  C   -1.331863  -1.222211   0.317611  -0.115390  -0.001077   0.036024
    15  H   -0.032393  -0.009164  -0.002541   0.080277   0.010851  -0.000557
    16  H   -0.001102   0.085029  -0.004277  -0.000445   0.000001  -0.000000
    17  H    0.004428   0.037377  -0.002827   0.000093   0.000000   0.000000
    18  H    0.000700  -0.008510   0.000304  -0.000104   0.000000  -0.000000
    19  H    0.006070   0.035017  -0.001839   0.001159  -0.000001   0.000004
               7          8          9         10         11         12
     1  C    0.018555  -0.034833   0.067440  -0.577829  -3.136227  -0.224610
     2  C    0.306897  -0.020271   0.715358  -1.398075  -9.250188  -0.237048
     3  S    0.176494  -0.023333  -0.075617  -0.471053   1.108008   0.029229
     4  S   -0.823215   0.115397  -0.146680  -0.238209  -0.802481  -0.027495
     5  O   -0.163322  -0.003659  -0.016801  -0.075470  -0.001527   0.002567
     6  O   -0.193569   0.010133  -0.024662   0.084525  -0.049904   0.001029
     7  N    8.100667   0.227629  -0.017391  -0.013752   0.123902   0.001963
     8  H    0.227629   0.313277  -0.002472   0.001488  -0.004980  -0.000144
     9  N   -0.017391  -0.002472   7.175487  -0.298424   0.317020  -0.007551
    10  C   -0.013752   0.001488  -0.298424  13.476055  -1.895439  -0.684456
    11  C    0.123902  -0.004980   0.317020  -1.895439  22.398157  -0.578401
    12  C    0.001963  -0.000144  -0.007551  -0.684456  -0.578401   6.156531
    13  C    0.001811  -0.000140   0.094601   0.127106   1.998106   0.181900
    14  C   -0.052618  -0.000516  -0.719403  -1.794900  -4.184924   1.191649
    15  H    0.221606  -0.020068   0.002654  -0.010996  -0.001861  -0.000001
    16  H   -0.000002   0.000000  -0.000844   0.048608   0.186608   0.009023
    17  H   -0.000000   0.000000   0.000307   0.010782  -0.018505   0.287170
    18  H   -0.000000  -0.000000   0.000188   0.030152   0.010780   0.006611
    19  H    0.000025  -0.000000  -0.006260   0.053537  -0.026357   0.006852
              13         14         15         16         17         18
     1  C   -0.392794  -1.331863  -0.032393  -0.001102   0.004428   0.000700
     2  C   -1.290469  -1.222211  -0.009164   0.085029   0.037377  -0.008510
     3  S    0.089613   0.317611  -0.002541  -0.004277  -0.002827   0.000304
     4  S   -0.064693  -0.115390   0.080277  -0.000445   0.000093  -0.000104
     5  O   -0.001020  -0.001077   0.010851   0.000001   0.000000   0.000000
     6  O   -0.003878   0.036024  -0.000557  -0.000000   0.000000  -0.000000
     7  N    0.001811  -0.052618   0.221606  -0.000002  -0.000000  -0.000000
     8  H   -0.000140  -0.000516  -0.020068   0.000000   0.000000  -0.000000
     9  N    0.094601  -0.719403   0.002654  -0.000844   0.000307   0.000188
    10  C    0.127106  -1.794900  -0.010996   0.048608   0.010782   0.030152
    11  C    1.998106  -4.184924  -0.001861   0.186608  -0.018505   0.010780
    12  C    0.181900   1.191649  -0.000001   0.009023   0.287170   0.006611
    13  C    6.092434  -0.861117   0.000019  -0.009414   0.015267   0.300205
    14  C   -0.861117  15.334561   0.000566  -0.007966  -0.022954  -0.029409
    15  H    0.000019   0.000566   0.306778   0.000000   0.000000  -0.000000
    16  H   -0.009414  -0.007966   0.000000   0.468451  -0.003588  -0.000119
    17  H    0.015267  -0.022954   0.000000  -0.003588   0.479042  -0.003582
    18  H    0.300205  -0.029409  -0.000000  -0.000119  -0.003582   0.477570
    19  H   -0.032256   0.267483   0.000000   0.000012  -0.000116  -0.003185
              19
     1  C    0.006070
     2  C    0.035017
     3  S   -0.001839
     4  S    0.001159
     5  O   -0.000001
     6  O    0.000004
     7  N    0.000025
     8  H   -0.000000
     9  N   -0.006260
    10  C    0.053537
    11  C   -0.026357
    12  C    0.006852
    13  C   -0.032256
    14  C    0.267483
    15  H    0.000000
    16  H    0.000012
    17  H   -0.000116
    18  H   -0.003185
    19  H    0.464488
 Mulliken charges:
               1
     1  C   -0.723159
     2  C    0.412391
     3  S    0.488613
     4  S    1.756926
     5  O   -0.550401
     6  O   -0.480878
     7  N   -0.915681
     8  H    0.442491
     9  N   -0.056949
    10  C   -0.373652
    11  C   -0.191789
    12  C   -0.114818
    13  C   -0.245279
    14  C   -0.803543
    15  H    0.454830
    16  H    0.230028
    17  H    0.217105
    18  H    0.218400
    19  H    0.235366
 Sum of Mulliken charges =  -0.00000
 Mulliken charges with hydrogens summed into heavy atoms:
               1
     1  C   -0.723159
     2  C    0.412391
     3  S    0.488613
     4  S    1.756926
     5  O   -0.550401
     6  O   -0.480878
     7  N   -0.018360
     9  N   -0.056949
    10  C   -0.373652
    11  C    0.038239
    12  C    0.102287
    13  C   -0.026879
    14  C   -0.568177
 Electronic spatial extent (au):  <R**2>=           3134.4043
 Charge=             -0.0000 electrons
 Dipole moment (field-independent basis, Debye):
    X=              5.4152    Y=             -0.2584    Z=              3.9088  Tot=              6.6835
 Quadrupole moment (field-independent basis, Debye-Ang):
   XX=            -91.1765   YY=            -86.3931   ZZ=            -88.7344
   XY=              3.5768   XZ=            -10.0284   YZ=             -3.8489
 Traceless Quadrupole moment (field-independent basis, Debye-Ang):
   XX=             -2.4085   YY=              2.3749   ZZ=              0.0336
   XY=              3.5768   XZ=            -10.0284   YZ=             -3.8489
 Octapole moment (field-independent basis, Debye-Ang**2):
  XXX=             80.3158  YYY=             -5.6315  ZZZ=             14.0191  XYY=             14.2582
  XXY=             -9.7019  XXZ=             23.7436  XZZ=            -28.8739  YZZ=              0.4883
  YYZ=              7.6845  XYZ=             10.3487
 Hexadecapole moment (field-independent basis, Debye-Ang**3):
 XXXX=          -3201.7292 YYYY=           -651.4704 ZZZZ=           -204.9874 XXXY=             13.3906
 XXXZ=            -34.8225 YYYX=             21.6214 YYYZ=            -12.2974 ZZZX=            -38.3092
 ZZZY=             -7.9434 XXYY=           -629.0642 XXZZ=           -613.8639 YYZZ=           -158.9339
 XXYZ=            -19.0889 YYXZ=            -19.5107 ZZXY=              2.5260
 N-N= 1.011146682920D+03 E-N=-5.146785926625D+03  KE= 1.319344212405D+03
 Calling FoFJK, ICntrl=      2127 FMM=F ISym2X=0 I1Cent= 0 IOpClX= 0 NMat=1 NMatS=1 NMatT=0.
 ***** Axes restored to original set *****
 -------------------------------------------------------------------
 Center     Atomic                   Forces (Hartrees/Bohr)
 Number     Number              X              Y              Z
 -------------------------------------------------------------------
      1        6           0.000193636    0.004791407    0.001135784
      2        6           0.000214926   -0.001847483    0.000523082
      3       16          -0.001365997   -0.001621351    0.000260833
      4       16           0.008341942   -0.018417220   -0.029713064
      5        8          -0.003442282    0.009952996    0.004919310
      6        8          -0.005161524    0.000557821    0.013325638
      7        7          -0.000770651    0.009557967    0.012966112
      8        1           0.002382087   -0.000293712   -0.003358783
      9        7          -0.001679731   -0.000380437    0.002286285
     10        6           0.001753039    0.000494861   -0.000881159
     11        6           0.000009211    0.002039960   -0.000529429
     12        6          -0.000134554   -0.000097424    0.000079130
     13        6          -0.000062467   -0.000482518    0.000217547
     14        6          -0.000909597   -0.000036074    0.000261966
     15        1           0.000374980   -0.003575266   -0.001230851
     16        1           0.000040013    0.000012451   -0.000073291
     17        1          -0.000086468    0.000140704   -0.000046083
     18        1          -0.000084445   -0.000115574   -0.000025294
     19        1           0.000387882   -0.000681108   -0.000117732
 -------------------------------------------------------------------
 Cartesian Forces:  Max     0.029713064 RMS     0.005884927

 GradGradGradGradGradGradGradGradGradGradGradGradGradGradGradGradGradGrad
 Berny optimization.
 FormGI is forming the generalized inverse of G from B-inverse, IUseBI=4.
 Internal  Forces:  Max     0.013132277 RMS     0.002445034
 Search for a local minimum.
 Step number   1 out of a maximum of  106
 All quantities printed in internal units (Hartrees-Bohrs-Radians)
 Mixed Optimization -- RFO/linear search
 Second derivative matrix not updated -- first step.
 ITU=  0
     Eigenvalues ---    0.00505   0.01204   0.01692   0.01859   0.01988
     Eigenvalues ---    0.02072   0.02108   0.02136   0.02143   0.02183
     Eigenvalues ---    0.02190   0.02213   0.02350   0.04411   0.09670
     Eigenvalues ---    0.10642   0.14007   0.16000   0.16000   0.16000
     Eigenvalues ---    0.16000   0.16000   0.16000   0.19681   0.22000
     Eigenvalues ---    0.22592   0.24511   0.24995   0.24998   0.25000
     Eigenvalues ---    0.25000   0.26937   0.30642   0.30971   0.35328
     Eigenvalues ---    0.35332   0.35348   0.35377   0.38962   0.42345
     Eigenvalues ---    0.43456   0.43941   0.43972   0.44851   0.45250
     Eigenvalues ---    0.46414   0.47066   0.47807   0.68223   0.92202
     Eigenvalues ---    0.93200
 RFO step:  Lambda=-2.48336718D-03 EMin= 5.05305793D-03
 Linear search not attempted -- first point.
 Iteration  1 RMS(Cart)=  0.04640045 RMS(Int)=  0.00114235
 Iteration  2 RMS(Cart)=  0.00138441 RMS(Int)=  0.00014271
 Iteration  3 RMS(Cart)=  0.00000105 RMS(Int)=  0.00014271
 Iteration  4 RMS(Cart)=  0.00000000 RMS(Int)=  0.00014271
 Variable       Old X    -DE/DX   Delta X   Delta X   Delta X     New X
                                 (Linear)    (Quad)   (Total)
    R1        3.28668   0.00236   0.00000   0.00752   0.00752   3.29420
    R2        3.38222   0.00246   0.00000   0.00906   0.00906   3.39128
    R3        2.42783  -0.00081   0.00000  -0.00118  -0.00119   2.42664
    R4        3.29171  -0.00010   0.00000  -0.00012  -0.00012   3.29159
    R5        2.66487   0.00036   0.00000   0.00085   0.00086   2.66573
    R6        2.64320   0.00030   0.00000   0.00070   0.00070   2.64390
    R7        2.75634  -0.00891   0.00000  -0.00964  -0.00964   2.74670
    R8        2.75192  -0.01313   0.00000  -0.01405  -0.01405   2.73787
    R9        3.09149   0.00975   0.00000   0.02161   0.02161   3.11310
   R10        1.93189  -0.00371   0.00000  -0.00839  -0.00839   1.92349
   R11        1.93225  -0.00342   0.00000  -0.00774  -0.00774   1.92451
   R12        2.62261  -0.00135   0.00000  -0.00295  -0.00295   2.61966
   R13        2.65001  -0.00020   0.00000  -0.00041  -0.00042   2.64959
   R14        2.62083  -0.00041   0.00000  -0.00089  -0.00089   2.61994
   R15        2.05067  -0.00005   0.00000  -0.00014  -0.00014   2.05053
   R16        2.66285  -0.00088   0.00000  -0.00206  -0.00206   2.66080
   R17        2.05145   0.00007   0.00000   0.00021   0.00021   2.05166
   R18        2.61526  -0.00014   0.00000  -0.00033  -0.00033   2.61494
   R19        2.05114  -0.00004   0.00000  -0.00012  -0.00012   2.05102
   R20        2.05140  -0.00038   0.00000  -0.00106  -0.00106   2.05034
    A1        2.09686  -0.00088   0.00000  -0.00352  -0.00351   2.09335
    A2        2.06834  -0.00046   0.00000  -0.00190  -0.00193   2.06642
    A3        2.11768   0.00135   0.00000   0.00534   0.00535   2.12304
    A4        1.91770  -0.00012   0.00000  -0.00031  -0.00032   1.91739
    A5        2.24456   0.00107   0.00000   0.00407   0.00408   2.24864
    A6        2.12092  -0.00095   0.00000  -0.00377  -0.00377   2.11715
    A7        1.52633  -0.00035   0.00000  -0.00062  -0.00064   1.52568
    A8        1.83901  -0.00107   0.00000  -0.01085  -0.01156   1.82746
    A9        1.87874   0.00128   0.00000   0.00418   0.00367   1.88241
   A10        1.88507  -0.00609   0.00000  -0.04143  -0.04202   1.84305
   A11        2.10647   0.00577   0.00000   0.05751   0.05754   2.16401
   A12        1.87619  -0.00040   0.00000  -0.01058  -0.01121   1.86498
   A13        1.86929  -0.00086   0.00000  -0.00940  -0.00964   1.85965
   A14        1.96948   0.00086   0.00000   0.00998   0.00992   1.97940
   A15        1.96968  -0.00143   0.00000  -0.00416  -0.00422   1.96546
   A16        1.95082   0.00122   0.00000   0.01504   0.01495   1.96577
   A17        1.91085   0.00044   0.00000   0.00116   0.00112   1.91197
   A18        2.00155   0.00049   0.00000   0.00162   0.00160   2.00315
   A19        2.09693  -0.00023   0.00000  -0.00067  -0.00067   2.09627
   A20        2.18470  -0.00026   0.00000  -0.00095  -0.00094   2.18377
   A21        2.05100   0.00104   0.00000   0.00458   0.00458   2.05558
   A22        2.11726  -0.00055   0.00000  -0.00248  -0.00248   2.11478
   A23        2.11492  -0.00049   0.00000  -0.00210  -0.00210   2.11282
   A24        2.11918  -0.00037   0.00000  -0.00197  -0.00197   2.11721
   A25        2.08012   0.00034   0.00000   0.00197   0.00197   2.08209
   A26        2.08389   0.00002   0.00000   0.00000  -0.00000   2.08389
   A27        2.11257  -0.00012   0.00000  -0.00087  -0.00087   2.11169
   A28        2.08243  -0.00006   0.00000  -0.00032  -0.00032   2.08211
   A29        2.08819   0.00018   0.00000   0.00119   0.00119   2.08938
   A30        2.06576   0.00063   0.00000   0.00270   0.00270   2.06846
   A31        2.09158  -0.00100   0.00000  -0.00555  -0.00555   2.08602
   A32        2.12585   0.00037   0.00000   0.00285   0.00285   2.12870
    D1        3.11894   0.00027   0.00000   0.00929   0.00930   3.12823
    D2        0.00322   0.00028   0.00000   0.01279   0.01278   0.01600
    D3        0.06003  -0.00419   0.00000  -0.10973  -0.10953  -0.04950
    D4        2.32909   0.00297   0.00000  -0.04386  -0.04390   2.28520
    D5       -1.94115  -0.00046   0.00000  -0.07366  -0.07383  -2.01498
    D6       -3.10819  -0.00424   0.00000  -0.11344  -0.11324   3.06176
    D7       -0.83912   0.00292   0.00000  -0.04758  -0.04761  -0.88673
    D8        1.17382  -0.00051   0.00000  -0.07737  -0.07754   1.09628
    D9       -0.00325  -0.00038   0.00000  -0.01622  -0.01621  -0.01945
   D10       -3.11864  -0.00033   0.00000  -0.01253  -0.01252  -3.13116
   D11       -0.00204  -0.00009   0.00000  -0.00484  -0.00484  -0.00688
   D12        3.13724  -0.00016   0.00000  -0.00764  -0.00764   3.12960
   D13        0.00084  -0.00010   0.00000  -0.00262  -0.00262  -0.00178
   D14       -3.14082  -0.00008   0.00000  -0.00339  -0.00338   3.13899
   D15       -3.13864  -0.00003   0.00000  -0.00007  -0.00008  -3.13872
   D16        0.00289  -0.00002   0.00000  -0.00084  -0.00084   0.00205
   D17        3.14067   0.00007   0.00000   0.00278   0.00278  -3.13974
   D18        0.00080   0.00003   0.00000   0.00104   0.00104   0.00184
   D19       -0.00347  -0.00000   0.00000  -0.00030  -0.00030  -0.00377
   D20        3.13985  -0.00005   0.00000  -0.00204  -0.00204   3.13782
   D21        1.08148  -0.00002   0.00000   0.01458   0.01462   1.09611
   D22       -1.15087  -0.00122   0.00000  -0.01128  -0.01127  -1.16214
   D23       -0.89501   0.00435   0.00000   0.05231   0.05208  -0.84293
   D24       -3.12736   0.00315   0.00000   0.02646   0.02618  -3.10118
   D25        3.10062  -0.00200   0.00000  -0.00597  -0.00573   3.09490
   D26        0.86827  -0.00320   0.00000  -0.03182  -0.03162   0.83665
   D27        0.00143   0.00030   0.00000   0.01162   0.01164   0.01307
   D28       -3.14009   0.00028   0.00000   0.01243   0.01244  -3.12764
   D29       -0.00030   0.00002   0.00000   0.00117   0.00117   0.00087
   D30        3.14066   0.00011   0.00000   0.00514   0.00513  -3.13739
   D31        3.14122   0.00004   0.00000   0.00032   0.00033   3.14154
   D32       -0.00101   0.00013   0.00000   0.00429   0.00429   0.00328
   D33        0.00160   0.00002   0.00000   0.00107   0.00107   0.00267
   D34       -3.13965  -0.00003   0.00000  -0.00137  -0.00137  -3.14103
   D35        3.14146   0.00007   0.00000   0.00281   0.00281  -3.13892
   D36        0.00021   0.00001   0.00000   0.00036   0.00036   0.00057
   D37        0.00091  -0.00002   0.00000  -0.00073  -0.00073   0.00018
   D38       -3.14121  -0.00008   0.00000  -0.00347  -0.00347   3.13851
   D39       -3.14103   0.00004   0.00000   0.00172   0.00172  -3.13931
   D40        0.00004  -0.00002   0.00000  -0.00102  -0.00102  -0.00098
   D41       -0.00155  -0.00000   0.00000  -0.00042  -0.00042  -0.00197
   D42        3.14069  -0.00010   0.00000  -0.00447  -0.00448   3.13621
   D43        3.14057   0.00006   0.00000   0.00233   0.00234  -3.14028
   D44       -0.00038  -0.00004   0.00000  -0.00172  -0.00172  -0.00210
         Item               Value     Threshold  Converged?
 Maximum Force            0.013132     0.000450     NO 
 RMS     Force            0.002445     0.000300     NO 
 Maximum Displacement     0.190220     0.001800     NO 
 RMS     Displacement     0.046724     0.001200     NO 
 Predicted change in Energy=-1.298004D-03
 GradGradGradGradGradGradGradGradGradGradGradGradGradGradGradGradGradGrad

                          Input orientation:                          
 ---------------------------------------------------------------------
 Center     Atomic      Atomic             Coordinates (Angstroms)
 Number     Number       Type             X           Y           Z
 ---------------------------------------------------------------------
      1          6           0        1.112570    0.494889   -0.143574
      2          6           0       -1.267119    0.580141    0.215201
      3         16           0       -0.081118   -0.692080    0.309219
      4         16           0        2.836979    0.020114   -0.290397
      5          8           0        2.869024   -1.379266    0.101205
      6          8           0        3.328147    0.517489   -1.559430
      7          7           0        3.629816    0.862611    0.882410
      8          1           0        3.329533    0.623638    1.825161
      9          7           0        0.728776    1.705658   -0.332544
     10          6           0       -0.641792    1.792639   -0.143582
     11          6           0       -2.646978    0.511361    0.435921
     12          6           0       -3.382789    1.677907    0.294850
     13          6           0       -2.766862    2.892845   -0.061680
     14          6           0       -1.402772    2.961898   -0.283708
     15          1           0        3.626988    1.866820    0.712967
     16          1           0       -3.126221   -0.423247    0.708436
     17          1           0       -4.455415    1.652775    0.460887
     18          1           0       -3.374755    3.785923   -0.165944
     19          1           0       -0.912583    3.888426   -0.563839
 ---------------------------------------------------------------------
                    Distance matrix (angstroms):
                    1          2          3          4          5
     1  C    0.000000
     2  C    2.408092   0.000000
     3  S    1.743217   1.741833   0.000000
     4  S    1.794590   4.172874   3.063013   0.000000
     5  O    2.580214   4.578204   3.036253   1.453493   0.000000
     6  O    2.629437   4.926430   4.071608   1.448818   2.562456
     7  N    2.743063   4.950246   4.064067   1.647383   2.493010
     8  H    2.967729   4.870633   3.957490   2.254426   2.682483
     9  N    1.284122   2.355931   2.610926   2.699510   3.779624
    10  C    2.182187   1.410642   2.587124   3.907077   4.737798
    11  C    3.803983   1.399092   2.836893   5.553616   5.840615
    12  C    4.669047   2.384847   4.064244   6.463459   6.961966
    13  C    4.561457   2.770287   4.494716   6.301423   7.073943
    14  C    3.526006   2.437228   3.930634   5.160390   6.102631
    15  H    2.989674   5.084839   4.523386   2.245257   3.389075
    16  H    4.419982   2.169407   3.082904   6.062507   6.101284
    17  H    5.719137   3.372853   4.965463   7.510594   7.935367
    18  H    5.564844   3.855443   5.579098   7.265153   8.107732
    19  H    3.974161   3.417214   4.736517   5.394240   6.518544
                    6          7          8          9         10
     6  O    0.000000
     7  N    2.484491   0.000000
     8  H    3.386255   1.017869   0.000000
     9  N    3.110261   3.256205   3.548294   0.000000
    10  C    4.403527   4.490462   4.584095   1.386265   0.000000
    11  C    6.299491   6.302450   6.136878   3.662322   2.449136
    12  C    7.058441   7.084248   6.964811   4.159250   2.778210
    13  C    6.710790   6.777215   6.773145   3.701657   2.394386
    14  C    5.475783   5.576180   5.684144   2.474676   1.402103
    15  H    2.659659   1.018407   1.694389   3.085238   4.354499
    16  H    6.905582   6.879516   6.634741   4.525139   3.436346
    17  H    8.121232   8.134679   7.970306   5.244823   3.863763
    18  H    7.586393   7.662168   7.675416   4.603719   3.382716
    19  H    5.508013   5.646289   5.861886   2.740809   2.154592
                   11         12         13         14         15
    11  C    0.000000
    12  C    1.386415   0.000000
    13  C    2.435866   1.408032   0.000000
    14  C    2.840959   2.429780   1.383765   0.000000
    15  H    6.424692   7.024776   6.521819   5.243190   0.000000
    16  H    1.085095   2.156787   3.423256   3.926046   7.130936
    17  H    2.138666   1.085692   2.159181   3.403947   8.089165
    18  H    3.408028   2.157806   1.085354   2.140468   7.312991
    19  H    3.925839   3.424275   2.163722   1.084994   5.130773
                   16         17         18         19
    16  H    0.000000
    17  H    2.477480   0.000000
    18  H    4.306207   2.472056   0.000000
    19  H    5.010928   4.312755   2.496221   0.000000
 Stoichiometry    C7H6N2O2S2
 Framework group  C1[X(C7H6N2O2S2)]
 Deg. of freedom    51
 Full point group                 C1      NOp   1
 Largest Abelian subgroup         C1      NOp   1
 Largest concise Abelian subgroup C1      NOp   1
                         Standard orientation:                         
 ---------------------------------------------------------------------
 Center     Atomic      Atomic             Coordinates (Angstroms)
 Number     Number       Type             X           Y           Z
 ---------------------------------------------------------------------
      1          6           0       -0.666464   -0.018243   -0.083901
      2          6           0        1.636655    0.679395    0.004701
      3         16           0        0.120148    1.535968   -0.017005
      4         16           0       -2.458114   -0.114511   -0.119607
      5          8           0       -2.903955    1.264673   -0.011349
      6          8           0       -2.833694   -1.004754   -1.199182
      7          7           0       -2.889296   -0.867236    1.280877
      8          1           0       -2.631000   -0.346130    2.116214
      9          7           0        0.064788   -1.073765   -0.073230
     10          6           0        1.402144   -0.711135   -0.031913
     11          6           0        2.935992    1.196653    0.045055
     12          6           0        3.989997    0.296006    0.052561
     13          6           0        3.765279   -1.093537    0.017526
     14          6           0        2.480928   -1.606726   -0.025885
     15          1           0       -2.582860   -1.837877    1.314138
     16          1           0        3.113926    2.266776    0.069669
     17          1           0        5.008561    0.670514    0.084140
     18          1           0        4.614692   -1.769165    0.021713
     19          1           0        2.289708   -2.674246   -0.058233
 ---------------------------------------------------------------------
 Rotational constants (GHZ):           1.7323678           0.3883405           0.3397482
 Basis read from rwf:  (6D, 7F)
 There are   267 symmetry adapted cartesian basis functions of A   symmetry.
 There are   267 symmetry adapted basis functions of A   symmetry.
   267 basis functions,   488 primitive gaussians,   267 cartesian basis functions
    55 alpha electrons       55 beta electrons
       nuclear repulsion energy      1011.6139461391 Hartrees.
 NAtoms=   19 NActive=   19 NUniq=   19 SFac= 1.00D+00 NAtFMM=   60 NAOKFM=F Big=F
 Integral buffers will be    131072 words long.
 Raffenetti 2 integral format.
 Two-electron integral symmetry is turned on.
 One-electron integrals computed using PRISM.
 NBasis=   267 RedAO= T EigKep=  1.81D-06  NBF=   267
 NBsUse=   267 1.00D-06 EigRej= -1.00D+00 NBFU=   267
 Initial guess from the checkpoint file:  "/jobfs/45202644.gadi-pbs/Gau-4133479.chk"
 B after Tr=     0.000000    0.000000   -0.000000
         Rot=    0.999926   -0.012147   -0.001000    0.000166 Ang=  -1.40 deg.
 ExpMin= 4.05D-02 ExpMax= 2.19D+04 ExpMxC= 3.30D+03 IAcc=3 IRadAn=         5 AccDes= 0.00D+00
 Harris functional with IExCor= 1009 and IRadAn=       5 diagonalized for initial guess.
 HarFok:  IExCor= 1009 AccDes= 0.00D+00 IRadAn=         5 IDoV= 1 UseB2=F ITyADJ=14
 ICtDFT=  3500011 ScaDFX=  1.000000  1.000000  1.000000  1.000000
 FoFCou: FMM=F IPFlag=           0 FMFlag=      100000 FMFlg1=           0
         NFxFlg=           0 DoJE=T BraDBF=F KetDBF=T FulRan=T
         wScrn=  0.000000 ICntrl=       500 IOpCl=  0 I1Cent=   200000004 NGrid=           0
         NMat0=    1 NMatS0=      1 NMatT0=    0 NMatD0=    1 NMtDS0=    0 NMtDT0=    0
 Petite list used in FoFCou.
 Requested convergence on RMS density matrix=1.00D-08 within 128 cycles.
 Requested convergence on MAX density matrix=1.00D-06.
 Requested convergence on             energy=1.00D-06.
 No special actions if energy rises.
 SCF Done:  E(RM062X) =  -1326.35419366     A.U. after   14 cycles
            NFock= 14  Conv=0.78D-08     -V/T= 2.0053
 Calling FoFJK, ICntrl=      2127 FMM=F ISym2X=0 I1Cent= 0 IOpClX= 0 NMat=1 NMatS=1 NMatT=0.
 ***** Axes restored to original set *****
 -------------------------------------------------------------------
 Center     Atomic                   Forces (Hartrees/Bohr)
 Number     Number              X              Y              Z
 -------------------------------------------------------------------
      1        6          -0.000460761    0.001786169   -0.000167142
      2        6          -0.000142002   -0.000845043    0.000031435
      3       16          -0.000719278   -0.000439299   -0.000570550
      4       16           0.001123032   -0.002713939   -0.003862258
      5        8           0.000267978    0.003305222   -0.001910554
      6        8          -0.001636259   -0.003113973    0.004574004
      7        7           0.001433157    0.003546768    0.003102839
      8        1           0.000430346   -0.000845476   -0.000952768
      9        7          -0.000529897   -0.001047205   -0.000112798
     10        6           0.000114125    0.000619956    0.000293853
     11        6           0.000243297    0.000601929   -0.000039424
     12        6          -0.000106093   -0.000109845    0.000053047
     13        6           0.000015606    0.000079031   -0.000104308
     14        6          -0.000328210   -0.000015579    0.000285359
     15        1           0.000040803   -0.000669267   -0.000544453
     16        1          -0.000009908   -0.000101401    0.000013989
     17        1           0.000040762   -0.000042080   -0.000002101
     18        1           0.000018422    0.000030215   -0.000031837
     19        1           0.000204879   -0.000026184   -0.000056333
 -------------------------------------------------------------------
 Cartesian Forces:  Max     0.004574004 RMS     0.001364297

 GradGradGradGradGradGradGradGradGradGradGradGradGradGradGradGradGradGrad
 Berny optimization.
 Using GEDIIS/GDIIS optimizer.
 FormGI is forming the generalized inverse of G from B-inverse, IUseBI=4.
 Internal  Forces:  Max     0.005631061 RMS     0.000845198
 Search for a local minimum.
 Step number   2 out of a maximum of  106
 All quantities printed in internal units (Hartrees-Bohrs-Radians)
 Mixed Optimization -- En-DIIS/RFO-DIIS
 Update second derivatives using D2CorX and points    1    2
 DE= -1.34D-03 DEPred=-1.30D-03 R= 1.03D+00
 TightC=F SS=  1.41D+00  RLast= 2.31D-01 DXNew= 5.0454D-01 6.9337D-01
 Trust test= 1.03D+00 RLast= 2.31D-01 DXMaxT set to 5.05D-01
 ITU=  1  0
 Use linear search instead of GDIIS.
     Eigenvalues ---    0.00467   0.01208   0.01696   0.01858   0.01989
     Eigenvalues ---    0.02072   0.02108   0.02133   0.02136   0.02183
     Eigenvalues ---    0.02190   0.02214   0.02384   0.04269   0.10290
     Eigenvalues ---    0.13165   0.13353   0.15892   0.16000   0.16000
     Eigenvalues ---    0.16000   0.16000   0.16212   0.19152   0.22001
     Eigenvalues ---    0.22526   0.24455   0.24808   0.24994   0.24999
     Eigenvalues ---    0.25146   0.26752   0.30566   0.30906   0.35328
     Eigenvalues ---    0.35335   0.35348   0.35378   0.38931   0.42032
     Eigenvalues ---    0.42336   0.43472   0.43956   0.44179   0.45251
     Eigenvalues ---    0.46414   0.47070   0.47809   0.68198   0.86493
     Eigenvalues ---    0.92547
 RFO step:  Lambda=-3.54882949D-04 EMin= 4.66880433D-03
 Quartic linear search produced a step of  0.07526.
 Iteration  1 RMS(Cart)=  0.04720484 RMS(Int)=  0.00084101
 Iteration  2 RMS(Cart)=  0.00113957 RMS(Int)=  0.00001469
 Iteration  3 RMS(Cart)=  0.00000054 RMS(Int)=  0.00001469
 Variable       Old X    -DE/DX   Delta X   Delta X   Delta X     New X
                                 (Linear)    (Quad)   (Total)
    R1        3.29420   0.00082   0.00057   0.00304   0.00360   3.29780
    R2        3.39128   0.00169   0.00068   0.00706   0.00774   3.39903
    R3        2.42664  -0.00059  -0.00009  -0.00097  -0.00106   2.42557
    R4        3.29159  -0.00003  -0.00001  -0.00003  -0.00003   3.29155
    R5        2.66573   0.00018   0.00006   0.00052   0.00058   2.66631
    R6        2.64390  -0.00015   0.00005  -0.00032  -0.00027   2.64364
    R7        2.74670  -0.00369  -0.00073  -0.00465  -0.00538   2.74133
    R8        2.73787  -0.00563  -0.00106  -0.00701  -0.00807   2.72980
    R9        3.11310   0.00309   0.00163   0.00820   0.00983   3.12293
   R10        1.92349  -0.00081  -0.00063  -0.00229  -0.00292   1.92057
   R11        1.92451  -0.00057  -0.00058  -0.00169  -0.00227   1.92224
   R12        2.61966  -0.00008  -0.00022  -0.00032  -0.00055   2.61911
   R13        2.64959  -0.00000  -0.00003  -0.00001  -0.00005   2.64955
   R14        2.61994   0.00001  -0.00007  -0.00003  -0.00009   2.61985
   R15        2.05053   0.00009  -0.00001   0.00028   0.00027   2.05080
   R16        2.66080   0.00007  -0.00015   0.00008  -0.00008   2.66072
   R17        2.05166  -0.00004   0.00002  -0.00011  -0.00010   2.05156
   R18        2.61494  -0.00010  -0.00002  -0.00022  -0.00025   2.61469
   R19        2.05102   0.00002  -0.00001   0.00005   0.00004   2.05106
   R20        2.05034   0.00009  -0.00008   0.00022   0.00014   2.05048
    A1        2.09335   0.00010  -0.00026   0.00043   0.00017   2.09352
    A2        2.06642  -0.00047  -0.00015  -0.00208  -0.00228   2.06414
    A3        2.12304   0.00038   0.00040   0.00194   0.00234   2.12538
    A4        1.91739  -0.00007  -0.00002  -0.00010  -0.00013   1.91725
    A5        2.24864   0.00040   0.00031   0.00173   0.00204   2.25068
    A6        2.11715  -0.00032  -0.00028  -0.00162  -0.00191   2.11525
    A7        1.52568   0.00011  -0.00005   0.00067   0.00059   1.52627
    A8        1.82746   0.00017  -0.00087   0.00176   0.00083   1.82829
    A9        1.88241   0.00005   0.00028   0.00003   0.00027   1.88268
   A10        1.84305   0.00059  -0.00316   0.00386   0.00064   1.84370
   A11        2.16401  -0.00105   0.00433  -0.00817  -0.00384   2.16018
   A12        1.86498   0.00060  -0.00084   0.00495   0.00406   1.86904
   A13        1.85965  -0.00010  -0.00073  -0.00060  -0.00134   1.85831
   A14        1.97940  -0.00065   0.00075  -0.00265  -0.00190   1.97750
   A15        1.96546  -0.00044  -0.00032  -0.00181  -0.00213   1.96333
   A16        1.96577   0.00091   0.00113   0.00870   0.00981   1.97559
   A17        1.91197   0.00057   0.00008   0.00231   0.00235   1.91432
   A18        2.00315  -0.00013   0.00012  -0.00045  -0.00035   2.00280
   A19        2.09627   0.00014  -0.00005   0.00057   0.00052   2.09679
   A20        2.18377  -0.00001  -0.00007  -0.00012  -0.00018   2.18359
   A21        2.05558   0.00026   0.00034   0.00139   0.00173   2.05731
   A22        2.11478  -0.00016  -0.00019  -0.00094  -0.00113   2.11366
   A23        2.11282  -0.00009  -0.00016  -0.00044  -0.00060   2.11222
   A24        2.11721  -0.00001  -0.00015  -0.00015  -0.00030   2.11691
   A25        2.08209  -0.00004   0.00015  -0.00016  -0.00001   2.08208
   A26        2.08389   0.00004  -0.00000   0.00031   0.00031   2.08419
   A27        2.11169  -0.00014  -0.00007  -0.00073  -0.00080   2.11089
   A28        2.08211   0.00012  -0.00002   0.00063   0.00060   2.08271
   A29        2.08938   0.00003   0.00009   0.00011   0.00020   2.08958
   A30        2.06846   0.00008   0.00020   0.00056   0.00075   2.06921
   A31        2.08602  -0.00024  -0.00042  -0.00178  -0.00220   2.08383
   A32        2.12870   0.00016   0.00021   0.00122   0.00143   2.13013
    D1        3.12823  -0.00017   0.00070  -0.00514  -0.00444   3.12379
    D2        0.01600  -0.00030   0.00096  -0.01626  -0.01527   0.00073
    D3       -0.04950   0.00027  -0.00824  -0.07479  -0.08302  -0.13251
    D4        2.28520  -0.00089  -0.00330  -0.08373  -0.08704   2.19816
    D5       -2.01498  -0.00070  -0.00556  -0.08257  -0.08814  -2.10312
    D6        3.06176   0.00039  -0.00852  -0.06337  -0.07187   2.98988
    D7       -0.88673  -0.00077  -0.00358  -0.07231  -0.07589  -0.96263
    D8        1.09628  -0.00058  -0.00584  -0.07115  -0.07700   1.01928
    D9       -0.01945   0.00038  -0.00122   0.01951   0.01828  -0.00118
   D10       -3.13116   0.00025  -0.00094   0.00822   0.00728  -3.12389
   D11       -0.00688   0.00011  -0.00036   0.00722   0.00686  -0.00003
   D12        3.12960   0.00014  -0.00058   0.00853   0.00795   3.13756
   D13       -0.00178   0.00007  -0.00020   0.00138   0.00117  -0.00060
   D14        3.13899   0.00001  -0.00025  -0.00018  -0.00044   3.13855
   D15       -3.13872   0.00004  -0.00001   0.00017   0.00017  -3.13855
   D16        0.00205  -0.00002  -0.00006  -0.00138  -0.00145   0.00060
   D17       -3.13974  -0.00000   0.00021   0.00072   0.00093  -3.13881
   D18        0.00184  -0.00002   0.00008  -0.00074  -0.00066   0.00119
   D19       -0.00377   0.00004  -0.00002   0.00216   0.00214  -0.00163
   D20        3.13782   0.00002  -0.00015   0.00071   0.00055   3.13837
   D21        1.09611   0.00044   0.00110   0.01284   0.01394   1.11005
   D22       -1.16214   0.00013  -0.00085   0.00457   0.00373  -1.15841
   D23       -0.84293  -0.00026   0.00392   0.00713   0.01103  -0.83190
   D24       -3.10118  -0.00056   0.00197  -0.00114   0.00081  -3.10037
   D25        3.09490   0.00071  -0.00043   0.01436   0.01395   3.10884
   D26        0.83665   0.00041  -0.00238   0.00609   0.00373   0.84038
   D27        0.01307  -0.00027   0.00088  -0.01282  -0.01196   0.00112
   D28       -3.12764  -0.00021   0.00094  -0.01117  -0.01025  -3.13790
   D29        0.00087  -0.00002   0.00009  -0.00081  -0.00072   0.00015
   D30       -3.13739   0.00004   0.00039   0.00168   0.00206  -3.13533
   D31        3.14154  -0.00008   0.00002  -0.00254  -0.00251   3.13904
   D32        0.00328  -0.00003   0.00032  -0.00005   0.00027   0.00356
   D33        0.00267  -0.00002   0.00008  -0.00080  -0.00072   0.00195
   D34       -3.14103  -0.00003  -0.00010  -0.00137  -0.00148   3.14068
   D35       -3.13892   0.00001   0.00021   0.00065   0.00086  -3.13805
   D36        0.00057  -0.00000   0.00003   0.00008   0.00011   0.00068
   D37        0.00018  -0.00002  -0.00005  -0.00137  -0.00143  -0.00125
   D38        3.13851  -0.00002  -0.00026  -0.00088  -0.00114   3.13736
   D39       -3.13931  -0.00001   0.00013  -0.00081  -0.00068  -3.13998
   D40       -0.00098  -0.00001  -0.00008  -0.00031  -0.00039  -0.00137
   D41       -0.00197   0.00004  -0.00003   0.00216   0.00213   0.00016
   D42        3.13621  -0.00002  -0.00034  -0.00040  -0.00074   3.13547
   D43       -3.14028   0.00003   0.00018   0.00166   0.00184  -3.13844
   D44       -0.00210  -0.00002  -0.00013  -0.00090  -0.00103  -0.00313
         Item               Value     Threshold  Converged?
 Maximum Force            0.005631     0.000450     NO 
 RMS     Force            0.000845     0.000300     NO 
 Maximum Displacement     0.173154     0.001800     NO 
 RMS     Displacement     0.047213     0.001200     NO 
 Predicted change in Energy=-1.929056D-04
 GradGradGradGradGradGradGradGradGradGradGradGradGradGradGradGradGradGrad

                          Input orientation:                          
 ---------------------------------------------------------------------
 Center     Atomic      Atomic             Coordinates (Angstroms)
 Number     Number       Type             X           Y           Z
 ---------------------------------------------------------------------
      1          6           0        1.108144    0.479747   -0.136765
      2          6           0       -1.277852    0.567447    0.192000
      3         16           0       -0.100614   -0.714452    0.261032
      4         16           0        2.836341   -0.001154   -0.268469
      5          8           0        2.873248   -1.376319    0.191894
      6          8           0        3.317948    0.425860   -1.561696
      7          7           0        3.638577    0.908424    0.854081
      8          1           0        3.353374    0.711359    1.809453
      9          7           0        0.729574    1.694211   -0.307891
     10          6           0       -0.641560    1.785593   -0.127423
     11          6           0       -2.659943    0.504430    0.399174
     12          6           0       -3.387060    1.679052    0.282663
     13          6           0       -2.759968    2.898712   -0.036128
     14          6           0       -1.393326    2.963498   -0.242371
     15          1           0        3.629169    1.900541    0.629757
     16          1           0       -3.148237   -0.433866    0.641881
     17          1           0       -4.461307    1.656419    0.437888
     18          1           0       -3.360615    3.798532   -0.123248
     19          1           0       -0.892464    3.892506   -0.494275
 ---------------------------------------------------------------------
                    Distance matrix (angstroms):
                    1          2          3          4          5
     1  C    0.000000
     2  C    2.410136   0.000000
     3  S    1.745122   1.741815   0.000000
     4  S    1.798688   4.178747   3.068366   0.000000
     5  O    2.582362   4.583651   3.047409   1.450647   0.000000
     6  O    2.629937   4.921065   4.038467   1.444549   2.553564
     7  N    2.751114   4.972513   4.119099   1.652583   2.498854
     8  H    2.980346   4.907659   4.044821   2.256713   2.684291
     9  N    1.283559   2.355685   2.610468   2.704493   3.778000
    10  C    2.183297   1.410949   2.587227   3.912564   4.738515
    11  C    3.806090   1.398952   2.838119   5.559721   5.847767
    12  C    4.671307   2.385926   4.065717   6.469742   6.966706
    13  C    4.563311   2.771914   4.496156   6.307288   7.075380
    14  C    3.526687   2.437842   3.930882   5.165261   6.101332
    15  H    2.993623   5.103688   4.570058   2.247627   3.391306
    16  H    4.422416   2.168723   3.084118   6.068868   6.111382
    17  H    5.721326   3.373531   4.966684   7.516792   7.940637
    18  H    5.566356   3.857096   5.580528   7.270555   8.107987
    19  H    3.972049   3.416946   4.735143   5.395884   6.512445
                    6          7          8          9         10
     6  O    0.000000
     7  N    2.484281   0.000000
     8  H    3.383402   1.016322   0.000000
     9  N    3.143314   3.229542   3.511904   0.000000
    10  C    4.425350   4.477985   4.567818   1.385976   0.000000
    11  C    6.291769   6.327835   6.179942   3.661195   2.447968
    12  C    7.066066   7.090836   6.978608   4.158805   2.778001
    13  C    6.736722   6.759815   6.750084   3.701565   2.394790
    14  C    5.511472   5.544870   5.640325   2.474285   1.402079
    15  H    2.659701   1.017205   1.697616   3.054408   4.338855
    16  H    6.885233   6.921533   6.704157   4.524180   3.435295
    17  H    8.125849   8.144988   7.990217   5.244317   3.863513
    18  H    7.618875   7.635220   7.638299   4.603467   3.383076
    19  H    5.557391   5.590451   5.783943   2.738293   2.153281
                   11         12         13         14         15
    11  C    0.000000
    12  C    1.386366   0.000000
    13  C    2.435585   1.407992   0.000000
    14  C    2.839527   2.429082   1.383635   0.000000
    15  H    6.446334   7.028300   6.500832   5.207297   0.000000
    16  H    1.085236   2.156501   3.422940   3.924754   7.168183
    17  H    2.138572   1.085640   2.159291   3.403486   8.096432
    18  H    3.408074   2.158160   1.085377   2.140490   7.281928
    19  H    3.924448   3.424328   2.164509   1.085069   5.067202
                   16         17         18         19
    16  H    0.000000
    17  H    2.476905   0.000000
    18  H    4.306241   2.472861   0.000000
    19  H    5.009677   4.313428   2.497652   0.000000
 Stoichiometry    C7H6N2O2S2
 Framework group  C1[X(C7H6N2O2S2)]
 Deg. of freedom    51
 Full point group                 C1      NOp   1
 Largest Abelian subgroup         C1      NOp   1
 Largest concise Abelian subgroup C1      NOp   1
                         Standard orientation:                         
 ---------------------------------------------------------------------
 Center     Atomic      Atomic             Coordinates (Angstroms)
 Number     Number       Type             X           Y           Z
 ---------------------------------------------------------------------
      1          6           0       -0.666210   -0.012075   -0.082702
      2          6           0        1.640480    0.680960    0.004697
      3         16           0        0.126242    1.541445   -0.019107
      4         16           0       -2.462346   -0.103407   -0.111556
      5          8           0       -2.905208    1.259551    0.113374
      6          8           0       -2.847620   -0.894090   -1.257465
      7          7           0       -2.885378   -0.978292    1.225102
      8          1           0       -2.630709   -0.525938    2.098846
      9          7           0        0.064383   -1.067414   -0.086731
     10          6           0        1.402351   -0.709095   -0.037938
     11          6           0        2.941854    1.192027    0.052674
     12          6           0        3.993266    0.288421    0.059057
     13          6           0        3.764368   -1.100183    0.016333
     14          6           0        2.478247   -1.608116   -0.032053
     15          1           0       -2.577051   -1.946093    1.170311
     16          1           0        3.123392    2.261558    0.082436
     17          1           0        5.012734    0.659908    0.095070
     18          1           0        4.611304   -1.778958    0.018749
     19          1           0        2.281444   -2.674475   -0.071071
 ---------------------------------------------------------------------
 Rotational constants (GHZ):           1.7307274           0.3875890           0.3391606
 Basis read from rwf:  (6D, 7F)
 There are   267 symmetry adapted cartesian basis functions of A   symmetry.
 There are   267 symmetry adapted basis functions of A   symmetry.
   267 basis functions,   488 primitive gaussians,   267 cartesian basis functions
    55 alpha electrons       55 beta electrons
       nuclear repulsion energy      1011.1216234743 Hartrees.
 NAtoms=   19 NActive=   19 NUniq=   19 SFac= 1.00D+00 NAtFMM=   60 NAOKFM=F Big=F
 Integral buffers will be    131072 words long.
 Raffenetti 2 integral format.
 Two-electron integral symmetry is turned on.
 One-electron integrals computed using PRISM.
 NBasis=   267 RedAO= T EigKep=  1.82D-06  NBF=   267
 NBsUse=   267 1.00D-06 EigRej= -1.00D+00 NBFU=   267
 Initial guess from the checkpoint file:  "/jobfs/45202644.gadi-pbs/Gau-4133479.chk"
 B after Tr=     0.000000    0.000000    0.000000
         Rot=    0.999864   -0.016465   -0.000274    0.000459 Ang=  -1.89 deg.
 ExpMin= 4.05D-02 ExpMax= 2.19D+04 ExpMxC= 3.30D+03 IAcc=3 IRadAn=         5 AccDes= 0.00D+00
 Harris functional with IExCor= 1009 and IRadAn=       5 diagonalized for initial guess.
 HarFok:  IExCor= 1009 AccDes= 0.00D+00 IRadAn=         5 IDoV= 1 UseB2=F ITyADJ=14
 ICtDFT=  3500011 ScaDFX=  1.000000  1.000000  1.000000  1.000000
 FoFCou: FMM=F IPFlag=           0 FMFlag=      100000 FMFlg1=           0
         NFxFlg=           0 DoJE=T BraDBF=F KetDBF=T FulRan=T
         wScrn=  0.000000 ICntrl=       500 IOpCl=  0 I1Cent=   200000004 NGrid=           0
         NMat0=    1 NMatS0=      1 NMatT0=    0 NMatD0=    1 NMtDS0=    0 NMtDT0=    0
 Petite list used in FoFCou.
 Requested convergence on RMS density matrix=1.00D-08 within 128 cycles.
 Requested convergence on MAX density matrix=1.00D-06.
 Requested convergence on             energy=1.00D-06.
 No special actions if energy rises.
 SCF Done:  E(RM062X) =  -1326.35443359     A.U. after   14 cycles
            NFock= 14  Conv=0.42D-08     -V/T= 2.0053
 Calling FoFJK, ICntrl=      2127 FMM=F ISym2X=0 I1Cent= 0 IOpClX= 0 NMat=1 NMatS=1 NMatT=0.
 ***** Axes restored to original set *****
 -------------------------------------------------------------------
 Center     Atomic                   Forces (Hartrees/Bohr)
 Number     Number              X              Y              Z
 -------------------------------------------------------------------
      1        6          -0.000301232    0.000229065   -0.000508589
      2        6           0.000112976   -0.000232419   -0.000483748
      3       16          -0.000017486    0.000098848    0.000444756
      4       16          -0.000298170    0.000411330    0.001523202
      5        8           0.000321406    0.000447440   -0.000773507
      6        8           0.000102309   -0.000950303   -0.000523524
      7        7           0.000135733   -0.000015594   -0.000765905
      8        1          -0.000121027   -0.000318156    0.000299867
      9        7           0.000450501   -0.000033627    0.001257389
     10        6          -0.000280399    0.000103003   -0.000399070
     11        6           0.000027341   -0.000053698   -0.000095547
     12        6           0.000024764   -0.000005952   -0.000028939
     13        6          -0.000017225    0.000072828    0.000022345
     14        6           0.000052440   -0.000065807   -0.000044326
     15        1          -0.000245027    0.000302271   -0.000032462
     16        1          -0.000019506   -0.000014574    0.000025451
     17        1           0.000025421   -0.000042767    0.000043262
     18        1           0.000023431    0.000011539    0.000021921
     19        1           0.000023751    0.000056572    0.000017425
 -------------------------------------------------------------------
 Cartesian Forces:  Max     0.001523202 RMS     0.000388781

 GradGradGradGradGradGradGradGradGradGradGradGradGradGradGradGradGradGrad
 Berny optimization.
 Using GEDIIS/GDIIS optimizer.
 FormGI is forming the generalized inverse of G from B-inverse, IUseBI=4.
 Internal  Forces:  Max     0.000869506 RMS     0.000239965
 Search for a local minimum.
 Step number   3 out of a maximum of  106
 All quantities printed in internal units (Hartrees-Bohrs-Radians)
 Mixed Optimization -- En-DIIS/RFO-DIIS
 Swapping is turned off.
 Update second derivatives using D2CorX and points    1    2    3
 DE= -2.40D-04 DEPred=-1.93D-04 R= 1.24D+00
 TightC=F SS=  1.41D+00  RLast= 2.03D-01 DXNew= 8.4853D-01 6.0836D-01
 Trust test= 1.24D+00 RLast= 2.03D-01 DXMaxT set to 6.08D-01
 ITU=  1  1  0
     Eigenvalues ---    0.00229   0.01204   0.01781   0.01860   0.01989
     Eigenvalues ---    0.02072   0.02100   0.02109   0.02136   0.02186
     Eigenvalues ---    0.02191   0.02216   0.02933   0.04393   0.10305
     Eigenvalues ---    0.13331   0.13470   0.15817   0.16000   0.16000
     Eigenvalues ---    0.16000   0.16004   0.16099   0.19302   0.22003
     Eigenvalues ---    0.22585   0.24290   0.24714   0.24999   0.25050
     Eigenvalues ---    0.25318   0.27389   0.30629   0.31024   0.35328
     Eigenvalues ---    0.35335   0.35348   0.35377   0.38964   0.42325
     Eigenvalues ---    0.43462   0.43954   0.44115   0.45239   0.46097
     Eigenvalues ---    0.46418   0.47070   0.47809   0.68119   0.89146
     Eigenvalues ---    0.94316
 En-DIIS/RFO-DIIS/Sim-DIIS IScMMF=       -3 using points:     3    2
 RFO step:  Lambda=-2.81177730D-04.
 DidBck=F Rises=F RFO-DIIS coefs:    2.52038   -1.52038
 Iteration  1 RMS(Cart)=  0.08082265 RMS(Int)=  0.00229794
 Iteration  2 RMS(Cart)=  0.00315399 RMS(Int)=  0.00002721
 Iteration  3 RMS(Cart)=  0.00000330 RMS(Int)=  0.00002711
 Iteration  4 RMS(Cart)=  0.00000000 RMS(Int)=  0.00002711
 Variable       Old X    -DE/DX   Delta X   Delta X   Delta X     New X
                                 (Linear)    (Quad)   (Total)
    R1        3.29780  -0.00002   0.00547  -0.00254   0.00292   3.30073
    R2        3.39903  -0.00005   0.01177  -0.00603   0.00574   3.40477
    R3        2.42557  -0.00028  -0.00162   0.00023  -0.00140   2.42417
    R4        3.29155  -0.00011  -0.00005  -0.00041  -0.00046   3.29109
    R5        2.66631   0.00005   0.00088  -0.00022   0.00067   2.66698
    R6        2.64364  -0.00006  -0.00040   0.00012  -0.00029   2.64335
    R7        2.74133  -0.00066  -0.00818   0.00272  -0.00546   2.73586
    R8        2.72980   0.00022  -0.01226   0.00593  -0.00633   2.72347
[...]
 .08149348,-0.21627678,0.99841099,0.00599836,0.02603464,-0.01128268,0.0
 0034012,-0.00000283,-0.00082524,0.00114295,-0.00004991,0.00064760,-0.0
 9148501,0.04604073,-0.02543419,0.06626339,-0.00900054,-0.01520047,0.01
 271635,0.00352186,-0.00142901,-0.00046091,0.00339618,-0.00016531,0.000
 06373,0.03355805,-0.47833568,0.23384884,-0.04318970,0.51909878,0.00677
 873,0.00610970,0.00540161,-0.00108446,0.00020195,0.00083360,-0.0011508
 1,-0.00009536,-0.00136704,-0.01957617,0.22423310,-0.21888380,0.0236940
 7,-0.25527077,0.20419814,-0.00027020,0.00117798,0.02455614,-0.00208948
 ,0.00096823,-0.00018650,-0.00092710,0.00125170,0.00102017,-0.12173262,
 -0.01489850,0.15094826,0.01871716,0.00410202,-0.00365256,0.09893701,0.
 00486087,0.00683342,-0.00444219,0.00134545,0.00027391,-0.00027662,0.00
 192038,-0.00086232,-0.00058587,-0.01326402,-0.09082885,0.04607244,-0.0
 0909786,0.00687515,0.03439620,0.01472771,0.06468528,-0.00178579,0.0058
 6593,-0.00750064,0.00135168,0.00046748,-0.00001736,0.00178557,-0.00232
 129,-0.00131962,0.13256496,0.05707376,-0.58873780,0.00882438,-0.006317
 88,-0.00571234,-0.15270154,-0.04790989,0.63309261,-0.01004106,-0.01872
 133,-0.01375656,-0.00287806,-0.00089471,0.00076652,-0.00292772,0.00321
 151,-0.00181534,-0.09976902,-0.04797960,-0.03221812,0.00842023,0.00181
 097,-0.00041171,0.01049783,0.00340073,0.00698939,0.14071407,0.00217678
 ,-0.00153878,-0.00429419,0.00053998,-0.00023852,-0.00011593,0.00092932
 ,0.00090952,-0.00022057,-0.07936019,-0.16511111,-0.04780598,-0.0210306
 0,-0.02848425,-0.01270801,-0.00302009,0.00926811,0.00191739,0.05837898
 ,0.62397686,-0.00063181,-0.00751781,0.00563321,-0.00090968,-0.00041054
 ,0.00028837,-0.00084935,0.00175206,-0.00039591,-0.05335219,-0.04568318
 ,-0.13989883,0.00770675,0.01962890,0.01321879,-0.01907568,-0.02816483,
 -0.02900672,-0.01516787,-0.07984585,0.70474198,-0.00059469,-0.00172201
 ,0.00116938,0.00016927,-0.00013130,-0.00012796,-0.00003408,0.00019631,
 0.00007047,-0.00198485,-0.00436782,-0.02344035,-0.00152176,0.00210012,
 0.00074579,0.00184927,-0.00332440,-0.00385474,-0.02967800,-0.01078880,
 0.11004506,0.03539048,0.00010026,-0.00009725,0.00111956,-0.00010304,-0
 .00001233,-0.00001939,-0.00026689,-0.00010342,0.00003950,0.01029514,0.
 00727869,-0.02437594,0.00002091,-0.00103318,0.00414500,-0.00372805,-0.
 00313867,-0.00588054,-0.01382303,-0.06506362,-0.00527985,0.01457675,0.
 05654192,0.00015429,-0.00000517,0.00130366,0.00036464,0.00001736,-0.00
 005465,0.00022958,-0.00003203,0.00008857,0.00461820,-0.00192784,-0.016
 72508,-0.00017081,0.00229406,0.00191233,-0.00141802,-0.00156643,0.0005
 8600,0.07251549,0.00992627,-0.42676780,-0.08058354,-0.00418296,0.44685
 393,-0.11739422,0.11424501,-0.00022351,-0.04276833,-0.04349077,0.00689
 450,-0.00595138,0.01605366,0.00059753,-0.01150609,0.02749916,-0.003281
 40,-0.00629615,0.00724578,-0.00396422,0.00001257,-0.00134666,0.0025466
 3,-0.00098503,0.00016751,0.00091219,-0.00022177,-0.00003456,0.00025759
 ,0.48341070,0.10085139,-0.48484120,0.02326900,-0.01189657,0.00223102,0
 .00161187,-0.03852231,-0.07711936,0.01094741,0.01684560,-0.01678971,0.
 00090318,0.00101575,-0.00029191,0.00072460,-0.00098388,0.00221059,-0.0
 0212093,-0.00126412,0.00294905,0.00056642,0.00089159,-0.00030039,0.000
 40140,-0.11282051,0.65822082,-0.00351095,0.02412193,-0.05773461,0.0048
 0651,0.00271096,0.00856249,0.00491809,0.00713216,0.02139083,-0.0024349
 4,-0.00290367,-0.00999697,-0.00083149,0.00120848,0.00226127,0.00277907
 ,0.00017869,0.00066879,0.00007616,0.00059167,0.00164708,0.00045492,-0.
 00035092,0.00017157,-0.02028277,-0.03548916,0.09626120,-0.05589996,0.0
 8442834,-0.00448755,-0.14758543,-0.08612870,0.01209366,-0.00679313,-0.
 02201460,0.00234854,0.01152455,0.00157436,-0.00094209,-0.00158255,0.00
 081147,0.00040211,-0.00265494,-0.00099397,0.00187143,-0.00021555,-0.00
 159638,-0.00048358,-0.00021456,0.00014367,-0.00004351,-0.26108684,0.00
 141877,0.01478002,0.66411429,0.04756331,-0.04841069,0.00078015,-0.0415
 1451,-0.25064198,0.01650612,0.02215241,-0.03687915,0.00157719,-0.00408
 155,-0.00641696,0.00120216,0.00273349,-0.00055361,0.00041092,0.0006009
 5,0.00102859,-0.00072074,-0.00069377,0.00174385,0.00015989,0.00018714,
 -0.00007199,0.00011981,-0.02293061,-0.07964429,0.00270329,-0.07536980,
 0.72517735,0.00135822,-0.00063481,0.00733254,0.00890524,0.01950901,-0.
 07109332,-0.00101104,0.00478782,0.00294123,-0.00012480,0.00007723,0.00
 905482,0.00108875,-0.00140242,-0.00114970,-0.00195906,-0.00005625,0.00
 066607,-0.00019342,0.00119478,-0.00073342,-0.00001203,-0.00021964,0.00
 011939,0.01523165,0.00128814,-0.06721826,-0.02852264,-0.03797789,0.162
 99502,0.00491241,-0.00891773,0.00110228,-0.33024032,-0.00442766,0.0197
 5335,-0.01805869,0.02232708,-0.00077186,-0.00325427,0.00076696,-0.0000
 7449,0.00052382,-0.00102192,0.00020298,0.00095472,-0.00007935,-0.00029
 379,0.00061667,0.00017239,0.00018449,-0.00013306,0.00002387,-0.0001069
 0,-0.00977078,0.00269837,0.00042335,-0.00951081,-0.07239437,0.00607877
 ,0.67896956,0.00270848,-0.00412866,-0.00004609,-0.05189163,-0.11481988
 ,0.00821410,0.02761292,-0.00326048,-0.00179236,-0.00096729,0.00065045,
 0.00060598,0.00042721,0.00037939,-0.00007170,0.00035861,-0.00004120,-0
 .00070376,0.00094848,0.00052760,0.00036769,-0.00000200,-0.00000963,-0.
 00007573,-0.00251224,-0.00486214,0.00094686,-0.02788558,0.03593474,-0.
 00044299,0.02974095,0.75487535,-0.00034059,0.00104376,0.00018218,0.023
 14677,0.00507015,-0.05568792,-0.00119318,-0.00155166,-0.00117724,0.000
 33407,0.00021133,0.00199143,-0.00002217,-0.00009472,-0.00004693,-0.000
 70251,0.00023811,0.00048990,0.00060828,-0.00001010,-0.00019797,-0.0000
 3726,0.00001950,-0.00008760,0.00121774,0.00037074,0.00423013,0.0027803
 6,0.00242372,0.00222287,-0.03976688,-0.04988263,0.13632734,-0.00287261
 ,-0.00167772,0.00024813,-0.03202381,0.03000836,0.00026252,-0.00122927,
 -0.00320518,0.00069054,0.00168724,-0.00085170,-0.00004775,-0.00031895,
 0.00036136,-0.00015341,-0.00057258,0.00015273,0.00043491,-0.00069048,-
 0.00019842,-0.00021038,0.00007605,-0.00000917,0.00010191,-0.00166325,0
 .00253401,-0.00015325,-0.00032415,-0.00034635,-0.00034745,-0.18884772,
 0.14059990,-0.00208815,0.75145740,0.00465435,-0.01283025,0.00162458,0.
 08571801,0.02687436,-0.00732639,-0.00652226,0.01709849,-0.00067807,-0.
 00357575,0.00071435,-0.00016008,0.00049619,-0.00109937,0.00019770,0.00
 104270,-0.00002894,-0.00035843,0.00047359,0.00015359,0.00013438,-0.000
 12008,0.00001135,-0.00010742,-0.01534383,0.00627060,0.00009872,0.01509
 793,-0.07060077,0.00361938,0.06560997,-0.31169590,0.01480883,-0.021732
 32,0.67610614,-0.00017997,0.00117106,0.00087729,-0.00391874,-0.0035840
 8,0.00704448,0.00078576,-0.00077104,0.00399196,0.00020997,-0.00005796,
 -0.00005583,0.00001735,0.00009686,-0.00003310,-0.00005551,0.00001092,-
 0.00001933,0.00006881,-0.00000998,0.00003996,-0.00001273,-0.00000227,-
 0.00001376,0.00119131,-0.00080788,-0.00152565,-0.00149315,0.00503409,-
 0.00568525,0.00360957,0.00965006,-0.06225622,-0.03965388,-0.03976441,0
 .14323112,-0.00488539,0.01564277,-0.00173441,-0.05498425,-0.02226324,0
 .00507037,0.00009881,-0.01225806,0.00094221,0.00424059,-0.00049062,-0.
 00009614,-0.00077521,0.00100990,-0.00014456,-0.00120353,-0.00003940,0.
 00059489,-0.00068846,-0.00035449,-0.00021678,0.00012071,0.00001014,0.0
 0013581,0.01968035,-0.00779098,0.00004306,-0.04469633,0.07393270,-0.00
 198131,0.06966795,-0.02346882,-0.00252817,-0.17191137,-0.03931535,0.01
 021539,0.72223044,-0.00331055,0.00530611,-0.00078686,-0.03653842,-0.01
 485799,0.00321233,0.00344445,-0.00794210,0.00037335,0.00206592,-0.0011
 9620,0.00011834,-0.00003917,0.00052259,-0.00004905,-0.00063464,0.00016
 441,0.00018501,-0.00035961,-0.00003219,-0.00006687,0.00009335,-0.00001
 888,0.00006450,0.01213690,-0.00867026,0.00062105,0.01879670,0.04102777
 ,-0.00385742,0.03233795,-0.05672259,0.00260797,-0.11470742,-0.27423140
 ,0.02382184,-0.04870035,0.71191436,0.00062524,-0.00154728,0.00026588,0
 .00610873,0.00225031,-0.00534182,-0.00032807,0.00131983,-0.00121532,-0
 .00048028,0.00009241,-0.00048919,-0.00003849,-0.00006129,0.00009247,0.
 00023606,0.00000859,0.00000092,0.00005096,0.00004771,0.00005293,0.0000
 0581,-0.00000689,-0.00001230,-0.00180204,0.00180285,0.00685897,0.00191
 559,-0.00784155,0.00497426,-0.00659560,0.00646649,0.00726423,0.0160394
 9,0.01889741,-0.06724347,-0.03550576,-0.04117167,0.14325791,-0.0012648
 9,-0.01816162,0.00283467,0.06498744,0.01791628,-0.00533142,0.00047862,
 0.00898919,-0.00061134,-0.00225643,0.00103993,0.00006248,0.00008298,-0
 .00010667,-0.00028335,0.00067119,0.00000137,-0.00017477,0.00031189,0.0
 0013433,0.00012068,-0.00006251,-0.00000762,-0.00004917,-0.04489009,0.0
 4699780,-0.00105341,-0.14810796,0.05372896,0.00153492,-0.05712418,0.03
 134044,0.00141536,-0.02368950,-0.08490077,0.00855701,-0.37617174,0.026
 97212,0.01896328,0.72667393,-0.00735699,0.01428690,-0.00108241,-0.0230
 0899,-0.04508776,0.00529987,-0.00168051,-0.00974509,0.00120089,0.00481
 036,-0.00009562,0.00003499,-0.00095799,0.00121473,-0.00028173,-0.00139
 569,-0.00011228,0.00070184,-0.00071613,-0.00051391,-0.00023587,0.00013
 671,0.00003386,0.00012383,0.02157880,-0.00246765,-0.00111607,0.1068840
 7,-0.29404975,0.01013644,0.02953346,-0.01729141,-0.00091482,-0.0291975
 7,0.03642408,-0.00037239,-0.04455129,-0.13440993,0.00854959,0.04296338
 ,0.73084089,0.00072286,0.00066294,0.00395423,-0.00240708,0.00278731,0.
 00547858,0.00026480,0.00035722,0.00372437,0.00002519,0.00011516,0.0008
 4602,0.00032433,-0.00017637,-0.00014754,-0.00022081,-0.00005662,0.0000
 8705,0.00021703,0.00004060,0.00010033,-0.00001540,-0.00000799,-0.00007
 029,0.00149276,-0.00339417,-0.00177434,-0.00243703,0.01384889,-0.06256
 126,0.00149561,-0.00105498,-0.00251911,0.00433606,0.00355048,0.0062342
 4,0.02455828,0.00365452,-0.06441343,-0.04366178,-0.04866749,0.14278004
 ,-0.00050442,-0.00133155,-0.00049306,0.00056792,0.00029959,-0.00020983
 ,0.00071656,0.00021147,0.00001387,-0.00324181,-0.02328105,0.00349633,0
 .00076116,-0.00476620,-0.00132900,-0.00195907,0.00175118,0.00168539,-0
 .01242225,0.05397017,-0.02799444,-0.00319908,-0.00720513,0.00395319,0.
 00037689,0.00076938,0.00007916,-0.00094595,0.00103141,0.00020054,0.000
 01253,0.00001140,0.00000538,0.00008297,0.00002043,-0.00001924,-0.00001
 315,-0.00001219,0.00000873,0.00008134,-0.00004712,0.00002710,0.0196449
 1,-0.00000047,0.00110376,0.00003921,0.00047548,0.00004801,0.00002001,0
 .00025445,-0.00045928,0.00009934,0.00397470,-0.02221906,0.01001525,-0.
 00254965,-0.00157561,-0.00190891,0.00030188,0.00361476,0.00029241,0.01
 608551,-0.37869854,0.14452006,0.00226327,0.00600551,-0.00504313,0.0004
 8848,-0.00030421,-0.00003608,0.00001657,0.00026288,0.00009140,-0.00011
 403,-0.00010039,-0.00008386,0.00009247,-0.00007426,0.00002215,0.000104
 70,0.00001099,-0.00002902,-0.00001982,0.00020114,-0.00001161,-0.021450
 71,0.39223680,0.00013877,-0.00024736,-0.00062617,0.00003976,-0.0000747
 8,-0.00009886,-0.00000175,0.00005510,0.00008137,0.00532845,-0.01470234
 ,0.01522679,-0.00369370,-0.00606379,-0.00052085,0.00028986,0.00219307,
 -0.00300399,-0.01752257,0.13139122,-0.12860006,-0.00438928,0.03497189,
 -0.00734905,-0.00064559,0.00032720,-0.00080544,-0.00008868,0.00010071,
 -0.00007087,0.00002117,0.00008017,0.00008337,-0.00002060,0.00000231,0.
 00000750,-0.00002900,0.00000516,-0.00003248,-0.00000910,-0.00004820,0.
 00000496,0.02059838,-0.14800890,0.12564343,-0.00036863,-0.00147038,0.0
 0009729,-0.01036077,-0.02776302,0.00295750,0.00080015,-0.00016860,-0.0
 0017910,0.00017094,-0.00006606,0.00000634,-0.00003274,0.00011467,-0.00
 004030,-0.00004600,0.00003260,0.00001692,-0.00003027,0.00004136,0.0000
 1005,0.00001615,-0.00000586,0.00001448,-0.00175760,-0.00064969,0.00017
 912,-0.00370906,0.00229633,0.00051428,-0.12608088,-0.12229622,0.015382
 07,0.01268227,0.01512124,-0.00172740,-0.00116327,0.00318741,0.00034823
 ,-0.00102668,0.00073914,-0.00003327,0.00003873,0.00000820,0.00000192,0
 .12962408,-0.00034903,-0.00012855,-0.00001375,0.00148319,0.00478464,-0
 .00031085,-0.00053885,0.00036747,-0.00012578,0.00027416,-0.00000563,-0
 .00002310,-0.00008178,0.00001373,-0.00001048,-0.00007498,0.00000160,0.
 00005431,-0.00008725,-0.00003266,-0.00002975,0.00000980,0.00000038,0.0
 0001537,0.00044521,0.00043765,-0.00004278,0.00081841,0.00108220,0.0003
 5163,-0.12152437,-0.28036868,0.02682354,-0.01501491,-0.01760786,0.0026
 5748,0.00406453,-0.00259997,0.00050398,0.00076724,0.00021265,-0.000127
 94,0.00001079,0.00000974,-0.00000327,0.13061170,0.29384596,0.00005388,
 0.00004025,-0.00054114,0.00079212,0.00172582,0.00200287,-0.00010253,-0
 .00016900,-0.00179808,-0.00004920,0.00004376,0.00016708,0.00000652,-0.
 00002901,-0.00002335,-0.00001464,-0.00001197,-0.00004485,0.00000503,-0
 .00000509,-0.00002943,-0.00000858,-0.00000108,0.00000330,0.00007112,0.
 00006487,0.00016650,0.00066873,0.00023766,0.00641396,0.01522489,0.0268
 3683,-0.03956606,0.00057367,0.00059897,0.00403452,0.00030900,0.0005835
 7,0.00754650,-0.00006578,-0.00011235,-0.00074589,-0.00000175,-0.000002
 83,0.00000781,-0.01705494,-0.02934141,0.02807952,-0.00003999,0.0004100
 3,-0.00003228,0.00030813,0.00265884,0.00024131,-0.00040310,-0.00033932
 ,0.00011811,0.00028756,-0.00008026,-0.00006622,-0.00009452,0.00005143,
 -0.00001954,-0.00008095,0.00000900,0.00007782,-0.00013016,-0.00003339,
 -0.00003488,0.00001895,-0.00000282,0.00002086,-0.00006514,-0.00013406,
 -0.00001529,0.00066306,-0.00004454,-0.00007057,-0.01105836,-0.00220784
 ,0.00117128,-0.34859656,-0.00372294,0.02107636,-0.00966008,0.00229175,
 0.00069511,0.00055863,-0.00266813,0.00056738,0.00003061,0.00001026,-0.
 00000515,0.00067328,0.00005226,-0.00036083,0.36747978,0.00015138,-0.00
 078406,0.00005628,0.00276781,-0.00426604,0.00069272,0.00105890,0.00071
 550,-0.00008912,-0.00022253,0.00006199,0.00001495,0.00007572,0.0000010
 7,0.00000257,0.00008322,-0.00000525,-0.00009053,0.00010153,0.00005026,
 0.00004803,-0.00000315,-0.00000221,-0.00001065,-0.00029105,0.00060515,
 -0.00006191,0.00055625,-0.00164427,0.00005468,0.02807212,0.00416849,-0
 .00189482,-0.00407854,-0.05936782,0.00191013,-0.02829260,0.00452093,0.
 00180877,-0.00230549,-0.00478013,0.00098529,-0.00000540,-0.00001774,0.
 00000526,-0.00043116,0.00094780,-0.00040167,0.00372143,0.05883754,-0.0
 0006173,0.00003862,-0.00005379,0.00024629,0.00067752,0.00707062,0.0000
 2951,0.00006466,0.00081227,-0.00000415,-0.00004582,-0.00036219,0.00000
 737,0.00001928,0.00000224,0.00012927,-0.00004353,-0.00008782,-0.000162
 07,-0.00002851,0.00000223,0.00001345,0.00000453,0.00002005,-0.00000152
 ,-0.00006536,-0.00041149,-0.00010161,0.00011709,-0.00044230,-0.0011155
 0,0.00009738,0.00402563,0.02105311,0.00192381,-0.03968142,0.00303042,-
 0.00023594,0.00323200,0.00055240,0.00099265,0.00591756,0.00000170,0.00
 000940,-0.00000117,-0.00033012,-0.00043007,-0.00464820,-0.02311952,-0.
 00274653,0.02805680,-0.00063022,-0.00010413,-0.00000278,-0.00102511,-0
 .00053034,0.00007215,0.00021086,0.00001497,-0.00003302,0.00047110,0.00
 002398,-0.00003929,-0.00014952,0.00013888,-0.00005317,-0.00013391,-0.0
 0000275,0.00009700,-0.00012825,-0.00005434,-0.00003362,0.00002320,0.00
 000198,0.00002429,-0.00056320,0.00169621,-0.00003177,-0.00483411,-0.00
 215205,0.00100663,-0.00081728,-0.00320625,0.00067618,0.01207711,-0.014
 31041,0.00051271,-0.14168479,0.13087529,-0.00328188,-0.01192440,0.0282
 2101,-0.00113637,0.00003251,0.00002390,-0.00000636,0.00045562,-0.00076
 176,0.00003347,0.00063695,0.00043266,-0.00031022,0.14696193,0.00006608
 ,0.00013383,-0.00005351,-0.00110470,0.00028669,0.00001317,-0.00004220,
 -0.00002671,-0.00002233,-0.00020734,0.00006326,0.00000772,0.00004360,-
 0.00002153,0.00000874,0.00006588,-0.00000869,-0.00004965,0.00007891,0.
 00002137,0.00002017,-0.00001312,0.00000056,-0.00001261,0.00001503,0.00
 011827,0.00005333,-0.00120536,0.00144595,0.00060232,-0.00364667,-0.003
 33671,0.00095045,0.01650988,-0.01771498,0.00052178,0.13102178,-0.26776
 376,0.00907664,-0.00252084,0.00559575,0.00003001,-0.00001851,-0.000008
 39,0.00000357,0.00082401,-0.00095016,0.00002332,-0.00017903,0.00082598
 ,-0.00032969,-0.13996981,0.28078736,0.00001444,-0.00009640,-0.00068455
 ,0.00013939,-0.00005704,-0.00046836,-0.00003362,-0.00000361,-0.0003208
 1,-0.00005948,-0.00001428,-0.00011093,-0.00003154,0.00002510,0.0000277
 4,0.00005139,0.00001478,-0.00005104,-0.00000721,-0.00002353,-0.0000105
 6,-0.00000389,0.00000591,0.00000635,0.00008778,-0.00004620,0.00082943,
 0.00097926,0.00066314,0.00794150,0.00069294,0.00091062,0.00562299,-0.0
 0186344,0.00252077,0.00308592,-0.00332795,0.00915612,-0.03874314,0.001
 27828,-0.00200200,0.00385727,-0.00000685,-0.00000133,0.00000694,-0.000
 08563,0.00013128,0.00010569,-0.00026585,-0.00036593,-0.00350215,0.0028
 7100,-0.01040597,0.02716920,0.00034632,0.00035182,-0.00007857,-0.00123
 374,0.00257159,0.00028192,-0.00029294,0.00091813,-0.00001413,-0.000085
 81,0.00019758,0.00002817,0.00000625,-0.00013766,0.00003958,0.00003064,
 -0.00005363,-0.00003035,0.00002363,-0.00007413,-0.00001894,-0.00001970
 ,0.00001344,-0.00001838,0.00143936,-0.00165673,-0.00022556,0.01185945,
 0.01530084,-0.00169670,-0.00076131,0.00068948,-0.00005859,-0.00532279,
 0.00130933,0.00081634,-0.00820129,-0.02789948,0.00303489,-0.12732763,-
 0.12328651,0.01588034,-0.00006040,0.00003479,-0.00000651,0.00011468,-0
 .00010436,-0.00008019,-0.00052809,-0.00139108,0.00014291,0.00102153,0.
 00028243,-0.00042902,0.12899187,-0.00003897,-0.00061518,0.00003027,0.0
 0308219,-0.00242070,0.00042679,0.00017068,-0.00047619,0.00004262,-0.00
 022450,-0.00024914,0.00009526,0.00011125,0.00008451,-0.00003448,0.0000
 5494,0.00007039,-0.00008449,0.00004936,0.00011340,0.00003694,0.0000176
 5,-0.00002069,0.00000137,-0.00110531,0.00224799,-0.00036656,-0.0153521
 5,-0.01878988,0.00287858,0.00084296,0.00010165,-0.00013549,0.00076059,
 0.00159859,0.00047364,0.00173869,0.00497813,-0.00016687,-0.12282818,-0
 .28025646,0.02746476,0.00004206,-0.00003610,0.00001298,-0.00012569,-0.
 00001030,-0.00008065,0.00020732,0.00013281,-0.00001951,-0.00033702,0.0
 0055191,-0.00041143,0.13293413,0.29299527,-0.00003019,0.00001031,-0.00
 037703,0.00027981,0.00039156,0.00563388,0.00001519,0.00000508,0.000394
 40,0.00003095,0.00004695,0.00034038,0.00001320,-0.00002445,-0.00006354
 ,-0.00002340,0.00000140,-0.00008982,-0.00004282,-0.00004190,-0.0000841
 8,-0.00001911,0.00002156,0.00001539,-0.00029975,-0.00035397,-0.0035815
 1,0.00076013,0.00065533,0.00429272,-0.00006438,-0.00010595,-0.00090102
 ,0.00079797,0.00041748,0.00796705,0.00066465,0.00176405,0.00394509,0.0
 1592104,0.02779324,-0.04075279,-0.00001560,0.00001644,0.00004676,-0.00
 007743,-0.00007841,-0.00113075,0.00002190,0.00008247,0.00005114,-0.000
 36495,-0.00043745,-0.00476148,-0.01756720,-0.03016375,0.02905530\\0.00
 000532,0.00002574,0.00000655,0.00001031,-0.00000339,-0.00001145,-0.000
 00308,-0.00001435,0.00000985,0.00000398,0.00003705,0.00002596,-0.00000
 269,-0.00002716,0.00001457,0.00000887,0.00000725,-0.00002007,-0.000029
 56,-0.00002736,-0.00001803,-0.00000125,0.00000416,0.00000055,0.0000046
 3,-0.00001831,0.00000437,-0.00001290,0.00000572,0.00000143,-0.00000119
 ,0.00000320,-0.00000093,-0.00000021,0.00000315,0.00000021,-0.00000297,
 -0.00000100,-0.00000398,0.00000841,0.00000103,0.00000240,0.00001229,-0
 .00000039,-0.00000540,-0.00000067,0.00000158,0.00000069,-0.00000010,0.
 00000182,-0.00000102,0.00000103,0.00000130,-0.00000285,-0.00000023,-0.
 00000004,-0.00000284\\\@
 The archive entry for this job was punched.


 THE TEST OF A FIRST RATE INTELLIGENCE IS THE ABILITY TO HOLD TWO OPPOSED
 IDEAS IN THE MIND AT THE SAME TIME, AND STILL RETAIN THE ABILITY TO FUNCTION.
 ONE SHOULD, FOR EXAMPLE, BE ABLE TO SEE THAT THINGS ARE HOPELESS AND YET BE
 DETERMINED TO MAKE THEM OTHERWISE.

                                                       -- F. SCOTT FITZGERALD
 Job cpu time:       0 days  0 hours 56 minutes 13.5 seconds.
 Elapsed time:       0 days  0 hours  3 minutes 33.5 seconds.
 File lengths (MBytes):  RWF=    167 Int=      0 D2E=      0 Chk=      7 Scr=      1
 Normal termination of Gaussian 16 at Thu Jun 23 16:32:54 2022.
