 Entering Gaussian System, Link 0=g16
 AtFile(1): /home/561/yj5695/Basis/6-31pGd.gbs
 Initial command:
 /apps/gaussian/g16c01/g16/l1.exe "/jobfs/48845565.gadi-pbs/Gau-2287295.inp" -scrdir="/jobfs/48845565.gadi-pbs/"
 Entering Link 1 = /apps/gaussian/g16c01/g16/l1.exe PID=   2287317.
  
 Copyright (c) 1988-2019, Gaussian, Inc.  All Rights Reserved.
  
 This is part of the Gaussian(R) 16 program.  It is based on
 the Gaussian(R) 09 system (copyright 2009, Gaussian, Inc.),
 the Gaussian(R) 03 system (copyright 2003, Gaussian, Inc.),
 the Gaussian(R) 98 system (copyright 1998, Gaussian, Inc.),
 the Gaussian(R) 94 system (copyright 1995, Gaussian, Inc.),
 the Gaussian 92(TM) system (copyright 1992, Gaussian, Inc.),
 the Gaussian 90(TM) system (copyright 1990, Gaussian, Inc.),
 the Gaussian 88(TM) system (copyright 1988, Gaussian, Inc.),
 the Gaussian 86(TM) system (copyright 1986, Carnegie Mellon
 University), and the Gaussian 82(TM) system (copyright 1983,
 Carnegie Mellon University). Gaussian is a federally registered
 trademark of Gaussian, Inc.
  
 This software contains proprietary and confidential information,
 including trade secrets, belonging to Gaussian, Inc.
  
 This software is provided under written license and may be
 used, copied, transmitted, or stored only in accord with that
 written license.
  
 The following legend is applicable only to US Government
 contracts under FAR:
  
                    RESTRICTED RIGHTS LEGEND
  
 Use, reproduction and disclosure by the US Government is
 subject to restrictions as set forth in subparagraphs (a)
 and (c) of the Commercial Computer Software - Restricted
 Rights clause in FAR 52.227-19.
  
 Gaussian, Inc.
 340 Quinnipiac St., Bldg. 40, Wallingford CT 06492
  
  
 ---------------------------------------------------------------
 Warning -- This program may not be used in any manner that
 competes with the business of Gaussian, Inc. or will provide
 assistance to any competitor of Gaussian, Inc.  The licensee
 of this program is prohibited from giving any competitor of
 Gaussian, Inc. access to this program.  By using this program,
 the user acknowledges that Gaussian, Inc. is engaged in the
 business of creating and licensing software in the field of
 computational chemistry and represents and warrants to the
 licensee that it is not a competitor of Gaussian, Inc. and that
 it will not use this program in any manner prohibited above.
 ---------------------------------------------------------------
  

 Cite this work as:
 Gaussian 16, Revision C.01,
 M. J. Frisch, G. W. Trucks, H. B. Schlegel, G. E. Scuseria, 
 M. A. Robb, J. R. Cheeseman, G. Scalmani, V. Barone, 
 G. A. Petersson, H. Nakatsuji, X. Li, M. Caricato, A. V. Marenich, 
 J. Bloino, B. G. Janesko, R. Gomperts, B. Mennucci, H. P. Hratchian, 
 J. V. Ortiz, A. F. Izmaylov, J. L. Sonnenberg, D. Williams-Young, 
 F. Ding, F. Lipparini, F. Egidi, J. Goings, B. Peng, A. Petrone, 
 T. Henderson, D. Ranasinghe, V. G. Zakrzewski, J. Gao, N. Rega, 
 G. Zheng, W. Liang, M. Hada, M. Ehara, K. Toyota, R. Fukuda, 
 J. Hasegawa, M. Ishida, T. Nakajima, Y. Honda, O. Kitao, H. Nakai, 
 T. Vreven, K. Throssell, J. A. Montgomery, Jr., J. E. Peralta, 
 F. Ogliaro, M. J. Bearpark, J. J. Heyd, E. N. Brothers, K. N. Kudin, 
 V. N. Staroverov, T. A. Keith, R. Kobayashi, J. Normand, 
 K. Raghavachari, A. P. Rendell, J. C. Burant, S. S. Iyengar, 
 J. Tomasi, M. Cossi, J. M. Millam, M. Klene, C. Adamo, R. Cammi, 
 J. W. Ochterski, R. L. Martin, K. Morokuma, O. Farkas, 
 J. B. Foresman, and D. J. Fox, Gaussian, Inc., Wallingford CT, 2019.
 
 ******************************************
 Gaussian 16:  ES64L-G16RevC.01  3-Jul-2019
                29-Jun-2022 
 ******************************************
 %nproc=16
 Will use up to   16 processors via shared memory.
 %mem=50gb
 --------------------------------------------------
 #M062X/gen 6D INT(grid=ultrafine) OPT Freq=noraman
 --------------------------------------------------
 1/18=20,19=15,26=4,38=1/1,3;
 2/9=110,12=2,17=6,18=5,40=1/2;
 3/5=7,8=2,11=2,25=1,30=1,71=1,74=-55,75=-5/1,2,3;
 4//1;
 5/5=2,38=5/2;
 6/7=2,8=2,9=2,10=2,28=1/1;
 7//1,2,3,16;
 1/18=20,19=15,26=4/3(2);
 2/9=110/2;
 99//99;
 2/9=110/2;
 3/5=7,6=1,8=2,11=2,25=1,30=1,71=1,74=-55,75=-5,82=7/1,2,3;
 4/5=5,16=3,69=1/1;
 5/5=2,38=5/2;
 7//1,2,3,16;
 1/18=20,19=15,26=4/3(-5);
 2/9=110/2;
 6/7=2,8=2,9=2,10=2,19=2,28=1/1;
 99/9=1/99;
 ----------
 HA.29.freq
 ----------
 Symbolic Z-matrix:
 Charge =  0 Multiplicity = 1
 C                    -1.37311   0.30324  -1.12679 
 C                    -2.47414   0.70794  -1.90452 
 Cl                   -4.00647   1.08757  -1.1708 
 C                    -2.38211   0.81164  -3.27706 
 H                    -3.23902   1.12416  -3.86594 
 C                    -1.16341   0.51802  -3.91575 
 C                    -0.06386   0.09591  -3.14401 
 C                     1.18694  -0.3305   -3.81996 
 C                    -0.17867  -0.0122   -1.76467 
 H                     0.67435  -0.34903  -1.18472 
 S                    -1.42509   0.17616   0.64578 
 O                    -0.11704  -0.32447   1.0633 
 O                    -1.91157   1.43764   1.20236 
 N                    -2.51635  -0.97625   1.09006 
 H                    -2.30248  -1.88819   0.68143 
 H                    -3.48125  -0.70336   0.89841 
 N                    -1.03254   0.56517  -5.2755 
 C                     0.2951    0.84656  -5.80936 
 N                     1.26655  -0.04222  -5.14487 
 C                     0.68701   2.31178  -5.67334 
 H                    -1.77627   1.05073  -5.77066 
 H                     0.28376   0.56381  -6.86281 
 H                     1.684     2.47605  -6.09507 
 H                     0.6899    2.61689  -4.62142 
 O                     2.06773  -0.95913  -3.21942 
 C                     2.45546  -0.35906  -5.88562 
 C                     3.68933   0.22381  -5.55934 
 C                     3.86901   1.17424  -4.40611 
 C                     4.79257  -0.1173   -6.35366 
 H                     5.75741   0.32576  -6.11812 
 C                     4.67849  -0.99143  -7.43099 
 H                     5.55367  -1.23111  -8.02789 
 C                     3.43928  -1.55141  -7.74509 
 H                     3.33678  -2.23282  -8.58408 
 C                     2.33038  -1.23304  -6.96843 
 H                     1.3558   -1.65932  -7.19238 
 H                    -0.02902   2.93004  -6.22324 
 H                     4.61631   1.93231  -4.65708 
 H                     4.22159   0.63716  -3.51838 
 H                     2.93965   1.6818   -4.13551 
 

 GradGradGradGradGradGradGradGradGradGradGradGradGradGradGradGradGradGrad
 Berny optimization.
 Initialization pass.
                           ----------------------------
                           !    Initial Parameters    !
                           ! (Angstroms and Degrees)  !
 --------------------------                            --------------------------
 ! Name  Definition              Value          Derivative Info.                !
 --------------------------------------------------------------------------------
 ! R1    R(1,2)                  1.4074         estimate D2E/DX2                !
 ! R2    R(1,9)                  1.3903         estimate D2E/DX2                !
 ! R3    R(1,11)                 1.7779         estimate D2E/DX2                !
 ! R4    R(2,3)                  1.7408         estimate D2E/DX2                !
 ! R5    R(2,4)                  1.3795         estimate D2E/DX2                !
 ! R6    R(4,5)                  1.0857         estimate D2E/DX2                !
 ! R7    R(4,6)                  1.4069         estimate D2E/DX2                !
 ! R8    R(6,7)                  1.4081         estimate D2E/DX2                !
 ! R9    R(6,17)                 1.3668         estimate D2E/DX2                !
 ! R10   R(7,8)                  1.4843         estimate D2E/DX2                !
 ! R11   R(7,9)                  1.3883         estimate D2E/DX2                !
 ! R12   R(8,19)                 1.3582         estimate D2E/DX2                !
 ! R13   R(8,25)                 1.2376         estimate D2E/DX2                !
 ! R14   R(9,10)                 1.0851         estimate D2E/DX2                !
 ! R15   R(11,12)                1.4615         estimate D2E/DX2                !
 ! R16   R(11,13)                1.4621         estimate D2E/DX2                !
 ! R17   R(11,14)                1.6481         estimate D2E/DX2                !
 ! R18   R(14,15)                1.0219         estimate D2E/DX2                !
 ! R19   R(14,16)                1.0209         estimate D2E/DX2                !
 ! R20   R(17,18)                1.4584         estimate D2E/DX2                !
 ! R21   R(17,21)                1.0169         estimate D2E/DX2                !
 ! R22   R(18,19)                1.4749         estimate D2E/DX2                !
 ! R23   R(18,20)                1.5228         estimate D2E/DX2                !
 ! R24   R(18,22)                1.0908         estimate D2E/DX2                !
 ! R25   R(19,26)                1.4362         estimate D2E/DX2                !
 ! R26   R(20,23)                1.0949         estimate D2E/DX2                !
 ! R27   R(20,24)                1.0953         estimate D2E/DX2                !
 ! R28   R(20,37)                1.0942         estimate D2E/DX2                !
 ! R29   R(26,27)                1.4031         estimate D2E/DX2                !
 ! R30   R(26,35)                1.3971         estimate D2E/DX2                !
 ! R31   R(27,28)                1.5052         estimate D2E/DX2                !
 ! R32   R(27,29)                1.4016         estimate D2E/DX2                !
 ! R33   R(28,38)                1.0937         estimate D2E/DX2                !
 ! R34   R(28,39)                1.0958         estimate D2E/DX2                !
 ! R35   R(28,40)                1.093          estimate D2E/DX2                !
 ! R36   R(29,30)                1.0875         estimate D2E/DX2                !
 ! R37   R(29,31)                1.392          estimate D2E/DX2                !
 ! R38   R(31,32)                1.0861         estimate D2E/DX2                !
 ! R39   R(31,33)                1.3957         estimate D2E/DX2                !
 ! R40   R(33,34)                1.0857         estimate D2E/DX2                !
 ! R41   R(33,35)                1.3908         estimate D2E/DX2                !
 ! R42   R(35,36)                1.087          estimate D2E/DX2                !
 ! A1    A(2,1,9)              118.9325         estimate D2E/DX2                !
 ! A2    A(2,1,11)             123.2715         estimate D2E/DX2                !
 ! A3    A(9,1,11)             117.7958         estimate D2E/DX2                !
 ! A4    A(1,2,3)              121.2249         estimate D2E/DX2                !
 ! A5    A(1,2,4)              121.2789         estimate D2E/DX2                !
 ! A6    A(3,2,4)              117.4952         estimate D2E/DX2                !
 ! A7    A(2,4,5)              120.573          estimate D2E/DX2                !
 ! A8    A(2,4,6)              119.5888         estimate D2E/DX2                !
 ! A9    A(5,4,6)              119.8368         estimate D2E/DX2                !
 ! A10   A(4,6,7)              119.3516         estimate D2E/DX2                !
 ! A11   A(4,6,17)             121.8268         estimate D2E/DX2                !
 ! A12   A(7,6,17)             118.7376         estimate D2E/DX2                !
 ! A13   A(6,7,8)              119.6397         estimate D2E/DX2                !
 ! A14   A(6,7,9)              120.218          estimate D2E/DX2                !
 ! A15   A(8,7,9)              119.9842         estimate D2E/DX2                !
 ! A16   A(7,8,19)             115.6349         estimate D2E/DX2                !
 ! A17   A(7,8,25)             121.646          estimate D2E/DX2                !
 ! A18   A(19,8,25)            122.6452         estimate D2E/DX2                !
 ! A19   A(1,9,7)              120.6104         estimate D2E/DX2                !
 ! A20   A(1,9,10)             120.0378         estimate D2E/DX2                !
 ! A21   A(7,9,10)             119.3516         estimate D2E/DX2                !
 ! A22   A(1,11,12)            106.4481         estimate D2E/DX2                !
 ! A23   A(1,11,13)            109.1223         estimate D2E/DX2                !
 ! A24   A(1,11,14)            109.7618         estimate D2E/DX2                !
 ! A25   A(12,11,13)           118.985          estimate D2E/DX2                !
 ! A26   A(12,11,14)           106.0263         estimate D2E/DX2                !
 ! A27   A(13,11,14)           106.2817         estimate D2E/DX2                !
 ! A28   A(11,14,15)           112.1856         estimate D2E/DX2                !
 ! A29   A(11,14,16)           112.8485         estimate D2E/DX2                !
 ! A30   A(15,14,16)           111.1777         estimate D2E/DX2                !
 ! A31   A(6,17,18)            117.2576         estimate D2E/DX2                !
 ! A32   A(6,17,21)            115.5213         estimate D2E/DX2                !
 ! A33   A(18,17,21)           113.2931         estimate D2E/DX2                !
 ! A34   A(17,18,19)           108.568          estimate D2E/DX2                !
 ! A35   A(17,18,20)           112.7827         estimate D2E/DX2                !
 ! A36   A(17,18,22)           107.101          estimate D2E/DX2                !
 ! A37   A(19,18,20)           111.7203         estimate D2E/DX2                !
 ! A38   A(19,18,22)           106.6045         estimate D2E/DX2                !
 ! A39   A(20,18,22)           109.7763         estimate D2E/DX2                !
 ! A40   A(8,19,18)            121.9235         estimate D2E/DX2                !
 ! A41   A(8,19,26)            120.3195         estimate D2E/DX2                !
 ! A42   A(18,19,26)           116.4765         estimate D2E/DX2                !
 ! A43   A(18,20,23)           110.1385         estimate D2E/DX2                !
 ! A44   A(18,20,24)           110.7625         estimate D2E/DX2                !
 ! A45   A(18,20,37)           109.2904         estimate D2E/DX2                !
 ! A46   A(23,20,24)           109.0092         estimate D2E/DX2                !
 ! A47   A(23,20,37)           108.5129         estimate D2E/DX2                !
 ! A48   A(24,20,37)           109.086          estimate D2E/DX2                !
 ! A49   A(19,26,27)           121.0913         estimate D2E/DX2                !
 ! A50   A(19,26,35)           117.6221         estimate D2E/DX2                !
 ! A51   A(27,26,35)           121.2536         estimate D2E/DX2                !
 ! A52   A(26,27,28)           123.0566         estimate D2E/DX2                !
 ! A53   A(26,27,29)           117.3427         estimate D2E/DX2                !
 ! A54   A(28,27,29)           119.5993         estimate D2E/DX2                !
 ! A55   A(27,28,38)           110.0861         estimate D2E/DX2                !
 ! A56   A(27,28,39)           110.464          estimate D2E/DX2                !
 ! A57   A(27,28,40)           112.4215         estimate D2E/DX2                !
 ! A58   A(38,28,39)           107.8043         estimate D2E/DX2                !
 ! A59   A(38,28,40)           108.4174         estimate D2E/DX2                !
 ! A60   A(39,28,40)           107.4957         estimate D2E/DX2                !
 ! A61   A(27,29,30)           118.4534         estimate D2E/DX2                !
 ! A62   A(27,29,31)           121.7983         estimate D2E/DX2                !
 ! A63   A(30,29,31)           119.7461         estimate D2E/DX2                !
 ! A64   A(29,31,32)           119.8584         estimate D2E/DX2                !
 ! A65   A(29,31,33)           119.9273         estimate D2E/DX2                !
 ! A66   A(32,31,33)           120.2135         estimate D2E/DX2                !
 ! A67   A(31,33,34)           120.6354         estimate D2E/DX2                !
 ! A68   A(31,33,35)           119.368          estimate D2E/DX2                !
 ! A69   A(34,33,35)           119.9962         estimate D2E/DX2                !
 ! A70   A(26,35,33)           120.3066         estimate D2E/DX2                !
 ! A71   A(26,35,36)           119.028          estimate D2E/DX2                !
 ! A72   A(33,35,36)           120.6654         estimate D2E/DX2                !
 ! D1    D(9,1,2,3)            178.823          estimate D2E/DX2                !
 ! D2    D(9,1,2,4)             -0.8154         estimate D2E/DX2                !
 ! D3    D(11,1,2,3)            -1.3508         estimate D2E/DX2                !
 ! D4    D(11,1,2,4)           179.0109         estimate D2E/DX2                !
 ! D5    D(2,1,9,7)              1.301          estimate D2E/DX2                !
 ! D6    D(2,1,9,10)          -178.5374         estimate D2E/DX2                !
 ! D7    D(11,1,9,7)          -178.5348         estimate D2E/DX2                !
 ! D8    D(11,1,9,10)            1.6268         estimate D2E/DX2                !
 ! D9    D(2,1,11,12)          177.6344         estimate D2E/DX2                !
 ! D10   D(2,1,11,13)          -52.7878         estimate D2E/DX2                !
 ! D11   D(2,1,11,14)           63.3077         estimate D2E/DX2                !
 ! D12   D(9,1,11,12)           -2.5375         estimate D2E/DX2                !
 ! D13   D(9,1,11,13)          127.0403         estimate D2E/DX2                !
 ! D14   D(9,1,11,14)         -116.8642         estimate D2E/DX2                !
 ! D15   D(1,2,4,5)            179.9482         estimate D2E/DX2                !
 ! D16   D(1,2,4,6)             -0.4853         estimate D2E/DX2                !
 ! D17   D(3,2,4,5)              0.2969         estimate D2E/DX2                !
 ! D18   D(3,2,4,6)            179.8633         estimate D2E/DX2                !
 ! D19   D(2,4,6,7)              1.2978         estimate D2E/DX2                !
 ! D20   D(2,4,6,17)           177.9217         estimate D2E/DX2                !
 ! D21   D(5,4,6,7)           -179.1325         estimate D2E/DX2                !
 ! D22   D(5,4,6,17)            -2.5087         estimate D2E/DX2                !
 ! D23   D(4,6,7,8)            174.6079         estimate D2E/DX2                !
 ! D24   D(4,6,7,9)             -0.821          estimate D2E/DX2                !
 ! D25   D(17,6,7,8)            -2.1207         estimate D2E/DX2                !
 ! D26   D(17,6,7,9)          -177.5496         estimate D2E/DX2                !
 ! D27   D(4,6,17,18)          153.0005         estimate D2E/DX2                !
 ! D28   D(4,6,17,21)           15.3626         estimate D2E/DX2                !
 ! D29   D(7,6,17,18)          -30.3556         estimate D2E/DX2                !
 ! D30   D(7,6,17,21)         -167.9935         estimate D2E/DX2                !
 ! D31   D(6,7,8,19)            12.0157         estimate D2E/DX2                !
 ! D32   D(6,7,8,25)          -164.9374         estimate D2E/DX2                !
 ! D33   D(9,7,8,19)          -172.5445         estimate D2E/DX2                !
 ! D34   D(9,7,8,25)            10.5023         estimate D2E/DX2                !
 ! D35   D(6,7,9,1)             -0.4906         estimate D2E/DX2                !
 ! D36   D(6,7,9,10)           179.3489         estimate D2E/DX2                !
 ! D37   D(8,7,9,1)           -175.9037         estimate D2E/DX2                !
 ! D38   D(8,7,9,10)             3.9358         estimate D2E/DX2                !
 ! D39   D(7,8,19,18)           10.7598         estimate D2E/DX2                !
 ! D40   D(7,8,19,26)          177.3781         estimate D2E/DX2                !
 ! D41   D(25,8,19,18)        -172.3206         estimate D2E/DX2                !
 ! D42   D(25,8,19,26)          -5.7024         estimate D2E/DX2                !
 ! D43   D(1,11,14,15)          57.4649         estimate D2E/DX2                !
 ! D44   D(1,11,14,16)         -69.0615         estimate D2E/DX2                !
 ! D45   D(12,11,14,15)        -57.1318         estimate D2E/DX2                !
 ! D46   D(12,11,14,16)        176.3418         estimate D2E/DX2                !
 ! D47   D(13,11,14,15)        175.3411         estimate D2E/DX2                !
 ! D48   D(13,11,14,16)         48.8147         estimate D2E/DX2                !
 ! D49   D(6,17,18,19)          49.0973         estimate D2E/DX2                !
 ! D50   D(6,17,18,20)         -75.2716         estimate D2E/DX2                !
 ! D51   D(6,17,18,22)         163.8529         estimate D2E/DX2                !
 ! D52   D(21,17,18,19)       -172.3572         estimate D2E/DX2                !
 ! D53   D(21,17,18,20)         63.2739         estimate D2E/DX2                !
 ! D54   D(21,17,18,22)        -57.6016         estimate D2E/DX2                !
 ! D55   D(17,18,19,8)         -39.6176         estimate D2E/DX2                !
 ! D56   D(17,18,19,26)        153.279          estimate D2E/DX2                !
 ! D57   D(20,18,19,8)          85.3796         estimate D2E/DX2                !
 ! D58   D(20,18,19,26)        -81.7239         estimate D2E/DX2                !
 ! D59   D(22,18,19,8)        -154.6968         estimate D2E/DX2                !
 ! D60   D(22,18,19,26)         38.1997         estimate D2E/DX2                !
 ! D61   D(17,18,20,23)       -179.4591         estimate D2E/DX2                !
 ! D62   D(17,18,20,24)         59.8737         estimate D2E/DX2                !
 ! D63   D(17,18,20,37)        -60.3377         estimate D2E/DX2                !
 ! D64   D(19,18,20,23)         57.9196         estimate D2E/DX2                !
 ! D65   D(19,18,20,24)        -62.7476         estimate D2E/DX2                !
 ! D66   D(19,18,20,37)        177.041          estimate D2E/DX2                !
 ! D67   D(22,18,20,23)        -60.1222         estimate D2E/DX2                !
 ! D68   D(22,18,20,24)        179.2107         estimate D2E/DX2                !
 ! D69   D(22,18,20,37)         58.9993         estimate D2E/DX2                !
 ! D70   D(8,19,26,27)         -61.9322         estimate D2E/DX2                !
 ! D71   D(8,19,26,35)         120.1313         estimate D2E/DX2                !
 ! D72   D(18,19,26,27)        105.3911         estimate D2E/DX2                !
 ! D73   D(18,19,26,35)        -72.5455         estimate D2E/DX2                !
 ! D74   D(19,26,27,28)          1.8861         estimate D2E/DX2                !
 ! D75   D(19,26,27,29)       -178.5437         estimate D2E/DX2                !
 ! D76   D(35,26,27,28)        179.7475         estimate D2E/DX2                !
 ! D77   D(35,26,27,29)         -0.6823         estimate D2E/DX2                !
 ! D78   D(19,26,35,33)        178.3635         estimate D2E/DX2                !
 ! D79   D(19,26,35,36)         -1.6995         estimate D2E/DX2                !
 ! D80   D(27,26,35,33)          0.4305         estimate D2E/DX2                !
 ! D81   D(27,26,35,36)       -179.6325         estimate D2E/DX2                !
 ! D82   D(26,27,28,38)       -145.4266         estimate D2E/DX2                !
 ! D83   D(26,27,28,39)         95.6294         estimate D2E/DX2                !
 ! D84   D(26,27,28,40)        -24.4433         estimate D2E/DX2                !
 ! D85   D(29,27,28,38)         35.0125         estimate D2E/DX2                !
 ! D86   D(29,27,28,39)        -83.9316         estimate D2E/DX2                !
 ! D87   D(29,27,28,40)        155.9958         estimate D2E/DX2                !
 ! D88   D(26,27,29,30)        179.8697         estimate D2E/DX2                !
 ! D89   D(26,27,29,31)          0.414          estimate D2E/DX2                !
 ! D90   D(28,27,29,30)         -0.5446         estimate D2E/DX2                !
 ! D91   D(28,27,29,31)        179.9997         estimate D2E/DX2                !
 ! D92   D(27,29,31,32)        179.7721         estimate D2E/DX2                !
 ! D93   D(27,29,31,33)          0.1106         estimate D2E/DX2                !
 ! D94   D(30,29,31,32)          0.3232         estimate D2E/DX2                !
 ! D95   D(30,29,31,33)       -179.3382         estimate D2E/DX2                !
 ! D96   D(29,31,33,34)        179.868          estimate D2E/DX2                !
 ! D97   D(29,31,33,35)         -0.3802         estimate D2E/DX2                !
 ! D98   D(32,31,33,34)          0.2078         estimate D2E/DX2                !
 ! D99   D(32,31,33,35)        179.9596         estimate D2E/DX2                !
 ! D100  D(31,33,35,26)          0.1147         estimate D2E/DX2                !
 ! D101  D(31,33,35,36)       -179.8212         estimate D2E/DX2                !
 ! D102  D(34,33,35,26)        179.8681         estimate D2E/DX2                !
 ! D103  D(34,33,35,36)         -0.0679         estimate D2E/DX2                !
 --------------------------------------------------------------------------------
 Trust Radius=3.00D-01 FncErr=1.00D-07 GrdErr=1.00D-06 EigMax=2.50D+02 EigMin=1.00D-04
 Number of steps in this run=    227 maximum allowed number of steps=    240.
 GradGradGradGradGradGradGradGradGradGradGradGradGradGradGradGradGradGrad

                          Input orientation:                          
 ---------------------------------------------------------------------
 Center     Atomic      Atomic             Coordinates (Angstroms)
 Number     Number       Type             X           Y           Z
 ---------------------------------------------------------------------
      1          6           0       -1.373107    0.303242   -1.126794
      2          6           0       -2.474140    0.707941   -1.904518
      3         17           0       -4.006468    1.087571   -1.170796
      4          6           0       -2.382107    0.811644   -3.277061
      5          1           0       -3.239019    1.124159   -3.865945
      6          6           0       -1.163411    0.518022   -3.915749
      7          6           0       -0.063864    0.095907   -3.144006
      8          6           0        1.186941   -0.330497   -3.819957
      9          6           0       -0.178673   -0.012200   -1.764670
     10          1           0        0.674355   -0.349030   -1.184718
     11         16           0       -1.425092    0.176156    0.645777
     12          8           0       -0.117043   -0.324475    1.063301
     13          8           0       -1.911565    1.437643    1.202357
     14          7           0       -2.516347   -0.976245    1.090064
     15          1           0       -2.302479   -1.888192    0.681430
     16          1           0       -3.481245   -0.703358    0.898409
     17          7           0       -1.032537    0.565173   -5.275497
     18          6           0        0.295105    0.846556   -5.809358
     19          7           0        1.266552   -0.042220   -5.144865
     20          6           0        0.687008    2.311784   -5.673343
     21          1           0       -1.776274    1.050733   -5.770661
     22          1           0        0.283763    0.563806   -6.862806
     23          1           0        1.684003    2.476052   -6.095066
     24          1           0        0.689903    2.616894   -4.621419
     25          8           0        2.067730   -0.959132   -3.219418
     26          6           0        2.455457   -0.359057   -5.885616
     27          6           0        3.689327    0.223815   -5.559336
     28          6           0        3.869009    1.174236   -4.406106
     29          6           0        4.792566   -0.117297   -6.353665
     30          1           0        5.757415    0.325764   -6.118123
     31          6           0        4.678486   -0.991427   -7.430986
     32          1           0        5.553674   -1.231106   -8.027889
     33          6           0        3.439284   -1.551412   -7.745093
     34          1           0        3.336782   -2.232822   -8.584075
     35          6           0        2.330379   -1.233039   -6.968433
     36          1           0        1.355803   -1.659321   -7.192378
     37          1           0       -0.029025    2.930042   -6.223245
     38          1           0        4.616306    1.932312   -4.657075
     39          1           0        4.221593    0.637161   -3.518380
     40          1           0        2.939648    1.681796   -4.135513
 ---------------------------------------------------------------------
                    Distance matrix (angstroms):
                    1          2          3          4          5
     1  C    0.000000
     2  C    1.407448   0.000000
     3  Cl   2.748035   1.740832   0.000000
     4  C    2.429033   1.379528   2.674143   0.000000
     5  H    3.414451   2.146036   2.802525   1.085702   0.000000
     6  C    2.805062   2.408138   3.992760   1.406896   2.162876
     7  C    2.413762   2.778552   4.518970   2.429863   3.414690
     8  C    3.769430   4.260373   6.000039   3.786466   4.659105
     9  C    1.390346   2.409840   4.026686   2.796634   3.882317
    10  H    2.149631   3.398282   4.896338   3.881626   4.967269
    11  S    1.777881   2.808435   3.285440   4.087589   4.954258
    12  O    2.601584   3.928071   4.702413   5.025935   6.011883
    13  O    2.646082   3.240622   3.184812   4.547359   5.248628
    14  N    2.803309   3.435955   3.404598   4.720842   5.431020
    15  H    2.989279   3.668311   3.897369   4.792193   5.534436
    16  H    3.091753   3.295819   2.786556   4.575794   5.108577
    17  N    4.170891   3.669074   5.095659   2.424012   2.677287
    18  C    5.000453   4.789124   6.330710   3.685269   4.042765
    19  N    4.819963   5.005534   6.698836   4.186942   4.826619
    20  C    5.380467   5.173897   6.618183   4.172775   4.482279
    21  H    4.720888   3.943550   5.112131   2.577254   2.402698
    22  H    5.976199   5.675511   7.146985   4.475026   4.658881
    23  H    6.225011   6.162554   7.652306   5.219641   5.570704
    24  H    4.671338   4.586591   6.025075   3.808342   4.270296
    25  O    4.220430   5.013650   6.729171   4.789574   5.737568
    26  C    6.143528   6.425617   8.128883   5.619352   6.221419
    27  C    6.729188   7.181950   8.901159   6.512805   7.188892
    28  C    6.244382   6.834539   8.514569   6.362599   7.128699
    29  C    8.093983   8.560429  10.282842   7.861574   8.499195
    30  H    8.703920   9.255216  10.972229   8.634786   9.308360
    31  C    8.834069   9.197269  10.905991   8.387975   8.937120
    32  H    9.897456  10.281117  11.991343   9.472054  10.009021
    33  C    8.390515   8.613105  10.277395   7.709471   8.173507
    34  H    9.177457   9.329062  10.950117   8.374895   8.761920
    35  C    7.085246   7.245277   8.896823   6.325700   6.797059
    36  H    6.934689   6.945060   8.518147   5.950407   6.318648
    37  H    5.889010   5.437621   6.688946   4.324881   4.372887
    38  H    7.140716   7.703901   9.339163   7.220673   7.936317
    39  H    6.093591   6.887845   8.568256   6.610411   7.484564
    40  H    5.436236   5.935894   7.575697   5.460327   6.209634
                    6          7          8          9         10
     6  C    0.000000
     7  C    1.408110   0.000000
     8  C    2.500663   1.484333   0.000000
     9  C    2.424455   1.388321   2.488055   0.000000
    10  H    3.404071   2.140501   2.684693   1.085107   0.000000
    11  S    4.581798   4.027634   5.198288   2.720164   2.834468
    12  O    5.157095   4.228590   5.054366   2.845827   2.383380
    13  O    5.253613   4.909697   6.160414   3.729371   3.946810
    14  N    5.396428   5.009145   6.183821   3.813608   3.968452
    15  H    5.312381   4.856131   5.904655   3.743435   3.835762
    16  H    5.480898   5.353358   6.647854   4.298450   4.661971
    17  N    1.366845   2.387843   2.801232   3.659009   4.525895
    18  C    2.412667   2.792210   2.477609   4.161902   4.791718
    19  N    2.780165   2.406766   1.358243   3.676315   4.015918
    20  C    3.119418   3.445499   3.265979   4.629041   5.218031
    21  H    2.024865   3.277707   3.807057   4.441859   5.384774
    22  H    3.283528   3.764207   3.297641   5.151371   5.764245
    23  H    4.085471   4.174792   3.646905   5.330412   5.754303
    24  H    2.887561   3.017663   3.094592   3.978388   4.539588
    25  O    3.620378   2.379598   1.237586   2.838891   2.540419
    26  C    4.212582   3.751053   2.424231   4.903177   5.027014
    27  C    5.131959   4.465044   3.097521   5.423709   5.343734
    28  C    5.098659   4.268862   3.130700   4.976801   4.785760
    29  C    6.466895   5.825142   4.411990   6.766324   6.612970
    30  H    7.265346   6.541062   5.157662   7.369119   7.115570
    31  C    6.983057   6.484626   5.066285   7.527152   7.447255
    32  H    8.067736   7.561085   6.130754   8.577496   8.450728
    33  C    6.334922   6.012962   4.687257   7.157112   7.220047
    34  H    7.043590   6.825081   5.562147   7.987107   8.086266
    35  C    4.958998   4.703694   3.469140   5.904654   6.080728
    36  H    4.671569   4.635256   3.628706   5.876022   6.186535
    37  H    3.525508   4.185122   4.229122   5.343974   6.052587
    38  H    5.996242   5.250310   4.193044   5.927812   5.727195
    39  H    5.400960   4.335695   3.199442   4.781162   4.359065
    40  H    4.270569   3.538250   2.687170   4.267838   4.238278
                   11         12         13         14         15
    11  S    0.000000
    12  O    1.461489   0.000000
    13  O    1.462118   2.518870   0.000000
    14  N    1.648107   2.486399   2.491029   0.000000
    15  H    2.243348   2.714253   3.389006   1.021943   0.000000
    16  H    2.250585   3.389483   2.672108   1.020896   1.685349
    17  N    5.947009   6.466062   6.595187   6.715506   6.566333
    18  C    6.713962   6.983883   7.374479   7.670000   7.507105
    19  N    6.389380   6.366736   7.251045   7.352351   7.077522
    20  C    6.996653   7.278648   7.402159   8.174123   8.182907
    21  H    6.485283   7.165702   6.985055   7.192072   7.109406
    22  H    7.710336   7.985791   8.404161   8.570911   8.343647
    23  H    7.771420   7.894868   8.201146   9.010405   8.992195
    24  H    6.178492   6.451268   6.486497   7.470725   7.574322
    25  O    5.331831   4.849506   6.413379   6.291716   5.931146
    26  C    7.616050   7.409885   8.516947   8.588356   8.252412
    27  C    8.041330   7.658224   8.863626   9.174151   8.905587
    28  C    7.385472   6.931750   8.058491   8.695127   8.564389
    29  C    9.366834   8.897109  10.220405  10.467430  10.147329
    30  H    9.867175   9.300802  10.660158  11.050263  10.774851
    31  C   10.190732   9.777261  11.129410  11.152316  10.740082
    32  H   11.221232  10.753080  12.167558  12.178967  11.747473
    33  C    9.851566   9.578133  10.845410  10.670537  10.202331
    34  H   10.661557  10.423174  11.695800  11.376602  10.852172
    35  C    8.606137   8.445360   9.585846   9.407235   8.967330
    36  H    8.516985   8.491603   9.525674   9.168368   8.685175
    37  H    7.531026   7.980812   7.804536   8.656231   8.721153
    38  H    8.228172   7.760179   8.785827   9.610622   9.537582
    39  H    7.031201   6.382813   7.780859   8.321098   8.159616
    40  H    6.646702   6.355796   7.217114   8.008728   7.964148
                   16         17         18         19         20
    16  H    0.000000
    17  N    6.761838   0.000000
    18  C    7.852210   1.458361   0.000000
    19  N    7.713614   2.381554   1.474851   0.000000
    20  C    8.345857   2.483096   1.522820   2.481228   0.000000
    21  H    7.103538   1.016907   2.081777   3.293168   2.769021
    22  H    8.718799   2.062086   1.090793   2.069894   2.152408
    23  H    9.257275   3.420927   2.160075   2.723755   1.094913
    24  H    7.674050   2.757567   2.168215   2.770813   1.095282
    25  O    6.914698   4.020277   3.620843   2.278149   4.315905
    26  C    9.021417   3.659583   2.475165   1.436173   3.210274
    27  C    9.694288   4.742688   3.459922   2.472326   3.658761
    28  C    9.256861   5.015173   3.853477   2.966195   3.609021
    29  C   11.017803   5.963223   4.631678   3.728218   4.818597
    30  H   11.646616   6.846224   5.495761   4.609826   5.463619
    31  C   11.663748   6.299597   5.022140   4.215286   5.471052
    32  H   12.711690   7.360737   6.073805   5.301385   6.463775
    33  C   11.105091   5.529559   4.402634   3.709395   5.176047
    34  H   11.778891   6.153570   5.141345   4.573047   6.012247
    35  C    9.795037   4.172386   3.132174   2.423877   4.116272
    36  H    9.474795   3.785099   3.052416   2.610611   4.304001
    37  H    8.708465   2.738223   2.148784   3.416981   1.094229
    38  H   10.167620   5.844736   4.602108   3.918873   4.076295
    39  H    8.979907   5.540625   4.550796   3.440826   4.465593
    40  H    8.500423   4.280731   3.239288   2.605815   2.799319
                   21         22         23         24         25
    21  H    0.000000
    22  H    2.381939   0.000000
    23  H    3.756367   2.491342   0.000000
    24  H    3.139370   3.066584   1.783173   0.000000
    25  O    5.032372   4.333146   4.496342   4.080683   0.000000
    26  C    4.461868   2.553983   2.945650   3.683973   2.760260
    27  C    5.531839   3.662307   3.062826   3.950071   3.082881
    28  C    5.809173   4.388849   3.053124   3.497762   3.033825
    29  C    6.697301   4.588293   4.056538   5.225736   4.237560
    30  H    7.576462   5.529202   4.606187   5.759260   4.864897
    31  C    6.970726   4.696293   4.772318   6.068149   4.955239
    32  H    8.001875   5.687801   5.696769   7.075832   5.945348
    33  C    6.153990   3.899986   4.692981   5.889924   4.765888
    34  H    6.696296   4.483840   5.576768   6.799144   5.657944
    35  C    4.849213   2.725517   3.864962   4.798085   3.768172
    36  H    4.378993   2.490016   4.291051   5.033812   4.096524
    37  H    2.605669   2.471021   1.776795   1.783469   5.342755
    38  H    6.548460   5.050642   3.310872   3.985795   4.113703
    39  H    6.420142   5.166921   4.057117   4.196293   2.697528
    40  H    5.031090   3.967588   2.459133   2.484324   2.928135
                   26         27         28         29         30
    26  C    0.000000
    27  C    1.403080   0.000000
    28  C    2.556965   1.505167   0.000000
    29  C    2.395745   1.401589   2.512768   0.000000
    30  H    3.380231   2.144674   2.686444   1.087528   0.000000
    31  C    2.780273   2.440967   3.807263   1.392026   2.150044
    32  H    3.866361   3.418528   4.662733   2.150089   2.472359
    33  C    2.418115   2.826922   4.331589   2.413324   3.397728
    34  H    3.401384   3.912595   5.417264   3.401394   4.299622
    35  C    1.397134   2.440229   3.837692   2.772217   3.859724
    36  H    2.146521   3.414434   4.701974   3.859095   4.946592
    37  H    4.135796   4.646566   4.645375   5.705350   6.346353
    38  H    3.380673   2.142972   1.093671   2.666530   2.453118
    39  H    3.116969   2.149341   1.095821   2.988990   3.035520
    40  H    2.731736   2.171405   1.092955   3.404444   3.702618
                   31         32         33         34         35
    31  C    0.000000
    32  H    1.086137   0.000000
    33  C    1.395661   2.157131   0.000000
    34  H    2.161214   2.495473   1.085688   0.000000
    35  C    2.405398   3.392946   1.390767   2.150050   0.000000
    36  H    3.397534   4.301577   2.158247   2.487972   1.087044
    37  H    6.244774   7.192942   5.867590   6.599799   4.842864
    38  H    4.030719   4.716806   4.801830   5.865736   4.537322
    39  H    4.262574   5.059697   4.823585   5.889055   4.356284
    40  H    4.585828   5.519848   4.871585   5.938995   4.110098
                   36         37         38         39         40
    36  H    0.000000
    37  H    4.890727   0.000000
    38  H    5.473433   5.002744   0.000000
    39  H    5.194694   5.535462   1.769136   0.000000
    40  H    4.797504   3.837936   1.773688   1.765078   0.000000
 Stoichiometry    C16H16ClN3O3S
 Framework group  C1[X(C16H16ClN3O3S)]
 Deg. of freedom   114
 Full point group                 C1      NOp   1
 Largest Abelian subgroup         C1      NOp   1
 Largest concise Abelian subgroup C1      NOp   1
                         Standard orientation:                         
 ---------------------------------------------------------------------
 Center     Atomic      Atomic             Coordinates (Angstroms)
 Number     Number       Type             X           Y           Z
 ---------------------------------------------------------------------
      1          6           0       -2.569385   -0.227619   -0.054844
      2          6           0       -2.743283    1.169045   -0.055041
      3         17           0       -4.330942    1.880789    0.001998
      4          6           0       -1.662969    2.025335   -0.107851
      5          1           0       -1.810401    3.100979   -0.108249
      6          6           0       -0.359626    1.497440   -0.152342
      7          6           0       -0.180848    0.100837   -0.169962
      8          6           0        1.182045   -0.462698   -0.337880
      9          6           0       -1.280883   -0.745013   -0.126443
     10          1           0       -1.127391   -1.818918   -0.151468
     11         16           0       -3.921106   -1.378797    0.037372
     12          8           0       -3.333646   -2.714399   -0.046338
     13          8           0       -4.757909   -1.043720    1.188577
     14          7           0       -4.880483   -1.219486   -1.293218
     15          1           0       -4.361507   -1.360292   -2.162245
     16          1           0       -5.393325   -0.336889   -1.308781
     17          7           0        0.741135    2.302140   -0.247469
     18          6           0        1.992097    1.790164    0.300064
     19          7           0        2.203890    0.423088   -0.211239
     20          6           0        2.031995    1.835224    1.821694
     21          1           0        0.584259    3.285373   -0.040725
     22          1           0        2.796022    2.403819   -0.108545
     23          1           0        2.990726    1.451117    2.185193
     24          1           0        1.221885    1.234788    2.249292
     25          8           0        1.361493   -1.651311   -0.632187
     26          6           0        3.565915   -0.023915   -0.298814
     27          6           0        4.087097   -0.944384    0.622999
     28          6           0        3.266303   -1.554847    1.727154
     29          6           0        5.434815   -1.302841    0.482949
     30          1           0        5.858051   -2.013443    1.189089
     31          6           0        6.235872   -0.766701   -0.521342
     32          1           0        7.277666   -1.064004   -0.598597
     33          6           0        5.700253    0.156030   -1.421091
     34          1           0        6.315155    0.583021   -2.207406
     35          6           0        4.363841    0.523609   -1.306542
     36          1           0        3.924192    1.238241   -1.997682
     37          1           0        1.923831    2.871631    2.155607
     38          1           0        3.885846   -1.707288    2.615436
     39          1           0        2.875920   -2.531398    1.419303
     40          1           0        2.412046   -0.932133    2.004685
 ---------------------------------------------------------------------
 Rotational constants (GHZ):           0.5013043           0.1038808           0.0935026
 General basis read from cards:  (6D, 7F)
 There are   496 symmetry adapted cartesian basis functions of A   symmetry.
 There are   496 symmetry adapted basis functions of A   symmetry.
   496 basis functions,   880 primitive gaussians,   496 cartesian basis functions
    95 alpha electrons       95 beta electrons
       nuclear repulsion energy      2401.3123785363 Hartrees.
 NAtoms=   40 NActive=   40 NUniq=   40 SFac= 1.00D+00 NAtFMM=   60 NAOKFM=F Big=F
 Integral buffers will be    131072 words long.
 Raffenetti 2 integral format.
 Two-electron integral symmetry is turned on.
 One-electron integrals computed using PRISM.
 NBasis=   496 RedAO= T EigKep=  1.42D-06  NBF=   496
 NBsUse=   491 1.00D-06 EigRej=  9.98D-07 NBFU=   491
 ExpMin= 4.05D-02 ExpMax= 2.52D+04 ExpMxC= 3.78D+03 IAcc=3 IRadAn=         5 AccDes= 0.00D+00
 Harris functional with IExCor= 1009 and IRadAn=       5 diagonalized for initial guess.
 HarFok:  IExCor= 1009 AccDes= 0.00D+00 IRadAn=         5 IDoV= 1 UseB2=F ITyADJ=14
 ICtDFT=  3500011 ScaDFX=  1.000000  1.000000  1.000000  1.000000
 FoFCou: FMM=F IPFlag=           0 FMFlag=      100000 FMFlg1=           0
         NFxFlg=           0 DoJE=T BraDBF=F KetDBF=T FulRan=T
         wScrn=  0.000000 ICntrl=       500 IOpCl=  0 I1Cent=   200000004 NGrid=           0
         NMat0=    1 NMatS0=      1 NMatT0=    0 NMatD0=    1 NMtDS0=    0 NMtDT0=    0
 Petite list used in FoFCou.
 Requested convergence on RMS density matrix=1.00D-08 within 128 cycles.
 Requested convergence on MAX density matrix=1.00D-06.
 Requested convergence on             energy=1.00D-06.
 No special actions if energy rises.
 SCF Done:  E(RM062X) =  -1867.16473629     A.U. after   17 cycles
            NFock= 17  Conv=0.71D-08     -V/T= 2.0060

 **********************************************************************

            Population analysis using the SCF Density.

 **********************************************************************

 Orbital symmetries:
       Occupied  (A) (A) (A) (A) (A) (A) (A) (A) (A) (A) (A) (A)
                 (A) (A) (A) (A) (A) (A) (A) (A) (A) (A) (A) (A)
                 (A) (A) (A) (A) (A) (A) (A) (A) (A) (A) (A) (A)
                 (A) (A) (A) (A) (A) (A) (A) (A) (A) (A) (A) (A)
                 (A) (A) (A) (A) (A) (A) (A) (A) (A) (A) (A) (A)
                 (A) (A) (A) (A) (A) (A) (A) (A) (A) (A) (A) (A)
                 (A) (A) (A) (A) (A) (A) (A) (A) (A) (A) (A) (A)
                 (A) (A) (A) (A) (A) (A) (A) (A) (A) (A) (A)
       Virtual   (A) (A) (A) (A) (A) (A) (A) (A) (A) (A) (A) (A)
                 (A) (A) (A) (A) (A) (A) (A) (A) (A) (A) (A) (A)
                 (A) (A) (A) (A) (A) (A) (A) (A) (A) (A) (A) (A)
                 (A) (A) (A) (A) (A) (A) (A) (A) (A) (A) (A) (A)
                 (A) (A) (A) (A) (A) (A) (A) (A) (A) (A) (A) (A)
                 (A) (A) (A) (A) (A) (A) (A) (A) (A) (A) (A) (A)
                 (A) (A) (A) (A) (A) (A) (A) (A) (A) (A) (A) (A)
                 (A) (A) (A) (A) (A) (A) (A) (A) (A) (A) (A) (A)
                 (A) (A) (A) (A) (A) (A) (A) (A) (A) (A) (A) (A)
                 (A) (A) (A) (A) (A) (A) (A) (A) (A) (A) (A) (A)
                 (A) (A) (A) (A) (A) (A) (A) (A) (A) (A) (A) (A)
                 (A) (A) (A) (A) (A) (A) (A) (A) (A) (A) (A) (A)
                 (A) (A) (A) (A) (A) (A) (A) (A) (A) (A) (A) (A)
                 (A) (A) (A) (A) (A) (A) (A) (A) (A) (A) (A) (A)
                 (A) (A) (A) (A) (A) (A) (A) (A) (A) (A) (A) (A)
                 (A) (A) (A) (A) (A) (A) (A) (A) (A) (A) (A) (A)
                 (A) (A) (A) (A) (A) (A) (A) (A) (A) (A) (A) (A)
                 (A) (A) (A) (A) (A) (A) (A) (A) (A) (A) (A) (A)
                 (A) (A) (A) (A) (A) (A) (A) (A) (A) (A) (A) (A)
                 (A) (A) (A) (A) (A) (A) (A) (A) (A) (A) (A) (A)
                 (A) (A) (A) (A) (A) (A) (A) (A) (A) (A) (A) (A)
                 (A) (A) (A) (A) (A) (A) (A) (A) (A) (A) (A) (A)
                 (A) (A) (A) (A) (A) (A) (A) (A) (A) (A) (A) (A)
                 (A) (A) (A) (A) (A) (A) (A) (A) (A) (A) (A) (A)
                 (A) (A) (A) (A) (A) (A) (A) (A) (A) (A) (A) (A)
                 (A) (A) (A) (A) (A) (A) (A) (A) (A) (A) (A) (A)
                 (A) (A) (A) (A) (A) (A) (A) (A) (A) (A) (A) (A)
                 (A) (A) (A) (A) (A) (A) (A) (A) (A) (A) (A) (A)
                 (A) (A) (A) (A) (A) (A) (A) (A) (A) (A) (A) (A)
                 (A) (A) (A) (A) (A) (A) (A) (A) (A) (A) (A) (A)
                 (A) (A) (A) (A) (A) (A) (A) (A) (A) (A) (A) (A)
                 (A) (A) (A) (A) (A) (A) (A) (A) (A) (A) (A) (A)
                 (A) (A) (A) (A) (A) (A) (A) (A) (A) (A) (A) (A)
 The electronic state is 1-A.
 Alpha  occ. eigenvalues -- -102.70101 -90.16855 -19.63793 -19.63647 -19.62324
 Alpha  occ. eigenvalues --  -14.82157 -14.81854 -14.80664 -10.67372 -10.66337
 Alpha  occ. eigenvalues --  -10.66101 -10.64463 -10.60795 -10.60744 -10.59611
 Alpha  occ. eigenvalues --  -10.59600 -10.58833 -10.57913 -10.57143 -10.57126
 Alpha  occ. eigenvalues --  -10.56804 -10.56727 -10.56526 -10.55026  -9.84741
 Alpha  occ. eigenvalues --   -8.47750  -7.57150  -7.56487  -7.56444  -6.39973
 Alpha  occ. eigenvalues --   -6.39903  -6.39853  -1.24023  -1.17533  -1.12077
 Alpha  occ. eigenvalues --   -1.11987  -1.06063  -1.03456  -1.02460  -0.97259
 Alpha  occ. eigenvalues --   -0.96826  -0.90755  -0.88737  -0.88229  -0.86699
 Alpha  occ. eigenvalues --   -0.84806  -0.79361  -0.78158  -0.75730  -0.74979
 Alpha  occ. eigenvalues --   -0.72446  -0.70351  -0.69022  -0.66078  -0.64745
 Alpha  occ. eigenvalues --   -0.64111  -0.62054  -0.61243  -0.58828  -0.57987
 Alpha  occ. eigenvalues --   -0.57053  -0.56558  -0.55956  -0.54938  -0.54285
 Alpha  occ. eigenvalues --   -0.54009  -0.51831  -0.51799  -0.51233  -0.50828
 Alpha  occ. eigenvalues --   -0.50249  -0.49403  -0.49021  -0.48701  -0.48188
 Alpha  occ. eigenvalues --   -0.46726  -0.46034  -0.44895  -0.44565  -0.43568
 Alpha  occ. eigenvalues --   -0.42277  -0.42107  -0.41826  -0.40954  -0.40435
 Alpha  occ. eigenvalues --   -0.39207  -0.38302  -0.37751  -0.37024  -0.34579
 Alpha  occ. eigenvalues --   -0.34466  -0.33258  -0.31321  -0.30702  -0.29288
 Alpha virt. eigenvalues --   -0.03989  -0.01773  -0.01530   0.00108   0.00595
 Alpha virt. eigenvalues --    0.00956   0.01022   0.01425   0.02137   0.02455
 Alpha virt. eigenvalues --    0.02961   0.03262   0.03898   0.04289   0.04599
 Alpha virt. eigenvalues --    0.04868   0.05500   0.05920   0.06116   0.06896
 Alpha virt. eigenvalues --    0.07060   0.07457   0.07816   0.08246   0.08304
 Alpha virt. eigenvalues --    0.08720   0.09094   0.09464   0.09711   0.10244
 Alpha virt. eigenvalues --    0.10449   0.10636   0.11624   0.11712   0.11843
 Alpha virt. eigenvalues --    0.12216   0.12631   0.13208   0.13581   0.13730
 Alpha virt. eigenvalues --    0.14202   0.14423   0.14615   0.15158   0.15261
 Alpha virt. eigenvalues --    0.15317   0.15555   0.15591   0.16340   0.16644
 Alpha virt. eigenvalues --    0.17282   0.17577   0.17806   0.18078   0.18253
 Alpha virt. eigenvalues --    0.18331   0.18763   0.19288   0.19506   0.20117
 Alpha virt. eigenvalues --    0.20284   0.20440   0.20785   0.20925   0.21100
 Alpha virt. eigenvalues --    0.21462   0.21566   0.22026   0.22231   0.22325
 Alpha virt. eigenvalues --    0.22654   0.22740   0.22988   0.23030   0.23550
 Alpha virt. eigenvalues --    0.23895   0.24440   0.24899   0.25241   0.25635
 Alpha virt. eigenvalues --    0.26087   0.26234   0.26371   0.26648   0.27123
 Alpha virt. eigenvalues --    0.27490   0.28088   0.28192   0.28736   0.29007
 Alpha virt. eigenvalues --    0.29328   0.29451   0.29844   0.30786   0.31007
 Alpha virt. eigenvalues --    0.31479   0.31621   0.31742   0.32198   0.33023
 Alpha virt. eigenvalues --    0.33181   0.33235   0.33483   0.33590   0.34466
 Alpha virt. eigenvalues --    0.34894   0.34981   0.35244   0.36040   0.36555
 Alpha virt. eigenvalues --    0.37074   0.37226   0.37534   0.38144   0.38731
 Alpha virt. eigenvalues --    0.38844   0.39479   0.40093   0.41262   0.41508
 Alpha virt. eigenvalues --    0.42173   0.42436   0.43146   0.43350   0.44555
 Alpha virt. eigenvalues --    0.44891   0.45323   0.45825   0.47133   0.48132
 Alpha virt. eigenvalues --    0.48694   0.50331   0.50526   0.52007   0.52338
 Alpha virt. eigenvalues --    0.54345   0.57264   0.58952   0.59865   0.62145
 Alpha virt. eigenvalues --    0.62462   0.64607   0.64915   0.65694   0.66587
 Alpha virt. eigenvalues --    0.67933   0.69584   0.70919   0.71234   0.72028
 Alpha virt. eigenvalues --    0.72355   0.73100   0.74034   0.74207   0.74735
 Alpha virt. eigenvalues --    0.75220   0.76145   0.76940   0.77600   0.77742
 Alpha virt. eigenvalues --    0.78578   0.78738   0.79098   0.79385   0.80116
 Alpha virt. eigenvalues --    0.80580   0.81011   0.82072   0.83996   0.84465
 Alpha virt. eigenvalues --    0.85177   0.85875   0.86830   0.87206   0.87923
 Alpha virt. eigenvalues --    0.88581   0.89197   0.89845   0.90918   0.92564
 Alpha virt. eigenvalues --    0.93161   0.93518   0.94052   0.94683   0.95088
 Alpha virt. eigenvalues --    0.96564   0.97206   0.97965   0.98631   0.99458
 Alpha virt. eigenvalues --    1.00703   1.00855   1.01939   1.03249   1.03438
 Alpha virt. eigenvalues --    1.04188   1.05077   1.05552   1.05958   1.06458
 Alpha virt. eigenvalues --    1.07512   1.07771   1.08390   1.09688   1.10083
 Alpha virt. eigenvalues --    1.10424   1.10487   1.12787   1.13292   1.14087
 Alpha virt. eigenvalues --    1.14459   1.15166   1.15740   1.16431   1.17278
 Alpha virt. eigenvalues --    1.18116   1.18285   1.19359   1.19838   1.20099
 Alpha virt. eigenvalues --    1.21707   1.22244   1.23536   1.24180   1.25576
 Alpha virt. eigenvalues --    1.25983   1.27072   1.27912   1.28780   1.30072
 Alpha virt. eigenvalues --    1.31486   1.32774   1.33849   1.34705   1.35656
 Alpha virt. eigenvalues --    1.36350   1.37302   1.37625   1.39270   1.39850
 Alpha virt. eigenvalues --    1.40154   1.40996   1.42001   1.42335   1.43172
 Alpha virt. eigenvalues --    1.44135   1.45476   1.45516   1.46716   1.47845
 Alpha virt. eigenvalues --    1.48362   1.49493   1.50094   1.50768   1.51006
 Alpha virt. eigenvalues --    1.52078   1.53127   1.53989   1.54317   1.55714
 Alpha virt. eigenvalues --    1.56784   1.57644   1.60209   1.60772   1.62356
 Alpha virt. eigenvalues --    1.63224   1.65345   1.70814   1.71284   1.74275
 Alpha virt. eigenvalues --    1.76572   1.77886   1.79624   1.80722   1.81027
 Alpha virt. eigenvalues --    1.81752   1.82763   1.83688   1.84358   1.85400
 Alpha virt. eigenvalues --    1.87276   1.88315   1.88642   1.90010   1.90594
 Alpha virt. eigenvalues --    1.91450   1.92711   1.93021   1.94310   1.94561
 Alpha virt. eigenvalues --    1.95393   1.96371   1.97578   1.98551   1.99733
 Alpha virt. eigenvalues --    2.00992   2.01415   2.02368   2.02902   2.03873
 Alpha virt. eigenvalues --    2.04677   2.07174   2.07821   2.09380   2.12315
 Alpha virt. eigenvalues --    2.12417   2.13387   2.15238   2.15448   2.17401
 Alpha virt. eigenvalues --    2.18517   2.19407   2.20008   2.20912   2.21118
 Alpha virt. eigenvalues --    2.22191   2.23598   2.24264   2.25490   2.26018
 Alpha virt. eigenvalues --    2.28175   2.29670   2.30172   2.30528   2.33151
 Alpha virt. eigenvalues --    2.33629   2.34593   2.35984   2.36477   2.37196
 Alpha virt. eigenvalues --    2.39311   2.42472   2.43710   2.44421   2.46583
 Alpha virt. eigenvalues --    2.47267   2.48878   2.50357   2.54100   2.54364
 Alpha virt. eigenvalues --    2.56079   2.58959   2.60157   2.62278   2.63139
 Alpha virt. eigenvalues --    2.65792   2.68277   2.68921   2.70100   2.72540
 Alpha virt. eigenvalues --    2.73477   2.75922   2.77074   2.77429   2.81065
 Alpha virt. eigenvalues --    2.82055   2.82703   2.84340   2.87034   2.90309
 Alpha virt. eigenvalues --    2.91558   2.93052   2.95934   2.99078   3.00623
 Alpha virt. eigenvalues --    3.07748   3.10083   3.18981   3.23614   3.33295
 Alpha virt. eigenvalues --    3.39879   3.43144   3.91321   4.07559   4.24278
 Alpha virt. eigenvalues --    4.25456   4.27969   4.29370   4.31463   4.32343
 Alpha virt. eigenvalues --    4.33221   4.34620   4.37560   4.38545   4.42570
 Alpha virt. eigenvalues --    4.42829   4.45149   4.47885   4.49451   4.49940
 Alpha virt. eigenvalues --    4.54849   4.60518   4.65936   4.78196   4.79378
 Alpha virt. eigenvalues --    4.93645
          Condensed to atoms (all electrons):
               1          2          3          4          5          6
     1  C   35.244726 -10.063264   0.382441   0.679880   0.039874  -1.993830
     2  C  -10.063264  32.135426  -0.837234 -11.090953   0.116660   2.977285
     3  Cl   0.382441  -0.837234  17.089819   0.213011  -0.012125  -0.044370
     4  C    0.679880 -11.090953   0.213011  20.888571   0.105006  -1.247500
     5  H    0.039874   0.116660  -0.012125   0.105006   0.469338  -0.032509
     6  C   -1.993830   2.977285  -0.044370  -1.247500  -0.032509  16.963202
     7  C   -4.991804  -3.926416   0.068771  -5.226260   0.087826  -9.824096
     8  C   -0.901080   1.511075  -0.038484  -3.727767   0.020524  -0.116996
     9  C   -3.950049  -4.979900  -0.003395   3.927424  -0.021776  -0.816581
    10  H   -0.048378   0.011281  -0.000417  -0.020287   0.000011  -0.003357
    11  S   -3.359831  -1.135381  -0.000112   2.146412  -0.002205  -0.336936
    12  O   -1.246187  -0.279527   0.004945   0.155149   0.000020  -0.056522
    13  O   -0.710220   0.056302  -0.103422   0.170371  -0.000073   0.024357
    14  N   -0.465733  -0.366394   0.030923   0.052868  -0.000301   0.004820
    15  H   -0.118455   0.056890  -0.004654   0.010078   0.000000   0.000071
    16  H   -0.039034  -0.031124   0.015331   0.010665   0.000000   0.000551
    17  N    0.215344   0.044184   0.000427  -0.069424  -0.008739  -1.021270
    18  C   -0.910862  -0.031061  -0.006590   0.296645   0.005102   1.020372
    19  N   -0.074420   0.293085  -0.000083  -0.268290   0.000085   1.023987
    20  C    0.147513   0.258304  -0.002133  -0.171786   0.001100  -0.485364
    21  H    0.003081   0.010675   0.000093  -0.047845   0.004796  -0.020707
    22  H    0.004871  -0.004786   0.000029  -0.003424   0.000001   0.015881
    23  H    0.001175   0.000863  -0.000004   0.005675   0.000000  -0.004339
    24  H    0.009389   0.000692   0.000076   0.006594   0.000009   0.012051
    25  O    0.041734  -0.011370   0.000134   0.020936   0.000007   0.045393
    26  C    0.542776   0.024819   0.000631   0.232370  -0.000898  -0.647102
    27  C   -0.116691   0.123090  -0.000389  -0.086262   0.000212   0.443997
    28  C   -0.001011   0.137255  -0.000108  -0.125705   0.000071   0.299841
    29  C   -0.000334  -0.031291   0.000163   0.055747  -0.000013  -0.096977
    30  H   -0.000003   0.000001  -0.000000  -0.000010   0.000000  -0.000165
    31  C   -0.005655   0.007372  -0.000021  -0.006633   0.000002   0.045951
    32  H    0.000001  -0.000000   0.000000  -0.000001   0.000000  -0.000037
    33  C    0.020669  -0.041955   0.000078  -0.000825  -0.000032  -0.138822
    34  H    0.000001  -0.000002   0.000000  -0.000010   0.000000   0.000070
    35  C    0.006787  -0.089329   0.000304   0.014760  -0.000249   0.084865
    36  H   -0.000580   0.000457  -0.000001  -0.002170   0.000000   0.001049
    37  H   -0.000690  -0.004746   0.000048  -0.009006  -0.000004   0.014350
    38  H    0.000039  -0.000114   0.000000   0.000120  -0.000000  -0.001729
    39  H    0.000362  -0.000001   0.000000   0.000159   0.000000  -0.001865
    40  H    0.002175   0.000909  -0.000002  -0.002467   0.000000   0.009302
               7          8          9         10         11         12
     1  C   -4.991804  -0.901080  -3.950049  -0.048378  -3.359831  -1.246187
     2  C   -3.926416   1.511075  -4.979900   0.011281  -1.135381  -0.279527
     3  Cl   0.068771  -0.038484  -0.003395  -0.000417  -0.000112   0.004945
     4  C   -5.226260  -3.727767   3.927424  -0.020287   2.146412   0.155149
     5  H    0.087826   0.020524  -0.021776   0.000011  -0.002205   0.000020
     6  C   -9.824096  -0.116996  -0.816581  -0.003357  -0.336936  -0.056522
     7  C   39.122635  -1.940924  -3.493436  -0.001223  -1.960461   0.061041
     8  C   -1.940924  14.103157  -1.508770   0.018754  -0.382898   0.007152
     9  C   -3.493436  -1.508770  13.915179   0.350115   1.330597   0.797583
    10  H   -0.001223   0.018754   0.350115   0.383185  -0.016888  -0.000258
    11  S   -1.960461  -0.382898   1.330597  -0.016888  17.420228   0.508000
    12  O    0.061041   0.007152   0.797583  -0.000258   0.508000   8.800576
    13  O   -0.229001   0.001739   0.151561  -0.000319   0.650294  -0.123528
    14  N    0.234699   0.008830   0.381351   0.000014  -0.405183  -0.065949
    15  H   -0.046183  -0.001582  -0.017899  -0.000026   0.134168  -0.005221
    16  H   -0.004657   0.000104   0.013174  -0.000008   0.058407   0.012212
    17  N    1.316675   0.094262  -0.200042  -0.000925   0.024855   0.000891
    18  C   -1.740724  -0.178546   0.282854   0.000946  -0.065435  -0.000718
    19  N   -2.259039   0.516307   0.370214   0.001542  -0.021925  -0.001209
    20  C   -0.114189   0.285941   0.014604  -0.000119   0.003677  -0.000349
    21  H    0.059442   0.000809  -0.008335   0.000003   0.000161   0.000000
    22  H    0.023882  -0.021220  -0.001005  -0.000000   0.000077   0.000000
    23  H    0.014178   0.027141   0.000802  -0.000000   0.000029   0.000000
    24  H   -0.053501  -0.041521   0.015301  -0.000002   0.000120   0.000001
    25  O    0.091306   0.391746  -0.154532   0.006222   0.004713   0.000720
    26  C    1.879983  -4.380289  -0.379311  -0.000357   0.035235   0.000439
    27  C   -2.194358   1.373535   0.413407   0.000306  -0.009449  -0.000328
    28  C   -1.502138   0.305619   0.281851   0.001320  -0.016752  -0.000801
    29  C    0.778250  -0.320479  -0.095438  -0.000170   0.003178   0.000120
    30  H   -0.000229   0.002087  -0.000011   0.000000  -0.000000  -0.000000
    31  C   -0.221892   0.099633   0.047208   0.000038  -0.000791  -0.000016
    32  H    0.000040  -0.001280  -0.000012   0.000000   0.000000   0.000000
    33  C    0.739823  -0.414627  -0.186973  -0.000050   0.001997   0.000047
    34  H    0.000344  -0.000914  -0.000018  -0.000000  -0.000000  -0.000000
    35  C    0.145496   0.534628  -0.154273  -0.000193   0.005058   0.000296
    36  H   -0.011041   0.068389  -0.000853   0.000000  -0.000007  -0.000000
    37  H    0.014786   0.010696  -0.006084   0.000000  -0.000013  -0.000000
    38  H    0.006904  -0.014644  -0.002538   0.000000   0.000005  -0.000000
    39  H    0.010208  -0.013307  -0.003761   0.000000   0.000024   0.000000
    40  H   -0.044474   0.052894   0.014345  -0.000007  -0.000055   0.000001
              13         14         15         16         17         18
     1  C   -0.710220  -0.465733  -0.118455  -0.039034   0.215344  -0.910862
     2  C    0.056302  -0.366394   0.056890  -0.031124   0.044184  -0.031061
     3  Cl  -0.103422   0.030923  -0.004654   0.015331   0.000427  -0.006590
     4  C    0.170371   0.052868   0.010078   0.010665  -0.069424   0.296645
     5  H   -0.000073  -0.000301   0.000000   0.000000  -0.008739   0.005102
     6  C    0.024357   0.004820   0.000071   0.000551  -1.021270   1.020372
     7  C   -0.229001   0.234699  -0.046183  -0.004657   1.316675  -1.740724
     8  C    0.001739   0.008830  -0.001582   0.000104   0.094262  -0.178546
     9  C    0.151561   0.381351  -0.017899   0.013174  -0.200042   0.282854
    10  H   -0.000319   0.000014  -0.000026  -0.000008  -0.000925   0.000946
    11  S    0.650294  -0.405183   0.134168   0.058407   0.024855  -0.065435
    12  O   -0.123528  -0.065949  -0.005221   0.012212   0.000891  -0.000718
    13  O    8.676845  -0.138553   0.012400  -0.002591   0.000441  -0.002884
    14  N   -0.138553   8.189597   0.243338   0.227557   0.000453  -0.003896
    15  H    0.012400   0.243338   0.315077  -0.022658   0.000001  -0.000038
    16  H   -0.002591   0.227557  -0.022658   0.314909   0.000016  -0.000019
    17  N    0.000441   0.000453   0.000001   0.000016   8.191589  -1.916118
    18  C   -0.002884  -0.003896  -0.000038  -0.000019  -1.916118  13.914538
    19  N   -0.000450  -0.000669   0.000002  -0.000002  -0.070706  -0.124229
    20  C    0.000480   0.000424  -0.000002   0.000006   0.426809  -2.044826
    21  H    0.000000   0.000004  -0.000000  -0.000000   0.278795  -0.117933
    22  H    0.000000   0.000000   0.000000   0.000000  -0.019531   0.309872
    23  H    0.000000   0.000000   0.000000   0.000000   0.026893  -0.168887
    24  H    0.000001   0.000001   0.000000   0.000000  -0.016711  -0.033548
    25  O   -0.000007   0.000017   0.000011  -0.000000  -0.023922   0.059345
    26  C    0.001073   0.000083   0.000049   0.000000   0.077499  -2.319491
    27  C   -0.000114  -0.000177  -0.000004  -0.000000  -0.093527   0.370087
    28  C   -0.000332  -0.000096  -0.000001  -0.000001  -0.066266  -0.019484
    29  C   -0.000007   0.000032   0.000000  -0.000000   0.047191  -0.124871
    30  H   -0.000000  -0.000000  -0.000000   0.000000   0.000012  -0.000522
    31  C   -0.000002  -0.000005  -0.000000  -0.000000  -0.021297   0.110860
    32  H    0.000000   0.000000  -0.000000  -0.000000   0.000000  -0.000146
    33  C    0.000006   0.000031   0.000000   0.000000   0.078651  -0.241932
    34  H    0.000000   0.000000  -0.000000   0.000000  -0.000042  -0.000284
    35  C    0.000047   0.000193   0.000002   0.000000   0.090953  -0.073120
    36  H   -0.000000  -0.000000   0.000000   0.000000  -0.000353  -0.004434
    37  H    0.000000   0.000000  -0.000000  -0.000000   0.005035  -0.054655
    38  H    0.000000   0.000000   0.000000   0.000000   0.000042   0.000478
    39  H    0.000000  -0.000000  -0.000000   0.000000   0.000356  -0.003338
    40  H   -0.000000  -0.000000   0.000000  -0.000000  -0.000514  -0.025755
              19         20         21         22         23         24
     1  C   -0.074420   0.147513   0.003081   0.004871   0.001175   0.009389
     2  C    0.293085   0.258304   0.010675  -0.004786   0.000863   0.000692
     3  Cl  -0.000083  -0.002133   0.000093   0.000029  -0.000004   0.000076
     4  C   -0.268290  -0.171786  -0.047845  -0.003424   0.005675   0.006594
     5  H    0.000085   0.001100   0.004796   0.000001   0.000000   0.000009
     6  C    1.023987  -0.485364  -0.020707   0.015881  -0.004339   0.012051
     7  C   -2.259039  -0.114189   0.059442   0.023882   0.014178  -0.053501
     8  C    0.516307   0.285941   0.000809  -0.021220   0.027141  -0.041521
     9  C    0.370214   0.014604  -0.008335  -0.001005   0.000802   0.015301
    10  H    0.001542  -0.000119   0.000003  -0.000000  -0.000000  -0.000002
    11  S   -0.021925   0.003677   0.000161   0.000077   0.000029   0.000120
    12  O   -0.001209  -0.000349   0.000000   0.000000   0.000000   0.000001
    13  O   -0.000450   0.000480   0.000000   0.000000   0.000000   0.000001
    14  N   -0.000669   0.000424   0.000004   0.000000   0.000000   0.000001
    15  H    0.000002  -0.000002  -0.000000   0.000000   0.000000   0.000000
    16  H   -0.000002   0.000006  -0.000000   0.000000   0.000000   0.000000
    17  N   -0.070706   0.426809   0.278795  -0.019531   0.026893  -0.016711
    18  C   -0.124229  -2.044826  -0.117933   0.309872  -0.168887  -0.033548
    19  N    8.832625  -0.021440   0.020735  -0.015602  -0.006011   0.017020
    20  C   -0.021440   6.641490   0.022539  -0.036550   0.449351   0.383367
    21  H    0.020735   0.022539   0.334720  -0.004149  -0.000091  -0.000222
    22  H   -0.015602  -0.036550  -0.004149   0.499453  -0.001258   0.003735
    23  H   -0.006011   0.449351  -0.000091  -0.001258   0.446985  -0.022185
    24  H    0.017020   0.383367  -0.000222   0.003735  -0.022185   0.446916
    25  O   -0.236844  -0.022865   0.000149   0.000390  -0.000547   0.001168
    26  C   -1.083815   0.333690   0.035742   0.044167  -0.043025   0.068927
    27  C    0.089360   0.128978  -0.000037  -0.033631   0.009035  -0.024579
    28  C    0.143271   0.048843   0.000733  -0.000484  -0.015544   0.011988
    29  C   -0.175484   0.060004   0.000311  -0.012774   0.038801  -0.009668
    30  H    0.000381   0.000561   0.000000  -0.000000  -0.000001   0.000000
    31  C    0.028593   0.001858  -0.000072   0.005415  -0.003700   0.000227
    32  H   -0.000345  -0.000043   0.000000  -0.000000   0.000000  -0.000000
    33  C    0.061281  -0.130671  -0.001071   0.020000  -0.002084   0.000582
    34  H    0.000112   0.000024  -0.000000   0.000018  -0.000000   0.000000
    35  C    0.103378   0.024828  -0.007209  -0.011050   0.011259  -0.005422
    36  H    0.042407   0.007511   0.000010   0.000283   0.000007   0.000000
    37  H    0.017720   0.387733   0.001393  -0.002598  -0.021747  -0.025523
    38  H   -0.008670   0.000228   0.000000   0.000000   0.000002   0.000021
    39  H   -0.005231  -0.001281  -0.000000  -0.000000   0.000038   0.000033
    40  H    0.048051   0.018798   0.000001   0.000031  -0.001808  -0.000908
              25         26         27         28         29         30
     1  C    0.041734   0.542776  -0.116691  -0.001011  -0.000334  -0.000003
     2  C   -0.011370   0.024819   0.123090   0.137255  -0.031291   0.000001
     3  Cl   0.000134   0.000631  -0.000389  -0.000108   0.000163  -0.000000
     4  C    0.020936   0.232370  -0.086262  -0.125705   0.055747  -0.000010
     5  H    0.000007  -0.000898   0.000212   0.000071  -0.000013   0.000000
     6  C    0.045393  -0.647102   0.443997   0.299841  -0.096977  -0.000165
     7  C    0.091306   1.879983  -2.194358  -1.502138   0.778250  -0.000229
     8  C    0.391746  -4.380289   1.373535   0.305619  -0.320479   0.002087
     9  C   -0.154532  -0.379311   0.413407   0.281851  -0.095438  -0.000011
    10  H    0.006222  -0.000357   0.000306   0.001320  -0.000170   0.000000
    11  S    0.004713   0.035235  -0.009449  -0.016752   0.003178  -0.000000
    12  O    0.000720   0.000439  -0.000328  -0.000801   0.000120  -0.000000
    13  O   -0.000007   0.001073  -0.000114  -0.000332  -0.000007  -0.000000
    14  N    0.000017   0.000083  -0.000177  -0.000096   0.000032  -0.000000
    15  H    0.000011   0.000049  -0.000004  -0.000001   0.000000  -0.000000
    16  H   -0.000000   0.000000  -0.000000  -0.000001  -0.000000   0.000000
    17  N   -0.023922   0.077499  -0.093527  -0.066266   0.047191   0.000012
    18  C    0.059345  -2.319491   0.370087  -0.019484  -0.124871  -0.000522
    19  N   -0.236844  -1.083815   0.089360   0.143271  -0.175484   0.000381
    20  C   -0.022865   0.333690   0.128978   0.048843   0.060004   0.000561
    21  H    0.000149   0.035742  -0.000037   0.000733   0.000311   0.000000
    22  H    0.000390   0.044167  -0.033631  -0.000484  -0.012774  -0.000000
    23  H   -0.000547  -0.043025   0.009035  -0.015544   0.038801  -0.000001
    24  H    0.001168   0.068927  -0.024579   0.011988  -0.009668   0.000000
    25  O    8.227426   0.151543  -0.084281  -0.163955   0.057038  -0.000075
    26  C    0.151543  20.114223  -3.644882  -1.203486   0.386782   0.049640
    27  C   -0.084281  -3.644882  13.664287   0.844190  -5.055150  -0.013227
    28  C   -0.163955  -1.203486   0.844190   7.606640  -1.031969  -0.017639
    29  C    0.057038   0.386782  -5.055150  -1.031969  11.069892   0.249716
    30  H   -0.000075   0.049640  -0.013227  -0.017639   0.249716   0.496339
    31  C    0.003995  -0.668383   0.267833   0.199931  -0.186388   0.032590
    32  H    0.000002  -0.004040   0.036365  -0.000001  -0.019739  -0.003493
    33  C    0.031573   0.951030  -1.585521  -0.267432   0.619331   0.008010
    34  H    0.000004   0.027379  -0.011203   0.000600   0.020879  -0.000146
    35  C    0.006721  -3.876549   0.925005   0.096882   0.102034  -0.013985
    36  H   -0.000047  -0.169466   0.031237  -0.000182  -0.015192   0.000017
    37  H   -0.000009  -0.051478   0.006537  -0.008436   0.000784  -0.000000
    38  H    0.002105   0.024077  -0.135358   0.404185   0.047989   0.001929
    39  H   -0.003757   0.055726  -0.022318   0.378725  -0.040330   0.000280
    40  H   -0.005991  -0.077190  -0.022082   0.397240  -0.038050   0.000092
              31         32         33         34         35         36
     1  C   -0.005655   0.000001   0.020669   0.000001   0.006787  -0.000580
     2  C    0.007372  -0.000000  -0.041955  -0.000002  -0.089329   0.000457
     3  Cl  -0.000021   0.000000   0.000078   0.000000   0.000304  -0.000001
     4  C   -0.006633  -0.000001  -0.000825  -0.000010   0.014760  -0.002170
     5  H    0.000002   0.000000  -0.000032   0.000000  -0.000249   0.000000
     6  C    0.045951  -0.000037  -0.138822   0.000070   0.084865   0.001049
     7  C   -0.221892   0.000040   0.739823   0.000344   0.145496  -0.011041
     8  C    0.099633  -0.001280  -0.414627  -0.000914   0.534628   0.068389
     9  C    0.047208  -0.000012  -0.186973  -0.000018  -0.154273  -0.000853
    10  H    0.000038   0.000000  -0.000050  -0.000000  -0.000193   0.000000
    11  S   -0.000791   0.000000   0.001997  -0.000000   0.005058  -0.000007
    12  O   -0.000016   0.000000   0.000047  -0.000000   0.000296  -0.000000
    13  O   -0.000002   0.000000   0.000006   0.000000   0.000047  -0.000000
    14  N   -0.000005   0.000000   0.000031   0.000000   0.000193  -0.000000
    15  H   -0.000000  -0.000000   0.000000  -0.000000   0.000002   0.000000
    16  H   -0.000000  -0.000000   0.000000   0.000000   0.000000   0.000000
    17  N   -0.021297   0.000000   0.078651  -0.000042   0.090953  -0.000353
    18  C    0.110860  -0.000146  -0.241932  -0.000284  -0.073120  -0.004434
    19  N    0.028593  -0.000345   0.061281   0.000112   0.103378   0.042407
    20  C    0.001858  -0.000043  -0.130671   0.000024   0.024828   0.007511
    21  H   -0.000072   0.000000  -0.001071  -0.000000  -0.007209   0.000010
    22  H    0.005415  -0.000000   0.020000   0.000018  -0.011050   0.000283
    23  H   -0.003700   0.000000  -0.002084  -0.000000   0.011259   0.000007
    24  H    0.000227  -0.000000   0.000582   0.000000  -0.005422   0.000000
    25  O    0.003995   0.000002   0.031573   0.000004   0.006721  -0.000047
    26  C   -0.668383  -0.004040   0.951030   0.027379  -3.876549  -0.169466
    27  C    0.267833   0.036365  -1.585521  -0.011203   0.925005   0.031237
    28  C    0.199931  -0.000001  -0.267432   0.000600   0.096882  -0.000182
    29  C   -0.186388  -0.019739   0.619331   0.020879   0.102034  -0.015192
    30  H    0.032590  -0.003493   0.008010  -0.000146  -0.013985   0.000017
    31  C    6.224313   0.291995   0.084335   0.020029  -0.242408   0.005978
    32  H    0.291995   0.487798   0.010706  -0.003331  -0.005256  -0.000140
    33  C    0.084335   0.010706   8.070223   0.289033  -1.595330  -0.049571
    34  H    0.020029  -0.003331   0.289033   0.487295  -0.038862  -0.003273
    35  C   -0.242408  -0.005256  -1.595330  -0.038862   9.542074   0.393979
    36  H    0.005978  -0.000140  -0.049571  -0.003273   0.393979   0.486087
    37  H    0.000334  -0.000000   0.001407   0.000000   0.012939  -0.000000
    38  H    0.008820  -0.000003   0.003568  -0.000000  -0.003562   0.000001
    39  H   -0.009743   0.000001   0.004585   0.000000  -0.007539   0.000001
    40  H   -0.001748   0.000002  -0.001691  -0.000000   0.001739  -0.000003
              37         38         39         40
     1  C   -0.000690   0.000039   0.000362   0.002175
     2  C   -0.004746  -0.000114  -0.000001   0.000909
     3  Cl   0.000048   0.000000   0.000000  -0.000002
     4  C   -0.009006   0.000120   0.000159  -0.002467
     5  H   -0.000004  -0.000000   0.000000   0.000000
     6  C    0.014350  -0.001729  -0.001865   0.009302
     7  C    0.014786   0.006904   0.010208  -0.044474
     8  C    0.010696  -0.014644  -0.013307   0.052894
     9  C   -0.006084  -0.002538  -0.003761   0.014345
    10  H    0.000000   0.000000   0.000000  -0.000007
    11  S   -0.000013   0.000005   0.000024  -0.000055
    12  O   -0.000000  -0.000000   0.000000   0.000001
    13  O    0.000000   0.000000   0.000000  -0.000000
    14  N    0.000000   0.000000  -0.000000  -0.000000
    15  H   -0.000000   0.000000  -0.000000   0.000000
    16  H   -0.000000   0.000000   0.000000  -0.000000
    17  N    0.005035   0.000042   0.000356  -0.000514
    18  C   -0.054655   0.000478  -0.003338  -0.025755
    19  N    0.017720  -0.008670  -0.005231   0.048051
    20  C    0.387733   0.000228  -0.001281   0.018798
    21  H    0.001393   0.000000  -0.000000   0.000001
    22  H   -0.002598   0.000000  -0.000000   0.000031
    23  H   -0.021747   0.000002   0.000038  -0.001808
    24  H   -0.025523   0.000021   0.000033  -0.000908
    25  O   -0.000009   0.002105  -0.003757  -0.005991
    26  C   -0.051478   0.024077   0.055726  -0.077190
    27  C    0.006537  -0.135358  -0.022318  -0.022082
    28  C   -0.008436   0.404185   0.378725   0.397240
    29  C    0.000784   0.047989  -0.040330  -0.038050
    30  H   -0.000000   0.001929   0.000280   0.000092
    31  C    0.000334   0.008820  -0.009743  -0.001748
    32  H   -0.000000  -0.000003   0.000001   0.000002
    33  C    0.001407   0.003568   0.004585  -0.001691
    34  H    0.000000  -0.000000   0.000000  -0.000000
    35  C    0.012939  -0.003562  -0.007539   0.001739
    36  H   -0.000000   0.000001   0.000001  -0.000003
    37  H    0.488734   0.000000  -0.000001   0.000144
    38  H    0.000000   0.496258  -0.025360  -0.024967
    39  H   -0.000001  -0.025360   0.429066  -0.023328
    40  H    0.000144  -0.024967  -0.023328   0.480952
 Mulliken charges:
               1
     1  C   -2.344726
     2  C    1.158219
     3  Cl   0.246322
     4  C   -0.885819
     5  H    0.228277
     6  C   -0.096316
     7  C    1.129759
     8  C    0.570310
     9  C   -0.322578
    10  H    0.319248
    11  S    1.387086
    12  O   -0.568582
    13  O   -0.434413
    14  N   -0.928280
    15  H    0.444637
    16  H    0.447162
    17  N   -0.391991
    18  C   -0.156756
    19  N   -0.235692
    20  C   -0.617042
    21  H    0.433474
    22  H    0.239959
    23  H    0.258998
    24  H    0.255569
    25  O   -0.436196
    26  C   -0.488120
    27  C    0.406109
    28  C   -0.717363
    29  C   -0.283917
    30  H    0.207851
    31  C   -0.118557
    32  H    0.210960
    33  C   -0.338378
    34  H    0.212295
    35  C    0.020111
    36  H    0.219900
    37  H    0.222349
    38  H    0.220175
    39  H    0.281593
    40  H    0.244363
 Sum of Mulliken charges =  -0.00000
 Mulliken charges with hydrogens summed into heavy atoms:
               1
     1  C   -2.344726
     2  C    1.158219
     3  Cl   0.246322
     4  C   -0.657542
     6  C   -0.096316
     7  C    1.129759
     8  C    0.570310
     9  C   -0.003331
    11  S    1.387086
    12  O   -0.568582
    13  O   -0.434413
    14  N   -0.036481
    17  N    0.041484
    18  C    0.083203
    19  N   -0.235692
    20  C    0.119874
    25  O   -0.436196
    26  C   -0.488120
    27  C    0.406109
    28  C    0.028768
    29  C   -0.076066
    31  C    0.092404
    33  C   -0.126083
    35  C    0.240010
 Electronic spatial extent (au):  <R**2>=          11005.0167
 Charge=             -0.0000 electrons
 Dipole moment (field-independent basis, Debye):
    X=              5.3845    Y=              8.2783    Z=             -1.3587  Tot=              9.9684
 Quadrupole moment (field-independent basis, Debye-Ang):
   XX=           -156.3384   YY=           -156.1361   ZZ=           -151.7614
   XY=            -11.1941   XZ=             19.7561   YZ=             -0.6907
 Traceless Quadrupole moment (field-independent basis, Debye-Ang):
   XX=             -1.5931   YY=             -1.3908   ZZ=              2.9839
   XY=            -11.1941   XZ=             19.7561   YZ=             -0.6907
 Octapole moment (field-independent basis, Debye-Ang**2):
  XXX=            118.6919  YYY=             76.4343  ZZZ=            -13.4213  XYY=             28.9971
  XXY=             50.2425  XXZ=            -91.2018  XZZ=            -14.1430  YZZ=             -4.8888
  YYZ=             13.5628  XYZ=            -30.2310
 Hexadecapole moment (field-independent basis, Debye-Ang**3):
[...]
 00008262,0.00044611,0.00004981,-0.00008502,-0.00006808,0.00046186,-0.0
 0089275,0.00029854,-0.00000652,0.00000832,-0.00003876,0.00003419,0.000
 15610,0.00004546,0.00048661,-0.00032850,0.00023617,-0.01810616,-0.0028
 1011,-0.00295396,-0.00030735,0.00161832,-0.00541874,-0.00080662,0.0001
 4491,0.00016135,0.00064263,-0.00077074,-0.00019836,0.00006811,-0.00048
 675,0.00041527,0.00078276,0.00424747,-0.00393859,0.00045503,0.00022545
 ,0.00005844,0.00774353,0.00711263,0.00171891,0.00046029,-0.00231645,0.
 00234647,-0.10418329,-0.09015447,-0.03231905,0.11237546,0.08629228,-0.
 00007378,0.00002027,0.00004448,0.00006505,-0.00001730,-0.00000717,-0.0
 0005059,0.00001014,0.00002268,-0.00001356,0.00000619,0.00002747,-0.000
 00268,-0.00000332,0.00000160,0.00003897,-0.00004888,-0.00013898,-0.000
 10393,-0.00004410,-0.00000430,0.00015157,-0.00011274,-0.00121585,0.000
 06932,0.00001125,-0.00009904,-0.00000228,-0.00001381,-0.00001629,0.000
 01223,-0.00001674,-0.00016365,0.00001584,0.00000239,0.00004994,-0.0000
 1675,0.00003421,0.00005367,-0.00001956,-0.00001698,0.00004975,0.000002
 55,0.00000704,-0.00001473,0.00000843,0.00000137,-0.00001227,-0.0000072
 4,0.00025983,0.00001083,0.00028498,-0.00093224,0.00037246,-0.00106821,
 0.00368831,0.00078416,-0.00004838,-0.00000409,-0.00001474,-0.00001644,
 -0.00000433,0.00005084,-0.00002857,-0.00021744,-0.00001834,0.00001074,
 0.00003761,-0.00001761,-0.00002043,0.00000028,-0.00000757,0.00026635,-
 0.00001121,0.00033600,-0.02309016,-0.00996992,-0.00044190,0.00121354,-
 0.00530766,-0.00167197,-0.00114071,-0.00026413,0.00029926,0.00053857,-
 0.00015764,-0.00104435,-0.00017714,0.00043154,-0.00020443,0.00373064,-
 0.00406082,0.00071022,0.00088001,0.00032881,0.00030475,0.01641582,0.00
 773340,0.00824517,-0.00105363,0.00227023,-0.00100349,-0.04592403,-0.03
 140587,-0.06183285,0.04926445,0.03797189,0.05700094,-0.00000317,0.0000
 2196,-0.00006087,-0.00002986,-0.00001001,0.00010091,0.00004939,-0.0000
 0721,-0.00002501,0.00007380,-0.00001937,-0.00012291,-0.00000552,0.0000
 0171,-0.00000231,-0.00000359,0.00016101,0.00032531,0.00005304,-0.00014
 085,-0.00009775,-0.00015340,-0.00024458,0.00011050,-0.00001593,-0.0000
 0214,-0.00000658,0.00000243,0.00000158,0.00000674,-0.00004366,0.000005
 99,0.00013966,0.00000250,0.00000314,-0.00004050,0.00002006,-0.00002897
 ,-0.00004455,0.00002596,0.00001920,-0.00004293,-0.00000277,-0.00000806
 ,0.00000965,-0.00000621,-0.00000075,0.00000932,0.00114877,0.00022812,-
 0.00014331,0.00337533,-0.00587413,0.00535539,0.00111019,-0.00140778,0.
 00029876,-0.16407522,0.10007305,-0.09065262,-0.00005364,-0.00023150,-0
 .00003481,0.00031063,0.00076385,0.00005534,-0.01740707,0.01714815,-0.0
 1627160,0.00040415,-0.00175455,0.00137628,0.00023517,0.00006178,0.0001
 1000,-0.00001187,-0.00032157,0.00000654,0.00010576,-0.00024281,-0.0001
 7537,0.00029236,-0.00010139,-0.00031071,0.00003731,0.00004350,0.000021
 66,0.00000418,-0.00000600,-0.00000770,0.00001714,-0.00000776,0.0000011
 4,-0.00000925,0.00001208,0.00001474,-0.00002794,0.00004248,0.00004216,
 -0.00000226,0.00001834,0.00000353,0.00003968,-0.00008551,-0.00008872,0
 .00002183,0.00001311,0.00000923,0.17495812,-0.00010488,0.00004973,-0.0
 0021978,0.00001809,-0.00001964,0.00023373,-0.00003674,0.00000688,-0.00
 000004,0.00026813,-0.00005216,-0.00023209,-0.00005235,0.00000045,0.000
 01478,-0.00025071,0.00001320,0.00171861,-0.00037725,0.00030213,-0.0003
 0941,0.00048015,-0.00020873,-0.00425442,-0.00010497,0.00004016,0.00007
 632,0.00003821,-0.00002370,-0.00005746,0.00003983,-0.00004814,0.000166
 08,-0.00005572,0.00002906,-0.00002873,0.00000010,0.00000671,-0.0000359
 8,0.00000332,0.00001656,-0.00003829,0.00000502,-0.00000878,0.00000554,
 -0.00000329,-0.00000229,0.00000377,0.00091273,0.00224625,-0.00193388,0
 .02170137,-0.01347309,0.01700169,0.00010498,-0.00868750,0.00276478,0.0
 9811471,-0.13432897,0.07680450,-0.00099558,-0.00077405,0.00018738,-0.0
 0002383,0.00113674,-0.00057577,-0.00374423,0.00349717,-0.00422688,-0.0
 0720554,0.00548512,-0.00414035,0.00091798,-0.00033363,0.00155358,-0.00
 139293,0.00009293,0.00100860,0.00007677,-0.00009263,-0.00020865,0.0000
 6472,-0.00008288,-0.00015210,0.00000884,0.00002954,0.00004177,0.000033
 15,-0.00000012,-0.00001355,0.00008266,-0.00001777,-0.00004259,0.000008
 19,-0.00000320,0.00000464,-0.00004303,0.00004129,-0.00002903,0.0000230
 6,-0.00002571,-0.00001658,0.00021939,0.00006559,-0.00030854,-0.0000012
 1,-0.00002691,0.00005707,-0.10846164,0.14505656,0.00028069,-0.00009469
 ,0.00001025,-0.00014772,0.00004158,-0.00028042,0.00005083,-0.00001741,
 -0.00000488,-0.00013594,0.00000511,0.00018689,0.00007192,0.00004267,0.
 00000367,-0.00003558,-0.00004022,-0.00059317,0.00008885,0.00032165,-0.
 00015581,0.00001480,-0.00080945,0.00016064,-0.00011781,0.00003468,0.00
 034920,-0.00000230,-0.00001105,0.00001591,-0.00005102,0.00003037,0.000
 04788,0.00002890,-0.00001084,-0.00000789,0.00002792,-0.00003289,-0.000
 02128,0.00002033,0.00000161,-0.00001663,-0.00000260,-0.00000194,0.0000
 0281,-0.00000491,0.00000538,-0.00000072,0.00043168,-0.00023394,0.00018
 144,0.00296996,-0.00253755,0.00062987,-0.00011482,-0.00059404,0.001486
 96,-0.09097606,0.07738853,-0.11979417,0.00029800,0.00054391,0.00014355
 ,0.00042668,0.00045967,0.00020128,0.00773593,-0.00831228,0.00629384,-0
 .02064149,0.01854227,-0.01357293,0.00010923,0.00009331,0.00012036,0.00
 005569,0.00010772,0.00012527,-0.00013632,0.00003311,-0.00002678,0.0001
 9233,-0.00022798,-0.00005047,0.00001054,0.00004194,0.00003137,0.000000
 84,-0.00000043,-0.00001018,-0.00000759,0.00000529,0.00001697,-0.000003
 07,0.00000291,0.00000538,-0.00000216,-0.00001571,0.00002132,-0.0000018
 7,-0.00000168,0.00000762,-0.00006036,0.00006893,0.00006765,-0.00001454
 ,-0.00000238,-0.00001602,0.09976137,-0.08499145,0.12442390,-0.00008305
 ,0.00002350,0.00004248,0.00007004,-0.00002032,0.00000247,-0.00006714,0
 .00001260,0.00002963,-0.00001246,0.00000558,0.00000994,-0.00000756,-0.
 00000003,0.00000082,0.00003340,-0.00001563,0.00004862,-0.00000512,0.00
 000549,0.00005540,0.00063088,0.00025173,-0.00059179,0.00002488,-0.0000
 0879,-0.00008657,0.00000794,0.00000193,-0.00003459,0.00002101,-0.00001
 227,-0.00020236,0.00001492,-0.00000224,0.00006547,-0.00001845,0.000044
 65,0.00006897,-0.00002692,-0.00002539,0.00006306,0.00000203,0.00001116
 ,-0.00001413,0.00000817,0.00000258,-0.00001481,-0.00002173,0.00007159,
 -0.00004493,0.00041859,-0.00017250,0.00020607,-0.00040696,-0.00067574,
 -0.00020068,-0.00019308,0.00019316,0.00006541,-0.00000536,0.00000390,0
 .00002156,-0.00003167,0.00000881,-0.00002538,-0.00007621,-0.00008625,0
 .00003677,0.00009894,-0.00006469,-0.00006571,-0.00007406,-0.00015199,0
 .00002901,0.00045913,-0.00066901,0.00002264,-0.00411922,-0.00163360,-0
 .00073959,-0.21721402,-0.12823605,0.03590559,0.00028874,0.00202004,0.0
 0175004,0.00047373,-0.00035589,0.00034334,-0.00010122,0.00013021,-0.00
 093269,0.00000052,-0.00005782,-0.00001738,0.00045485,0.00018181,0.0001
 2447,0.00005206,-0.00010178,0.00005000,-0.00049829,0.00002138,0.000295
 60,0.00001590,-0.00005190,-0.00009150,-0.00006069,-0.00001918,-0.00007
 137,0.23296333,-0.00002694,0.00000124,0.00001815,0.00001658,-0.0000045
 7,-0.00000236,-0.00002405,0.00000371,0.00001106,-0.00001167,0.00000088
 ,0.00001276,-0.00000387,-0.00000093,0.00000139,-0.00000832,-0.00000355
 ,0.00002593,-0.00014428,0.00013986,0.00010868,0.00052439,-0.00044877,0
 .00066199,-0.00001774,0.00001204,-0.00002659,0.00000591,-0.00001230,-0
 .00001353,-0.00001318,-0.00000630,-0.00007903,0.00001591,0.00000012,0.
 00002727,-0.00000121,0.00001594,0.00002605,-0.00000452,-0.00000817,0.0
 0002469,0.00000034,0.00000339,-0.00000629,0.00000259,0.00000167,-0.000
 00634,-0.00005578,0.00003782,-0.00000318,-0.00009182,-0.00018533,-0.00
 002346,0.00066888,0.00067350,0.00010477,0.00004583,-0.00006597,-0.0000
 8944,-0.00001372,-0.00000249,0.00000676,0.00002414,0.00000257,0.000016
 98,-0.00007849,0.00000280,-0.00004428,-0.00007232,0.00003535,0.0000483
 9,-0.00107675,-0.00030374,-0.00001613,0.00107939,-0.00196892,-0.003075
 05,-0.01490897,-0.01147513,0.00393093,-0.12724079,-0.14773479,0.025843
 60,-0.00129488,0.00102730,0.00082337,0.00094109,-0.00024862,-0.0004062
 6,0.00001571,0.00007599,-0.00015613,0.00001831,-0.00002564,0.00002061,
 0.00029351,-0.00008705,-0.00012325,0.00007804,-0.00000520,0.00002726,-
 0.00087010,0.00057308,0.00008019,-0.00004289,-0.00014450,-0.00020620,0
 .00003058,0.00004377,0.00004698,0.14157437,0.15678527,0.00006274,-0.00
 001850,-0.00000375,-0.00004842,0.00001187,-0.00000485,0.00005772,-0.00
 000872,-0.00002544,0.00000825,-0.00000236,0.00000367,0.00000851,-0.000
 00210,-0.00000264,-0.00001316,0.00001335,-0.00016095,0.00008534,-0.000
 15069,0.00005753,-0.00118654,0.00109129,-0.00154482,-0.00003393,0.0000
 0177,0.00004982,-0.00002361,-0.00000504,0.00004345,-0.00001816,0.00000
 779,0.00016784,-0.00001259,0.00000159,-0.00005924,0.00001407,-0.000034
 17,-0.00005788,0.00002269,0.00002166,-0.00005030,-0.00000169,-0.000010
 01,0.00001184,-0.00000616,-0.00000255,0.00001246,0.00000193,0.00006935
 ,0.00009019,-0.00002084,-0.00008896,0.00001238,0.00009843,-0.00046084,
 0.00062159,-0.00001771,-0.00003263,0.00004658,-0.00001662,-0.00002215,
 -0.00000845,0.00003092,-0.00002249,0.00002536,0.00001979,-0.00000700,-
 0.00002912,-0.00001394,0.00003343,0.00000877,0.00199895,0.00047509,0.0
 0064517,0.00111888,-0.00301640,-0.00341868,-0.02315696,-0.01759439,0.0
 0193354,0.03799674,0.02809486,-0.05406589,-0.00154084,0.00031174,0.000
 54275,0.00067523,-0.00006150,0.00009487,-0.00012698,0.00019139,0.00007
 118,0.00001826,0.00003106,0.00003214,-0.00009655,-0.00010532,0.0001283
 3,0.00004018,0.00000844,-0.00000148,-0.00126658,0.00003573,-0.00040543
 ,-0.00007136,-0.00013873,-0.00038874,0.00002524,0.00000576,0.00001043,
 -0.03999699,-0.02604742,0.06019066,0.00012494,-0.00001489,0.00003275,-
 0.00009480,0.00001819,-0.00004054,0.00009676,-0.00001813,-0.00003474,0
 .00001062,-0.00001050,0.00005629,0.00002228,-0.00000283,-0.00000431,-0
 .00002884,0.00005703,-0.00047048,0.00028802,-0.00018732,0.00009110,-0.
 00317141,0.00191066,-0.00302250,-0.00005433,-0.00000878,0.00004338,-0.
 00006930,-0.00003417,0.00009173,-0.00009654,-0.00000716,0.00021639,0.0
 0002464,0.00000893,-0.00008045,0.00003511,-0.00004492,-0.00007732,0.00
 004970,0.00004746,-0.00007398,-0.00000238,-0.00001693,0.00001717,-0.00
 001030,-0.00000281,0.00001938,-0.00009790,-0.00010962,0.00037084,-0.00
 014465,0.00030884,-0.00018136,0.00018571,-0.00070890,0.00138776,0.0000
 6679,0.00004676,-0.00015711,-0.00000119,-0.00000283,-0.00001793,0.0000
 6573,-0.00007692,0.00006323,-0.00004914,-0.00011086,0.00026914,0.00012
 105,-0.00000106,-0.00010484,0.00190173,-0.00073955,0.00149476,-0.00015
 807,-0.00120166,-0.00105394,-0.00114631,0.00235301,-0.00254268,-0.0525
 7013,0.02450547,-0.03807008,-0.00013334,0.00097892,0.00076289,-0.00006
 740,-0.00019026,0.00020020,-0.00053822,-0.00026492,-0.00060246,0.00000
 037,-0.00003706,0.00002029,0.00062612,0.00002874,-0.00015935,0.0000006
 7,-0.00003462,0.00003511,-0.00031589,0.00016143,0.00061959,-0.00002828
 ,-0.00003186,-0.00007603,-0.00016866,-0.00013135,-0.00003865,0.0056122
 1,-0.01409642,0.02253251,0.05477691,-0.00001412,-0.00000926,-0.0000390
 1,-0.00000163,-0.00000086,0.00004856,0.00001343,-0.00000224,-0.0000098
 4,0.00004817,0.00000004,-0.00003761,0.00000517,-0.00000051,-0.00000256
 ,-0.00000968,0.00000029,0.00004258,0.00028225,0.00005136,0.00011543,-0
 .00173048,0.00077281,-0.00155464,0.00000547,-0.00001890,0.00004749,0.0
 0000209,0.00004602,0.00001616,0.00005032,0.00002925,0.00008715,-0.0000
 3765,-0.00001477,-0.00002744,-0.00000516,-0.00002560,-0.00003047,-0.00
 000564,-0.00000240,-0.00001710,-0.00000257,-0.00000055,0.00000415,-0.0
 0000229,-0.00000195,0.00000471,-0.00001304,0.00006063,-0.00006485,-0.0
 0018625,-0.00021097,0.00004788,-0.00011926,0.00025724,0.00082718,0.000
 05768,-0.00006535,0.00018467,-0.00002864,-0.00001700,0.00000035,0.0000
 4890,-0.00001094,0.00004751,0.00003769,-0.00000329,-0.00020165,-0.0000
 9940,0.00001499,0.00007698,0.00028727,-0.00175472,0.00042870,0.0005251
 8,-0.00070610,-0.00038345,-0.00476679,0.01330452,-0.01830207,0.0258608
 0,-0.12670494,0.12223734,0.00009973,-0.00119264,-0.00102228,0.00021353
 ,0.00026770,-0.00006961,0.00042350,-0.00022978,0.00107689,0.00001779,0
 .00003741,-0.00010070,-0.00068448,-0.00029782,-0.00035865,-0.00001728,
 0.00004754,-0.00001410,0.00044619,-0.00088053,0.00014103,-0.00003941,-
 0.00007797,-0.00005179,0.00010422,0.00003472,0.00002278,0.00430718,-0.
 01017577,0.01390765,-0.02739265,0.13798324,0.00001347,-0.00000775,0.00
 000489,-0.00000572,0.00000626,-0.00001930,0.00001779,-0.00000137,-0.00
 000908,-0.00001578,0.00000763,0.00001696,0.00000547,-0.00000260,-0.000
 00335,0.00001129,0.00001398,-0.00015461,0.00004725,-0.00032884,-0.0000
 3534,-0.00073471,0.00031347,-0.00120558,0.00002566,-0.00001585,0.00004
 639,0.00002557,0.00001599,0.00000652,0.00005326,-0.00000893,0.00004587
 ,-0.00003734,0.00000486,-0.00001710,-0.00001033,-0.00000026,-0.0000123
 5,-0.00000866,0.00000177,-0.00001067,0.00000035,-0.00000087,0.00000251
 ,-0.00000081,-0.00000262,0.00000283,0.00000691,0.00007177,0.00008796,0
 .00010242,0.00005735,0.00017030,-0.00094255,0.00092505,0.00048445,-0.0
 0001760,0.00006792,0.00000025,-0.00001510,-0.00002258,-0.00000012,0.00
 000927,-0.00000738,0.00003370,-0.00003826,-0.00003542,-0.00009003,-0.0
 0005423,-0.00000421,0.00002653,0.00220532,0.00104319,0.00001909,0.0023
 9080,-0.00043469,-0.00069235,-0.00506979,0.00924130,-0.02477374,-0.039
 02091,0.12574947,-0.23109445,-0.00144169,-0.00065784,0.00064425,0.0000
 8395,0.00057575,-0.00057974,-0.00003630,-0.00154410,0.00019434,0.00000
 561,-0.00003269,-0.00012489,0.00021748,0.00013872,-0.00021889,-0.00003
 236,0.00015527,-0.00011979,0.00019039,-0.00109054,0.00061670,-0.000033
 45,-0.00010300,-0.00006068,0.00004000,0.00004829,0.00001388,-0.0002730
 3,0.00157679,-0.00241658,0.04125662,-0.13229657,0.25372954,0.00005585,
 -0.00004570,-0.00003663,-0.00002907,0.00001613,-0.00001748,0.00003032,
 -0.00000535,-0.00001498,-0.00000410,-0.00000570,-0.00001074,0.00000529
 ,0.00000236,-0.00000046,-0.00003279,0.00002104,-0.00002061,0.00014468,
 0.00014611,-0.00010265,-0.00050129,-0.00125256,0.00054272,0.00000827,0
 .00002458,0.00012142,0.00001620,0.00003211,-0.00000290,0.00004990,0.00
 005670,0.00009386,-0.00003653,-0.00001611,-0.00002738,-0.00000277,-0.0
 0004085,-0.00003178,-0.00000956,-0.00000717,-0.00002007,-0.00000096,-0
 .00000078,0.00000403,-0.00000176,-0.00000137,0.00000519,0.00001618,-0.
 00004444,0.00000607,-0.00024780,-0.00008944,-0.00008250,-0.00020615,-0
 .00114181,-0.00082275,-0.00083603,0.00023387,-0.00089345,0.00000323,0.
 00001863,-0.00000969,0.00007142,0.00003668,-0.00002923,-0.00008013,0.0
 0020918,-0.00004945,-0.00043105,0.00036300,-0.00017607,-0.00009235,0.0
 0020611,-0.00047851,-0.00135594,-0.00051585,0.00030434,0.00619319,-0.0
 0357648,0.00139594,-0.22668713,0.12456125,0.03724238,-0.00003785,0.000
 01296,-0.00117838,0.00037142,-0.00006708,-0.00020743,0.00034515,0.0003
 2953,-0.00001757,0.00002360,-0.00006049,0.00000691,-0.00021856,-0.0000
 9084,-0.00000981,0.00002058,0.00000651,0.00002912,0.00034706,0.0002865
 2,-0.00026154,0.00003114,0.00004297,0.00004731,-0.00020709,-0.00011697
 ,-0.00001031,-0.01862802,0.01476313,0.00285326,-0.00506229,0.00231987,
 0.00107974,0.24697575,0.00010763,-0.00004084,-0.00001249,-0.00009407,0
 .00003154,-0.00002423,0.00008981,-0.00001461,-0.00003616,0.00000024,-0
 .00001801,0.00002195,0.00001334,-0.00000194,-0.00000218,-0.00006339,0.
 00004964,-0.00023999,0.00000723,-0.00000455,0.00006281,-0.00215843,-0.
 00108573,0.00010588,-0.00007309,0.00002609,0.00010289,-0.00001738,-0.0
 0002611,0.00005644,-0.00006959,-0.00002526,0.00022940,0.00000378,0.000
 01829,-0.00007914,0.00003071,-0.00003706,-0.00007893,0.00004431,0.0000
 4559,-0.00007334,-0.00000042,-0.00001709,0.00001629,-0.00001006,-0.000
 00338,0.00001838,-0.00001494,-0.00002983,0.00021275,-0.00065270,0.0001
 8505,-0.00044307,0.00022987,0.00064744,0.00084296,0.00052100,-0.000389
 12,0.00041814,-0.00001466,-0.00003226,-0.00002372,0.00007560,-0.000089
 80,0.00009623,0.00021748,0.00018232,0.00016678,0.00016033,0.00009062,0
 .00009669,0.00060984,0.00053915,0.00014593,0.00151645,0.00059407,-0.00
 078480,0.01521902,-0.01039090,-0.00107940,0.12311590,-0.13548057,-0.02
 824720,-0.00165192,-0.00204189,-0.00245760,0.00020265,-0.00012096,0.00
 010180,0.00086341,0.00094454,-0.00006847,-0.00001413,-0.00017310,-0.00
 017316,-0.00056913,-0.00026763,-0.00005057,-0.00003098,-0.00002448,0.0
 0003252,0.00030738,0.00002953,-0.00049545,-0.00003653,-0.00004346,-0.0
 0000461,0.00020270,0.00001535,0.00009552,-0.01651057,0.01347145,0.0035
 1815,0.01505355,-0.01050290,-0.00341670,-0.13661024,0.14399081,-0.0000
 1858,0.00000026,-0.00009841,0.00001915,-0.00001713,0.00007348,-0.00000
 859,0.00000283,-0.00000534,0.00005741,0.00001673,-0.00010482,-0.000011
 48,-0.00000073,0.00000045,0.00003530,-0.00005250,0.00053895,-0.0000810
 0,-0.00006691,-0.00008797,0.00045090,-0.00053052,0.00158403,0.00001094
 ,-0.00000078,0.00002289,0.00001575,0.00005041,-0.00002865,0.00008172,0
 .00002976,0.00006847,-0.00005248,-0.00001202,-0.00001286,-0.00001724,-
 0.00001668,-0.00001462,-0.00001393,-0.00000885,-0.00001287,-0.00000030
 ,0.00000026,0.00000211,-0.00000090,-0.00000277,0.00000067,0.00020025,0
 .00025020,-0.00044266,-0.00044117,-0.00062843,0.00001473,-0.00000936,0
 .00081167,0.00012948,-0.00057441,0.00001549,0.00023422,-0.00003082,-0.
 00003387,-0.00001251,0.00003434,0.00003960,0.00001669,-0.00035165,0.00
 036353,-0.00103053,-0.00008855,0.00002744,0.00018449,-0.00093484,0.000
 07258,-0.00057991,0.00127973,0.00062540,0.00018736,0.02325488,-0.01467
 093,-0.00636463,0.03577320,-0.02660226,-0.05161296,-0.00188689,-0.0033
 8984,-0.00287345,-0.00009363,-0.00024129,0.00015724,0.00081916,0.00023
 983,-0.00113364,-0.00003715,-0.00019960,-0.00034426,0.00015801,-0.0000
 2356,0.00008426,-0.00003493,-0.00007302,0.00002596,0.00006918,0.000356
 92,-0.00032849,-0.00005061,0.00000087,0.00003076,0.00030478,0.00011869
 ,-0.00000699,0.00416614,-0.00311968,-0.00215631,-0.02277239,0.01521920
 ,0.00549166,-0.03921993,0.03144970,0.05840401\\0.00004063,0.00000047,0
 .00000604,-0.00000877,0.00001701,-0.00001250,-0.00000819,-0.00000254,-
 0.00001153,-0.00000515,-0.00000201,-0.00000098,0.00000033,0.00000108,-
 0.00000046,0.00000111,-0.00001072,0.00001547,-0.00000432,0.00000995,0.
 00000115,0.00002541,0.00000198,-0.00003519,-0.00001826,-0.00000163,-0.
 00000996,0.00000058,-0.00000071,0.00000092,0.00000618,0.00001092,-0.00
 002200,-0.00002212,-0.00000301,0.00001922,0.00000013,-0.00001862,0.000
 00870,0.00001691,-0.00001562,0.00001195,-0.00001001,0.00000599,-0.0000
 0862,0.00000573,0.00001212,0.00001209,-0.00000307,0.00001818,-0.000003
 60,-0.00001466,-0.00000156,-0.00001589,-0.00000652,0.00001228,0.000046
 75,0.00000978,-0.00001667,0.00001451,0.00000643,-0.00000635,0.00000148
 ,0.00000626,-0.00000511,-0.00000135,0.00000356,0.00000144,-0.00000387,
 -0.00000008,0.,-0.00000197,-0.00001802,-0.00000253,0.00000384,0.000013
 33,-0.00000973,-0.00001451,0.00001479,0.00000587,0.00000730,-0.0000118
 0,-0.00000900,0.00000270,-0.00001645,0.00000712,-0.00000219,0.00000242
 ,-0.00000140,-0.00000170,-0.00000335,-0.00001171,-0.00000299,0.0000010
 2,0.00000344,0.00000115,0.00001032,-0.00000129,-0.00001163,-0.00000261
 ,-0.00000053,0.00000117,-0.00001186,0.00000853,0.00001044,-0.00000190,
 0.00000336,-0.00000101,-0.00000070,0.00000304,0.00000349,0.00000191,-0
 .00000046,0.00000244,-0.00000209,-0.00000840,-0.00000196,0.00000308,0.
 00000679,-0.00000691\\\@
 The archive entry for this job was punched.


 IT IS NOT EASY TO DESCRIBE
     THE SEA WITH THE MOUTH

                   -- KOKYU
 Job cpu time:       0 days  8 hours 16 minutes 59.5 seconds.
 Elapsed time:       0 days  0 hours 34 minutes 19.3 seconds.
 File lengths (MBytes):  RWF=   1064 Int=      0 D2E=      0 Chk=     21 Scr=      1
 Normal termination of Gaussian 16 at Thu Jun 30 00:14:35 2022.
