 Entering Gaussian System, Link 0=g16
 AtFile(1): /home/561/yj5695/Basis/6-31pGd.gbs
 Initial command:
 /apps/gaussian/g16c01/g16/l1.exe "/jobfs/43751883.gadi-pbs/Gau-3870783.inp" -scrdir="/jobfs/43751883.gadi-pbs/"
 Entering Link 1 = /apps/gaussian/g16c01/g16/l1.exe PID=   3871094.
  
 Copyright (c) 1988-2019, Gaussian, Inc.  All Rights Reserved.
  
 This is part of the Gaussian(R) 16 program.  It is based on
 the Gaussian(R) 09 system (copyright 2009, Gaussian, Inc.),
 the Gaussian(R) 03 system (copyright 2003, Gaussian, Inc.),
 the Gaussian(R) 98 system (copyright 1998, Gaussian, Inc.),
 the Gaussian(R) 94 system (copyright 1995, Gaussian, Inc.),
 the Gaussian 92(TM) system (copyright 1992, Gaussian, Inc.),
 the Gaussian 90(TM) system (copyright 1990, Gaussian, Inc.),
 the Gaussian 88(TM) system (copyright 1988, Gaussian, Inc.),
 the Gaussian 86(TM) system (copyright 1986, Carnegie Mellon
 University), and the Gaussian 82(TM) system (copyright 1983,
 Carnegie Mellon University). Gaussian is a federally registered
 trademark of Gaussian, Inc.
  
 This software contains proprietary and confidential information,
 including trade secrets, belonging to Gaussian, Inc.
  
 This software is provided under written license and may be
 used, copied, transmitted, or stored only in accord with that
 written license.
  
 The following legend is applicable only to US Government
 contracts under FAR:
  
                    RESTRICTED RIGHTS LEGEND
  
 Use, reproduction and disclosure by the US Government is
 subject to restrictions as set forth in subparagraphs (a)
 and (c) of the Commercial Computer Software - Restricted
 Rights clause in FAR 52.227-19.
  
 Gaussian, Inc.
 340 Quinnipiac St., Bldg. 40, Wallingford CT 06492
  
  
 ---------------------------------------------------------------
 Warning -- This program may not be used in any manner that
 competes with the business of Gaussian, Inc. or will provide
 assistance to any competitor of Gaussian, Inc.  The licensee
 of this program is prohibited from giving any competitor of
 Gaussian, Inc. access to this program.  By using this program,
 the user acknowledges that Gaussian, Inc. is engaged in the
 business of creating and licensing software in the field of
 computational chemistry and represents and warrants to the
 licensee that it is not a competitor of Gaussian, Inc. and that
 it will not use this program in any manner prohibited above.
 ---------------------------------------------------------------
  

 Cite this work as:
 Gaussian 16, Revision C.01,
 M. J. Frisch, G. W. Trucks, H. B. Schlegel, G. E. Scuseria, 
 M. A. Robb, J. R. Cheeseman, G. Scalmani, V. Barone, 
 G. A. Petersson, H. Nakatsuji, X. Li, M. Caricato, A. V. Marenich, 
 J. Bloino, B. G. Janesko, R. Gomperts, B. Mennucci, H. P. Hratchian, 
 J. V. Ortiz, A. F. Izmaylov, J. L. Sonnenberg, D. Williams-Young, 
 F. Ding, F. Lipparini, F. Egidi, J. Goings, B. Peng, A. Petrone, 
 T. Henderson, D. Ranasinghe, V. G. Zakrzewski, J. Gao, N. Rega, 
 G. Zheng, W. Liang, M. Hada, M. Ehara, K. Toyota, R. Fukuda, 
 J. Hasegawa, M. Ishida, T. Nakajima, Y. Honda, O. Kitao, H. Nakai, 
 T. Vreven, K. Throssell, J. A. Montgomery, Jr., J. E. Peralta, 
 F. Ogliaro, M. J. Bearpark, J. J. Heyd, E. N. Brothers, K. N. Kudin, 
 V. N. Staroverov, T. A. Keith, R. Kobayashi, J. Normand, 
 K. Raghavachari, A. P. Rendell, J. C. Burant, S. S. Iyengar, 
 J. Tomasi, M. Cossi, J. M. Millam, M. Klene, C. Adamo, R. Cammi, 
 J. W. Ochterski, R. L. Martin, K. Morokuma, O. Farkas, 
 J. B. Foresman, and D. J. Fox, Gaussian, Inc., Wallingford CT, 2019.
 
 ******************************************
 Gaussian 16:  ES64L-G16RevC.01  3-Jul-2019
                12-Jun-2022 
 ******************************************
 %nproc=16
 Will use up to   16 processors via shared memory.
 %mem=50gb
 --------------------------------------------------
 #M062X/gen 6D INT(grid=ultrafine) OPT Freq=noraman
 --------------------------------------------------
 1/18=20,19=15,26=4,38=1/1,3;
 2/9=110,12=2,17=6,18=5,40=1/2;
 3/5=7,8=2,11=2,25=1,30=1,71=1,74=-55,75=-5/1,2,3;
 4//1;
 5/5=2,38=5/2;
 6/7=2,8=2,9=2,10=2,28=1/1;
 7//1,2,3,16;
 1/18=20,19=15,26=4/3(2);
 2/9=110/2;
 99//99;
 2/9=110/2;
 3/5=7,6=1,8=2,11=2,25=1,30=1,71=1,74=-55,75=-5,82=7/1,2,3;
 4/5=5,16=3,69=1/1;
 5/5=2,38=5/2;
 7//1,2,3,16;
 1/18=20,19=15,26=4/3(-5);
 2/9=110/2;
 6/7=2,8=2,9=2,10=2,19=2,28=1/1;
 99/9=1/99;
 ----------
 HA.22.freq
 ----------
 Symbolic Z-matrix:
 Charge =  0 Multiplicity = 1
 C                    -1.45183   1.20296  -0.45122 
 S                    -1.53509   0.76434   1.25985 
 O                    -0.19511   0.93286   1.80771 
 O                    -2.66938   1.49427   1.81761 
 N                    -1.89863  -0.83076   1.38338 
 H                    -1.1726   -1.42985   0.98516 
 H                    -2.81857  -1.05536   0.99842 
 S                    -2.87739   1.71456  -1.27958 
 C                    -1.94908   1.80364  -2.74383 
 C                    -0.6117    1.48737  -2.58356 
 C                    -0.33526   1.12302  -1.22244 
 S                    -2.62879   2.34872  -4.25686 
 N                     0.34192   1.58049  -3.55994 
 H                     0.64568   0.83047  -0.86261 
 C                    -1.11731   2.78118  -5.14228 
 C                    -0.10717   1.65191  -4.9438 
 O                    -3.30245   1.23839  -4.95545 
 O                    -3.45052   3.54813  -4.00906 
 C                    -1.46579   3.02957  -6.6114 
 C                    -0.40885   3.88791  -7.29965 
 O                    -0.2924    5.17714  -6.70705 
 H                     1.17245   1.01861  -3.40166 
 H                    -0.77465   3.70326  -4.65714 
 H                     0.76186   1.85262  -5.57261 
 H                    -0.5504    0.70023  -5.27192 
 H                    -2.42951   3.54786  -6.69218 
 H                    -1.55849   2.07285  -7.13717 
 H                    -0.66341   3.97781  -8.36141 
 H                     0.58244   3.43348  -7.226 
 H                    -1.12452   5.65641  -6.85168 
 

 GradGradGradGradGradGradGradGradGradGradGradGradGradGradGradGradGradGrad
 Berny optimization.
 Initialization pass.
                           ----------------------------
                           !    Initial Parameters    !
                           ! (Angstroms and Degrees)  !
 --------------------------                            --------------------------
 ! Name  Definition              Value          Derivative Info.                !
 --------------------------------------------------------------------------------
 ! R1    R(1,2)                  1.7684         estimate D2E/DX2                !
 ! R2    R(1,8)                  1.7263         estimate D2E/DX2                !
 ! R3    R(1,11)                 1.3594         estimate D2E/DX2                !
 ! R4    R(2,3)                  1.4574         estimate D2E/DX2                !
 ! R5    R(2,4)                  1.4596         estimate D2E/DX2                !
 ! R6    R(2,5)                  1.6407         estimate D2E/DX2                !
 ! R7    R(5,6)                  1.0221         estimate D2E/DX2                !
 ! R8    R(5,7)                  1.0222         estimate D2E/DX2                !
 ! R9    R(8,9)                  1.736          estimate D2E/DX2                !
 ! R10   R(9,10)                 1.3836         estimate D2E/DX2                !
 ! R11   R(9,12)                 1.746          estimate D2E/DX2                !
 ! R12   R(10,11)                1.4359         estimate D2E/DX2                !
 ! R13   R(10,13)                1.368          estimate D2E/DX2                !
 ! R14   R(11,14)                1.085          estimate D2E/DX2                !
 ! R15   R(12,15)                1.8043         estimate D2E/DX2                !
 ! R16   R(12,17)                1.4747         estimate D2E/DX2                !
 ! R17   R(12,18)                1.4749         estimate D2E/DX2                !
 ! R18   R(13,16)                1.4567         estimate D2E/DX2                !
 ! R19   R(13,22)                1.0152         estimate D2E/DX2                !
 ! R20   R(15,16)                1.5281         estimate D2E/DX2                !
 ! R21   R(15,19)                1.5302         estimate D2E/DX2                !
 ! R22   R(15,23)                1.0968         estimate D2E/DX2                !
 ! R23   R(16,24)                1.0913         estimate D2E/DX2                !
 ! R24   R(16,25)                1.0999         estimate D2E/DX2                !
 ! R25   R(19,20)                1.5256         estimate D2E/DX2                !
 ! R26   R(19,26)                1.0972         estimate D2E/DX2                !
 ! R27   R(19,27)                1.0956         estimate D2E/DX2                !
 ! R28   R(20,21)                1.4237         estimate D2E/DX2                !
 ! R29   R(20,28)                1.0956         estimate D2E/DX2                !
 ! R30   R(20,29)                1.093          estimate D2E/DX2                !
 ! R31   R(21,30)                0.9711         estimate D2E/DX2                !
 ! A1    A(2,1,8)              119.929          estimate D2E/DX2                !
 ! A2    A(2,1,11)             124.9623         estimate D2E/DX2                !
 ! A3    A(8,1,11)             115.0552         estimate D2E/DX2                !
 ! A4    A(1,2,3)              106.9637         estimate D2E/DX2                !
 ! A5    A(1,2,4)              106.3971         estimate D2E/DX2                !
 ! A6    A(1,2,5)              108.9313         estimate D2E/DX2                !
 ! A7    A(3,2,4)              120.865          estimate D2E/DX2                !
 ! A8    A(3,2,5)              106.7289         estimate D2E/DX2                !
 ! A9    A(4,2,5)              106.5724         estimate D2E/DX2                !
 ! A10   A(2,5,6)              112.5283         estimate D2E/DX2                !
 ! A11   A(2,5,7)              112.6239         estimate D2E/DX2                !
 ! A12   A(6,5,7)              111.3318         estimate D2E/DX2                !
 ! A13   A(1,8,9)               88.7593         estimate D2E/DX2                !
 ! A14   A(8,9,10)             114.0451         estimate D2E/DX2                !
 ! A15   A(8,9,12)             122.6001         estimate D2E/DX2                !
 ! A16   A(10,9,12)            123.2331         estimate D2E/DX2                !
 ! A17   A(9,10,11)            110.7256         estimate D2E/DX2                !
 ! A18   A(9,10,13)            125.1407         estimate D2E/DX2                !
 ! A19   A(11,10,13)           124.0304         estimate D2E/DX2                !
 ! A20   A(1,11,10)            111.3909         estimate D2E/DX2                !
 ! A21   A(1,11,14)            124.7713         estimate D2E/DX2                !
 ! A22   A(10,11,14)           123.8359         estimate D2E/DX2                !
 ! A23   A(9,12,15)            100.0182         estimate D2E/DX2                !
 ! A24   A(9,12,17)            110.6895         estimate D2E/DX2                !
 ! A25   A(9,12,18)            108.977          estimate D2E/DX2                !
 ! A26   A(15,12,17)           109.3096         estimate D2E/DX2                !
 ! A27   A(15,12,18)           110.7482         estimate D2E/DX2                !
 ! A28   A(17,12,18)           115.9371         estimate D2E/DX2                !
 ! A29   A(10,13,16)           117.8066         estimate D2E/DX2                !
 ! A30   A(10,13,22)           114.9204         estimate D2E/DX2                !
 ! A31   A(16,13,22)           115.3084         estimate D2E/DX2                !
 ! A32   A(12,15,16)           108.234          estimate D2E/DX2                !
 ! A33   A(12,15,19)           108.6187         estimate D2E/DX2                !
 ! A34   A(12,15,23)           104.2502         estimate D2E/DX2                !
 ! A35   A(16,15,19)           113.2793         estimate D2E/DX2                !
 ! A36   A(16,15,23)           110.9352         estimate D2E/DX2                !
 ! A37   A(19,15,23)           111.0597         estimate D2E/DX2                !
 ! A38   A(13,16,15)           111.311          estimate D2E/DX2                !
 ! A39   A(13,16,24)           108.1149         estimate D2E/DX2                !
 ! A40   A(13,16,25)           111.4212         estimate D2E/DX2                !
 ! A41   A(15,16,24)           108.4002         estimate D2E/DX2                !
 ! A42   A(15,16,25)           109.529          estimate D2E/DX2                !
 ! A43   A(24,16,25)           107.9476         estimate D2E/DX2                !
 ! A44   A(15,19,20)           111.5106         estimate D2E/DX2                !
 ! A45   A(15,19,26)           110.3276         estimate D2E/DX2                !
 ! A46   A(15,19,27)           109.7707         estimate D2E/DX2                !
 ! A47   A(20,19,26)           108.0308         estimate D2E/DX2                !
 ! A48   A(20,19,27)           109.4767         estimate D2E/DX2                !
 ! A49   A(26,19,27)           107.6283         estimate D2E/DX2                !
 ! A50   A(19,20,21)           112.233          estimate D2E/DX2                !
 ! A51   A(19,20,28)           108.8082         estimate D2E/DX2                !
 ! A52   A(19,20,29)           111.3472         estimate D2E/DX2                !
 ! A53   A(21,20,28)           110.3718         estimate D2E/DX2                !
 ! A54   A(21,20,29)           105.9188         estimate D2E/DX2                !
 ! A55   A(28,20,29)           108.0691         estimate D2E/DX2                !
 ! A56   A(20,21,30)           108.3511         estimate D2E/DX2                !
 ! D1    D(8,1,2,3)           -156.43           estimate D2E/DX2                !
 ! D2    D(8,1,2,4)            -25.9746         estimate D2E/DX2                !
 ! D3    D(8,1,2,5)             88.5604         estimate D2E/DX2                !
 ! D4    D(11,1,2,3)            26.3667         estimate D2E/DX2                !
 ! D5    D(11,1,2,4)           156.8221         estimate D2E/DX2                !
 ! D6    D(11,1,2,5)           -88.6429         estimate D2E/DX2                !
 ! D7    D(2,1,8,9)           -176.5144         estimate D2E/DX2                !
 ! D8    D(11,1,8,9)             0.9557         estimate D2E/DX2                !
 ! D9    D(2,1,11,10)          177.0777         estimate D2E/DX2                !
 ! D10   D(2,1,11,14)           -3.4105         estimate D2E/DX2                !
 ! D11   D(8,1,11,10)           -0.2469         estimate D2E/DX2                !
 ! D12   D(8,1,11,14)          179.2649         estimate D2E/DX2                !
 ! D13   D(1,2,5,6)             63.5365         estimate D2E/DX2                !
 ! D14   D(1,2,5,7)            -63.2988         estimate D2E/DX2                !
 ! D15   D(3,2,5,6)            -51.6251         estimate D2E/DX2                !
 ! D16   D(3,2,5,7)           -178.4603         estimate D2E/DX2                !
 ! D17   D(4,2,5,6)            177.9576         estimate D2E/DX2                !
 ! D18   D(4,2,5,7)             51.1223         estimate D2E/DX2                !
 ! D19   D(1,8,9,10)            -1.4575         estimate D2E/DX2                !
 ! D20   D(1,8,9,12)          -177.5654         estimate D2E/DX2                !
 ! D21   D(8,9,10,11)            1.5926         estimate D2E/DX2                !
 ! D22   D(8,9,10,13)         -174.8271         estimate D2E/DX2                !
 ! D23   D(12,9,10,11)         177.6725         estimate D2E/DX2                !
 ! D24   D(12,9,10,13)           1.2528         estimate D2E/DX2                !
 ! D25   D(8,9,12,15)          160.173          estimate D2E/DX2                !
 ! D26   D(8,9,12,17)          -84.6347         estimate D2E/DX2                !
 ! D27   D(8,9,12,18)           43.9944         estimate D2E/DX2                !
 ! D28   D(10,9,12,15)         -15.577          estimate D2E/DX2                !
 ! D29   D(10,9,12,17)          99.6153         estimate D2E/DX2                !
 ! D30   D(10,9,12,18)        -131.7556         estimate D2E/DX2                !
 ! D31   D(9,10,11,1)           -0.8497         estimate D2E/DX2                !
 ! D32   D(9,10,11,14)         179.6331         estimate D2E/DX2                !
 ! D33   D(13,10,11,1)         175.6176         estimate D2E/DX2                !
 ! D34   D(13,10,11,14)         -3.8996         estimate D2E/DX2                !
 ! D35   D(9,10,13,16)         -18.0382         estimate D2E/DX2                !
 ! D36   D(9,10,13,22)        -159.1114         estimate D2E/DX2                !
 ! D37   D(11,10,13,16)        166.0031         estimate D2E/DX2                !
 ! D38   D(11,10,13,22)         24.9299         estimate D2E/DX2                !
 ! D39   D(9,12,15,16)          45.5435         estimate D2E/DX2                !
 ! D40   D(9,12,15,19)         168.9158         estimate D2E/DX2                !
 ! D41   D(9,12,15,23)         -72.6085         estimate D2E/DX2                !
 ! D42   D(17,12,15,16)        -70.6917         estimate D2E/DX2                !
 ! D43   D(17,12,15,19)         52.6806         estimate D2E/DX2                !
 ! D44   D(17,12,15,23)        171.1563         estimate D2E/DX2                !
 ! D45   D(18,12,15,16)        160.3811         estimate D2E/DX2                !
 ! D46   D(18,12,15,19)        -76.2467         estimate D2E/DX2                !
 ! D47   D(18,12,15,23)         42.229          estimate D2E/DX2                !
 ! D48   D(10,13,16,15)         53.7432         estimate D2E/DX2                !
 ! D49   D(10,13,16,24)        172.6972         estimate D2E/DX2                !
 ! D50   D(10,13,16,25)        -68.838          estimate D2E/DX2                !
 ! D51   D(22,13,16,15)       -165.3309         estimate D2E/DX2                !
 ! D52   D(22,13,16,24)        -46.3768         estimate D2E/DX2                !
 ! D53   D(22,13,16,25)         72.088          estimate D2E/DX2                !
 ! D54   D(12,15,16,13)        -67.865          estimate D2E/DX2                !
 ! D55   D(12,15,16,24)        173.3517         estimate D2E/DX2                !
 ! D56   D(12,15,16,25)         55.7991         estimate D2E/DX2                !
 ! D57   D(19,15,16,13)        171.6257         estimate D2E/DX2                !
 ! D58   D(19,15,16,24)         52.8424         estimate D2E/DX2                !
 ! D59   D(19,15,16,25)        -64.7102         estimate D2E/DX2                !
 ! D60   D(23,15,16,13)         45.9335         estimate D2E/DX2                !
 ! D61   D(23,15,16,24)        -72.8499         estimate D2E/DX2                !
 ! D62   D(23,15,16,25)        169.5976         estimate D2E/DX2                !
 ! D63   D(12,15,19,20)        158.3577         estimate D2E/DX2                !
 ! D64   D(12,15,19,26)         38.3046         estimate D2E/DX2                !
 ! D65   D(12,15,19,27)        -80.1422         estimate D2E/DX2                !
 ! D66   D(16,15,19,20)        -81.3515         estimate D2E/DX2                !
 ! D67   D(16,15,19,26)        158.5954         estimate D2E/DX2                !
 ! D68   D(16,15,19,27)         40.1486         estimate D2E/DX2                !
 ! D69   D(23,15,19,20)         44.2742         estimate D2E/DX2                !
 ! D70   D(23,15,19,26)        -75.779          estimate D2E/DX2                !
 ! D71   D(23,15,19,27)        165.7743         estimate D2E/DX2                !
 ! D72   D(15,19,20,21)        -61.5691         estimate D2E/DX2                !
 ! D73   D(15,19,20,28)        175.9849         estimate D2E/DX2                !
 ! D74   D(15,19,20,29)         56.9785         estimate D2E/DX2                !
 ! D75   D(26,19,20,21)         59.8283         estimate D2E/DX2                !
 ! D76   D(26,19,20,28)        -62.6177         estimate D2E/DX2                !
 ! D77   D(26,19,20,29)        178.3759         estimate D2E/DX2                !
 ! D78   D(27,19,20,21)        176.7604         estimate D2E/DX2                !
 ! D79   D(27,19,20,28)         54.3144         estimate D2E/DX2                !
 ! D80   D(27,19,20,29)        -64.6921         estimate D2E/DX2                !
 ! D81   D(19,20,21,30)        -65.244          estimate D2E/DX2                !
 ! D82   D(28,20,21,30)         56.3114         estimate D2E/DX2                !
 ! D83   D(29,20,21,30)        173.0526         estimate D2E/DX2                !
 --------------------------------------------------------------------------------
 Trust Radius=3.00D-01 FncErr=1.00D-07 GrdErr=1.00D-06 EigMax=2.50D+02 EigMin=1.00D-04
 Number of steps in this run=    180 maximum allowed number of steps=    180.
 GradGradGradGradGradGradGradGradGradGradGradGradGradGradGradGradGradGrad

                          Input orientation:                          
 ---------------------------------------------------------------------
 Center     Atomic      Atomic             Coordinates (Angstroms)
 Number     Number       Type             X           Y           Z
 ---------------------------------------------------------------------
      1          6           0       -1.451831    1.202959   -0.451224
      2         16           0       -1.535086    0.764340    1.259851
      3          8           0       -0.195111    0.932860    1.807712
      4          8           0       -2.669382    1.494274    1.817613
      5          7           0       -1.898632   -0.830757    1.383379
      6          1           0       -1.172596   -1.429848    0.985163
      7          1           0       -2.818569   -1.055358    0.998422
      8         16           0       -2.877395    1.714564   -1.279577
      9          6           0       -1.949079    1.803636   -2.743825
     10          6           0       -0.611697    1.487373   -2.583559
     11          6           0       -0.335257    1.123025   -1.222435
     12         16           0       -2.628790    2.348719   -4.256860
     13          7           0        0.341924    1.580491   -3.559942
     14          1           0        0.645683    0.830471   -0.862613
     15          6           0       -1.117308    2.781181   -5.142276
     16          6           0       -0.107165    1.651907   -4.943799
     17          8           0       -3.302450    1.238387   -4.955455
     18          8           0       -3.450516    3.548126   -4.009057
     19          6           0       -1.465790    3.029573   -6.611402
     20          6           0       -0.408853    3.887911   -7.299645
     21          8           0       -0.292398    5.177138   -6.707045
     22          1           0        1.172454    1.018612   -3.401665
     23          1           0       -0.774650    3.703263   -4.657145
     24          1           0        0.761859    1.852621   -5.572610
     25          1           0       -0.550400    0.700227   -5.271917
     26          1           0       -2.429513    3.547859   -6.692178
     27          1           0       -1.558488    2.072848   -7.137169
     28          1           0       -0.663414    3.977807   -8.361414
     29          1           0        0.582437    3.433480   -7.225997
     30          1           0       -1.124520    5.656410   -6.851676
 ---------------------------------------------------------------------
                    Distance matrix (angstroms):
                    1          2          3          4          5
     1  C    0.000000
     2  S    1.768359   0.000000
     3  O    2.599055   1.457424   0.000000
     4  O    2.591315   1.459633   2.537184   0.000000
     5  N    2.775139   1.640657   2.488450   2.487646   0.000000
     6  H    3.012118   2.240829   2.685974   3.388780   1.022064
     7  H    3.011551   2.242091   3.389763   2.682155   1.022214
     8  S    1.726308   3.025461   4.163779   3.111974   3.811557
     9  C    2.421588   4.157036   4.954911   4.628310   4.896568
    10  C    2.309453   4.018361   4.445705   4.858439   4.771428
    11  C    1.359373   2.780286   3.039341   3.850696   3.612709
    12  S    4.144980   5.842991   6.686290   6.134406   6.515710
    13  N    3.608908   5.236380   5.433189   6.163886   5.938908
    14  H    2.169690   3.043843   2.801438   4.314383   3.778584
    15  C    4.960712   6.725282   7.250453   7.246041   7.499382
    16  C    4.710935   6.427441   6.790262   7.232322   7.028950
    17  O    4.869717   6.479068   7.449115   6.807400   6.814167
    18  O    4.706668   6.259371   7.160452   6.227243   7.117677
    19  C    6.425302   8.191014   8.768826   8.651824   8.888533
    20  C    7.429512   9.180963   9.577159   9.693497   9.994007
    21  O    7.501579   9.191763   9.514434   9.585579  10.204398
    22  H    3.952968   5.396773   5.386575   6.498216   5.978994
    23  H    4.939622   6.650291   7.057292   7.098741   7.636006
    24  H    5.617035   7.289913   7.498727   8.155809   7.916092
    25  H    4.929950   6.605885   7.092355   7.441910   6.960934
    26  H    6.738244   8.472470   9.169455   8.757356   9.201561
    27  H    6.743141   8.498393   9.119718   9.041955   9.008127
    28  H    8.419768  10.181106  10.625542  10.667916  10.936591
    29  H    7.416942   9.144279   9.405615   9.804169   9.922740
    30  H    7.804240   9.481445   9.907610   9.739946  10.511837
                    6          7          8          9         10
     6  H    0.000000
     7  H    1.688089   0.000000
     8  S    4.233523   3.586811   0.000000
     9  C    4.996368   4.788974   1.736008   0.000000
    10  C    4.643335   4.915929   2.623999   1.383582   0.000000
    11  C    3.477325   3.980502   2.610680   2.319974   1.435906
    12  S    6.623962   6.264323   3.054205   1.745965   2.758716
    13  N    5.658082   6.141262   3.947411   2.442240   1.367987
    14  H    3.439398   4.361290   3.656167   3.349448   2.230287
    15  C    7.435142   7.437842   4.376759   2.720296   2.911463
    16  C    6.766457   7.070430   4.593976   2.873248   2.419164
    17  O    6.851765   6.398754   3.730884   2.653756   3.595557
    18  O    7.410221   6.831272   3.337735   2.626475   3.786508
    19  C    8.813637   8.742202   5.670117   4.085908   4.396746
    20  C    9.874204   9.954926   6.859909   5.241374   5.295772
    21  O   10.178265  10.227403   6.937509   5.461888   5.542513
    22  H    5.544229   6.292088   4.624811   3.285268   2.017976
    23  H    7.638248   7.668606   4.447968   2.940861   3.039158
    24  H    7.584267   8.028341   5.629685   3.918368   3.309756
    25  H    6.638931   6.895203   4.731022   3.092744   2.801897
    26  H    9.235744   8.971416   5.732174   4.343112   4.942753
    27  H    8.853817   8.806890   6.014920   4.418881   4.687703
    28  H   10.810204  10.843615   7.757344   6.159323   6.291943
    29  H    9.703363   9.967828   7.091193   5.399522   5.173541
    30  H   10.565672  10.466216   7.046915   5.691943   5.988379
                   11         12         13         14         15
    11  C    0.000000
    12  S    3.996292   0.000000
    13  N    2.476245   3.146586   0.000000
    14  H    1.085036   4.954610   2.816094   0.000000
    15  C    4.327382   1.804318   2.464710   5.022840   0.000000
    16  C    3.765672   2.704815   1.456654   4.230557   1.528085
    17  O    4.770008   1.474683   3.917390   5.701359   2.681410
    18  O    4.832310   1.474862   4.296032   5.836489   2.704857
    19  C    5.827005   2.712932   3.831328   6.507145   1.530186
    20  C    6.677012   4.068879   4.457940   7.203844   2.526064
    21  O    6.820456   4.411586   4.821046   7.343766   2.978185
    22  H    2.652005   4.117037   1.015155   2.599936   3.373334
    23  H    4.318324   2.330848   2.637565   4.966764   1.096814
    24  H    4.545326   3.670669   2.073941   4.821033   2.139785
    25  H    4.077174   2.840347   2.121784   4.570508   2.160686
    26  H    6.339070   2.721842   4.621937   7.129155   2.170685
    27  H    6.114126   3.085099   4.080506   6.765495   2.162400
    28  H    7.695615   4.833632   5.460033   8.237201   3.464214
    29  H    6.497932   4.506047   4.114775   6.875487   2.767042
    30  H    7.270686   4.465056   5.440504   7.892540   3.345003
                   16         17         18         19         20
    16  C    0.000000
    17  O    3.221952   0.000000
    18  O    3.955678   2.500498   0.000000
    19  C    2.554355   3.053494   3.313643   0.000000
    20  C    3.262015   4.570351   4.493900   1.525627   0.000000
    21  O    3.945960   5.257589   4.461673   2.449088   1.423672
    22  H    2.101586   4.742080   5.304641   4.615919   5.091921
    23  H    2.176182   3.543215   2.757597   2.179599   2.674081
    24  H    1.091280   4.156533   4.802451   2.725202   2.914725
    25  H    1.099916   2.821975   4.256292   2.838664   3.780615
    26  H    3.470557   3.018590   2.870816   1.097227   2.137222
    27  H    2.663532   2.915065   3.942246   1.095604   2.154649
    28  H    4.171249   5.105829   5.186094   2.146042   1.095553
    29  H    2.976237   5.006610   5.160093   2.176259   1.092971
    30  H    4.550940   5.278064   4.235045   2.659787   1.959705
                   21         22         23         24         25
    21  O    0.000000
    22  H    5.510414   0.000000
    23  H    2.570402   3.546095   0.000000
    24  H    3.667535   2.361602   2.573677   0.000000
    25  H    4.708385   2.562702   3.073509   1.772133   0.000000
    26  H    2.687384   5.495337   2.627562   3.783136   3.695567
    27  H    3.380030   4.745887   3.069719   2.807197   2.525766
    28  H    2.076772   6.060228   3.716094   3.784871   4.505585
    29  H    2.018660   4.561275   2.917785   2.294558   3.545762
    30  H    0.971106   6.219955   2.958574   4.434326   5.233451
                   26         27         28         29         30
    26  H    0.000000
    27  H    1.769848   0.000000
    28  H    2.467855   2.434913   0.000000
    29  H    3.061028   2.538261   1.771329   0.000000
    30  H    2.484841   3.621015   2.304264   2.827584   0.000000
 Stoichiometry    C8H12N2O5S3
 Framework group  C1[X(C8H12N2O5S3)]
 Deg. of freedom    84
 Full point group                 C1      NOp   1
 Largest Abelian subgroup         C1      NOp   1
 Largest concise Abelian subgroup C1      NOp   1
                         Standard orientation:                         
 ---------------------------------------------------------------------
 Center     Atomic      Atomic             Coordinates (Angstroms)
 Number     Number       Type             X           Y           Z
 ---------------------------------------------------------------------
      1          6           0       -2.239960    0.239120   -0.116756
      2         16           0       -3.998215    0.236909   -0.305508
      3          8           0       -4.378588    1.567809   -0.761693
      4          8           0       -4.326543   -0.947041   -1.093540
      5          7           0       -4.691323    0.026241    1.166557
      6          1           0       -4.488741    0.795362    1.808452
      7          1           0       -4.460005   -0.877544    1.584391
      8         16           0       -1.364105   -1.246755   -0.188825
      9          6           0        0.087182   -0.365121    0.172024
     10          6           0       -0.100327    0.999246    0.304851
     11          6           0       -1.485683    1.340012    0.142083
     12         16           0        1.655811   -1.127646    0.251731
     13          7           0        0.897461    1.917063    0.487656
     14          1           0       -1.870993    2.352024    0.210435
     15          6           0        2.717612    0.316027    0.042088
     16          6           0        2.192233    1.431152    0.945147
     17          8           0        1.884206   -1.711235    1.586628
     18          8           0        1.798593   -2.051344   -0.889152
     19          6           0        4.159505   -0.088184    0.356773
     20          6           0        5.161003    0.868032   -0.283690
     21          8           0        5.063895    0.877877   -1.704013
     22          1           0        0.598275    2.799704    0.890112
     23          1           0        2.604985    0.582669   -1.015843
     24          1           0        2.897948    2.262857    0.911579
     25          1           0        2.142172    1.070807    1.983154
     26          1           0        4.363696   -1.097545   -0.021913
     27          1           0        4.311664   -0.103742    1.441648
     28          1           0        6.171606    0.581541    0.027502
     29          1           0        4.987312    1.898729    0.035810
     30          1           0        5.321347    0.001650   -2.034152
 ---------------------------------------------------------------------
 Rotational constants (GHZ):           0.8274009           0.1557215           0.1453670
 General basis read from cards:  (6D, 7F)
 There are   378 symmetry adapted cartesian basis functions of A   symmetry.
 There are   378 symmetry adapted basis functions of A   symmetry.
   378 basis functions,   696 primitive gaussians,   378 cartesian basis functions
    81 alpha electrons       81 beta electrons
       nuclear repulsion energy      1900.8017605414 Hartrees.
 NAtoms=   30 NActive=   30 NUniq=   30 SFac= 1.00D+00 NAtFMM=   60 NAOKFM=F Big=F
 Integral buffers will be    131072 words long.
 Raffenetti 2 integral format.
 Two-electron integral symmetry is turned on.
 One-electron integrals computed using PRISM.
 NBasis=   378 RedAO= T EigKep=  1.05D-06  NBF=   378
 NBsUse=   378 1.00D-06 EigRej= -1.00D+00 NBFU=   378
 ExpMin= 4.05D-02 ExpMax= 2.19D+04 ExpMxC= 3.30D+03 IAcc=3 IRadAn=         5 AccDes= 0.00D+00
 Harris functional with IExCor= 1009 and IRadAn=       5 diagonalized for initial guess.
 HarFok:  IExCor= 1009 AccDes= 0.00D+00 IRadAn=         5 IDoV= 1 UseB2=F ITyADJ=14
 ICtDFT=  3500011 ScaDFX=  1.000000  1.000000  1.000000  1.000000
 FoFCou: FMM=F IPFlag=           0 FMFlag=      100000 FMFlg1=           0
         NFxFlg=           0 DoJE=T BraDBF=F KetDBF=T FulRan=T
         wScrn=  0.000000 ICntrl=       500 IOpCl=  0 I1Cent=   200000004 NGrid=           0
         NMat0=    1 NMatS0=      1 NMatT0=    0 NMatD0=    1 NMtDS0=    0 NMtDT0=    0
 Petite list used in FoFCou.
 Requested convergence on RMS density matrix=1.00D-08 within 128 cycles.
 Requested convergence on MAX density matrix=1.00D-06.
 Requested convergence on             energy=1.00D-06.
 No special actions if energy rises.
 SCF Done:  E(RM062X) =  -1991.70280208     A.U. after   17 cycles
            NFock= 17  Conv=0.52D-08     -V/T= 2.0054

 **********************************************************************

            Population analysis using the SCF Density.

 **********************************************************************

 Orbital symmetries:
       Occupied  (A) (A) (A) (A) (A) (A) (A) (A) (A) (A) (A) (A)
                 (A) (A) (A) (A) (A) (A) (A) (A) (A) (A) (A) (A)
                 (A) (A) (A) (A) (A) (A) (A) (A) (A) (A) (A) (A)
                 (A) (A) (A) (A) (A) (A) (A) (A) (A) (A) (A) (A)
                 (A) (A) (A) (A) (A) (A) (A) (A) (A) (A) (A) (A)
                 (A) (A) (A) (A) (A) (A) (A) (A) (A) (A) (A) (A)
                 (A) (A) (A) (A) (A) (A) (A) (A) (A)
       Virtual   (A) (A) (A) (A) (A) (A) (A) (A) (A) (A) (A) (A)
                 (A) (A) (A) (A) (A) (A) (A) (A) (A) (A) (A) (A)
                 (A) (A) (A) (A) (A) (A) (A) (A) (A) (A) (A) (A)
                 (A) (A) (A) (A) (A) (A) (A) (A) (A) (A) (A) (A)
                 (A) (A) (A) (A) (A) (A) (A) (A) (A) (A) (A) (A)
                 (A) (A) (A) (A) (A) (A) (A) (A) (A) (A) (A) (A)
                 (A) (A) (A) (A) (A) (A) (A) (A) (A) (A) (A) (A)
                 (A) (A) (A) (A) (A) (A) (A) (A) (A) (A) (A) (A)
                 (A) (A) (A) (A) (A) (A) (A) (A) (A) (A) (A) (A)
                 (A) (A) (A) (A) (A) (A) (A) (A) (A) (A) (A) (A)
                 (A) (A) (A) (A) (A) (A) (A) (A) (A) (A) (A) (A)
                 (A) (A) (A) (A) (A) (A) (A) (A) (A) (A) (A) (A)
                 (A) (A) (A) (A) (A) (A) (A) (A) (A) (A) (A) (A)
                 (A) (A) (A) (A) (A) (A) (A) (A) (A) (A) (A) (A)
                 (A) (A) (A) (A) (A) (A) (A) (A) (A) (A) (A) (A)
                 (A) (A) (A) (A) (A) (A) (A) (A) (A) (A) (A) (A)
                 (A) (A) (A) (A) (A) (A) (A) (A) (A) (A) (A) (A)
                 (A) (A) (A) (A) (A) (A) (A) (A) (A) (A) (A) (A)
                 (A) (A) (A) (A) (A) (A) (A) (A) (A) (A) (A) (A)
                 (A) (A) (A) (A) (A) (A) (A) (A) (A) (A) (A) (A)
                 (A) (A) (A) (A) (A) (A) (A) (A) (A) (A) (A) (A)
                 (A) (A) (A) (A) (A) (A) (A) (A) (A) (A) (A) (A)
                 (A) (A) (A) (A) (A) (A) (A) (A) (A) (A) (A) (A)
                 (A) (A) (A) (A) (A) (A) (A) (A) (A) (A) (A) (A)
                 (A) (A) (A) (A) (A) (A) (A) (A) (A)
 The electronic state is 1-A.
 Alpha  occ. eigenvalues --  -90.19101 -90.15685 -90.00333 -19.66953 -19.66028
 Alpha  occ. eigenvalues --  -19.65763 -19.64603 -19.64548 -14.82704 -14.82484
 Alpha  occ. eigenvalues --  -10.65023 -10.64235 -10.63275 -10.62455 -10.62428
 Alpha  occ. eigenvalues --  -10.61801 -10.60934 -10.58751  -8.49967  -8.47045
 Alpha  occ. eigenvalues --   -8.34567  -6.42182  -6.42121  -6.42090  -6.39188
 Alpha  occ. eigenvalues --   -6.39168  -6.39112  -6.26582  -6.26352  -6.26059
 Alpha  occ. eigenvalues --   -1.26297  -1.23316  -1.16767  -1.14460  -1.11954
 Alpha  occ. eigenvalues --   -1.10755  -1.05359  -1.02322  -0.95709  -0.90141
 Alpha  occ. eigenvalues --   -0.87989  -0.85354  -0.80526  -0.77768  -0.74894
 Alpha  occ. eigenvalues --   -0.71579  -0.69849  -0.65302  -0.65067  -0.64033
 Alpha  occ. eigenvalues --   -0.63239  -0.60422  -0.59745  -0.59313  -0.58437
 Alpha  occ. eigenvalues --   -0.56394  -0.55295  -0.54508  -0.53765  -0.53141
 Alpha  occ. eigenvalues --   -0.52156  -0.50782  -0.50352  -0.48875  -0.47557
 Alpha  occ. eigenvalues --   -0.45889  -0.45157  -0.43496  -0.42765  -0.42357
 Alpha  occ. eigenvalues --   -0.41651  -0.41002  -0.40748  -0.40065  -0.39585
 Alpha  occ. eigenvalues --   -0.39424  -0.38109  -0.37712  -0.36430  -0.33766
 Alpha  occ. eigenvalues --   -0.29474
 Alpha virt. eigenvalues --   -0.04878  -0.01952  -0.00517   0.00466   0.01156
 Alpha virt. eigenvalues --    0.02007   0.02224   0.02911   0.03170   0.03497
 Alpha virt. eigenvalues --    0.04015   0.04377   0.04925   0.05183   0.05382
 Alpha virt. eigenvalues --    0.06575   0.06746   0.06896   0.07677   0.08079
 Alpha virt. eigenvalues --    0.08543   0.09236   0.09464   0.09769   0.10296
 Alpha virt. eigenvalues --    0.10616   0.10764   0.11298   0.11486   0.12064
 Alpha virt. eigenvalues --    0.12468   0.12689   0.12942   0.13851   0.14050
 Alpha virt. eigenvalues --    0.14735   0.15092   0.15260   0.16004   0.16275
 Alpha virt. eigenvalues --    0.16485   0.16912   0.17115   0.17482   0.18180
 Alpha virt. eigenvalues --    0.18399   0.18530   0.18816   0.19528   0.20121
 Alpha virt. eigenvalues --    0.20424   0.20492   0.21569   0.21608   0.21799
 Alpha virt. eigenvalues --    0.22345   0.22565   0.22974   0.23394   0.23637
 Alpha virt. eigenvalues --    0.24006   0.24825   0.24988   0.25195   0.25904
 Alpha virt. eigenvalues --    0.26514   0.27101   0.27474   0.27662   0.28083
 Alpha virt. eigenvalues --    0.28836   0.29039   0.29369   0.30280   0.30528
 Alpha virt. eigenvalues --    0.30913   0.31540   0.32109   0.32568   0.32754
 Alpha virt. eigenvalues --    0.32980   0.33662   0.34086   0.34276   0.35491
 Alpha virt. eigenvalues --    0.35906   0.36159   0.36494   0.36756   0.37840
 Alpha virt. eigenvalues --    0.38037   0.38561   0.39307   0.39681   0.40197
 Alpha virt. eigenvalues --    0.41240   0.41721   0.42173   0.42946   0.43712
 Alpha virt. eigenvalues --    0.44368   0.46136   0.46953   0.47257   0.50362
 Alpha virt. eigenvalues --    0.51685   0.55835   0.56809   0.57897   0.58802
 Alpha virt. eigenvalues --    0.62357   0.62867   0.63610   0.65489   0.66049
 Alpha virt. eigenvalues --    0.66948   0.67573   0.68246   0.69424   0.70541
 Alpha virt. eigenvalues --    0.71444   0.72213   0.72526   0.73476   0.74145
 Alpha virt. eigenvalues --    0.75255   0.76000   0.76661   0.77847   0.78543
 Alpha virt. eigenvalues --    0.80072   0.82651   0.84479   0.86600   0.88167
 Alpha virt. eigenvalues --    0.90132   0.92626   0.93377   0.93414   0.94725
 Alpha virt. eigenvalues --    0.95582   0.96397   0.97577   0.98450   0.99468
 Alpha virt. eigenvalues --    1.00596   1.01431   1.02371   1.02669   1.03826
 Alpha virt. eigenvalues --    1.04925   1.06108   1.06517   1.06759   1.07869
 Alpha virt. eigenvalues --    1.09405   1.10185   1.11050   1.11476   1.11707
 Alpha virt. eigenvalues --    1.12277   1.12740   1.13722   1.15554   1.16442
 Alpha virt. eigenvalues --    1.17207   1.17662   1.18076   1.18676   1.18957
 Alpha virt. eigenvalues --    1.21301   1.22387   1.25369   1.26929   1.27764
 Alpha virt. eigenvalues --    1.29820   1.31979   1.32459   1.33556   1.34846
 Alpha virt. eigenvalues --    1.35667   1.36627   1.37004   1.38319   1.38531
 Alpha virt. eigenvalues --    1.38954   1.39311   1.40558   1.42350   1.42894
 Alpha virt. eigenvalues --    1.43596   1.45103   1.45621   1.45770   1.46988
 Alpha virt. eigenvalues --    1.49542   1.52879   1.54185   1.55617   1.57027
 Alpha virt. eigenvalues --    1.59412   1.62423   1.63386   1.66980   1.68897
 Alpha virt. eigenvalues --    1.70336   1.71976   1.73458   1.74377   1.75051
 Alpha virt. eigenvalues --    1.78121   1.79477   1.80060   1.81297   1.83550
 Alpha virt. eigenvalues --    1.84400   1.85583   1.85938   1.87071   1.87807
 Alpha virt. eigenvalues --    1.88550   1.89154   1.89504   1.90847   1.92144
 Alpha virt. eigenvalues --    1.93172   1.94209   1.96321   1.96925   1.98200
 Alpha virt. eigenvalues --    2.00281   2.01213   2.03465   2.04403   2.06095
 Alpha virt. eigenvalues --    2.07424   2.08069   2.12264   2.13633   2.13720
 Alpha virt. eigenvalues --    2.15594   2.16241   2.16864   2.18439   2.19220
 Alpha virt. eigenvalues --    2.22109   2.24593   2.26065   2.27108   2.29942
 Alpha virt. eigenvalues --    2.32355   2.33925   2.34923   2.37241   2.38321
 Alpha virt. eigenvalues --    2.38920   2.40484   2.43310   2.44967   2.46833
 Alpha virt. eigenvalues --    2.47978   2.50095   2.51152   2.53865   2.57722
 Alpha virt. eigenvalues --    2.65283   2.68302   2.69302   2.74745   2.77665
 Alpha virt. eigenvalues --    2.80802   2.84821   2.90393   2.91662   2.93034
 Alpha virt. eigenvalues --    2.93915   2.99568   3.05358   3.08643   3.86559
 Alpha virt. eigenvalues --    3.95900   4.03671   4.07311   4.12059   4.17457
 Alpha virt. eigenvalues --    4.22741   4.23553   4.26522   4.28399   4.29794
 Alpha virt. eigenvalues --    4.32040   4.39881   4.43095   4.47165   4.56208
 Alpha virt. eigenvalues --    4.60290   4.64310
          Condensed to atoms (all electrons):
               1          2          3          4          5          6
     1  C   19.026840  -0.140607  -0.020016   0.024574  -0.602001   0.032812
     2  S   -0.140607  17.426602   0.400028   0.296415  -0.882447   0.089293
     3  O   -0.020016   0.400028   8.685436  -0.198936  -0.157956  -0.004940
     4  O    0.024574   0.296415  -0.198936   8.740223  -0.133917   0.010358
     5  N   -0.602001  -0.882447  -0.157956  -0.133917   8.340624   0.209697
     6  H    0.032812   0.089293  -0.004940   0.010358   0.209697   0.317760
     7  H   -0.019483   0.100338   0.009875  -0.004407   0.215447  -0.020939
     8  S    1.674374   0.005728   0.040560   0.148520  -0.007194   0.011538
     9  C   -7.029130  -1.954709  -0.132304  -0.156900   0.182645   0.000372
    10  C    7.064797  -1.283404  -0.018464   0.306494   0.364457  -0.065293
    11  C  -10.165174   0.461850  -0.082735  -0.501753   0.353112  -0.025161
    12  S   -2.688427  -0.218859  -0.004608  -0.015834   0.007047   0.000040
    13  N    0.039905   0.019505   0.000380   0.000669  -0.001036   0.000110
    14  H    0.100806   0.001802   0.000397   0.000799   0.000777  -0.000093
    15  C   -0.016845   0.020110   0.000869   0.002236   0.000216   0.000055
    16  C    0.013242  -0.101424  -0.004220   0.002551   0.001569  -0.000217
    17  O   -0.134483  -0.007631  -0.000049  -0.000155  -0.000365  -0.000000
    18  O   -0.058729  -0.001896  -0.000048   0.000122   0.000043   0.000000
    19  C    0.060292   0.004367   0.000121   0.000191  -0.000185   0.000001
    20  C    0.014268   0.000403   0.000000   0.000016   0.000035   0.000000
    21  O   -0.002861  -0.000049  -0.000000   0.000000  -0.000000   0.000000
    22  H   -0.022765   0.001147  -0.000001  -0.000004  -0.000044   0.000000
    23  H   -0.010686  -0.000230  -0.000001   0.000000   0.000000  -0.000000
    24  H    0.006057   0.000258   0.000000   0.000000  -0.000000   0.000000
    25  H   -0.002038  -0.000664  -0.000002   0.000000  -0.000001  -0.000000
    26  H    0.001764   0.000023   0.000000   0.000000   0.000000  -0.000000
    27  H   -0.001201  -0.000017  -0.000000  -0.000000   0.000000  -0.000000
    28  H   -0.000065  -0.000001  -0.000000  -0.000000  -0.000000  -0.000000
    29  H    0.000337   0.000006   0.000000   0.000000   0.000000   0.000000
    30  H    0.000097   0.000002   0.000000   0.000000   0.000000  -0.000000
               7          8          9         10         11         12
     1  C   -0.019483   1.674374  -7.029130   7.064797 -10.165174  -2.688427
     2  S    0.100338   0.005728  -1.954709  -1.283404   0.461850  -0.218859
     3  O    0.009875   0.040560  -0.132304  -0.018464  -0.082735  -0.004608
     4  O   -0.004407   0.148520  -0.156900   0.306494  -0.501753  -0.015834
     5  N    0.215447  -0.007194   0.182645   0.364457   0.353112   0.007047
     6  H   -0.020939   0.011538   0.000372  -0.065293  -0.025161   0.000040
     7  H    0.308683  -0.017677  -0.026111   0.020782  -0.018972  -0.001683
     8  S   -0.017677  17.351552  -0.950037   2.608090  -4.699089  -0.853691
     9  C   -0.026111  -0.950037  29.028324 -10.694932  -0.643336  -2.784611
    10  C    0.020782   2.608090 -10.694932  45.836056 -33.849857  -4.819777
    11  C   -0.018972  -4.699089  -0.643336 -33.849857  54.905419   4.897994
    12  S   -0.001683  -0.853691  -2.784611  -4.819777   4.897994  22.069781
    13  N    0.000014   0.002651   0.369354  -0.307589  -0.265169   0.145294
    14  H    0.000015   0.022356  -0.021657   0.116705   0.065917  -0.006347
    15  C    0.000085   0.069480  -1.296598   1.360206   0.434229   0.124828
    16  C    0.000083   0.188946   3.118736  -0.103544  -3.900050  -2.749773
    17  O   -0.000003  -0.011223   0.187899  -0.482329   0.002547   0.753625
    18  O   -0.000000  -0.038231  -0.397568  -0.109325   0.147271   0.827207
    19  C    0.000008  -0.002712  -0.295352  -0.193010  -0.236693  -0.148206
    20  C   -0.000000  -0.002000  -0.105077   0.060725   0.011896  -0.089711
    21  O    0.000000  -0.000269  -0.011549  -0.034165  -0.002225  -0.019477
    22  H   -0.000000  -0.000462   0.119146  -0.100258  -0.039302   0.008817
    23  H   -0.000000  -0.000849   0.015329  -0.107347  -0.013765   0.044337
    24  H    0.000000   0.000424  -0.051322   0.083492   0.042405   0.026890
    25  H    0.000000   0.002278   0.078761  -0.082038  -0.083449  -0.093554
    26  H   -0.000000   0.000202   0.062325  -0.014724  -0.002247  -0.061309
    27  H   -0.000000   0.000335  -0.006727  -0.024553  -0.002697   0.006051
    28  H   -0.000000  -0.000004   0.000494  -0.002333  -0.000183  -0.004334
    29  H    0.000000  -0.000056   0.005486   0.006038   0.001222  -0.007982
    30  H   -0.000000  -0.000065   0.001965  -0.000060   0.000191  -0.008300
              13         14         15         16         17         18
     1  C    0.039905   0.100806  -0.016845   0.013242  -0.134483  -0.058729
     2  S    0.019505   0.001802   0.020110  -0.101424  -0.007631  -0.001896
     3  O    0.000380   0.000397   0.000869  -0.004220  -0.000049  -0.000048
     4  O    0.000669   0.000799   0.002236   0.002551  -0.000155   0.000122
     5  N   -0.001036   0.000777   0.000216   0.001569  -0.000365   0.000043
     6  H    0.000110  -0.000093   0.000055  -0.000217  -0.000000   0.000000
     7  H    0.000014   0.000015   0.000085   0.000083  -0.000003  -0.000000
     8  S    0.002651   0.022356   0.069480   0.188946  -0.011223  -0.038231
     9  C    0.369354  -0.021657  -1.296598   3.118736   0.187899  -0.397568
    10  C   -0.307589   0.116705   1.360206  -0.103544  -0.482329  -0.109325
    11  C   -0.265169   0.065917   0.434229  -3.900050   0.002547   0.147271
    12  S    0.145294  -0.006347   0.124828  -2.749773   0.753625   0.827207
    13  N    7.470654  -0.002198  -0.194563   0.057680   0.059634  -0.004318
    14  H   -0.002198   0.444166  -0.000087   0.013146  -0.000015  -0.000005
    15  C   -0.194563  -0.000087  12.790729  -3.164782  -0.345360  -0.045782
    16  C    0.057680   0.013146  -3.164782  11.691663   0.012545  -0.049623
    17  O    0.059634  -0.000015  -0.345360   0.012545   8.581223  -0.223139
    18  O   -0.004318  -0.000005  -0.045782  -0.049623  -0.223139   8.598232
    19  C   -0.088985   0.000209  -2.435635   0.199570   0.003197  -0.187526
    20  C   -0.014790  -0.000014  -0.542370   0.089134  -0.007996   0.027514
    21  O    0.001734   0.000000  -0.008560   0.091954   0.000441  -0.004252
    22  H    0.291884   0.002173   0.044968  -0.063052   0.000062   0.000005
    23  H    0.021713  -0.000002   0.305458  -0.015250   0.007385  -0.001322
    24  H   -0.053718   0.000004   0.036514   0.246400  -0.000951  -0.000416
    25  H   -0.072995  -0.000005  -0.087844   0.609853  -0.000971   0.000484
    26  H    0.001006  -0.000000  -0.106377   0.024022  -0.006222   0.005794
    27  H    0.002396   0.000000  -0.104871   0.040352  -0.000431  -0.000116
    28  H    0.000369  -0.000000   0.060249   0.018611   0.000004  -0.000118
    29  H   -0.000519  -0.000000   0.015707  -0.015929  -0.000097  -0.000014
    30  H    0.000005  -0.000000  -0.060988   0.008795  -0.000020   0.000151
              19         20         21         22         23         24
     1  C    0.060292   0.014268  -0.002861  -0.022765  -0.010686   0.006057
     2  S    0.004367   0.000403  -0.000049   0.001147  -0.000230   0.000258
     3  O    0.000121   0.000000  -0.000000  -0.000001  -0.000001   0.000000
     4  O    0.000191   0.000016   0.000000  -0.000004   0.000000   0.000000
     5  N   -0.000185   0.000035  -0.000000  -0.000044   0.000000  -0.000000
     6  H    0.000001   0.000000   0.000000   0.000000  -0.000000   0.000000
     7  H    0.000008  -0.000000   0.000000  -0.000000  -0.000000   0.000000
     8  S   -0.002712  -0.002000  -0.000269  -0.000462  -0.000849   0.000424
     9  C   -0.295352  -0.105077  -0.011549   0.119146   0.015329  -0.051322
    10  C   -0.193010   0.060725  -0.034165  -0.100258  -0.107347   0.083492
    11  C   -0.236693   0.011896  -0.002225  -0.039302  -0.013765   0.042405
    12  S   -0.148206  -0.089711  -0.019477   0.008817   0.044337   0.026890
    13  N   -0.088985  -0.014790   0.001734   0.291884   0.021713  -0.053718
    14  H    0.000209  -0.000014   0.000000   0.002173  -0.000002   0.000004
    15  C   -2.435635  -0.542370  -0.008560   0.044968   0.305458   0.036514
    16  C    0.199570   0.089134   0.091954  -0.063052  -0.015250   0.246400
    17  O    0.003197  -0.007996   0.000441   0.000062   0.007385  -0.000951
    18  O   -0.187526   0.027514  -0.004252   0.000005  -0.001322  -0.000416
    19  C    9.099468  -0.055178  -0.121957   0.001534   0.017286   0.013135
    20  C   -0.055178   5.903230   0.245238  -0.000778  -0.004650  -0.027558
    21  O   -0.121957   0.245238   8.364694   0.000019   0.013815  -0.000392
    22  H    0.001534  -0.000778   0.000019   0.337094  -0.000036  -0.003834
    23  H    0.017286  -0.004650   0.013815  -0.000036   0.394029  -0.003705
    24  H    0.013135  -0.027558  -0.000392  -0.003834  -0.003705   0.489237
    25  H    0.005783   0.016916   0.000033  -0.000448   0.002917  -0.033592
    26  H    0.440531  -0.028078  -0.010402   0.000001  -0.001331   0.000010
    27  H    0.427432  -0.044215   0.008135  -0.000002   0.002738  -0.001364
    28  H   -0.139666   0.417533  -0.047208   0.000000   0.000166  -0.000126
    29  H   -0.095457   0.459299  -0.062049   0.000005  -0.000314   0.002699
    30  H    0.011835   0.033171   0.208851  -0.000000  -0.000419   0.000001
              25         26         27         28         29         30
     1  C   -0.002038   0.001764  -0.001201  -0.000065   0.000337   0.000097
     2  S   -0.000664   0.000023  -0.000017  -0.000001   0.000006   0.000002
     3  O   -0.000002   0.000000  -0.000000  -0.000000   0.000000   0.000000
     4  O    0.000000   0.000000  -0.000000  -0.000000   0.000000   0.000000
     5  N   -0.000001   0.000000   0.000000  -0.000000   0.000000   0.000000
     6  H   -0.000000  -0.000000  -0.000000  -0.000000   0.000000  -0.000000
     7  H    0.000000  -0.000000  -0.000000  -0.000000   0.000000  -0.000000
     8  S    0.002278   0.000202   0.000335  -0.000004  -0.000056  -0.000065
     9  C    0.078761   0.062325  -0.006727   0.000494   0.005486   0.001965
    10  C   -0.082038  -0.014724  -0.024553  -0.002333   0.006038  -0.000060
    11  C   -0.083449  -0.002247  -0.002697  -0.000183   0.001222   0.000191
    12  S   -0.093554  -0.061309   0.006051  -0.004334  -0.007982  -0.008300
    13  N   -0.072995   0.001006   0.002396   0.000369  -0.000519   0.000005
    14  H   -0.000005  -0.000000   0.000000  -0.000000  -0.000000  -0.000000
    15  C   -0.087844  -0.106377  -0.104871   0.060249   0.015707  -0.060988
    16  C    0.609853   0.024022   0.040352   0.018611  -0.015929   0.008795
    17  O   -0.000971  -0.006222  -0.000431   0.000004  -0.000097  -0.000020
    18  O    0.000484   0.005794  -0.000116  -0.000118  -0.000014   0.000151
    19  C    0.005783   0.440531   0.427432  -0.139666  -0.095457   0.011835
    20  C    0.016916  -0.028078  -0.044215   0.417533   0.459299   0.033171
    21  O    0.000033  -0.010402   0.008135  -0.047208  -0.062049   0.208851
    22  H   -0.000448   0.000001  -0.000002   0.000000   0.000005  -0.000000
    23  H    0.002917  -0.001331   0.002738   0.000166  -0.000314  -0.000419
    24  H   -0.033592   0.000010  -0.001364  -0.000126   0.002699   0.000001
    25  H    0.455728  -0.000055   0.001653  -0.000026   0.000047   0.000001
    26  H   -0.000055   0.457719  -0.021811  -0.005446   0.003702   0.003223
    27  H    0.001653  -0.021811   0.460378  -0.000260  -0.001104  -0.000051
    28  H   -0.000026  -0.005446  -0.000260   0.534962  -0.034761  -0.006507
    29  H    0.000047   0.003702  -0.001104  -0.034761   0.515080   0.005935
    30  H    0.000001   0.003223  -0.000051  -0.006507   0.005935   0.319084
 Mulliken charges:
               1
     1  C   -1.145655
     2  S    1.764061
     3  O   -0.513385
     4  O   -0.521262
     5  N   -0.890524
     6  H    0.444605
     7  H    0.453944
     8  S    0.456525
     9  C   -0.612917
    10  C    0.465161
    11  C   -0.792196
    12  S    1.664569
    13  N   -0.479073
    14  H    0.261152
    15  C   -0.855280
    16  C   -0.260989
    17  O   -0.387124
    18  O   -0.484398
    19  C   -0.284398
    20  C   -0.356965
    21  O   -0.609500
    22  H    0.424134
    23  H    0.334733
    24  H    0.229451
    25  H    0.283230
    26  H    0.257680
    27  H    0.259952
    28  H    0.208648
    29  H    0.202717
    30  H    0.483105
 Sum of Mulliken charges =  -0.00000
 Mulliken charges with hydrogens summed into heavy atoms:
               1
     1  C   -1.145655
     2  S    1.764061
     3  O   -0.513385
     4  O   -0.521262
     5  N    0.008024
     8  S    0.456525
     9  C   -0.612917
    10  C    0.465161
    11  C   -0.531045
    12  S    1.664569
    13  N   -0.054939
    15  C   -0.520547
    16  C    0.251691
    17  O   -0.387124
    18  O   -0.484398
    19  C    0.233234
    20  C    0.054401
    21  O   -0.126394
 Electronic spatial extent (au):  <R**2>=           7266.8314
 Charge=              0.0000 electrons
 Dipole moment (field-independent basis, Debye):
    X=              4.1767    Y=              4.9103    Z=              5.7899  Tot=              8.6648
 Quadrupole moment (field-independent basis, Debye-Ang):
   XX=           -131.0398   YY=           -132.1533   ZZ=           -131.8677
   XY=              6.3190   XZ=            -15.7248   YZ=             10.0849
 Traceless Quadrupole moment (field-independent basis, Debye-Ang):
   XX=              0.6472   YY=             -0.4664   ZZ=             -0.1808
   XY=              6.3190   XZ=            -15.7248   YZ=             10.0849
 Octapole moment (field-independent basis, Debye-Ang**2):
  XXX=            221.5454  YYY=             34.1548  ZZZ=              1.2269  XYY=             -9.4733
  XXY=            -35.6758  XXZ=             94.9072  XZZ=            -23.0230  YZZ=              5.8012
  YYZ=             21.2426  XYZ=             28.1978
 Hexadecapole moment (field-independent basis, Debye-Ang**3):
 XXXX=          -7736.7518 YYYY=          -1113.3449 ZZZZ=           -579.3561 XXXY=           -112.1639
 XXXZ=           -298.0992 YYYX=             62.9887 YYYZ=             39.4365 ZZZX=            -78.9376
 ZZZY=             29.4079 XXYY=          -1566.2514 XXZZ=          -1344.6126 YYZZ=           -313.9629
 XXYZ=            134.8564 YYXZ=            -20.0325 ZZXY=            -27.8155
 N-N= 1.900801760541D+03 E-N=-8.497165188579D+03  KE= 1.981068458217D+03
 Calling FoFJK, ICntrl=      2127 FMM=F ISym2X=0 I1Cent= 0 IOpClX= 0 NMat=1 NMatS=1 NMatT=0.
 ***** Axes restored to original set *****
 -------------------------------------------------------------------
 Center     Atomic                   Forces (Hartrees/Bohr)
 Number     Number              X              Y              Z
 -------------------------------------------------------------------
      1        6          -0.004253924   -0.002598686   -0.000371313
      2       16           0.003124096    0.027906599    0.022714260
      3        8          -0.006085035   -0.006462220   -0.008724318
      4        8           0.005354575   -0.009413995   -0.008776736
      5        7          -0.002495421   -0.013492212   -0.008073062
      6        1          -0.001828107    0.001832826    0.002994759
      7        1           0.002076207    0.001208738    0.002840535
      8       16           0.005015788    0.000530520   -0.001600765
      9        6           0.005494116   -0.001623867    0.003544504
     10        6          -0.009582563   -0.000556736    0.010370270
     11        6           0.001874989    0.000005986   -0.005856564
     12       16          -0.032119549    0.002887278   -0.007722409
     13        7           0.007589993   -0.000763801   -0.007320479
     14        1          -0.000588342    0.001076723    0.002401433
     15        6          -0.000873856    0.000613646    0.002660439
     16        6           0.002104529   -0.000228846   -0.000528810
     17        8           0.012530676    0.005422296    0.004272334
     18        8           0.012945497   -0.007487852   -0.001236824
     19        6           0.002349563   -0.000149155    0.000410150
     20        6          -0.001305227    0.007111396    0.002087684
     21        8          -0.002015801   -0.005494548   -0.001809505
     22        1          -0.001867193    0.002106381   -0.000862183
     23        1           0.001367530    0.000362999   -0.001274944
     24        1           0.001588270    0.000379824   -0.000335929
     25        1          -0.001953340   -0.000252812   -0.000625896
     26        1          -0.000964602   -0.001870694    0.001272449
     27        1          -0.002116068   -0.000627254    0.000326089
     28        1           0.001002918   -0.000839292   -0.001694855
     29        1           0.000947306    0.000804614   -0.000237128
     30        1           0.002682972   -0.000387855    0.001156815
 -------------------------------------------------------------------
 Cartesian Forces:  Max     0.032119549 RMS     0.006732312

 GradGradGradGradGradGradGradGradGradGradGradGradGradGradGradGradGradGrad
 Berny optimization.
 FormGI is forming the generalized inverse of G from B-inverse, IUseBI=4.
 Internal  Forces:  Max     0.013508046 RMS     0.002808586
 Search for a local minimum.
 Step number   1 out of a maximum of  180
 All quantities printed in internal units (Hartrees-Bohrs-Radians)
 Mixed Optimization -- RFO/linear search
 Second derivative matrix not updated -- first step.
 ITU=  0
     Eigenvalues ---    0.00367   0.00427   0.00733   0.00789   0.01106
     Eigenvalues ---    0.01379   0.01457   0.01494   0.01707   0.01799
     Eigenvalues ---    0.02069   0.02081   0.02112   0.02223   0.03438
     Eigenvalues ---    0.03699   0.04198   0.04245   0.04454   0.04891
     Eigenvalues ---    0.04904   0.05548   0.05784   0.06162   0.06915
     Eigenvalues ---    0.08133   0.09114   0.09207   0.09602   0.09991
     Eigenvalues ---    0.10653   0.11261   0.11674   0.11952   0.12045
     Eigenvalues ---    0.13284   0.13945   0.14269   0.15386   0.15999
     Eigenvalues ---    0.16000   0.16000   0.16000   0.17981   0.19847
     Eigenvalues ---    0.20034   0.21921   0.22044   0.23643   0.24640
     Eigenvalues ---    0.24929   0.24976   0.25000   0.25618   0.28392
     Eigenvalues ---    0.28777   0.29406   0.29831   0.30270   0.31160
     Eigenvalues ---    0.32096   0.33691   0.33991   0.34037   0.34173
     Eigenvalues ---    0.34179   0.34471   0.34665   0.35393   0.36260
     Eigenvalues ---    0.39109   0.41912   0.43668   0.43987   0.44010
     Eigenvalues ---    0.44096   0.45120   0.49849   0.51344   0.53152
     Eigenvalues ---    0.85643   0.85711   0.91764   0.92700
 RFO step:  Lambda=-5.72739550D-03 EMin= 3.66648961D-03
 Linear search not attempted -- first point.
 Iteration  1 RMS(Cart)=  0.04285128 RMS(Int)=  0.00101313
 Iteration  2 RMS(Cart)=  0.00131290 RMS(Int)=  0.00014187
 Iteration  3 RMS(Cart)=  0.00000069 RMS(Int)=  0.00014187
 Variable       Old X    -DE/DX   Delta X   Delta X   Delta X     New X
                                 (Linear)    (Quad)   (Total)
    R1        3.34171   0.00248   0.00000   0.00845   0.00845   3.35017
    R2        3.26225  -0.00263   0.00000  -0.00775  -0.00774   3.25451
    R3        2.56884   0.00202   0.00000   0.00396   0.00396   2.57280
    R4        2.75413  -0.00962   0.00000  -0.01031  -0.01031   2.74382
    R5        2.75831  -0.01223   0.00000  -0.01324  -0.01324   2.74507
    R6        3.10039   0.01049   0.00000   0.02348   0.02348   3.12388
    R7        1.93142  -0.00354   0.00000  -0.00794  -0.00794   1.92348
    R8        1.93170  -0.00320   0.00000  -0.00719  -0.00719   1.92451
    R9        3.28058  -0.00220   0.00000  -0.00706  -0.00706   3.27352
   R10        2.61459  -0.00263   0.00000  -0.00486  -0.00491   2.60968
   R11        3.29940   0.00496   0.00000   0.01671   0.01673   3.31612
   R12        2.71347  -0.00086   0.00000  -0.00201  -0.00202   2.71145
   R13        2.58512   0.01018   0.00000   0.01970   0.01964   2.60476
   R14        2.05042  -0.00002   0.00000  -0.00007  -0.00007   2.05035
   R15        3.40967   0.00123   0.00000   0.00464   0.00470   3.41437
   R16        2.78675  -0.01183   0.00000  -0.01371  -0.01371   2.77303
   R17        2.78709  -0.01351   0.00000  -0.01567  -0.01567   2.77142
   R18        2.75268  -0.00037   0.00000  -0.00137  -0.00139   2.75128
   R19        1.91836  -0.00283   0.00000  -0.00619  -0.00619   1.91218
   R20        2.88766   0.00022   0.00000  -0.00099  -0.00096   2.88670
   R21        2.89163  -0.00182   0.00000  -0.00607  -0.00607   2.88557
   R22        2.07268   0.00017   0.00000   0.00049   0.00049   2.07317
   R23        2.06222   0.00153   0.00000   0.00433   0.00433   2.06656
   R24        2.07854   0.00119   0.00000   0.00349   0.00349   2.08202
   R25        2.88302   0.00180   0.00000   0.00593   0.00593   2.88895
   R26        2.07346  -0.00013   0.00000  -0.00037  -0.00037   2.07309
   R27        2.07039   0.00057   0.00000   0.00164   0.00164   2.07203
   R28        2.69035  -0.00554   0.00000  -0.01305  -0.01305   2.67730
   R29        2.07029   0.00134   0.00000   0.00386   0.00386   2.07415
   R30        2.06542   0.00051   0.00000   0.00145   0.00145   2.06686
   R31        1.83512  -0.00266   0.00000  -0.00496  -0.00496   1.83017
    A1        2.09316   0.00193   0.00000   0.00735   0.00734   2.10050
    A2        2.18100   0.00015   0.00000   0.00038   0.00038   2.18138
    A3        2.00809  -0.00207   0.00000  -0.00717  -0.00724   2.00085
    A4        1.86687  -0.00117   0.00000  -0.01034  -0.01098   1.85589
    A5        1.85698   0.00022   0.00000  -0.00049  -0.00095   1.85603
    A6        1.90121  -0.00439   0.00000  -0.03425  -0.03481   1.86640
    A7        2.10949   0.00664   0.00000   0.06064   0.06071   2.17020
    A8        1.86277  -0.00107   0.00000  -0.01324  -0.01376   1.84901
    A9        1.86004  -0.00131   0.00000  -0.01119  -0.01146   1.84858
   A10        1.96399   0.00088   0.00000   0.01172   0.01154   1.97553
   A11        1.96566   0.00006   0.00000   0.00673   0.00654   1.97220
   A12        1.94311   0.00075   0.00000   0.01499   0.01470   1.95781
   A13        1.54914   0.00185   0.00000   0.00716   0.00708   1.55622
   A14        1.99046  -0.00064   0.00000  -0.00420  -0.00427   1.98620
   A15        2.13978  -0.00075   0.00000  -0.00412  -0.00407   2.13570
   A16        2.15082   0.00138   0.00000   0.00832   0.00833   2.15916
   A17        1.93253   0.00071   0.00000   0.00215   0.00213   1.93466
   A18        2.18412  -0.00182   0.00000  -0.00537  -0.00544   2.17867
   A19        2.16474   0.00111   0.00000   0.00348   0.00356   2.16830
   A20        1.94414   0.00014   0.00000   0.00151   0.00142   1.94556
   A21        2.17767  -0.00243   0.00000  -0.01503  -0.01502   2.16265
   A22        2.16134   0.00229   0.00000   0.01343   0.01343   2.17477
   A23        1.74565  -0.00116   0.00000  -0.02003  -0.02023   1.72542
   A24        1.93190   0.00036   0.00000  -0.00299  -0.00372   1.92818
   A25        1.90201   0.00017   0.00000   0.00281   0.00228   1.90428
   A26        1.90781  -0.00373   0.00000  -0.02618  -0.02645   1.88136
   A27        1.93292  -0.00308   0.00000  -0.02184  -0.02185   1.91107
   A28        2.02348   0.00630   0.00000   0.05664   0.05656   2.08004
   A29        2.05611   0.00010   0.00000   0.00315   0.00312   2.05924
   A30        2.00574   0.00036   0.00000   0.00653   0.00653   2.01227
   A31        2.01251  -0.00036   0.00000   0.00004  -0.00001   2.01250
   A32        1.88904   0.00163   0.00000   0.00815   0.00807   1.89711
   A33        1.89575  -0.00204   0.00000  -0.01399  -0.01400   1.88175
   A34        1.81951   0.00094   0.00000   0.01829   0.01828   1.83779
   A35        1.97710   0.00009   0.00000  -0.00083  -0.00078   1.97631
   A36        1.93618  -0.00045   0.00000  -0.00148  -0.00163   1.93455
   A37        1.93836  -0.00009   0.00000  -0.00844  -0.00838   1.92997
   A38        1.94274  -0.00051   0.00000  -0.01018  -0.01029   1.93246
   A39        1.88696  -0.00022   0.00000  -0.00136  -0.00139   1.88557
   A40        1.94467   0.00096   0.00000   0.00907   0.00907   1.95374
   A41        1.89194   0.00057   0.00000   0.00652   0.00660   1.89854
   A42        1.91164  -0.00115   0.00000  -0.01081  -0.01082   1.90082
   A43        1.88404   0.00038   0.00000   0.00749   0.00749   1.89153
   A44        1.94623  -0.00149   0.00000  -0.00386  -0.00389   1.94234
   A45        1.92558  -0.00148   0.00000  -0.02143  -0.02140   1.90418
   A46        1.91586   0.00078   0.00000   0.00705   0.00698   1.92284
   A47        1.88549   0.00204   0.00000   0.01347   0.01338   1.89887
   A48        1.91073   0.00120   0.00000   0.01756   0.01749   1.92822
   A49        1.87847  -0.00100   0.00000  -0.01286  -0.01300   1.86547
   A50        1.95883  -0.00078   0.00000  -0.00243  -0.00256   1.95627
   A51        1.89906   0.00071   0.00000   0.01193   0.01181   1.91087
   A52        1.94338   0.00092   0.00000  -0.00077  -0.00086   1.94252
   A53        1.92635   0.00143   0.00000   0.01976   0.01966   1.94601
   A54        1.84863  -0.00141   0.00000  -0.02070  -0.02073   1.82790
   A55        1.88616  -0.00090   0.00000  -0.00851  -0.00843   1.87773
   A56        1.89108   0.00230   0.00000   0.01388   0.01388   1.90496
    D1       -2.73022  -0.00419   0.00000  -0.06052  -0.06035  -2.79057
    D2       -0.45334   0.00336   0.00000   0.00702   0.00697  -0.44637
    D3        1.54567  -0.00015   0.00000  -0.02267  -0.02276   1.52291
    D4        0.46019  -0.00442   0.00000  -0.07495  -0.07480   0.38539
    D5        2.73706   0.00313   0.00000  -0.00741  -0.00748   2.72958
    D6       -1.54711  -0.00039   0.00000  -0.03710  -0.03721  -1.58432
    D7       -3.08076   0.00029   0.00000   0.00923   0.00927  -3.07149
    D8        0.01668   0.00055   0.00000   0.02244   0.02245   0.03913
    D9        3.09059  -0.00015   0.00000  -0.00534  -0.00538   3.08520
   D10       -0.05952  -0.00053   0.00000  -0.01752  -0.01747  -0.07700
   D11       -0.00431  -0.00047   0.00000  -0.01950  -0.01946  -0.02377
   D12        3.12876  -0.00085   0.00000  -0.03168  -0.03155   3.09722
   D13        1.10892   0.00035   0.00000   0.01219   0.01230   1.12122
   D14       -1.10477  -0.00145   0.00000  -0.02360  -0.02362  -1.12840
   D15       -0.90103   0.00443   0.00000   0.04803   0.04785  -0.85318
   D16       -3.11472   0.00263   0.00000   0.01224   0.01193  -3.10280
   D17        3.10595  -0.00219   0.00000  -0.01063  -0.01036   3.09559
   D18        0.89225  -0.00399   0.00000  -0.04642  -0.04628   0.84597
   D19       -0.02544  -0.00051   0.00000  -0.01972  -0.01981  -0.04525
   D20       -3.09910  -0.00040   0.00000  -0.01997  -0.02005  -3.11915
   D21        0.02780   0.00032   0.00000   0.01275   0.01278   0.04057
   D22       -3.05131   0.00018   0.00000   0.00812   0.00823  -3.04308
   D23        3.10097   0.00012   0.00000   0.01244   0.01246   3.11343
   D24        0.02187  -0.00003   0.00000   0.00781   0.00791   0.02978
   D25        2.79555  -0.00016   0.00000  -0.02287  -0.02280   2.77275
   D26       -1.47715  -0.00483   0.00000  -0.06365  -0.06365  -1.54081
   D27        0.76785   0.00377   0.00000   0.00996   0.01005   0.77789
   D28       -0.27187   0.00005   0.00000  -0.02259  -0.02251  -0.29438
   D29        1.73861  -0.00462   0.00000  -0.06337  -0.06336   1.67525
   D30       -2.29957   0.00398   0.00000   0.01024   0.01034  -2.28923
   D31       -0.01483   0.00008   0.00000   0.00404   0.00403  -0.01080
   D32        3.13519   0.00049   0.00000   0.01625   0.01638  -3.13162
   D33        3.06511   0.00010   0.00000   0.00824   0.00816   3.07327
   D34       -0.06806   0.00050   0.00000   0.02045   0.02051  -0.04755
   D35       -0.31483   0.00003   0.00000   0.00999   0.01001  -0.30481
   D36       -2.77702   0.00005   0.00000  -0.00371  -0.00379  -2.78081
   D37        2.89730  -0.00010   0.00000   0.00486   0.00498   2.90228
   D38        0.43511  -0.00008   0.00000  -0.00884  -0.00883   0.42628
   D39        0.79488   0.00077   0.00000   0.02957   0.02964   0.82453
   D40        2.94814   0.00063   0.00000   0.02499   0.02502   2.97316
   D41       -1.26726   0.00005   0.00000   0.01817   0.01809  -1.24917
   D42       -1.23380   0.00230   0.00000   0.05218   0.05204  -1.18176
   D43        0.91945   0.00217   0.00000   0.04760   0.04742   0.96687
   D44        2.98724   0.00159   0.00000   0.04077   0.04049   3.02773
   D45        2.79918  -0.00076   0.00000   0.01468   0.01490   2.81408
   D46       -1.33076  -0.00089   0.00000   0.01010   0.01028  -1.32047
   D47        0.73704  -0.00147   0.00000   0.00327   0.00335   0.74038
   D48        0.93800  -0.00038   0.00000  -0.01191  -0.01206   0.92594
   D49        3.01414  -0.00011   0.00000  -0.01079  -0.01089   3.00325
   D50       -1.20145   0.00078   0.00000   0.00283   0.00279  -1.19866
   D51       -2.88557  -0.00012   0.00000   0.00431   0.00423  -2.88134
   D52       -0.80943   0.00015   0.00000   0.00543   0.00540  -0.80402
   D53        1.25817   0.00104   0.00000   0.01905   0.01908   1.27725
   D54       -1.18447  -0.00103   0.00000  -0.01849  -0.01862  -1.20309
   D55        3.02556  -0.00082   0.00000  -0.01487  -0.01492   3.01064
   D56        0.97388  -0.00096   0.00000  -0.02154  -0.02157   0.95231
   D57        2.99543   0.00035   0.00000  -0.00598  -0.00605   2.98938
   D58        0.92227   0.00056   0.00000  -0.00235  -0.00235   0.91993
   D59       -1.12941   0.00042   0.00000  -0.00903  -0.00900  -1.13841
   D60        0.80169   0.00077   0.00000   0.00715   0.00704   0.80873
   D61       -1.27147   0.00098   0.00000   0.01078   0.01075  -1.26072
   D62        2.96004   0.00083   0.00000   0.00411   0.00410   2.96413
   D63        2.76386  -0.00033   0.00000   0.00451   0.00458   2.76844
   D64        0.66854  -0.00093   0.00000   0.00444   0.00446   0.67300
   D65       -1.39874   0.00073   0.00000   0.02895   0.02898  -1.36977
   D66       -1.41985   0.00037   0.00000   0.00456   0.00458  -1.41527
   D67        2.76801  -0.00022   0.00000   0.00448   0.00447   2.77248
   D68        0.70073   0.00143   0.00000   0.02900   0.02898   0.72971
   D69        0.77273  -0.00023   0.00000  -0.00487  -0.00488   0.76785
   D70       -1.32259  -0.00083   0.00000  -0.00494  -0.00499  -1.32758
   D71        2.89331   0.00082   0.00000   0.01957   0.01952   2.91283
   D72       -1.07458   0.00231   0.00000   0.07351   0.07356  -1.00102
   D73        3.07152   0.00052   0.00000   0.04171   0.04172   3.11324
   D74        0.99446   0.00062   0.00000   0.04508   0.04513   1.03959
   D75        1.04420   0.00089   0.00000   0.05339   0.05335   1.09755
   D76       -1.09288  -0.00090   0.00000   0.02159   0.02151  -1.07137
   D77        3.11325  -0.00080   0.00000   0.02497   0.02492   3.13817
   D78        3.08505   0.00150   0.00000   0.05519   0.05522   3.14027
   D79        0.94797  -0.00029   0.00000   0.02339   0.02338   0.97135
   D80       -1.12909  -0.00019   0.00000   0.02677   0.02679  -1.10230
   D81       -1.13872  -0.00044   0.00000  -0.00934  -0.00933  -1.14805
   D82        0.98282   0.00094   0.00000   0.01825   0.01836   1.00118
   D83        3.02034  -0.00019   0.00000   0.00662   0.00649   3.02683
         Item               Value     Threshold  Converged?
 Maximum Force            0.013508     0.000450     NO 
 RMS     Force            0.002809     0.000300     NO 
 Maximum Displacement     0.267469     0.001800     NO 
 RMS     Displacement     0.043066     0.001200     NO 
 Predicted change in Energy=-3.078920D-03
 GradGradGradGradGradGradGradGradGradGradGradGradGradGradGradGradGradGrad

                          Input orientation:                          
 ---------------------------------------------------------------------
 Center     Atomic      Atomic             Coordinates (Angstroms)
 Number     Number       Type             X           Y           Z
 ---------------------------------------------------------------------
      1          6           0       -1.443014    1.224189   -0.447738
      2         16           0       -1.521587    0.793480    1.270183
      3          8           0       -0.163747    0.884072    1.776412
      4          8           0       -2.652170    1.519478    1.822300
      5          7           0       -1.929046   -0.806744    1.347319
      6          1           0       -1.223221   -1.419905    0.944963
      7          1           0       -2.859360   -0.998612    0.980090
      8         16           0       -2.859872    1.736319   -1.282150
      9          6           0       -1.942021    1.799307   -2.749919
     10          6           0       -0.604530    1.498033   -2.584199
     11          6           0       -0.324254    1.151906   -1.220234
     12         16           0       -2.644242    2.306669   -4.275976
     13          7           0        0.350923    1.586926   -3.573711
     14          1           0        0.656851    0.885386   -0.841258
     15          6           0       -1.126075    2.763181   -5.142759
     16          6           0       -0.101004    1.646041   -4.956447
     17          8           0       -3.233073    1.159645   -4.976657
     18          8           0       -3.460371    3.504810   -4.054119
     19          6           0       -1.481650    3.016579   -6.605979
     20          6           0       -0.429593    3.890072   -7.289577
     21          8           0       -0.257637    5.131847   -6.629533
     22          1           0        1.189151    1.042646   -3.415488
     23          1           0       -0.785908    3.689110   -4.662645
     24          1           0        0.767007    1.855872   -5.587661
     25          1           0       -0.547159    0.693674   -5.284801
     26          1           0       -2.451615    3.526563   -6.656589
     27          1           0       -1.594313    2.064494   -7.138040
     28          1           0       -0.698575    4.029162   -8.344574
     29          1           0        0.557535    3.420039   -7.259421
     30          1           0       -1.071961    5.649860   -6.710138
 ---------------------------------------------------------------------
                    Distance matrix (angstroms):
                    1          2          3          4          5
     1  C    0.000000
     2  S    1.772832   0.000000
     3  O    2.588251   1.451966   0.000000
     4  O    2.588885   1.452627   2.568677   0.000000
     5  N    2.753751   1.653084   2.481786   2.481899   0.000000
     6  H    2.996523   2.256958   2.668728   3.384019   1.017864
     7  H    2.997594   2.255079   3.383041   2.663273   1.018408
     8  S    1.722211   3.032220   4.165359   3.118937   3.774615
     9  C    2.424832   4.165294   4.948494   4.635494   4.855825
    10  C    2.311388   4.024134   4.425626   4.859066   4.745859
    11  C    1.361469   2.786440   3.012869   3.848547   3.606105
    12  S    4.155734   5.857472   6.693881   6.148878   6.467325
    13  N    3.622361   5.253490   5.420581   6.175763   5.928276
    14  H    2.163118   3.035164   2.743279   4.294908   3.786824
    15  C    4.950977   6.720266   7.234090   7.237942   7.450520
    16  C    4.723072   6.443278   6.776128   7.244023   7.006808
    17  O    4.870275   6.487392   7.422980   6.833208   6.749803
    18  O    4.719846   6.281591   7.192433   6.255160   7.078841
    19  C    6.413898   8.183989   8.749224   8.639867   8.835887
    20  C    7.412471   9.167924   9.555044   9.673979   9.945071
    21  O    7.408745   9.100797   9.418721   9.498235  10.084177
    22  H    3.970994   5.419013   5.367616   6.512875   5.985627
    23  H    4.926771   6.642616   7.051012   7.088353   7.592044
    24  H    5.630455   7.307281   7.486004   8.167708   7.902669
    25  H    4.947846   6.627766   7.074177   7.458143   6.938723
    26  H    6.698361   8.436137   9.128669   8.715513   9.116642
    27  H    6.744564   8.504056   9.105348   9.039015   8.964227
    28  H    8.413209  10.177943  10.611879  10.652716  10.901047
    29  H    7.431217   9.163826   9.412633   9.817942   9.905794
    30  H    7.677363   9.352652   9.775434   9.610390  10.360740
                    6          7          8          9         10
     6  H    0.000000
     7  H    1.689873   0.000000
     8  S    4.195284   3.549307   0.000000
     9  C    4.952994   4.752140   1.732272   0.000000
    10  C    4.620836   4.901190   2.615088   1.380982   0.000000
[...]
 194244,0.00046019,0.00239274,0.00007758,-0.00116360,-0.00095103,0.0010
 8072,-0.00010321,0.00056106,-0.00033850,0.00073288,-0.00023293,0.00017
 718,-0.00025152,-0.00019853,0.00028134,0.00056650,-0.00067969,0.000734
 01,-0.00032943,0.06418219,0.07163402,-0.00028265,0.00004836,-0.0004179
 6,0.00010675,-0.00012349,0.00038522,-0.00006968,0.00002538,-0.00010825
 ,0.00006422,-0.00002989,-0.00017908,0.00001630,0.00012038,-0.00009409,
 0.00001095,-0.00002354,0.00001172,-0.00001677,-0.00001927,0.00002075,0
 .00038833,-0.00001192,-0.00023283,0.00006894,-0.00025025,0.00076528,-0
 .00458408,0.00260105,-0.00406556,0.00139654,-0.00030870,-0.00075725,-0
 .00112746,0.00064677,-0.00143208,0.02796256,0.00668559,-0.02839439,-0.
 00000652,0.00004242,0.00000079,-0.00148743,-0.00256383,0.00254994,0.11
 050288,0.03825256,-0.12132315,-0.00038504,0.00012381,0.00048343,-0.000
 69855,0.00011965,0.00059044,-0.00008022,0.00004508,0.00024979,-0.00068
 066,0.00108784,-0.00014586,0.00006569,-0.00039795,-0.00018096,0.000293
 70,0.00030449,0.00074861,0.00025450,-0.00003305,-0.00000931,-0.1235564
 5,-0.04500585,0.14543404,0.00020361,0.00004674,-0.00006605,0.00006316,
 -0.00017088,0.00045041,-0.00009656,0.00004426,-0.00013045,0.00002377,0
 .00001748,-0.00014726,0.00002380,0.00014270,-0.00011931,0.00001805,-0.
 00003626,0.00001531,-0.00001900,-0.00002693,0.00003207,0.00021178,-0.0
 0015359,-0.00041550,0.00031494,-0.00071936,0.00008246,-0.00098455,0.00
 060714,0.00199218,0.00004332,0.00002002,-0.00021614,0.00030109,0.00366
 573,0.00021759,-0.00176868,-0.00471359,-0.01121404,0.00000131,-0.00004
 284,0.00000837,0.00689393,0.02333058,0.00784878,-0.08122511,-0.0789020
 1,-0.02447459,-0.00038244,-0.00099019,-0.00023585,0.00020560,-0.000646
 40,0.00001529,0.00054858,-0.00026915,0.00124371,-0.00017347,-0.0000214
 0,0.00035808,0.00022076,0.00015317,-0.00031491,-0.00025929,-0.00079530
 ,-0.00053277,-0.00378457,0.00306705,-0.00032755,-0.00743198,-0.0234815
 9,-0.00811319,0.08679236,0.00033169,-0.00013680,-0.00003773,-0.0000030
 3,-0.00004560,0.00003329,0.00000352,0.00001670,-0.00001588,0.00000230,
 0.00001409,-0.00002307,0.00000488,0.00003040,-0.00000944,-0.00000106,-
 0.00000467,0.00000270,-0.00000601,-0.00000357,0.00000088,-0.00011086,-
 0.00005274,-0.00022701,0.00024173,-0.00015693,-0.00070860,0.00150383,0
 .00102494,-0.00055509,-0.00003495,-0.00033746,0.00021224,-0.00212721,-
 0.00377568,-0.00144978,0.00039640,0.01039730,0.00025565,0.00000802,0.0
 0003989,0.00003708,-0.00545725,-0.02309496,-0.00742263,-0.07570891,-0.
 24845427,-0.06918815,-0.00144816,0.00199707,0.00124270,0.00023765,0.00
 082687,0.00004655,-0.00040165,0.00032315,-0.00120632,-0.00012766,-0.00
 024192,-0.00000233,-0.00005959,0.00025936,0.00039447,0.00011403,0.0002
 5473,-0.00032805,0.00369940,-0.00149800,0.00085010,-0.00229445,-0.0063
 8648,-0.00187708,0.08072838,0.26864013,-0.00076678,0.00029226,0.000540
 96,-0.00000983,-0.00020504,0.00016532,-0.00002956,0.00004026,-0.000097
 04,0.00000737,0.00001252,-0.00009706,0.00001889,0.00010138,-0.00002208
 ,0.00000606,-0.00002510,-0.00000104,-0.00000628,-0.00002784,0.00002357
 ,0.00119419,-0.00015876,-0.00069825,0.00102224,0.00025907,0.00179684,-
 0.00715655,-0.00275121,0.00583070,0.00067242,0.00104977,-0.00170119,-0
 .00007172,-0.00126676,-0.00253474,-0.01331802,-0.02461408,-0.03031150,
 -0.00001393,-0.00018049,0.00007686,0.00223279,0.00115938,0.00141306,-0
 .02235345,-0.06860899,-0.07407420,-0.00006666,0.00030488,0.00068260,0.
 00008322,0.00011730,0.00056450,0.00033695,0.00069431,0.00100173,0.0002
 6081,0.00000248,-0.00011810,0.00000123,-0.00003835,-0.00006577,0.00012
 604,-0.00084198,-0.00034540,-0.00092151,0.00030843,0.00039765,0.004721
 30,0.01556331,0.00720413,0.03441805,0.07891384,0.09038106,-0.00002788,
 0.00000376,-0.00005945,-0.00000734,-0.00002068,0.00011319,-0.00001785,
 0.00000589,-0.00003567,0.00001723,-0.00000829,-0.00003817,0.00000702,0
 .00002349,-0.00002838,0.00000204,-0.00000672,0.00000602,-0.00000512,-0
 .00000429,0.00000733,0.00002478,0.00000306,-0.00003262,0.00002837,0.00
 015057,-0.00013059,-0.00017756,0.00005905,0.00012731,0.00001070,-0.000
 00954,-0.00005299,-0.00045832,-0.00000546,0.00095092,-0.00010443,0.000
 28835,-0.00009877,0.00000498,0.00000441,0.00000062,-0.00499773,0.00378
 967,-0.00149136,0.00070189,-0.00083531,-0.00080335,0.00000499,0.000158
 54,-0.00011296,-0.00015210,-0.00069607,0.00061975,-0.24351665,0.116582
 29,-0.00759725,-0.02312675,0.01304098,0.00139475,0.00309834,-0.0000530
 8,-0.00064602,0.00005372,0.00003574,-0.00006707,0.00000351,0.00012940,
 -0.00014290,0.00014268,-0.00016526,0.00011120,-0.00004660,0.00011777,-
 0.00001310,0.26451835,0.00006843,0.00000009,-0.00002195,0.00001441,0.0
 0002299,-0.00002521,-0.00000942,-0.00000320,0.00000758,-0.00001354,0.0
 0000210,0.00001769,-0.00000973,-0.00001185,0.00000705,0.00000197,0.000
 00264,-0.00000335,0.00000469,0.00000254,-0.00000224,-0.00011772,0.0000
 0177,0.00010815,-0.00031604,-0.00004380,-0.00018236,0.00059512,0.00006
 588,-0.00051292,-0.00010885,-0.00002082,0.00012608,0.00317648,-0.00068
 900,0.00241364,0.00039158,-0.00042070,0.00048829,-0.00000562,0.0000043
 0,-0.00001738,0.00349838,-0.00450494,0.00151194,-0.00012814,0.00092613
 ,0.00145895,-0.00075534,0.00013062,-0.00077349,-0.00065863,0.00021231,
 -0.00084797,0.11530514,-0.11887768,0.00248601,-0.01880888,0.00892029,-
 0.00020023,0.00098475,0.00266456,0.00033635,0.00000006,0.00002353,0.00
 023323,-0.00029076,0.00024328,0.00031288,-0.00011449,-0.00001584,-0.00
 008180,-0.00021803,0.00036699,-0.00007900,-0.12516544,0.12616912,-0.00
 011064,-0.00003312,0.00008507,-0.00000142,0.00003786,-0.00001338,0.000
 02304,-0.00000959,0.00000403,0.00000733,-0.00001406,-0.00001106,-0.000
 00004,-0.00000803,0.00000497,-0.00000265,0.00000035,0.00000194,-0.0000
 0164,0.00000014,0.00000220,0.00024598,-0.00003351,-0.00019928,0.000312
 49,-0.00049237,0.00039727,-0.00105906,-0.00014436,0.00106575,0.0001802
 5,0.00001535,-0.00022799,-0.00328071,0.00467057,-0.00190138,-0.0015830
 7,0.00181974,-0.00110414,0.00000840,0.00000338,0.00003882,-0.02793964,
 0.01951539,-0.00227347,0.00112790,-0.00152029,-0.00583597,0.00080974,-
 0.00007213,0.00010293,0.00098088,-0.00176034,0.00077682,-0.00584696,0.
 00184782,-0.04887432,0.01628384,-0.00940422,-0.00056117,-0.00163355,-0
 .00026292,-0.00024591,-0.00002458,0.00023272,-0.00067971,0.00014575,-0
 .00053413,0.00067611,0.00003701,-0.00036369,-0.00006555,-0.00000795,0.
 00023127,-0.00000534,0.00541143,-0.00868336,0.05845739,0.00003685,-0.0
 0000313,-0.00005919,0.00000728,0.00000610,0.00002209,-0.00001256,0.000
 00173,-0.00000378,-0.00000367,0.00000135,0.00000291,0.00000030,0.00000
 277,-0.00000766,0.00000293,-0.00000176,0.00000002,0.00000181,0.0000010
 8,-0.00000022,-0.00012002,0.00002160,0.00007301,-0.00015777,-0.0001671
 0,-0.00028050,0.00045683,-0.00000728,-0.00030886,-0.00006689,0.0000062
 6,0.00010304,0.00025601,0.00183722,0.00148204,-0.00017545,0.00005314,0
 .00058561,-0.00000096,0.00000291,-0.00001298,-0.00204714,-0.00659251,-
 0.00415870,0.00008234,-0.00091317,-0.00059075,-0.00041485,-0.00040292,
 -0.00073910,-0.00016184,-0.00060051,0.00036675,-0.05483088,-0.03302900
 ,-0.01832122,-0.00141094,-0.01838752,-0.01388360,-0.00345461,-0.004981
 46,0.00179105,0.00000885,0.00002633,0.00005154,0.00008340,0.00006898,-
 0.00136697,-0.00018546,-0.00010918,0.00002855,0.00013960,0.00029718,-0
 .00019137,0.00541065,0.02472147,0.01408453,0.05605580,0.00003143,0.000
 00076,-0.00003305,-0.00000974,-0.00002727,0.00005506,-0.00000727,0.000
 00861,-0.00001792,0.00000531,0.00000387,-0.00001599,0.00000708,0.00002
 184,-0.00001483,0.00000111,-0.00000489,0.00000336,-0.00000374,-0.00000
 322,0.00000335,-0.00005237,0.00000111,-0.00001306,0.00009465,0.0000494
 9,-0.00013683,0.00008950,0.00000624,-0.00005859,-0.00001412,-0.0000062
 7,0.00000526,-0.00024672,-0.00035531,-0.00013375,0.00003102,-0.0000922
 6,0.00001436,-0.00000042,-0.00000198,-0.00000098,0.00122042,0.00732929
 ,0.00333924,0.00045925,0.00096653,0.00068518,-0.00017886,-0.00024476,0
 .00077100,0.00002964,0.00024189,-0.00008890,-0.03292542,-0.24939264,-0
 .11265233,0.00162262,-0.01288418,-0.00949868,-0.00391743,-0.00215671,0
 .00179077,0.00000765,0.00002353,-0.00001978,0.00013186,-0.00002818,0.0
 0198709,-0.00009594,-0.00006420,-0.00031829,-0.00035538,0.00007651,-0.
 00003751,-0.00296431,-0.01370330,-0.00725654,0.03695428,0.26848519,0.0
 0002365,0.00001735,-0.00004808,-0.00000823,-0.00006612,0.00004866,-0.0
 0000912,0.00001743,-0.00001477,0.00000815,0.00001053,-0.00001464,0.000
 00367,0.00002326,-0.00000914,0.00000126,-0.00000435,-0.00000125,-0.000
 00314,-0.00000332,-0.00000020,-0.00002713,0.00004171,-0.00001735,0.000
 25867,0.00043809,-0.00010876,0.00015267,-0.00011765,0.00004124,-0.0000
 0861,-0.00000977,0.00006719,-0.00256884,-0.00448748,-0.00168278,0.0003
 4614,0.00032409,0.00050202,-0.00000071,-0.00000526,-0.00000368,-0.0046
 2611,-0.02689459,-0.01785413,0.00052950,-0.00158582,0.00074928,0.00010
 219,0.00131823,0.00197096,0.00050283,0.00066791,-0.00013183,-0.0176101
 9,-0.11047477,-0.11111708,-0.00079117,0.01269682,0.00911733,0.00373555
 ,0.00343379,-0.00023781,0.00002399,0.00007776,0.00006325,-0.00055837,0
 .00241813,-0.00515487,-0.00015720,0.00016728,0.00002039,-0.00039537,0.
 00095362,-0.00008391,0.00054584,0.00115302,0.00028313,0.02146063,0.121
 22276,0.12342738,-0.00008513,-0.00000942,0.00014975,0.00001088,0.00004
 733,-0.00014632,0.00004326,-0.00001147,0.00005114,-0.00001618,0.000005
 25,0.00004241,-0.00000686,-0.00002808,0.00003254,-0.00000390,0.0000074
 5,-0.00000475,0.00000565,0.00000504,-0.00000681,0.00017631,-0.00012093
 ,0.00002413,-0.00050472,-0.00019439,0.00042245,-0.00034918,0.00007103,
 0.00016415,0.00005392,0.00000126,-0.00008197,0.00161827,-0.00001226,0.
 00072238,0.00053907,0.00006820,-0.00031390,0.00000138,-0.00000459,0.00
 000796,-0.00394783,-0.00291497,0.00181507,-0.00068715,0.00015731,0.000
 24598,-0.00016068,-0.00017090,-0.00012546,-0.00029665,0.00028907,-0.00
 006341,0.00591684,-0.00710976,0.02455191,-0.07627301,0.02099985,-0.070
 73408,0.00002865,-0.00415804,-0.00873350,-0.00002810,-0.00006952,0.000
 04349,-0.00009182,0.00013794,-0.00005751,0.00040713,-0.00021798,0.0000
 3150,0.00010262,0.00005408,-0.00008421,0.00127119,0.00080859,-0.000225
 06,0.00074110,0.00027213,-0.00087193,0.07865513,-0.00004332,-0.0000329
 9,0.00021002,0.00001518,0.00009695,-0.00031669,0.00006743,-0.00002168,
 0.00010229,-0.00004067,0.00001068,0.00010028,-0.00002040,-0.00007438,0
 .00007830,-0.00000751,0.00001975,-0.00001570,0.00001417,0.00001299,-0.
 00001859,0.00011955,-0.00010074,0.00002311,-0.00044344,-0.00016774,0.0
 0038365,-0.00003337,0.00000424,0.00000464,-0.00001436,-0.00001448,0.00
 000053,0.00170340,0.00016194,0.00047818,0.00003301,0.00003487,0.000148
 72,0.00000059,-0.00000465,0.00000064,-0.00333956,-0.00163781,0.0012684
 6,-0.00027292,0.00029572,-0.00028098,-0.00030262,-0.00027814,-0.000171
 52,-0.00046215,0.00031365,0.00006056,0.00604293,-0.00222722,0.01603101
 ,0.02335855,-0.06688184,0.06101563,-0.01444651,-0.00451374,-0.03916497
 ,-0.00002265,-0.00000939,0.00002329,-0.00012826,-0.00015205,0.00005164
 ,-0.00023288,0.00016800,-0.00015222,-0.00006068,-0.00005833,0.00007335
 ,-0.00020470,0.00071520,-0.00068676,0.00053802,0.00019057,-0.00036293,
 -0.01516481,0.07423813,0.00003959,0.00003339,-0.00016592,-0.00002970,-
 0.00012181,0.00029363,-0.00004975,0.00003083,-0.00009210,0.00003823,0.
 00000292,-0.00009113,0.00002453,0.00008497,-0.00007551,0.00000729,-0.0
 0002122,0.00001544,-0.00001530,-0.00001351,0.00001832,-0.00010751,0.00
 006679,0.00000912,0.00030623,0.00013034,-0.00026985,0.00006269,-0.0000
 6383,0.00003470,-0.00000189,0.00001386,0.00000367,-0.00139150,-0.00020
 529,-0.00013791,-0.00011366,0.00006119,-0.00003380,-0.00000022,-0.0000
 0423,-0.00000056,0.00282639,0.00158346,0.00045869,0.00028814,-0.000181
 89,0.00020307,0.00034014,0.00033240,0.00005973,0.00038952,-0.00017964,
 -0.00003961,-0.00430573,0.00604289,-0.01394607,-0.06921902,0.05672884,
 -0.27160479,-0.00700848,-0.01070951,-0.01705444,0.00002332,-0.00000927
 ,-0.00002655,-0.00011434,-0.00032635,0.00038995,-0.00002282,-0.0000471
 6,-0.00001732,-0.00002746,0.00003797,-0.00003996,-0.00023274,-0.000783
 47,0.00029995,0.00030984,0.00056477,-0.00009925,0.07843782,-0.05395928
 ,0.29902973,-0.00006984,0.00000811,0.00005235,-0.00000997,0.00002897,-
 0.00003952,0.00002125,-0.00000921,0.00001271,0.00000733,-0.00001022,0.
 00000353,0.00000010,-0.00001321,0.00000888,-0.00000353,0.00000339,0.00
 000025,-0.00000051,0.00000167,-0.00000066,0.00012502,-0.00002685,-0.00
 006923,0.00005757,-0.00009761,0.00017639,-0.00049170,0.00004729,0.0002
 3020,0.00010356,0.00000455,-0.00011112,-0.00050563,0.00057402,-0.00080
 313,0.00083570,-0.00000661,-0.00053856,0.00000120,0.00000097,0.0000123
 5,0.00015358,0.00040733,-0.00101108,-0.00062108,0.00019904,0.00049503,
 0.00013556,-0.00017429,0.00028501,0.00023432,-0.00034210,0.00031213,-0
 .02060414,0.01035999,0.00074368,-0.25552338,0.12060965,0.01021534,0.01
 057018,-0.00463577,-0.00020118,-0.00002387,-0.00008558,0.00006361,-0.0
 0002521,-0.00004546,0.00013776,0.00102360,0.00009600,-0.00018648,0.000
 07161,0.00001352,-0.00007880,-0.00176371,-0.00331655,0.00231906,0.0004
 0338,-0.00024294,-0.00016056,-0.00741588,0.00435720,0.00013630,0.27172
 410,0.00000466,0.00000196,-0.00000101,0.00000923,-0.00001406,-0.000006
 73,-0.00000499,0.00000323,0.00000047,-0.00000460,0.00000579,0.00000218
 ,-0.00000155,0.00000432,-0.00000037,0.00000079,-0.00000025,0.00000004,
 0.00000029,-0.00000083,-0.00000005,-0.00000837,0.00000316,-0.00000885,
 0.00005815,0.00002565,-0.00002827,-0.00000729,-0.00000142,-0.00001080,
 0.00000988,0.00001024,0.00000364,-0.00043379,0.00018724,-0.00038988,-0
 .00003281,-0.00001631,-0.00012041,0.00000090,-0.00000114,-0.00000033,0
 .00061677,0.00037391,-0.00058501,0.00027772,-0.00023960,0.00050095,0.0
 0010955,0.00002477,0.00008329,0.00012167,-0.00011340,0.00017866,-0.016
 83943,0.01084211,0.00094873,0.11075785,-0.11037520,-0.00352490,0.02648
 122,-0.03013897,-0.00707328,0.00001421,0.00002462,-0.00001180,0.000047
 73,-0.00010288,0.00017369,0.00005830,-0.00045524,0.00109624,-0.0001214
 1,-0.00008315,-0.00001272,-0.00296224,-0.00159936,0.00260851,0.0009269
 0,0.00069981,-0.00067324,0.00737628,-0.00247698,0.00078608,-0.12471479
 ,0.13737541,0.00003410,-0.00001479,0.00004202,0.00000762,0.00004007,-0
 .00012336,0.00001669,-0.00000888,0.00003872,-0.00001982,0.00000402,0.0
 0004341,-0.00001098,-0.00003496,0.00003483,-0.00000260,0.00000906,-0.0
 0000763,0.00000662,0.00000642,-0.00000893,-0.00005151,0.00000765,0.000
 04266,-0.00009507,-0.00000175,-0.00001502,0.00033142,-0.00004228,-0.00
 020453,-0.00006493,-0.00001061,0.00008188,0.00062370,-0.00013818,0.000
 21646,-0.00040140,-0.00019681,0.00043473,-0.00000115,0.00000194,-0.000
 00790,0.00030024,-0.00104255,0.00077485,0.00035883,0.00056320,-0.00065
 977,-0.00020167,-0.00006917,-0.00014511,-0.00028406,0.00024567,-0.0000
 6113,0.01471059,-0.00720254,-0.00037321,0.00487751,-0.00002944,-0.0541
 1915,0.01629824,-0.01693504,-0.00130350,0.00001208,0.00006382,0.000008
 61,-0.00002238,-0.00007836,-0.00010983,-0.00038700,0.00114380,-0.00102
 809,-0.00008622,-0.00005947,0.00011368,0.00243388,0.00157133,-0.000731
 99,-0.00064134,-0.00008907,0.00048078,-0.02660869,0.01531711,0.0027637
 6,-0.01095413,0.01041664,0.05574838,0.00002272,0.00001315,-0.00006992,
 0.00002133,-0.00004015,0.00015322,-0.00004108,0.00000825,-0.00004783,0
 .00000704,-0.00000076,-0.00004570,0.00000517,0.00003412,-0.00004028,0.
 00000491,-0.00000949,0.00000898,-0.00000455,-0.00000672,0.00000927,-0.
 00003509,0.00000151,0.00003789,-0.00008539,0.00005194,-0.00006059,0.00
 007176,0.00004028,-0.00004165,-0.00002536,-0.00001455,0.00001320,0.000
 38873,-0.00064672,0.00026202,-0.00015402,0.00000804,0.00000897,0.00000
 081,0.00000333,-0.00000278,-0.00037089,0.00014380,0.00000343,0.0001020
 8,-0.00001743,-0.00006365,-0.00005905,0.00014856,-0.00000563,-0.000129
 17,0.00046505,-0.00020957,0.00258787,-0.00180373,-0.00079212,0.0063559
 7,-0.01236092,-0.00176704,-0.33402086,0.25363539,-0.02120367,0.0000148
 9,0.00002263,-0.00002090,0.00013797,0.00007827,0.00010214,-0.00005019,
 0.00000024,-0.00002744,-0.00000762,0.00002641,-0.00001979,-0.00089842,
 0.00046611,-0.00026064,-0.00064409,0.00005671,0.00010194,0.00029570,-0
 .00100925,-0.00058990,0.00159039,-0.00174085,-0.00017858,0.32491843,0.
 00001756,0.00003878,-0.00024479,-0.00001867,-0.00010450,0.00050293,-0.
 00009049,0.00002348,-0.00015312,0.00006558,-0.00002587,-0.00015862,0.0
 0003087,0.00010592,-0.00013176,0.00001121,-0.00002990,0.00002885,-0.00
 002170,-0.00001839,0.00003257,-0.00007479,0.00004197,0.00003750,0.0000
 7432,0.00010676,-0.00023495,-0.00006924,-0.00005043,0.00012939,0.00000
 804,0.00001202,-0.00003184,-0.00072143,-0.00060707,0.00103327,-0.00013
 915,0.00010504,-0.00021761,0.00000245,0.00000660,0.00000234,-0.0001552
 0,-0.00016146,0.00025004,0.00049096,0.00007176,0.00005959,0.00029207,0
 .00032811,-0.00025152,0.00033541,0.00010662,-0.00041244,0.00077899,0.0
 0047662,0.00092320,0.03133389,-0.02424616,0.00160199,0.20998740,-0.209
 55365,-0.00896714,0.00004229,0.00003744,-0.00005725,0.00015862,-0.0005
 3084,0.00060201,-0.00001997,-0.00004401,-0.00000250,-0.00009825,0.0000
 6242,-0.00004472,-0.00129158,-0.00058387,0.00029631,-0.00027177,0.0008
 5990,-0.00029647,-0.00011367,0.00238947,0.00012576,-0.00299054,-0.0039
 6342,-0.00343681,-0.23755321,0.23514668,-0.00003411,-0.00003521,0.0000
 9813,0.00000242,0.00015747,-0.00026686,0.00004835,-0.00004027,0.000081
 21,-0.00002175,-0.00002729,0.00008096,-0.00002279,-0.00009846,0.000074
 69,-0.00000925,0.00002204,-0.00001692,0.00001493,0.00001529,-0.0000186
 0,0.00006444,0.00001922,-0.00005728,0.00008820,-0.00014108,0.00007492,
 -0.00009618,0.00003105,0.00005933,0.00001777,-0.00000135,-0.00002395,-
 0.00009173,0.00114057,-0.00019731,0.00008014,0.00000941,-0.00003325,-0
 .00000203,0.00000992,0.00000338,0.00040524,0.00052261,0.00003098,-0.00
 026786,-0.00033197,-0.00013154,-0.00009446,-0.00036422,-0.00009653,-0.
 00007591,-0.00070298,0.00010413,-0.00085958,0.00112634,0.00042146,0.01
 920762,-0.01782443,-0.00135710,-0.04319899,0.01165827,-0.01661452,-0.0
 0003757,-0.00002807,0.00001378,-0.00036975,0.00077188,-0.00059776,0.00
 003337,-0.00013598,-0.00001280,0.00014232,-0.00010175,0.00000292,-0.00
 013887,-0.00001744,0.00053428,0.00020463,-0.00005611,-0.00019204,0.001
 31492,-0.00024177,0.00011500,-0.00105014,-0.00435147,-0.00192562,0.024
 74664,0.00901579,0.01984691\\0.00000074,0.00000261,0.00001281,-0.00000
 517,-0.00000375,-0.00000359,-0.00000053,0.00000896,0.00000024,0.000000
 38,0.00000350,-0.00000335,0.00000061,-0.00000958,-0.00000302,-0.000000
 05,-0.00000052,-0.00000430,-0.00000269,0.00000078,0.00000203,0.0000024
 2,-0.00000265,-0.00000359,-0.00000589,0.00000172,0.00001591,0.00000361
 ,-0.00001076,0.00000149,0.00000320,0.00000146,-0.00000920,0.00000099,0
 .00000589,-0.00001142,-0.00000231,0.00000297,-0.00000408,-0.00000069,0
 .00000091,0.00000286,-0.00001188,0.00000460,-0.00000416,0.00000538,-0.
 00000429,0.00000776,0.00000386,0.00000488,0.00000059,-0.00000013,-0.00
 000850,-0.00000111,-0.00000290,-0.00000075,0.00000150,0.00000389,0.000
 00625,0.00000140,-0.00000014,-0.00000289,0.00000053,0.00000209,0.00000
 126,0.00000285,0.00000023,-0.00000097,0.00000270,-0.00000052,-0.000001
 11,-0.00000015,0.00000172,0.00000137,-0.00000046,0.00000246,-0.0000010
 8,-0.00000066,0.00000498,-0.00000104,-0.00000231,-0.00000093,-0.000000
 84,-0.00000086,-0.00000130,-0.00000003,0.00000046,-0.00000142,0.000001
 58,-0.00000089\\\@
 The archive entry for this job was punched.


 IN NATURE THERE ARE NEITHER REWARDS OR
 PUNISHMENTS -- THERE ARE CONSEQUENCES.

                            -- ROBERT GREEN INGERSOLL
 Job cpu time:       0 days  3 hours  4 minutes 22.7 seconds.
 Elapsed time:       0 days  0 hours 11 minutes 35.5 seconds.
 File lengths (MBytes):  RWF=    502 Int=      0 D2E=      0 Chk=     13 Scr=      1
 Normal termination of Gaussian 16 at Sun Jun 12 21:57:32 2022.
